/*--------------------------------*- C++ -*----------------------------------*\
| =========                 |                                                 |
| \\      /  F ield         | OpenFOAM: The Open Source CFD Toolbox           |
|  \\    /   O peration     | Version:  2312                                  |
|   \\  /    A nd           | Website:  www.openfoam.com                      |
|    \\/     M anipulation  |                                                 |
\*---------------------------------------------------------------------------*/
FoamFile
{
    version     2.0;
    format      ascii;
    arch        "LSB;label=32;scalar=64";
    class       volVectorField;
    location    "0.05";
    object      U;
}
// * * * * * * * * * * * * * * * * * * * * * * * * * * * * * * * * * * * * * //

dimensions      [0 1 -1 0 0 0 0];

internalField   nonuniform List<vector> 
3250
(
(3.7664644 0.0092840398 0)
(3.7104396 0.0092195938 0)
(3.6554414 0.0091667713 0)
(3.601358 0.009125941 0)
(3.5486375 0.0090880692 0)
(3.4964302 0.008982184 0)
(3.4445916 0.0089649163 0)
(3.3937971 0.0089389018 0)
(3.3435979 0.008913401 0)
(3.2940581 0.0088887178 0)
(3.2450984 0.0088653673 0)
(3.1966864 0.0088435553 0)
(3.1487883 0.0088232777 0)
(3.1013743 0.0088039616 0)
(3.054423 0.0087848048 0)
(3.0079004 0.0087637139 0)
(2.9618185 0.0087385955 0)
(2.9160602 0.0087422041 0)
(2.8706174 0.0087180087 0)
(2.8255602 0.0086988157 0)
(2.7808166 0.0086783631 0)
(2.7363807 0.0086582761 0)
(2.6922337 0.0086373687 0)
(2.6483611 0.0086150013 0)
(2.6047478 0.008590522 0)
(2.5613794 0.0085638589 0)
(2.5181142 0.008538328 0)
(2.4752117 0.0085191722 0)
(2.4326722 0.0084876225 0)
(2.3901826 0.0084533964 0)
(2.347865 0.008417441 0)
(2.3057456 0.0083799134 0)
(2.2638076 0.0083404458 0)
(2.2220463 0.0082987993 0)
(2.1804552 0.0082548274 0)
(2.1390293 0.0082084281 0)
(2.0977639 0.0081595373 0)
(2.0566568 0.0081081032 0)
(2.0156999 0.0080541211 0)
(1.9749063 0.0079975474 0)
(1.9342913 0.0079383941 0)
(1.8938139 0.0078766498 0)
(1.8534672 0.0078127815 0)
(1.8132757 0.0077465444 0)
(1.7732358 0.0076765734 0)
(1.73335 0.0076044149 0)
(1.6936231 0.0075305163 0)
(1.6540598 0.0074531383 0)
(1.6146636 0.0073735357 0)
(3.7654396 0.026318948 0)
(3.7094679 0.026080535 0)
(3.6545208 0.025873726 0)
(3.6004845 0.025697403 0)
(3.5477759 0.025553841 0)
(3.4956097 0.025186613 0)
(3.4438376 0.025078996 0)
(3.3930734 0.024953685 0)
(3.3429048 0.024827299 0)
(3.2933948 0.024702527 0)
(3.2444639 0.024581607 0)
(3.1960797 0.024465072 0)
(3.1482079 0.024352795 0)
(3.1008187 0.024243618 0)
(3.0538902 0.024135833 0)
(3.0073879 0.024024398 0)
(2.9613338 0.023903429 0)
(2.915596 0.023830406 0)
(2.8701672 0.023708016 0)
(2.8251306 0.023601907 0)
(2.7804046 0.023489244 0)
(2.735986 0.023376112 0)
(2.6918551 0.023259867 0)
(2.6479975 0.023139162 0)
(2.6043982 0.0230124 0)
(2.5610438 0.022877227 0)
(2.5177987 0.022734031 0)
(2.4749082 0.02264968 0)
(2.4323746 0.022488615 0)
(2.3898981 0.022332879 0)
(2.3475924 0.022174186 0)
(2.3054843 0.022010993 0)
(2.2635572 0.021842447 0)
(2.2218062 0.021668008 0)
(2.1802249 0.021487383 0)
(2.1388084 0.021300408 0)
(2.0975521 0.021107008 0)
(2.0564537 0.020907151 0)
(2.0155053 0.020700912 0)
(1.9747199 0.020488296 0)
(1.9341129 0.020269449 0)
(1.8936431 0.020044468 0)
(1.8533039 0.019813682 0)
(1.8131195 0.019576963 0)
(1.7730864 0.019333684 0)
(1.7332077 0.019085402 0)
(1.6934874 0.018832558 0)
(1.6539303 0.018573985 0)
(1.6145402 0.018310094 0)
(3.7633821 0.043326904 0)
(3.7075159 0.042914746 0)
(3.6526693 0.042551826 0)
(3.5987303 0.042233547 0)
(3.5460458 0.041973898 0)
(3.4939596 0.041394889 0)
(3.4423204 0.041189706 0)
(3.3916156 0.04095626 0)
(3.3415084 0.040726256 0)
(3.292058 0.040500873 0)
(3.2431849 0.040282642 0)
(3.1948558 0.040071871 0)
(3.1470366 0.039868167 0)
(3.0996971 0.039669851 0)
(3.0528144 0.039474418 0)
(3.0063532 0.039274171 0)
(2.9603506 0.039059824 0)
(2.9146531 0.03890386 0)
(2.8692563 0.03868586 0)
(2.8242604 0.038493532 0)
(2.7795691 0.038289712 0)
(2.7351848 0.038084122 0)
(2.6910858 0.037873043 0)
(2.6472582 0.037654592 0)
(2.6036867 0.037426526 0)
(2.5603577 0.037184369 0)
(2.5171573 0.0369228 0)
(2.4742907 0.036769085 0)
(2.4317644 0.036480749 0)
(2.3893161 0.036204125 0)
(2.3470346 0.035923324 0)
(2.3049491 0.035634892 0)
(2.2630434 0.035337582 0)
(2.2213129 0.035030602 0)
(2.1797513 0.034713549 0)
(2.1383537 0.034386201 0)
(2.0971156 0.034048487 0)
(2.0560348 0.033700386 0)
(2.0151033 0.033342075 0)
(1.9743344 0.032973576 0)
(1.9337432 0.032595172 0)
(1.8932888 0.032207069 0)
(1.8529645 0.031809466 0)
(1.8127944 0.031402535 0)
(1.7727754 0.030986197 0)
(1.7329106 0.030561907 0)
(1.6932036 0.030130178 0)
(1.6536591 0.029690365 0)
(1.6142815 0.029242439 0)
(3.7602933 0.060290424 0)
(3.7045837 0.059705308 0)
(3.6498851 0.05918354 0)
(3.5960882 0.058715738 0)
(3.5434607 0.058320537 0)
(3.4914939 0.057609796 0)
(3.4400322 0.057288069 0)
(3.3894202 0.056935451 0)
(3.3394078 0.056599339 0)
(3.2900478 0.056273156 0)
(3.2412613 0.055958229 0)
(3.193015 0.055654095 0)
(3.1452746 0.055359918 0)
(3.0980096 0.055073607 0)
(3.0511961 0.054792138 0)
(3.0047971 0.054506092 0)
(2.9588671 0.054204345 0)
(2.9132298 0.053950389 0)
(2.867885 0.053643351 0)
(2.8229496 0.053365907 0)
(2.77831 0.053072861 0)
(2.7339767 0.052775714 0)
(2.6899256 0.052470547 0)
(2.646143 0.052155216 0)
(2.6026134 0.051827264 0)
(2.559322 0.051481979 0)
(2.5161866 0.051112811 0)
(2.4733569 0.050858385 0)
(2.430843 0.050456157 0)
(2.3884366 0.050061621 0)
(2.3461911 0.049659789 0)
(2.3041394 0.049246795 0)
(2.2622659 0.048821198 0)
(2.220566 0.04838208 0)
(2.1790339 0.047928956 0)
(2.1376646 0.047461573 0)
(2.0964539 0.046979861 0)
(2.0553994 0.046483817 0)
(2.0144934 0.045973735 0)
(1.973749 0.045449619 0)
(1.9331817 0.044911898 0)
(1.8927504 0.044360921 0)
(1.8524484 0.04379675 0)
(1.8123 0.043219974 0)
(1.7723021 0.042630822 0)
(1.7324581 0.042030702 0)
(1.6927711 0.041420264 0)
(1.6532458 0.040799297 0)
(1.6138869 0.040167732 0)
(3.7561755 0.077192033 0)
(3.7006722 0.076435949 0)
(3.6461667 0.075754515 0)
(3.592555 0.075132893 0)
(3.54003 0.074596917 0)
(3.4882209 0.07380373 0)
(3.4369675 0.073355672 0)
(3.3864843 0.072878486 0)
(3.3366022 0.072435524 0)
(3.2873637 0.07200898 0)
(3.238693 0.071598382 0)
(3.1905571 0.071202108 0)
(3.1429216 0.070818703 0)
(3.0957561 0.07044579 0)
(3.0490354 0.07008007 0)
(3.0027211 0.069711694 0)
(2.9568802 0.069334128 0)
(2.9113229 0.068956531 0)
(2.8660543 0.068574934 0)
(2.8211975 0.068212027 0)
(2.7766265 0.067832078 0)
(2.7323605 0.067444471 0)
(2.688373 0.067046178 0)
(2.6446508 0.066635063 0)
(2.6011778 0.066208828 0)
(2.5579394 0.065764061 0)
(2.5148804 0.0652981 0)
(2.4721006 0.06491365 0)
(2.4296133 0.064409056 0)
(2.3872588 0.063899931 0)
(2.3450607 0.063378508 0)
(2.3030538 0.062841834 0)
(2.2612229 0.062288619 0)
(2.219564 0.061717918 0)
(2.1780711 0.061129226 0)
(2.1367397 0.060522273 0)
(2.0955653 0.059897004 0)
(2.054546 0.059253435 0)
(2.013674 0.058591979 0)
(1.9729625 0.057912633 0)
(1.932427 0.057215963 0)
(1.8920264 0.056502438 0)
(1.8517543 0.055772077 0)
(1.8116347 0.055025866 0)
(1.7716652 0.054264233 0)
(1.7318487 0.053488582 0)
(1.6921885 0.052699725 0)
(1.6526889 0.051897835 0)
(1.6133552 0.051083048 0)
(3.7513293 0.093050897 0)
(3.6960666 0.092137284 0)
(3.6417851 0.091307858 0)
(3.5883884 0.090541999 0)
(3.5360123 0.089875851 0)
(3.4843872 0.089022281 0)
(3.4333502 0.088453479 0)
(3.3830228 0.087860714 0)
(3.3332973 0.087318459 0)
(3.284203 0.086798593 0)
(3.2356691 0.086299467 0)
(3.1876633 0.085817932 0)
(3.1401516 0.085351913 0)
(3.0931037 0.084898917 0)
(3.0464931 0.084455114 0)
(3.0002821 0.084009393 0)
(2.9545345 0.083563949 0)
(2.9090726 0.083068016 0)
(2.8639039 0.082624796 0)
(2.8191354 0.082177933 0)
(2.7746453 0.081717259 0)
(2.7304582 0.081245287 0)
(2.6865456 0.080760218 0)
(2.6428947 0.080259892 0)
(2.5994895 0.079742216 0)
(2.556316 0.079205015 0)
(2.5133362 0.078648701 0)
(2.4706157 0.078139619 0)
(2.4281705 0.077538959 0)
(2.3858741 0.076922892 0)
(2.343731 0.076290039 0)
(2.3017765 0.075637586 0)
(2.2599959 0.074964807 0)
(2.2183851 0.074270716 0)
(2.1769385 0.073554823 0)
(2.1356516 0.072816858 0)
(2.0945202 0.072056776 0)
(2.0535424 0.07127467 0)
(2.0127104 0.070470914 0)
(1.9720376 0.069645745 0)
(1.9315396 0.068799744 0)
(1.8911753 0.067933252 0)
(1.8509383 0.067046758 0)
(1.810853 0.066141237 0)
(1.7709167 0.065217402 0)
(1.7311328 0.064276656 0)
(1.6915041 0.063319971 0)
(1.652035 0.062347858 0)
(1.612731 0.061360764 0)
(3.745918 0.10807658 0)
(3.6909237 0.10701706 0)
(3.6368916 0.10605023 0)
(3.5837346 0.10515104 0)
(3.5315452 0.10436617 0)
(3.4801255 0.10345603 0)
(3.4293115 0.10277461 0)
(3.3791614 0.10207712 0)
(3.3296124 0.1014423 0)
(3.2806802 0.10083528 0)
(3.2323003 0.10025364 0)
(3.1844405 0.099692654 0)
(3.137068 0.099149519 0)
(3.0901522 0.098621815 0)
(3.0436654 0.098104532 0)
(2.9975719 0.097583614 0)
(2.9519254 0.097069523 0)
(2.9065726 0.096480913 0)
(2.8615188 0.095976537 0)
(2.8168463 0.09544738 0)
(2.7724486 0.094909971 0)
(2.7283498 0.094358343 0)
(2.6845216 0.093791553 0)
(2.640951 0.093207253 0)
(2.5976227 0.092603537 0)
(2.5545232 0.091979015 0)
(2.5116251 0.091334675 0)
(2.4689719 0.090713161 0)
(2.426581 0.090018474 0)
(2.3843486 0.089301093 0)
(2.3422669 0.088563179 0)
(2.3003711 0.087801217 0)
(2.2586468 0.087015285 0)
(2.21709 0.086204332 0)
(2.1756954 0.08536791 0)
(2.1344586 0.084505762 0)
(2.0933754 0.083617846 0)
(2.0524441 0.082704365 0)
(2.0116571 0.081765555 0)
(1.9710278 0.080802053 0)
(1.9305718 0.07981438 0)
(1.8902483 0.078802574 0)
(1.8500508 0.077767941 0)
(1.8100038 0.076711153 0)
(1.7701049 0.075633287 0)
(1.7303574 0.074535751 0)
(1.6907641 0.073419662 0)
(1.6513293 0.072285849 0)
(1.6120586 0.071135081 0)
(3.7395198 0.12342564 0)
(3.6848422 0.12222169 0)
(3.6311046 0.12111873 0)
(3.5782312 0.12008824 0)
(3.526281 0.11918774 0)
(3.4751036 0.11821469 0)
(3.4245365 0.11742207 0)
(3.3745981 0.11662405 0)
(3.3252583 0.1158969 0)
(3.276519 0.11520305 0)
(3.2283221 0.11453901 0)
(3.1806359 0.11389857 0)
(3.1334287 0.11327808 0)
(3.0866699 0.11267562 0)
(3.0403296 0.11208388 0)
(2.9943761 0.1114855 0)
(2.9488504 0.11089832 0)
(2.9036288 0.11023305 0)
(2.8587099 0.10965977 0)
(2.8141497 0.10904785 0)
(2.769863 0.10843165 0)
(2.7258691 0.10779908 0)
(2.6821413 0.10714938 0)
(2.6386666 0.10647989 0)
(2.59543 0.10578874 0)
(2.5524188 0.10507487 0)
(2.509612 0.10433917 0)
(2.467039 0.10360839 0)
(2.4247185 0.10281552 0)
(2.3825616 0.10199437 0)
(2.3405525 0.10114927 0)
(2.2987261 0.10027566 0)
(2.2570685 0.099374256 0)
(2.2155759 0.098443982 0)
(2.174243 0.097484426 0)
(2.1330655 0.096495352 0)
(2.0920396 0.095476732 0)
(2.0511636 0.094428872 0)
(2.01043 0.093351901 0)
(1.9698525 0.092246823 0)
(1.9294464 0.091114116 0)
(1.8891712 0.089953572 0)
(1.8490207 0.088767237 0)
(1.8090193 0.087555547 0)
(1.7691648 0.086319899 0)
(1.7294604 0.085061738 0)
(1.6899091 0.083782345 0)
(1.650515 0.082482843 0)
(1.6112841 0.081164336 0)
(3.732063 0.13908823 0)
(3.677753 0.13774253 0)
(3.624357 0.13650582 0)
(3.5718134 0.1353474 0)
(3.520155 0.1343338 0)
(3.4692585 0.13329362 0)
(3.4189672 0.13239115 0)
(3.3692773 0.13149737 0)
(3.3201813 0.13067898 0)
(3.2716675 0.12989928 0)
(3.2236843 0.12915344 0)
(3.1762007 0.12843402 0)
(3.1291866 0.12773634 0)
(3.0826109 0.12705959 0)
(3.0364408 0.12639301 0)
(2.9906508 0.1257167 0)
(2.9452698 0.12505478 0)
(2.9002015 0.1243221 0)
(2.8554365 0.12367324 0)
(2.8110069 0.12298004 0)
(2.7668507 0.12228367 0)
(2.7229795 0.12156921 0)
(2.679369 0.12083562 0)
(2.6360065 0.12007993 0)
(2.5928774 0.1193002 0)
(2.5499697 0.1184954 0)
(2.5072663 0.11766589 0)
(2.464787 0.11682693 0)
(2.4225521 0.11593279 0)
(2.3804831 0.11500582 0)
(2.3385587 0.11405152 0)
(2.2968131 0.11306421 0)
(2.2552335 0.11204511 0)
(2.2138158 0.11099314 0)
(2.1725549 0.10990792 0)
(2.1314468 0.10878924 0)
(2.0904879 0.1076371 0)
(2.0496765 0.1064519 0)
(2.0090054 0.10523372 0)
(1.9684883 0.10398384 0)
(1.9281406 0.10270275 0)
(1.8879219 0.1013901 0)
(1.8478263 0.10004849 0)
(1.8078782 0.098678273 0)
(1.7680755 0.097281094 0)
(1.7284216 0.095858474 0)
(1.6889192 0.094411869 0)
(1.6495728 0.092942685 0)
(1.6103884 0.091452352 0)
(3.7234739 0.15505251 0)
(3.6695853 0.15356902 0)
(3.6165808 0.15220247 0)
(3.5644157 0.15092056 0)
(3.5131021 0.14979809 0)
(3.4625269 0.14868496 0)
(3.4125445 0.14767515 0)
(3.3631425 0.14669072 0)
(3.3143263 0.14578338 0)
(3.2660725 0.14491962 0)
(3.2183354 0.14409336 0)
(3.171085 0.14329609 0)
(3.1242933 0.14252185 0)
(3.0779283 0.14177192 0)
(3.0319537 0.14103035 0)
(2.986352 0.14027761 0)
(2.9411418 0.1395408 0)
(2.8962495 0.13874551 0)
(2.8516574 0.13801619 0)
(2.8073792 0.13724381 0)
(2.7633734 0.13646654 0)
(2.7196437 0.1356696 0)
(2.6761688 0.1348514 0)
(2.6329358 0.13400868 0)
(2.5899308 0.13313933 0)
(2.5471424 0.13224217 0)
(2.5045561 0.13131677 0)
(2.462185 0.13037106 0)
(2.4200507 0.12937303 0)
(2.378083 0.12833814 0)
(2.3362562 0.12727269 0)
(2.2946037 0.12616973 0)
(2.2531139 0.1250308 0)
(2.2117824 0.12385484 0)
(2.1706046 0.1226415 0)
(2.1295767 0.12139062 0)
(2.0886949 0.12010223 0)
(2.0479581 0.11877679 0)
(2.0073591 0.11741439 0)
(1.9669118 0.11601655 0)
(1.9266313 0.11458378 0)
(1.8864779 0.11311569 0)
(1.8464458 0.11161528 0)
(1.8065591 0.11008292 0)
(1.7668163 0.10852047 0)
(1.7272206 0.10692957 0)
(1.6877749 0.10531186 0)
(1.6484836 0.103669 0)
(1.609353 0.10200275 0)
(3.7136768 0.17130406 0)
(3.6602664 0.16968789 0)
(3.6077057 0.16819578 0)
(3.5559707 0.166798 0)
(3.505055 0.1655713 0)
(3.4548431 0.16438092 0)
(3.4052076 0.16326664 0)
(3.3561353 0.16219672 0)
(3.3076365 0.16120365 0)
(3.2596788 0.16025846 0)
(3.212222 0.15935388 0)
(3.1652369 0.1584806 0)
(3.1186988 0.15763098 0)
(3.0725734 0.15680954 0)
(3.0268209 0.15599295 0)
(2.981434 0.15516716 0)
(2.9364224 0.154355 0)
(2.891729 0.15350177 0)
(2.8473302 0.15268791 0)
(2.8032258 0.15183799 0)
(2.7593912 0.15097982 0)
(2.7158232 0.15010024 0)
(2.6725028 0.14919705 0)
(2.6294176 0.14826673 0)
(2.5865543 0.14730694 0)
(2.5439021 0.14631627 0)
(2.5014477 0.14529346 0)
(2.4591999 0.14424196 0)
(2.4171819 0.14313812 0)
(2.3753298 0.14199334 0)
(2.3336142 0.14081497 0)
(2.2920677 0.1395945 0)
(2.2506803 0.1383337 0)
(2.2094473 0.13703157 0)
(2.1683643 0.13568779 0)
(2.1274277 0.13430221 0)
(2.0866341 0.13287491 0)
(2.0459823 0.13140641 0)
(2.0054656 0.12989687 0)
(1.9650981 0.12834797 0)
(1.9248945 0.1267603 0)
(1.8848156 0.12513345 0)
(1.844856 0.12347076 0)
(1.8050396 0.12177268 0)
(1.7653651 0.12004128 0)
(1.7258359 0.1182783 0)
(1.6864549 0.11648558 0)
(1.6472267 0.11466507 0)
(1.6081576 0.11281883 0)
(3.7025942 0.18782582 0)
(3.649721 0.18608302 0)
(3.5976604 0.18446934 0)
(3.5464096 0.1829696 0)
(3.4959448 0.18164253 0)
(3.4461405 0.18037113 0)
(3.3968938 0.17915666 0)
(3.3481954 0.17800643 0)
(3.300053 0.17693182 0)
(3.2524293 0.17590862 0)
(3.2052886 0.17492869 0)
(3.1586026 0.17398216 0)
(3.1123507 0.17305892 0)
(3.0664952 0.17216846 0)
(3.0209938 0.17127725 0)
(2.9758494 0.17038318 0)
(2.9310662 0.16949551 0)
(2.8865952 0.16858612 0)
(2.8424101 0.16768703 0)
(2.7985045 0.16676074 0)
(2.7548628 0.16582225 0)
(2.7114775 0.16486028 0)
(2.6683319 0.16387206 0)
(2.6254138 0.16285386 0)
(2.5827107 0.16180311 0)
(2.5402122 0.16071806 0)
(2.4979061 0.1595968 0)
(2.4557977 0.15844017 0)
(2.4139119 0.15722928 0)
(2.3721906 0.15597274 0)
(2.3306007 0.15467987 0)
(2.2891741 0.15334019 0)
(2.2479024 0.15195563 0)
(2.2067807 0.15052529 0)
(2.1658049 0.14904885 0)
(2.1249716 0.14752619 0)
(2.0842777 0.14595744 0)
(2.0437222 0.14434319 0)
(2.0032987 0.14268365 0)
(1.9630214 0.14098068 0)
(1.9229048 0.13923495 0)
(1.8829103 0.1374461 0)
(1.8430328 0.13561771 0)
(1.803296 0.13375039 0)
(1.763699 0.13184637 0)
(1.7242452 0.12990754 0)
(1.6849376 0.12793597 0)
(1.6457808 0.12593385 0)
(1.6067817 0.12390354 0)
(3.6901461 0.20459809 0)
(3.6378715 0.20273592 0)
(3.5863724 0.20100669 0)
(3.5356628 0.19942146 0)
(3.4857002 0.19799772 0)
(3.4363503 0.19664198 0)
(3.3875384 0.19533533 0)
(3.3392602 0.19410943 0)
(3.2915151 0.19295831 0)
(3.2442651 0.19186143 0)
(3.1974782 0.19080999 0)
(3.1511264 0.18979394 0)
(3.1051953 0.18879953 0)
(3.0596413 0.18784295 0)
(3.0144219 0.18687939 0)
(2.9695492 0.18592083 0)
(2.9250241 0.18496143 0)
(2.8808011 0.18399061 0)
(2.8368522 0.18301095 0)
(2.7931711 0.18200935 0)
(2.7497451 0.18099155 0)
(2.7065648 0.17994787 0)
(2.6636152 0.17887499 0)
(2.6208846 0.17776899 0)
(2.5783612 0.17662705 0)
(2.536035 0.17544711 0)
(2.4938945 0.17422673 0)
(2.4519425 0.17296551 0)
(2.4102053 0.17164698 0)
(2.3686308 0.17027699 0)
(2.3271823 0.16886821 0)
(2.28589 0.1674078 0)
(2.2447481 0.16589777 0)
(2.2037513 0.16433733 0)
(2.1628958 0.16272616 0)
(2.1221785 0.1610642 0)
(2.0815967 0.15935158 0)
(2.0411493 0.15758898 0)
(2.0008304 0.1557767 0)
(1.9606545 0.15391674 0)
(1.9206357 0.15200991 0)
(1.8807361 0.15005589 0)
(1.8409509 0.14805846 0)
(1.8013037 0.14601844 0)
(1.7617939 0.1439382 0)
(1.7224248 0.14181981 0)
(1.6831998 0.13966556 0)
(1.6441237 0.13747792 0)
(1.6052032 0.13525951 0)
(3.6762513 0.22159822 0)
(3.6246393 0.21962522 0)
(3.5737677 0.217792 0)
(3.5236578 0.21613474 0)
(3.4742473 0.21462012 0)
(3.4254028 0.21317772 0)
(3.3770751 0.21179038 0)
(3.3292647 0.21049361 0)
(3.28196 0.20927181 0)
(3.2351252 0.2081064 0)
(3.1887315 0.20698814 0)
(3.1427508 0.20590776 0)
(3.0971764 0.20484534 0)
(3.0519574 0.20382567 0)
(3.0070525 0.20279388 0)
(2.9624829 0.20177242 0)
(2.9182453 0.20074904 0)
(2.874297 0.19970972 0)
(2.8306097 0.1986553 0)
(2.7871794 0.19757999 0)
(2.7439933 0.1964844 0)
(2.7010414 0.19536014 0)
(2.65831 0.1942034 0)
(2.6157882 0.19301008 0)
(2.573465 0.19177711 0)
(2.5313307 0.19050208 0)
(2.4893745 0.18918229 0)
(2.4475969 0.1878169 0)
(2.4060254 0.18639098 0)
(2.3646144 0.18490596 0)
(2.3233238 0.18338001 0)
(2.2821812 0.18179761 0)
(2.2411839 0.18016058 0)
(2.2003263 0.17846836 0)
(2.1596051 0.17672058 0)
(2.1190172 0.17491722 0)
(2.0785603 0.17305848 0)
(2.0382336 0.17114509 0)
(1.9980316 0.16917743 0)
(1.957969 0.1671577 0)
(1.9180594 0.16508682 0)
(1.8782658 0.16296455 0)
(1.8385838 0.16079484 0)
(1.7990367 0.15857874 0)
(1.7596243 0.15631875 0)
(1.7203501 0.15401716 0)
(1.6812175 0.15167647 0)
(1.6422316 0.14929941 0)
(1.6033993 0.14688891 0)
(3.6608266 0.23880065 0)
(3.6099449 0.2367257 0)
(3.5597702 0.23480841 0)
(3.5103198 0.23308708 0)
(3.4615112 0.23149029 0)
(3.4132261 0.22996202 0)
(3.365436 0.2285063 0)
(3.318142 0.22714465 0)
(3.2713229 0.22585898 0)
(3.2249464 0.22463111 0)
(3.1789876 0.22345172 0)
(3.1334163 0.222314 0)
(3.0882357 0.22118779 0)
(3.0433872 0.22010789 0)
(2.9988304 0.21901393 0)
(2.9545981 0.2179305 0)
(2.9106772 0.21684774 0)
(2.867031 0.21573868 0)
(2.823634 0.21461435 0)
(2.7804813 0.21346758 0)
(2.7375605 0.2122963 0)
(2.6948614 0.21109309 0)
(2.6523718 0.20985376 0)
(2.6100812 0.20857404 0)
(2.5679796 0.20725059 0)
(2.5260577 0.20588072 0)
(2.4843056 0.2044615 0)
(2.4427217 0.20299251 0)
(2.4013335 0.20145989 0)
(2.3601033 0.1998588 0)
(2.3189882 0.19821437 0)
(2.2780116 0.19650905 0)
(2.2371746 0.19474378 0)
(2.1964715 0.19291827 0)
(2.1558991 0.1910322 0)
(2.1154548 0.18908556 0)
(2.0751366 0.18707861 0)
(2.0349438 0.18501213 0)
(1.9948715 0.18288663 0)
(1.9549346 0.18070447 0)
(1.9151464 0.17846674 0)
(1.8754707 0.17617327 0)
(1.8359034 0.17382816 0)
(1.7964676 0.17143268 0)
(1.7571636 0.16898951 0)
(1.7179949 0.16650115 0)
(1.6789651 0.16397032 0)
(1.6400796 0.16140004 0)
(1.6013455 0.15879352 0)
(3.6437872 0.2561772 0)
(3.5937094 0.25401269 0)
(3.544303 0.25203521 0)
(3.4955705 0.25025396 0)
(3.4474158 0.24858159 0)
(3.3997473 0.24697771 0)
(3.3525513 0.24546472 0)
(3.3058231 0.24404595 0)
(3.2595368 0.24270441 0)
(3.2136637 0.24142121 0)
(3.1681837 0.2401869 0)
(3.1230618 0.23900192 0)
(3.0783126 0.23781808 0)
(3.0338725 0.23667837 0)
(2.9896987 0.23552929 0)
(2.9458377 0.23438762 0)
(2.9022654 0.23324402 0)
(2.8589508 0.2320713 0)
(2.8158741 0.23088124 0)
(2.7730269 0.22966583 0)
(2.7303978 0.22842148 0)
(2.6879771 0.2271415 0)
(2.6457537 0.22582135 0)
(2.6037179 0.22445663 0)
(2.5618604 0.22304377 0)
(2.5201725 0.22157975 0)
(2.4786455 0.22006156 0)
(2.4372758 0.2184894 0)
(2.3960892 0.21685083 0)
(2.3550577 0.21513372 0)
(2.3141366 0.21336973 0)
(2.2733433 0.21154074 0)
(2.2326831 0.20964621 0)
(2.1921504 0.20768617 0)
(2.1517422 0.20566035 0)
(2.1114565 0.20356876 0)
(2.0712914 0.20141172 0)
(2.0312465 0.19919004 0)
(1.9913176 0.19690438 0)
(1.9515197 0.19455732 0)
(1.9118658 0.1921501 0)
(1.8723204 0.18968261 0)
(1.8328799 0.18715909 0)
(1.7935674 0.18458107 0)
(1.7543832 0.18195139 0)
(1.7153314 0.17927279 0)
(1.6764156 0.17654823 0)
(1.6376414 0.17378099 0)
(1.5990161 0.1709746 0)
(3.625049 0.27369658 0)
(3.575853 0.27146246 0)
(3.527286 0.26944514 0)
(3.4793282 0.2676072 0)
(3.4318846 0.26586579 0)
(3.3848936 0.2642047 0)
(3.3383487 0.26264489 0)
(3.2922378 0.26117848 0)
(3.2465333 0.25979047 0)
(3.20121 0.25845983 0)
(3.156256 0.25717726 0)
(3.1116254 0.25595939 0)
(3.0673434 0.25472354 0)
(3.0233513 0.25352508 0)
(2.9795992 0.25232578 0)
(2.9361432 0.25113216 0)
(2.892953 0.2499287 0)
(2.8500028 0.24869908 0)
(2.8072765 0.24744764 0)
(2.7647638 0.24616702 0)
(2.7224543 0.24485283 0)
(2.6803387 0.2434988 0)
(2.6384071 0.24210017 0)
(2.5966507 0.2406524 0)
(2.5550608 0.23915171 0)
(2.5136296 0.23759485 0)
(2.4723496 0.23597878 0)
(2.4312157 0.23430357 0)
(2.3902501 0.23255898 0)
(2.3494358 0.23072814 0)
(2.3087283 0.22884375 0)
(2.2681364 0.22689037 0)
(2.2276703 0.22486582 0)
(2.1873248 0.22277028 0)
(2.1470973 0.22060349 0)
(2.1069858 0.21836552 0)
(2.066989 0.21605672 0)
(2.0271069 0.21367798 0)
(1.9873356 0.21123004 0)
(1.9476908 0.20871576 0)
(1.9081847 0.20613662 0)
(1.8687828 0.20349246 0)
(1.8294821 0.20078767 0)
(1.7903053 0.19802408 0)
(1.7512534 0.1952047 0)
(1.7123304 0.19233251 0)
(1.6735403 0.18941072 0)
(1.634889 0.1864429 0)
(1.5963839 0.18343287 0)
(3.6045289 0.29132293 0)
(3.5562956 0.2890495 0)
(3.5086366 0.28700451 0)
(3.4615102 0.285115 0)
(3.4148411 0.28331778 0)
(3.3685913 0.28161883 0)
(3.3227545 0.28002369 0)
(3.2773141 0.27852093 0)
(3.232242 0.27709723 0)
(3.187516 0.27572821 0)
(3.1431393 0.27440278 0)
(3.0990432 0.2731708 0)
(3.0552627 0.27188998 0)
(3.0117597 0.27063282 0)
(2.9684704 0.26938991 0)
(2.9254553 0.26814888 0)
(2.8826819 0.26689283 0)
(2.8401304 0.26561175 0)
(2.797786 0.26430369 0)
(2.7556379 0.26296198 0)
(2.7136768 0.26158175 0)
(2.6718942 0.26015702 0)
(2.6302812 0.25868285 0)
(2.5888298 0.25715454 0)
(2.5475323 0.25556818 0)
(2.5063815 0.25392036 0)
(2.4653711 0.25220806 0)
(2.4244953 0.25043024 0)
(2.3837722 0.24857942 0)
(2.3431948 0.24663764 0)
(2.30272 0.2446327 0)
(2.262349 0.24255455 0)
(2.2220953 0.24039953 0)
(2.1819547 0.23816782 0)
(2.1419248 0.23585916 0)
(2.1020041 0.23347365 0)
(2.0621917 0.2310117 0)
(2.0224879 0.22847424 0)
(1.9828895 0.22586213 0)
(1.9434125 0.22317855 0)
(1.9040686 0.22042526 0)
(1.8648241 0.21760196 0)
(1.8256767 0.21471324 0)
(1.7866489 0.21176121 0)
(1.7477422 0.20874909 0)
(1.7089608 0.20568009 0)
(1.670309 0.20255771 0)
(1.6317927 0.1993858 0)
(1.5934199 0.1961685 0)
(3.5821469 0.30902182 0)
(3.5349561 0.30674149 0)
(3.4882686 0.30467388 0)
(3.4420354 0.30274255 0)
(3.396209 0.30091221 0)
(3.3507652 0.29919247 0)
(3.3056939 0.29757542 0)
(3.2609791 0.29604946 0)
(3.2165911 0.29460274 0)
(3.1725102 0.29320531 0)
(3.1287672 0.29183912 0)
(3.0852519 0.29061653 0)
(3.0420023 0.28929639 0)
(2.9990313 0.28798753 0)
(2.9562495 0.28670777 0)
(2.9137125 0.28542442 0)
(2.8713931 0.28412451 0)
(2.829275 0.28279733 0)
(2.7873449 0.28143786 0)
(2.7455928 0.28003987 0)
(2.7040103 0.27859807 0)
(2.6625897 0.27710664 0)
(2.6213232 0.27556051 0)
(2.5802036 0.27395481 0)
(2.5392241 0.27228552 0)
(2.4983785 0.27054916 0)
(2.4576613 0.26874268 0)
(2.4170668 0.26686379 0)
(2.376609 0.26490743 0)
(2.3362889 0.26285585 0)
(2.2960669 0.26073133 0)
(2.255937 0.25852869 0)
(2.2159149 0.2562432 0)
(2.1759978 0.253875 0)
(2.1361836 0.25142389 0)
(2.0964711 0.24888999 0)
(2.0568599 0.24627379 0)
(2.0173507 0.24357624 0)
(1.9779411 0.2407983 0)
(1.9386475 0.23794357 0)
(1.8994809 0.23501417 0)
(1.8604085 0.2320095 0)
(1.8214287 0.22893436 0)
(1.782564 0.22579121 0)
(1.7438163 0.22258346 0)
(1.7051899 0.21931462 0)
(1.6666894 0.21598844 0)
(1.6283213 0.21260907 0)
(1.5900934 0.20918099 0)
(3.6043515 0.32927355 0)
(3.5578239 0.32676225 0)
(3.51175 0.32449401 0)
(3.4660959 0.32241004 0)
(3.4208255 0.32045668 0)
(3.3759126 0.31861904 0)
(3.3313384 0.31689519 0)
(3.2870917 0.31527174 0)
(3.2431592 0.31373794 0)
(3.1995081 0.31228278 0)
(3.1561179 0.31087206 0)
(3.1130714 0.30948213 0)
(3.0701854 0.30825348 0)
(3.0274947 0.30691281 0)
(2.9851011 0.30557289 0)
(2.942871 0.30426235 0)
(2.9008519 0.30294551 0)
(2.8590246 0.3016091 0)
(2.8173756 0.30024173 0)
(2.7758938 0.29883681 0)
(2.7345703 0.29738809 0)
(2.6933977 0.29588993 0)
(2.6523693 0.29433652 0)
(2.6114782 0.29272271 0)
(2.5707182 0.2910434 0)
(2.5300837 0.28929456 0)
(2.489569 0.28747262 0)
(2.4491698 0.2855745 0)
(2.4088802 0.28359701 0)
(2.3687113 0.28153645 0)
(2.3286706 0.27937592 0)
(2.2887223 0.27713331 0)
(2.2488545 0.27480704 0)
(2.2090841 0.27239153 0)
(2.16941 0.26988692 0)
(2.1298302 0.26729313 0)
(2.0903441 0.26461034 0)
(2.0509518 0.2618391 0)
(2.0116543 0.25898042 0)
(1.9724503 0.25603525 0)
(1.9333566 0.2530078 0)
(1.8943832 0.24990065 0)
(1.8554983 0.24671259 0)
(1.8167012 0.24344878 0)
(1.7780145 0.24011202 0)
(1.7394402 0.23670599 0)
(1.7009829 0.23323444 0)
(1.6626479 0.22970144 0)
(1.6244415 0.22611142 0)
(1.5863721 0.22246924 0)
(3.5767376 0.34697182 0)
(3.531479 0.34450173 0)
(3.4865896 0.34225455 0)
(3.4420371 0.34017028 0)
(3.3978041 0.33822468 0)
(3.3538753 0.33640312 0)
(3.3102342 0.33469373 0)
(3.2668725 0.33308171 0)
(3.2237806 0.33155711 0)
(3.1809217 0.33010979 0)
(3.1382745 0.32871185 0)
(3.0959689 0.32735065 0)
(3.0537629 0.32601783 0)
(3.0116817 0.32470613 0)
(2.9699056 0.3233635 0)
(2.9282694 0.32203433 0)
(2.886809 0.3206941 0)
(2.8455126 0.31932916 0)
(2.8043696 0.31792869 0)
(2.7633714 0.31648521 0)
(2.7225103 0.3149922 0)
(2.6817801 0.31344367 0)
(2.6411751 0.31183378 0)
(2.6006894 0.31015732 0)
(2.560318 0.30840888 0)
(2.5200562 0.30658449 0)
(2.4798994 0.30468052 0)
(2.4398438 0.30269391 0)
(2.3998841 0.30062078 0)
(2.3600285 0.29845832 0)
(2.3202899 0.29619017 0)
(2.2806375 0.29383124 0)
(2.2410537 0.29138267 0)
(2.201556 0.28883802 0)
(2.162145 0.28619751 0)
(2.1228193 0.28346121 0)
(2.0835788 0.2806294 0)
(2.0444239 0.27770271 0)
(2.0053561 0.27468219 0)
(1.9663752 0.27156869 0)
(1.9274988 0.26836724 0)
(1.8887353 0.26508106 0)
(1.8500539 0.26170787 0)
(1.8114555 0.25825336 0)
(1.7729622 0.25472076 0)
(1.7345766 0.25111399 0)
(1.6963036 0.24743713 0)
(1.6581486 0.24369447 0)
(1.6201185 0.23989083 0)
(1.5822218 0.23603138 0)
(3.5469433 0.36458886 0)
(3.5030278 0.36218093 0)
(3.4593915 0.35996786 0)
(3.4160159 0.35791544 0)
(3.3728965 0.35600827 0)
(3.3300205 0.3542258 0)
(3.2873766 0.35255192 0)
(3.2449615 0.35097126 0)
(3.2027694 0.34947451 0)
(3.1607637 0.34804932 0)
(3.1189282 0.3466805 0)
(3.077362 0.34536718 0)
(3.0358858 0.34394075 0)
(2.9945144 0.34266494 0)
(2.9533842 0.34133605 0)
(2.9123791 0.34000197 0)
(2.8715181 0.33864896 0)
(2.8307921 0.33726488 0)
(2.7901932 0.33583975 0)
(2.7497149 0.33436565 0)
(2.7093512 0.33283575 0)
(2.6690969 0.33124374 0)
(2.6289476 0.32958372 0)
(2.5888984 0.32785046 0)
(2.5489454 0.32603811 0)
(2.5090852 0.32414287 0)
(2.4693142 0.32216105 0)
(2.4296288 0.32008967 0)
(2.3900249 0.31792426 0)
(2.3505077 0.31566284 0)
(2.3110951 0.31329007 0)
(2.2717617 0.31081664 0)
(2.2324846 0.30824738 0)
(2.1932813 0.30557492 0)
(2.1541547 0.30279945 0)
(2.1151037 0.29992125 0)
(2.0761287 0.29694069 0)
(2.0372306 0.29385854 0)
(1.9984112 0.29067588 0)
(1.9596718 0.28739328 0)
(1.921031 0.2840169 0)
(1.882495 0.28055083 0)
(1.844034 0.276991 0)
(1.8056509 0.27334402 0)
(1.7673674 0.26961362 0)
(1.7291866 0.26580395 0)
(1.6911135 0.26191938 0)
(1.6531541 0.25796453 0)
(1.6153156 0.25394447 0)
(1.5776067 0.24986486 0)
(3.5148893 0.38206074 0)
(3.472388 0.37973289 0)
(3.4300805 0.37758623 0)
(3.387961 0.37560383 0)
(3.3460277 0.37376361 0)
(3.3042729 0.37204516 0)
(3.2626909 0.37043015 0)
(3.2212844 0.36890319 0)
(3.1800503 0.36745393 0)
(3.1389547 0.36606537 0)
(3.0979888 0.36473271 0)
(3.0572054 0.36344308 0)
(3.0165065 0.36205088 0)
(2.9759025 0.36078035 0)
(2.9354646 0.35946823 0)
(2.8951324 0.35814108 0)
(2.8549121 0.35678672 0)
(2.814797 0.35539422 0)
(2.7747813 0.35395423 0)
(2.7348605 0.35245862 0)
(2.69503 0.35090029 0)
(2.6552862 0.34927264 0)
(2.6156259 0.34756973 0)
(2.5760452 0.34578644 0)
(2.5365413 0.34391619 0)
(2.4971125 0.34195553 0)
(2.457756 0.33990073 0)
(2.4184687 0.33774895 0)
(2.3792472 0.33549488 0)
(2.3400949 0.33313835 0)
(2.3010329 0.33066539 0)
(2.2620419 0.3280799 0)
(2.2230955 0.3253916 0)
(2.1842093 0.32259314 0)
(2.1453892 0.31968415 0)
(2.1066342 0.31666509 0)
(2.0679455 0.3135365 0)
(2.0293244 0.31029933 0)
(1.990773 0.30695468 0)
(1.9522943 0.30350257 0)
(1.9139083 0.29995079 0)
(1.8756182 0.29630434 0)
(1.8373951 0.2925566 0)
(1.7992448 0.28871572 0)
(1.7611884 0.28478585 0)
(1.7232292 0.28077141 0)
(1.6853727 0.27667706 0)
(1.6476251 0.2725077 0)
(1.6099943 0.26826879 0)
(1.572489 0.26396626 0)
(3.5216323 0.40172866 0)
(3.4804986 0.3993145 0)
(3.439489 0.39710072 0)
(3.3985902 0.39506449 0)
(3.3578014 0.39318658 0)
(3.3171252 0.3914429 0)
(3.2765598 0.38981587 0)
(3.2361046 0.38828502 0)
(3.1957684 0.38683675 0)
(3.1555495 0.38545719 0)
(3.1154212 0.38412703 0)
(3.0753755 0.38284601 0)
(3.035439 0.38158549 0)
(2.995567 0.38027139 0)
(2.955768 0.37901633 0)
(2.9160758 0.37773233 0)
(2.8764606 0.37642481 0)
(2.8369236 0.37508184 0)
(2.7974607 0.37369301 0)
(2.758068 0.37224927 0)
(2.7187429 0.37074245 0)
(2.6794825 0.36916525 0)
(2.6402846 0.36751084 0)
(2.6011477 0.36577326 0)
(2.5620683 0.36394767 0)
(2.5230452 0.36202641 0)
(2.4840784 0.36000656 0)