/*--------------------------------*- C++ -*----------------------------------*\
| =========                 |                                                 |
| \\      /  F ield         | OpenFOAM: The Open Source CFD Toolbox           |
|  \\    /   O peration     | Version:  2312                                  |
|   \\  /    A nd           | Website:  www.openfoam.com                      |
|    \\/     M anipulation  |                                                 |
\*---------------------------------------------------------------------------*/
FoamFile
{
    version     2.0;
    format      ascii;
    arch        "LSB;label=32;scalar=64";
    class       volScalarField;
    location    "0.07";
    object      alphat;
}
// * * * * * * * * * * * * * * * * * * * * * * * * * * * * * * * * * * * * * //

dimensions      [1 -1 -1 0 0 0 0];

internalField   nonuniform List<scalar> 
3250
(
0.019830842
0.019838353
0.019846538
0.019855515
0.019865393
0.01987628
0.019888283
0.019901506
0.019916053
0.01993203
0.01994954
0.019968691
0.019989588
0.020012342
0.020037063
0.020063864
0.020092861
0.020124172
0.020157918
0.020194225
0.020233218
0.020275028
0.02031979
0.020367639
0.020418717
0.020473166
0.020531132
0.020592766
0.020658219
0.020727648
0.020801209
0.020879065
0.020961378
0.021048315
0.021140044
0.021236735
0.021338561
0.021445697
0.021558319
0.021676607
0.021800741
0.021930902
0.022067271
0.022210035
0.022359451
0.02251572
0.022678953
0.022849338
0.023027048
0.019831047
0.019838575
0.019846779
0.019855777
0.019865676
0.019876585
0.01988861
0.019901855
0.019916425
0.019932424
0.019949957
0.01996913
0.019990051
0.020012827
0.020037571
0.020064394
0.020093414
0.020124747
0.020158516
0.020194845
0.02023386
0.020275693
0.020320477
0.020368348
0.020419448
0.020473918
0.020531907
0.020593562
0.020659037
0.020728487
0.02080207
0.020879947
0.020962282
0.02104924
0.02114099
0.021237703
0.02133955
0.021446708
0.021559352
0.021677663
0.021801819
0.021932003
0.0220684
0.022211201
0.022360639
0.022516905
0.022680147
0.022850546
0.023028289
0.019831513
0.019839079
0.019847325
0.019856365
0.019866308
0.019877261
0.019889331
0.019902621
0.019917237
0.019933282
0.019950861
0.01997008
0.019991046
0.020013869
0.020038658
0.020065527
0.020094593
0.020125972
0.020159786
0.02019616
0.02023522
0.020277098
0.020321926
0.020369842
0.020420986
0.0204755
0.020533532
0.020595231
0.02066075
0.020730243
0.020803868
0.020881788
0.020964165
0.021051166
0.021142958
0.021239712
0.021341602
0.021448802
0.021561488
0.02167984
0.021804039
0.021934267
0.022070709
0.022213561
0.022363037
0.022519328
0.022682598
0.022853031
0.023030821
0.019832241
0.019839866
0.019848174
0.019857279
0.019867288
0.019878309
0.019890446
0.019903805
0.019918489
0.019934603
0.019952251
0.019971539
0.019992575
0.020015467
0.020040325
0.020067263
0.020096397
0.020127845
0.020161727
0.020198169
0.020237297
0.020279242
0.020324137
0.02037212
0.02042333
0.02047791
0.020536008
0.020597772
0.020663355
0.020732913
0.020806603
0.020884587
0.020967027
0.021054091
0.021145946
0.021242762
0.021344714
0.021451976
0.021564724
0.021683137
0.021807398
0.021937689
0.022074195
0.022217112
0.022366645
0.022522983
0.022686301
0.022856787
0.023034637
0.019833231
0.019840938
0.01984933
0.019858522
0.01986862
0.01987973
0.019891958
0.019905408
0.019920184
0.01993639
0.01995413
0.019973511
0.019994639
0.020017622
0.020042573
0.020069603
0.020098829
0.020130367
0.020164341
0.020200873
0.020240091
0.020282126
0.020327111
0.020375182
0.020426481
0.020481149
0.020539334
0.020601185
0.020666855
0.020736498
0.020810273
0.020888342
0.020970867
0.021058014
0.021149952
0.021246852
0.021348886
0.021456229
0.021569059
0.021687554
0.021811895
0.021942267
0.022078856
0.022221855
0.022371462
0.022527869
0.022691255
0.022861811
0.023039735
0.019834415
0.019842219
0.019850712
0.019860007
0.019870209
0.019881425
0.01989376
0.019907317
0.019922201
0.019938516
0.019956365
0.019975854
0.019997091
0.020020184
0.020045243
0.020072381
0.020101714
0.020133361
0.020167441
0.02020408
0.020243405
0.020285545
0.020330635
0.020378811
0.020430213
0.020484985
0.020543273
0.020605226
0.020670997
0.020740741
0.020814617
0.020892785
0.020975409
0.021062655
0.021154691
0.021251687
0.021353818
0.021461257
0.021574182
0.021692772
0.021817208
0.021947674
0.022084358
0.022227449
0.022377145
0.022533634
0.022697103
0.022867742
0.023045752
0.019835759
0.019843673
0.019852279
0.019861688
0.019872008
0.019883342
0.019895797
0.019909475
0.019924481
0.019940916
0.019958887
0.019978499
0.019999857
0.020023072
0.020048252
0.020075512
0.020104966
0.020136733
0.020170933
0.020207691
0.020247135
0.020289393
0.020334601
0.020382894
0.020434413
0.0204893
0.020547703
0.020609771
0.020675655
0.020745513
0.020819501
0.02089778
0.020980515
0.021067871
0.021160016
0.021257121
0.021359359
0.021466905
0.021579937
0.021698632
0.021823174
0.021953745
0.022090532
0.022233726
0.02238352
0.022540104
0.022703666
0.022874398
0.023052502
0.019837371
0.019845416
0.019854156
0.019863702
0.019874161
0.019885637
0.019898234
0.019912055
0.019927204
0.019943784
0.0199619
0.019981656
0.020003159
0.020026517
0.020051842
0.020079245
0.020108842
0.020140752
0.020175094
0.020211994
0.020251578
0.020293977
0.020339324
0.020387755
0.020439412
0.020494437
0.020552976
0.020615179
0.020681198
0.02075119
0.02082531
0.020903722
0.020986588
0.021074073
0.021166348
0.021263581
0.021365947
0.02147362
0.021586777
0.021705597
0.021830262
0.021960956
0.022097865
0.022241179
0.02239109
0.022547788
0.022711461
0.022882304
0.023060519
0.019839277
0.019847475
0.019856373
0.01986608
0.019876701
0.019888342
0.019901105
0.019915094
0.019930411
0.019947159
0.019965444
0.019985368
0.02000704
0.020030567
0.02005606
0.02008363
0.020113395
0.020145471
0.020179979
0.020217044
0.020256793
0.020299355
0.020344864
0.020393458
0.020445275
0.02050046
0.020559158
0.02062152
0.020687696
0.020757843
0.020832119
0.020910684
0.020993703
0.021081341
0.021173766
0.021271149
0.021373663
0.021481483
0.021594786
0.021713752
0.021838561
0.021969398
0.022106448
0.022249902
0.022399948
0.022556779
0.022720582
0.022891556
0.023069899
0.019841505
0.019849882
0.019858962
0.019868854
0.019879664
0.019891495
0.01990445
0.019918632
0.019934143
0.019951086
0.019969565
0.019989685
0.020011551
0.020035272
0.020060959
0.020088723
0.02011868
0.020150948
0.020185648
0.020222903
0.020262841
0.020305592
0.020351289
0.020400069
0.020452072
0.020507441
0.020566323
0.020628866
0.020695223
0.02076555
0.020840005
0.020918748
0.021001942
0.021089755
0.021182354
0.021279909
0.021382594
0.021490584
0.021604056
0.021723188
0.021848163
0.021979164
0.022116377
0.02225999
0.022410193
0.022567177
0.022731132
0.022902255
0.023080746
0.019844088
0.01985267
0.019861958
0.019872064
0.01988309
0.019895138
0.019908313
0.019922716
0.019938448
0.019955614
0.019974315
0.019994657
0.020016746
0.020040689
0.020066597
0.020094582
0.020124759
0.020157247
0.020192165
0.020229637
0.020269791
0.020312757
0.020358669
0.020407662
0.020459876
0.020515456
0.020574547
0.020637298
0.020703862
0.020774394
0.020849053
0.020927998
0.021011394
0.021099406
0.021192203
0.021289955
0.021392835
0.021501018
0.021614682
0.021734004
0.021859168
0.021990356
0.022127753
0.022271548
0.02242193
0.02257909
0.022743218
0.022914512
0.023093173
0.019847062
0.019855877
0.019865404
0.019875751
0.019887021
0.019899317
0.019912741
0.019927394
0.019943378
0.019960796
0.019979749
0.020000343
0.020022684
0.020046878
0.020073037
0.020101272
0.020131699
0.020164434
0.0201996
0.020237318
0.020277717
0.020320927
0.020367081
0.020416315
0.020468769
0.020524587
0.020583915
0.020646901
0.020713699
0.020784464
0.020859353
0.020938528
0.021022151
0.021110389
0.02120341
0.021301384
0.021404485
0.021512888
0.021626768
0.021746306
0.021871683
0.022003082
0.022140688
0.022284689
0.022435273
0.022592632
0.022756957
0.022928445
0.023107297
0.019850469
0.019859547
0.019869343
0.019879963
0.019891509
0.019904084
0.019917788
0.019932723
0.01994899
0.019966691
0.019985928
0.020006806
0.02002943
0.020053908
0.020080349
0.020108865
0.020139572
0.020172586
0.02020803
0.020246025
0.020286699
0.020330183
0.020376609
0.020426114
0.020478838
0.020534924
0.020594518
0.020657769
0.02072483
0.020795856
0.020871005
0.020950437
0.021034316
0.021122808
0.021216081
0.021314305
0.021417654
0.021526303
0.021640427
0.021760207
0.021885823
0.022017458
0.022155299
0.022299531
0.022450343
0.022607927
0.022772473
0.022944179
0.023123247
0.019854355
0.019863729
0.019873826
0.019884752
0.019896609
0.019909495
0.019923514
0.019938765
0.019955348
0.019973366
0.019992921
0.020014116
0.020037057
0.020061851
0.020088607
0.020117438
0.020148458
0.020181785
0.020217538
0.020255843
0.020296825
0.020340615
0.020387346
0.020437154
0.020490179
0.020546564
0.020606455
0.020670002
0.020737357
0.020808675
0.020884113
0.020963833
0.021047998
0.021136774
0.021230328
0.021328832
0.021432458
0.021541381
0.021655778
0.021775828
0.021901711
0.022033612
0.022171713
0.022316204
0.022467271
0.022625105
0.022789899
0.02296185
0.023141159
0.019858773
0.019868478
0.019878913
0.019890181
0.019902382
0.019915617
0.019929985
0.019945587
0.019962524
0.019980895
0.020000803
0.020022351
0.020045644
0.020070789
0.020097896
0.020127077
0.020158445
0.020192119
0.020228218
0.020266866
0.02030819
0.02035232
0.02039939
0.020449534
0.020502894
0.020559612
0.020619834
0.02068371
0.020751391
0.020823033
0.020898794
0.020978834
0.021063316
0.021152407
0.021246275
0.021345089
0.021449023
0.021558252
0.021672951
0.021793301
0.021919482
0.022051676
0.022190068
0.022334845
0.022486195
0.022644309
0.022809378
0.022981601
0.023161179
0.019863784
0.019873858
0.019884668
0.019896315
0.019908899
0.01992252
0.019937276
0.019953268
0.019970595
0.019989357
0.020009657
0.020031595
0.020055279
0.020080814
0.020108309
0.020137876
0.02016963
0.020203687
0.020240168
0.020279197
0.0203209
0.020365406
0.02041285
0.020463367
0.020517097
0.020574183
0.020634771
0.02069901
0.020767052
0.020839053
0.02091517
0.020995564
0.021080399
0.021169839
0.021264052
0.02136321
0.021467485
0.021577051
0.021692086
0.021812767
0.021939277
0.022071796
0.02221051
0.022355604
0.022507268
0.02266569
0.022831065
0.023003589
0.023183465
0.019869456
0.01987994
0.019891165
0.019903232
0.019916239
0.019930287
0.019945472
0.019961894
0.019979652
0.019998846
0.020019576
0.020041946
0.02006606
0.020092023
0.020119946
0.02014994
0.020182118
0.020216598
0.020253501
0.020292948
0.020335068
0.020379989
0.020427845
0.020478772
0.02053291
0.020590401
0.020651392
0.020716032
0.020784472
0.020856868
0.020933378
0.021014162
0.021099384
0.021189208
0.021283803
0.02138334
0.02148799
0.021597928
0.021713332
0.021834379
0.02196125
0.022094128
0.022233196
0.02237864
0.022530649
0.022689413
0.022855124
0.02302798
0.023208185
0.01987587
0.019886807
0.01989849
0.019911019
0.019924493
0.019939009
0.019954666
0.019971561
0.019989793
0.020009461
0.020030665
0.020053508
0.020078094
0.020104529
0.020132922
0.020163383
0.020196028
0.020230972
0.020268336
0.020308243
0.02035082
0.020396196
0.020444504
0.020495881
0.020550467
0.020608403
0.020669836
0.020734915
0.020803792
0.020876622
0.020953563
0.021034775
0.021120421
0.021210668
0.021305681
0.021405633
0.021510696
0.021621043
0.021736851
0.0218583
0.021985568
0.022118839
0.022258296
0.022404125
0.022556513
0.022715651
0.022881732
0.023054953
0.023235519
0.019883118
0.019894554
0.019906739
0.019919776
0.019933761
0.019948792
0.019964965
0.019982378
0.020001129
0.020021316
0.020043039
0.0200664
0.020091503
0.020118453
0.02014736
0.020178333
0.020211487
0.020246938
0.020284808
0.020325217
0.020368294
0.020414168
0.020462971
0.02051484
0.020569914
0.020628337
0.020690253
0.020755813
0.020825167
0.020898472
0.020975884
0.021057564
0.021143675
0.021234382
0.021329854
0.02143026
0.021535773
0.021646567
0.021762819
0.021884706
0.02201241
0.022146111
0.022285993
0.022432242
0.022585046
0.022744594
0.022911079
0.0230847
0.023265661
0.019879989
0.019891311
0.019903288
0.019916022
0.019929614
0.019944158
0.019959751
0.019976489
0.019994468
0.020013785
0.020034538
0.020056827
0.020080753
0.02010642
0.020133932
0.020163398
0.020194929
0.020228639
0.020264643
0.020303063
0.02034402
0.020387642
0.020434057
0.020483399
0.020535804
0.020591412
0.020650364
0.020712808
0.020778891
0.020848766
0.020922587
0.021000513
0.021082703
0.02116932
0.02126053
0.021356501
0.021457403
0.021563407
0.021674689
0.021791424
0.02191379
0.022041967
0.022176138
0.022316484
0.022463192
0.022616449
0.022776444
0.02294337
0.023117427
0.023298818
0.019888668
0.019900563
0.01991313
0.019926464
0.01994066
0.019955814
0.019972019
0.019989372
0.020007967
0.0200279
0.02004927
0.020072174
0.020096714
0.020122993
0.020151116
0.020181191
0.020213328
0.020247641
0.020284246
0.020323263
0.020364815
0.020409029
0.020456033
0.020505961
0.020558948
0.020615134
0.020674662
0.020737678
0.02080433
0.02087477
0.020949153
0.021027636
0.02111038
0.021197548
0.021289305
0.021385819
0.021487259
0.021593797
0.021705609
0.021822869
0.021945755
0.022074448
0.022209129
0.022349981
0.022497188
0.022650938
0.02281142
0.022978825
0.023153355
0.023335214
0.01989848
0.019911009
0.01992422
0.019938205
0.019953059
0.019968875
0.019985746
0.020003766
0.020023029
0.020043631
0.020065669
0.02008924
0.020114446
0.020141389
0.020170173
0.020200907
0.020233701
0.020268667
0.020305923
0.020345587
0.020387784
0.020432638
0.020480279
0.020530841
0.020584459
0.020641272
0.020701423
0.020765059
0.020832326
0.020903379
0.02097837
0.021057458
0.021140803
0.021228567
0.021320916
0.021418018
0.021520041
0.021627159
0.021739544
0.021857374
0.021980825
0.022110078
0.022245312
0.022386712
0.022534461
0.022688746
0.022849756
0.023017681
0.023192722
0.023375087
0.019909584
0.019922805
0.019936716
0.019951409
0.019966976
0.019983509
0.020001101
0.020019843
0.020039829
0.020061154
0.020083914
0.020108207
0.020134132
0.020161792
0.020191291
0.020222736
0.020256239
0.020291911
0.020329869
0.020370232
0.020413124
0.02045867
0.020507
0.020558246
0.020612544
0.020670034
0.020730859
0.020795163
0.020863096
0.02093481
0.021010458
0.021090199
0.021174193
0.021262602
0.021355591
0.021453328
0.021555982
0.021663725
0.021776732
0.021895178
0.022019239
0.022149097
0.022284931
0.022426924
0.022575259
0.022730124
0.022891705
0.023060192
0.023235784
0.023418692
0.019908797
0.019922163
0.019936132
0.0199508
0.019966258
0.019982596
0.019999905
0.020018274
0.020037795
0.020058561
0.020080666
0.020104204
0.020129274
0.020155974
0.020184407
0.020214675
0.020246887
0.020281153
0.020317585
0.020356299
0.020397415
0.020441055
0.020487346
0.020536417
0.0205884
0.020643431
0.02070165
0.020763199
0.020828224
0.020896874
0.020969299
0.021045656
0.0211261
0.021210793
0.021299896
0.021393575
0.021491997
0.021595331
0.02170375
0.021817426
0.021936536
0.022061257
0.022191767
0.022328248
0.022470881
0.02261985
0.022775341
0.02293754
0.023106634
0.023282816
0.023466298
0.019922259
0.019936417
0.019951194
0.01996668
0.019982963
0.020000132
0.020018276
0.020037482
0.020057842
0.020079446
0.020102389
0.020126764
0.020152669
0.020180201
0.020209463
0.020240558
0.020273593
0.020308678
0.020345926
0.020385451
0.020427375
0.020471819
0.020518909
0.020568775
0.020621549
0.020677368
0.020736369
0.020798697
0.020864496
0.020933915
0.021007106
0.021084223
0.021165423
0.021250867
0.021340717
0.021435137
0.021534296
0.021638361
0.021747506
0.021861902
0.021981727
0.022107157
0.02223837
0.022375547
0.02251887
0.022668523
0.022824689
0.022987554
0.023157302
0.023334118
0.023518188
0.019937561
0.019952579
0.019968227
0.019984593
0.020001764
0.020019826
0.020038865
0.020058969
0.020080228
0.020102732
0.020126573
0.020151844
0.020178643
0.020207067
0.020237217
0.020269197
0.020303113
0.020339075
0.020377195
0.02041759
0.020460378
0.020505682
0.020553628
0.020604346
0.020657967
0.020714628
0.020774467
0.020837629
0.020904257
0.0209745
0.021048511
0.021126443
0.021208453
0.021294702
0.021385352
0.021480568
0.021580516
0.021685366
0.021795289
0.021910459
0.022031051
0.022157242
0.02228921
0.022427136
0.022571201
0.022721587
0.02287848
0.023042064
0.023212521
0.023390021
0.019954974
0.019970917
0.019987501
0.020004811
0.020022933
0.02004195
0.020061948
0.020083013
0.020105233
0.020128697
0.020153497
0.020179726
0.020207479
0.020236855
0.020267953
0.020300877
0.020335734
0.020372632
0.020411684
0.020453005
0.020496716
0.020542939
0.020591798
0.020643425
0.02069795
0.02075551
0.020816245
0.020880296
0.02094781
0.021018934
0.021093821
0.021172624
0.021255501
0.021342611
0.021434116
0.021530182
0.021630975
0.021736665
0.021847422
0.02196342
0.022084834
0.02221184
0.022344617
0.022483345
0.022628205
0.02277938
0.022937053
0.023101411
0.023272637
0.023450925
0.019974806
0.01999174
0.020009325
0.020027644
0.020046781
0.020066817
0.020087837
0.020109926
0.020133169
0.020157656
0.020183478
0.020210726
0.020239495
0.020269883
0.02030199
0.020335919
0.020371775
0.020409669
0.020449713
0.020492021
0.020536714
0.020583913
0.020633745
0.020686339
0.020741827
0.020800345
0.020862033
0.020927032
0.020995489
0.021067552
0.021143372
0.021223103
0.021306904
0.021394932
0.02148735
0.021584324
0.021686019
0.021792604
0.021904252
0.022021134
0.022143425
0.022271303
0.022404945
0.022544531
0.022690242
0.02284226
0.023000771
0.02316596
0.023338015
0.023517137
0.019997414
0.020015404
0.020034054
0.020053447
0.020073663
0.020094782
0.020116887
0.020140062
0.020164392
0.020189964
0.020216869
0.020245198
0.020275044
0.020306506
0.020339683
0.020374677
0.020411594
0.020450544
0.020491639
0.020534994
0.020580728
0.020628964
0.020679827
0.020733447
0.020789957
0.020849492
0.020912192
0.020978199
0.021047658
0.021120718
0.02119753
0.021278249
0.021363031
0.021452036
0.021545426
0.021643365
0.02174602
0.02185356
0.021966156
0.02208398
0.022207207
0.022336014
0.022470578
0.02261108
0.022757699
0.022910619
0.023070025
0.023236102
0.023409042
0.023589045
0.020023207
0.020042316
0.020062095
0.020082624
0.020103981
0.020126246
0.020149498
0.020173822
0.0201993
0.020226019
0.020254069
0.020283539
0.020314525
0.020347121
0.020381428
0.020417548
0.020455586
0.020495652
0.020537858
0.020582319
0.020629154
0.020678486
0.020730441
0.020785147
0.020842738
0.02090335
0.020967121
0.021034194
0.021104715
0.021178831
0.021256695
0.021338461
0.021424284
0.021514325
0.021608746
0.02170771
0.021811385
0.021919939
0.022033542
0.022152368
0.022276591
0.022406386
0.022541932
0.022683408
0.022830995
0.022984875
0.023145234
0.023312258
0.023486139
0.023667076
0.020052654
0.020072942
0.02009391
0.020115635
0.020138194
0.020161665
0.020186126
0.020211657
0.020238344
0.02026627
0.020295524
0.020326197
0.02035838
0.02039217
0.020427667
0.020464971
0.02050419
0.020545431
0.020588807
0.020634433
0.020682429
0.020732916
0.020786021
0.020841873
0.020900605
0.020962352
0.021027254
0.021095453
0.021167095
0.021242328
0.021321304
0.021404175
0.021491101
0.021582238
0.02167775
0.0217778
0.021882555
0.021992183
0.022106854
0.022226742
0.02235202
0.022482865
0.022619453
0.022761965
0.02291058
0.023065481
0.023226854
0.023394884
0.023569764
0.023751691
0.020086292
0.020107815
0.020130029
0.020153006
0.020176823
0.020201556
0.020227282
0.020254079
0.02028203
0.020311221
0.020341737
0.020373668
0.020407106
0.020442148
0.020478891
0.020517438
0.020557895
0.020600369
0.020644972
0.020691821
0.020741035
0.020792735
0.020847049
0.020904104
0.020964035
0.021026977
0.021093068
0.021162453
0.021235276
0.021311685
0.021391831
0.02147587
0.021563957
0.021656251
0.021752914
0.021854111
0.021960007
0.02207077
0.022186571
0.022307583
0.022433978
0.022565934
0.022703626
0.022847235
0.02299694
0.023152924
0.023315371
0.023484469
0.023660408
0.023843383
0.020124734
0.020147542
0.020171053
0.020195332
0.020220457
0.020246505
0.020273547
0.020301661
0.02033093
0.020361437
0.020393269
0.020426511
0.020461258
0.020497605
0.020535649
0.020575493
0.020617241
0.020661003
0.02070689
0.020755017
0.020805504
0.020858474
0.020914052
0.020972368
0.021033554
0.021097748
0.021165087
0.021235715
0.021309776
0.02138742
0.021468798
0.021554062
0.021643371
0.021736882
0.021834758
0.021937162
0.02204426
0.02215622
0.022273213
0.02239541
0.022522985
0.022656114
0.022794973
0.022939741
0.023090599
0.023247729
0.023411314
0.023581541
0.0237586
0.023942686
0.020168676
0.020192815
0.020217668
0.020243287
0.020269761
0.020297169
0.020325574
0.02035505
0.020385681
0.020417553
0.020450747
0.02048535
0.020521453
0.020559154
0.020598549
0.02063974
0.02068283
0.02072793
0.020775152
0.020824609
0.020876423
0.020930715
0.020987611
0.021047241
0.021109738
0.021175238
0.021243881
0.021315808
0.021391166
0.021470102
0.021552768
0.021639317
0.021729906
0.021824694
0.021923842
0.022027514
0.022135875
0.022249094
0.02236734
0.022490784
0.022619602
0.022753967
0.022894056
0.023040048
0.023192122
0.023350461
0.023515248
0.023686668
0.023864911
0.02405017
0.020218895
0.020244416
0.020270654
0.020297629
0.020325484
0.020354291
0.020384098
0.020414968
0.020446999
0.020480276
0.020514875
0.020550877
0.020588378
0.020627476
0.020668266
0.020710847
0.020755326
0.02080181
0.020850413
0.020901248
0.020954436
0.021010099
0.021068363
0.021129358
0.021193217
0.021260077
0.021330075
0.021403356
0.021480064
0.021560348
0.021644358
0.021732249
0.021824176
0.021920298
0.022020778
0.022125777
0.022235461
0.022349999
0.022469559
0.022594314
0.022724436
0.0228601
0.023001483
0.023148762
0.023302117
0.02346173
0.023627782
0.02380046
0.023979951
0.024166448
0.02027624
0.02030324
0.020330905
0.020359209
0.020388461
0.020418707
0.020449948
0.020482225
0.02051568
0.020550398
0.020586436
0.020623865
0.020662794
0.020703325
0.020745548
0.020789557
0.02083546
0.020883369
0.020933392
0.020985647
0.021040252
0.02109733
0.021157007
0.021219413
0.021284681
0.021352947
0.021424351
0.021499035
0.021577145
0.021658828
0.021744237
0.021833523
0.021926843
0.022024357
0.022126224
0.022232609
0.022343676
0.022459592
0.022580528
0.022706654
0.022838142
0.022975168
0.023117908
0.023266538
0.023421238
0.023582188
0.023749572
0.023923573
0.024104378
0.024292177
0.020342118
0.020370334
0.020399477
0.020428943
0.020459618
0.020491355
0.020524061
0.020557714
0.020592607
0.020628798
0.020666302
0.020705169
0.020745541
0.020787536
0.020831222
0.020876683
0.02092404
0.020973404
0.021024882
0.02107859
0.021134648
0.021193178
0.021254307
0.021318164
0.021384882
0.021454598
0.021527451
0.021603584
0.021683143
0.021766274
0.02185313
0.021943863
0.022038629
0.022137587
0.022240897
0.022348723
0.022461229
0.022578582
0.022700952
0.022828509
0.022961425
0.023099875
0.023244033
0.023394078
0.023550187
0.023712541
0.02388132
0.024056709
0.024238894
0.024428063
0.020417327
0.020446647
0.020477093
0.020508135
0.020540174
0.020573302
0.020607528
0.020642394
0.020678747
0.020716458
0.020755456
0.020795728
0.020837538
0.020881029
0.020926203
0.020973124
0.021021949
0.021072795
0.021125749
0.021180933
0.021238472
0.021298485
0.021361096
0.021426436
0.021494638
0.02156584
0.021640181
0.021717804
0.021798853
0.021883476
0.021971824
0.022064051
0.022160311
0.022260763
0.022365568
0.022474888
0.022588887
0.022707733
0.022831594
0.022960639
0.023095043
0.023234976
0.023380616
0.023532138
0.023689719
0.02385354
0.02402378
0.024200624
0.024384254
0.02457486
0.020502948
0.020533689
0.020565408
0.020597737
0.020631085
0.020665618
0.020701098
0.020737588
0.020775373
0.02081448
0.020855025
0.020896558
0.020939768
0.020984823
0.021031512
0.021079857
0.02113015
0.021182505
0.021236941
0.02129361
0.021352652
0.021414165
0.021478281
0.021545128
0.021614841
0.021687557
0.021763417
0.021842561
0.021925136
0.022011289
0.02210117
0.022194931
0.022292729
0.022394721
0.022501067
0.02261193
0.022727474
0.022847865
0.02297327
0.023103861
0.023239809
0.023381285
0.023528466
0.023681526
0.023840642
0.024005993
0.024177759
0.024356122
0.024541264
0.024733373
0.02060064
0.020632561
0.020665438
0.020699144
0.020733851
0.020769694
0.020806363
0.020844279
0.020883498
0.020923937
0.020965773
0.021008918
0.021053629
0.021100074
0.021148315
0.021197921
0.021249672
0.021303602
0.021359488
0.021417629
0.021478197
0.021541214
0.021606846
0.021675213
0.021746452
0.021820702
0.021898102
0.021978795
0.022062923
0.022150636
0.022242082
0.022337414
0.022436787
0.022540359
0.022648289
0.02276074
0.022877874
0.022999859
0.023126861
0.023259049
0.023396595
0.023539671
0.02368845
0.023843108
0.02400382
0.024170764
0.024344119
0.024524066
0.024710786
0.024904464
0.020711894
0.020744889
0.020778873
0.020813759
0.020849671
0.020886679
0.020924715
0.020963963
0.021004524
0.021046147
0.02108935
0.021133921
0.021180041
0.02122786
0.021277396
0.021328647
0.021381897
0.021437333
0.021494493
0.021554052
0.021616219
0.021680702
0.021747856
0.021817741
0.02189051
0.021966302
0.022045256
0.022127512
0.022213214
0.022302508
0.022395544
0.022492475
0.022593455
0.022698641
0.022808192
0.022922269
0.023041037
0.023164659
0.023293304
0.023427139
0.023566335
0.023711063
0.023861496
0.024017808
0.024180175
0.024348772
0.024523778
0.024705372
0.024893734
0.025089049
0.020838319
0.020872242
0.020907254
0.020943173
0.020980182
0.021018297
0.02105749
0.021097942
0.021139661
0.021182665
0.021227165
0.021272945
0.021320355
0.021369553
0.021420405
0.021473103
0.021527751
0.021584474
0.021643255
0.021704364
0.021768024
0.021833742
0.021902466
0.02197384
0.02204813
0.022125461
0.02220597
0.022289796
0.02237708
0.022467968
0.022562612
0.022661161
0.022763771
0.022870597
0.022981799
0.023097536
0.023217973
0.023343272
0.023473601
0.023609127
0.02375002
0.02389645
0.024048589
0.02420661
0.024370688
0.024540997
0.024717714
0.024901017
0.025091085
0.0252881
0.020981775
0.021016364
0.02105222
0.021089058
0.02112703
0.021166092
0.021206337
0.021247848
0.021290638
0.021334787
0.021380407
0.021427475
0.021476172
0.02152663
0.021578626
0.021632699
0.021688663
0.021746717
0.02180693
0.021869457
0.021934428
0.022001856
0.022072104
0.022144699
0.0222205
0.022299357
0.022381412
0.022466801
0.022555665
0.02264815
0.022744407
0.022844585
0.022948839
0.023057325
0.023170199
0.023287623
0.023409758
0.023536768
0.023668817
0.023806074
0.023948706
0.024096883
0.024250777
0.024410558
0.024576399
0.024748476
0.024926962
0.025112034
0.025303869
0.025502648
0.021144301
0.021179428
0.021215729
0.021253112
0.021291876
0.021331832
0.021372921
0.021415319
0.02145906
0.021504214
0.021550861
0.021598994
0.021648822
0.021700363
0.021753677
0.021808975
0.021866056
0.021925399
0.021986925
0.022050794
0.022117109
0.022185976
0.022257567
0.022331957
0.022408981
0.022489241
0.022572824
0.022659755
0.022750184
0.022844256
0.022942121
0.023043929
0.023149833
0.023259987
0.023374549
0.023493677
0.023617532
0.023746278
0.023880079
0.0240191
0.024163508
0.024313474
0.024469165
0.024630752
0.024798408
0.024972304
0.025152615
0.025339513
0.025533175
0.025733779
0.021327871
0.021363214
0.021399797
0.021437603
0.021476656
0.021517244
0.021558952
0.021602159
0.021646653
0.021692618
0.021740113
0.0217892
0.021839989
0.021892497
0.021946889
0.022003236
0.022061618
0.022122026
0.022184698
0.02224983
0.022317419
0.022387606
0.022460518
0.022536257
0.022614913
0.022696785
0.022781522
0.022869954
0.022961918
0.023057555
0.023157012
0.023260438
0.023367986
0.023479808
0.023596061
0.023716903
0.023842494
0.023972995
0.024108569
0.024249382
0.024395599
0.024547387
0.024704916
0.024868352
0.025037868
0.025213633
0.02539582
0.025584599
0.025780146
0.025982636
0.021534592
0.02156983
0.021606416
0.021644344
0.021683633
0.021724333
0.021766338
0.021810038
0.021855194
0.021901793
0.021949946
0.02199976
0.022051316
0.022104684
0.022159974
0.022217218
0.022276578
0.022338104
0.022401967
0.022468096
0.022536829
0.022608236
0.022682406
0.022759452
0.022839501
0.022922721
0.023009217
0.023098793
0.023192209
0.023289373
0.023390391
0.023495413
0.023604589
0.023718069
0.023836009
0.023958565
0.024085896
0.024218163
0.024355527
0.024498152
0.024646202
0.024799844
0.024959243
0.025124567
0.025295985
0.025473665
0.025657776
0.02584849
0.026045976
0.02625041
0.021766626
0.021801405
0.021837656
0.021875368
0.021914545
0.0219552
0.021997325
0.022040973
0.022086479
0.022133423
0.022182156
0.022232466
0.022284587
0.022338594
0.022394571
0.022452601
0.022512796
0.022575187
0.02263998
0.022707234
0.022776953
0.022849384
0.022924716
0.023002972
0.023084289
0.023168804
0.023256644
0.023347942
0.0234425
0.023541083
0.023643621
0.023750204
0.023860979
0.023976095
0.024095706
0.024219967
0.024349036
0.024483071
0.024622233
0.024766684
0.024916587
0.025072106
0.025233405
0.025400651
0.025574009
0.025753646
0.025939729
0.026132427
0.026331907
0.026538342
0.02202614
0.022060073
0.022095616
0.022132749
0.022171466
0.02221177
0.022253672
0.022297201
0.02234239
0.022389555
0.022438388
0.022489093
0.022541574
0.022595987
0.022652445
0.022711034
0.02277185
0.022834984
0.022900526
0.022968574
0.023039278
0.023112763
0.023188979
0.023268315
0.023350781
0.023436499
0.023525599
0.023618212
0.023714462
0.02381411
0.023918091
0.024026189
0.024138524
0.024255243
0.024376499
0.024502447
0.024633241
0.024769039
0.024910001
0.025056286
0.025208055
0.02536547
0.025528695
0.025697892
0.025873226
0.026054862
0.026242963
0.026437695
0.026639224
0.026847719
0.022284295
0.022315259
0.02234792
0.022382358
0.022418523
0.022456406
0.022496005
0.022537332
0.02258041
0.02262528
0.022672014
0.022720545
0.022771273
0.022823959
0.022878615
0.022935311
0.022994223
0.023055445
0.023119071
0.023185198
0.023253936
0.023325349
0.023399619
0.023476845
0.023557011
0.023640474
0.023727279
0.023817535
0.023911383
0.024008984
0.024110049
0.024215202
0.024324758
0.0244386
0.024556879
0.024679746
0.024807352
0.024939852
0.025077402
0.025220159
0.025368281
0.025521926
0.025681256
0.025846429
0.026017609
0.026194956
0.026378631
0.026568798
0.026765619
0.026969256
0.027179875
0.022606839
0.022635885
0.022666902
0.022699853
0.022734634
0.022771287
0.022809796
0.022850168
0.022892422
0.022936587
0.022982701
0.023030784