/*--------------------------------*- C++ -*----------------------------------*\
| =========                 |                                                 |
| \\      /  F ield         | OpenFOAM: The Open Source CFD Toolbox           |
|  \\    /   O peration     | Version:  2312                                  |
|   \\  /    A nd           | Website:  www.openfoam.com                      |
|    \\/     M anipulation  |                                                 |
\*---------------------------------------------------------------------------*/
FoamFile
{
    version     2.0;
    format      ascii;
    arch        "LSB;label=32;scalar=64";
    class       volScalarField;
    location    "0.07";
    object      CH4;
}
// * * * * * * * * * * * * * * * * * * * * * * * * * * * * * * * * * * * * * //

dimensions      [0 0 0 0 0 0 0];

internalField   nonuniform List<scalar> 
3250
(
0.10341001
0.10230413
0.10122526
0.10017138
0.099140586
0.09813108
0.097141119
0.096169038
0.095213229
0.094272143
0.09334428
0.092428185
0.091522449
0.090625701
0.089736606
0.088853867
0.08797622
0.087102434
0.086231312
0.085361688
0.084492433
0.08362245
0.082750679
0.081876097
0.080997722
0.080114612
0.079225872
0.078330652
0.077428153
0.07651763
0.075598394
0.074669816
0.07373133
0.072782436
0.071822704
0.070851777
0.06986937
0.068875279
0.067869378
0.066851623
0.065822052
0.06478079
0.063728046
0.062664108
0.061589255
0.060503944
0.059408811
0.058304479
0.05719166
0.10338463
0.10227973
0.10120176
0.10014873
0.099118735
0.09810998
0.097120729
0.096149317
0.095194143
0.094253656
0.093326361
0.092410806
0.091505582
0.09060932
0.089720689
0.088838391
0.087961164
0.087087779
0.08621704
0.085347783
0.084478879
0.083609232
0.082737784
0.081863512
0.080985436
0.080102614
0.079214151
0.078319198
0.077416959
0.076506688
0.075587696
0.074659355
0.073721101
0.072772432
0.071812921
0.070842208
0.069860013
0.068866128
0.06786043
0.066842875
0.0658135
0.064772429
0.06371987
0.062656103
0.061581442
0.060496348
0.059401417
0.058297278
0.057184635
0.1033338
0.10223084
0.10115468
0.10010334
0.099074948
0.098067696
0.097079863
0.09610979
0.09515588
0.094216591
0.093290429
0.092375948
0.091471743
0.090576448
0.089688736
0.088807313
0.087930918
0.087058327
0.086188344
0.08531981
0.084451597
0.083582611
0.082711796
0.081838132
0.080960638
0.080078377
0.079190453
0.078296022
0.077394285
0.0764845
0.075565979
0.074638095
0.073700285
0.072752049
0.071792959
0.070822658
0.069840865
0.068847375
0.067842064
0.066824888
0.065795888
0.064755184
0.063702984
0.062639566
0.061565268
0.060480551
0.059385989
0.05828221
0.057169912
0.10325758
0.10215752
0.10108407
0.10003527
0.099009271
0.098004272
0.097018563
0.096050496
0.095098481
0.094160984
0.093236518
0.092323645
0.091420964
0.090527117
0.089640779
0.088760663
0.087885512
0.087014106
0.086145253
0.085277797
0.084410613
0.083542612
0.08267274
0.081799979
0.080923353
0.080041924
0.079154803
0.078261144
0.077360152
0.076451087
0.075533264
0.074606056
0.073668901
0.072721304
0.071762836
0.070793142
0.069811943
0.068819035
0.067814295
0.06679768
0.06576923
0.064729069
0.063677402
0.06261451
0.061540746
0.060456569
0.059362541
0.058259287
0.057147503
0.10315606
0.10205984
0.10099
0.099944585
0.098921765
0.097919764
0.096936883
0.095971484
0.095021991
0.094086879
0.093164672
0.092253937
0.091353285
0.090461362
0.089576853
0.088698474
0.087824977
0.086955145
0.086087794
0.08522177
0.084355954
0.083489261
0.08262064
0.081749078
0.080873602
0.079993279
0.07910722
0.078214585
0.07731458
0.076406469
0.075489568
0.074563254
0.073626968
0.072680215
0.071722569
0.070753678
0.069773264
0.068781124
0.067777138
0.066761263
0.065733542
0.064694099
0.063643139
0.062580947
0.061507884
0.060424412
0.059331083
0.05822852
0.057117418
0.10303659
0.10194488
0.10087927
0.099837839
0.098818761
0.097820286
0.096840729
0.095878468
0.09493194
0.093999632
0.093080079
0.092171858
0.09127359
0.09038393
0.08950157
0.088625234
0.08775368
0.086885699
0.086020111
0.08515577
0.084291561
0.083426403
0.082559252
0.081689099
0.080814973
0.079935947
0.079051135
0.0781597
0.077260854
0.076353861
0.075438041
0.074512776
0.073577507
0.072631743
0.071675061
0.07070711
0.069727614
0.068736375
0.067733271
0.066718264
0.065691397
0.064652795
0.063602666
0.062541296
0.061469054
0.060386401
0.059293886
0.058192131
0.057081829
0.10290288
0.10181621
0.10075533
0.099718347
0.098703453
0.097708918
0.096733078
0.095774325
0.094831112
0.09390194
0.092985354
0.092079946
0.091184343
0.090297213
0.089417255
0.088543203
0.087673823
0.086807911
0.085944294
0.085081834
0.084219421
0.083355981
0.082490472
0.081621892
0.080749276
0.079871699
0.07898828
0.078098187
0.077200634
0.07629489
0.075380278
0.074456184
0.07352205
0.072577391
0.071621784
0.070654883
0.069676413
0.068686178
0.06768406
0.066670021
0.065644107
0.064606445
0.063557244
0.062496793
0.061425467
0.060343725
0.059252117
0.058151262
0.057041854
0.10274451
0.1016638
0.10060852
0.099576789
0.098566842
0.097576969
0.096605525
0.095650923
0.094711632
0.093786169
0.092873094
0.091971013
0.091078565
0.090194428
0.089317313
0.088445964
0.087579155
0.086715691
0.085854408
0.084994173
0.084133886
0.083272477
0.082408912
0.081542193
0.080671362
0.079795499
0.078913729
0.078025222
0.077129199
0.076224932
0.07531175
0.074389039
0.073456249
0.072512895
0.07155856
0.0705929
0.069615643
0.068626596
0.067625643
0.066612749
0.065587963
0.064551412
0.063503309
0.062443947
0.061373701
0.060293036
0.059202498
0.058102706
0.056994354
0.10255976
0.10148599
0.10043722
0.099411607
0.098407422
0.097422979
0.096456655
0.095506889
0.094572167
0.093651025
0.092742042
0.091843837
0.090955065
0.090074417
0.089200616
0.088332416
0.087468604
0.086607993
0.08574943
0.08489179
0.084033979
0.083174938
0.082313638
0.08144909
0.080580339
0.079706474
0.078826625
0.077939967
0.077045727
0.076143182
0.075231664
0.074310566
0.073379342
0.07243751
0.071484657
0.070520442
0.069544599
0.068556935
0.06755734
0.066545781
0.065522308
0.064487054
0.063440231
0.062382138
0.061313152
0.06023374
0.059144447
0.058045892
0.056938772
0.10234683
0.10128103
0.10023974
0.099221172
0.098223614
0.097245416
0.096284985
0.095340782
0.094411318
0.093495151
0.092590877
0.091697134
0.090812594
0.089935962
0.089065975
0.088201402
0.08734104
0.086483716
0.085628284
0.084773631
0.083918673
0.083062358
0.082203668
0.081341618
0.080475264
0.0796037
0.078726063
0.077841535
0.076949349
0.076048786
0.075139186
0.074219946
0.073290524
0.072350445
0.071399299
0.07043675
0.069462534
0.068476465
0.067478434
0.066468412
0.065446453
0.064412692
0.063367346
0.062310714
0.061243179
0.060165208
0.059077348
0.057980219
0.056874517
0.10210384
0.10104711
0.10001434
0.099003781
0.098013768
0.097042682
0.096088961
0.095151095
0.094227622
0.093317121
0.092418213
0.091529555
0.090649837
0.089777783
0.088912144
0.088051706
0.087195277
0.086341698
0.085489837
0.084638591
0.083786886
0.08293368
0.082077965
0.081218765
0.080355144
0.079486204
0.07861109
0.077728992
0.076839147
0.075940846
0.075033434
0.074116313
0.073188947
0.072250867
0.071301668
0.070341019
0.06936866
0.06838441
0.067388164
0.066379897
0.065359666
0.064327609
0.063283947
0.062228984
0.061163105
0.060086779
0.059000553
0.05790505
0.056800966
0.10182883
0.10078233
0.099759171
0.098757658
0.097776163
0.096813106
0.095866962
0.094936253
0.094019545
0.093115446
0.0922226
0.091339687
0.090465419
0.089598537
0.088737814
0.087882048
0.087030066
0.086180723
0.085332899
0.084485504
0.083637477
0.082787788
0.081935437
0.081079461
0.080218932
0.07935296
0.0784807
0.07760135
0.076714155
0.075818413
0.074913476
0.073998753
0.073073714
0.072137896
0.071190901
0.070232402
0.069262146
0.068279955
0.067285729
0.066279448
0.065261173
0.064231046
0.063189293
0.062136219
0.061072214
0.059997749
0.058913374
0.057819711
0.056717459
0.10151979
0.10048474
0.099472343
0.098480959
0.097509005
0.096554946
0.095617295
0.094694609
0.093785487
0.092888567
0.09200252
0.091126052
0.090257897
0.08939682
0.088541611
0.08769109
0.086844099
0.085999509
0.085156218
0.084313147
0.083469251
0.08262351
0.081774938
0.080922582
0.080065525
0.079202888
0.078333835
0.077457572
0.076573355
0.075680488
0.074778332
0.073866303
0.07294388
0.072010605
0.071066087
0.070110005
0.069142112
0.068162236
0.067170282
0.066166235
0.06515016
0.064122204
0.063082596
0.062031648
0.060969751
0.059897379
0.058815085
0.057723492
0.0566233
0.10117462
0.1001523
0.099151879
0.098171767
0.097210435
0.096266394
0.0953382
0.09442445
0.093523779
0.092634858
0.091756389
0.090887104
0.090025764
0.089171159
0.0883221
0.087477427
0.086636004
0.085796717
0.084958482
0.084120237
0.083280949
0.082439615
0.081595261
0.080746946
0.079893766
0.079034853
0.07816938
0.077296565
0.076415672
0.075526017
0.074626968
0.07371795
0.072798449
0.071868015
0.070926265
0.069972885
0.069007633
0.068030345
0.06704093
0.066039381
0.065025766
0.064000238
0.06296303
0.061914459
0.060854919
0.059784888
0.05870492
0.057615641
0.056517754
0.10079116
0.099782919
0.098795739
0.097828098
0.096878521
0.09594557
0.095027848
0.094123995
0.093232687
0.092352628
0.091482555
0.090621232
0.089767448
0.088920018
0.088077779
0.087239593
0.086404345
0.085570942
0.084738317
0.083905427
0.083071255
0.082234813
0.081395141
0.080551314
0.079702438
0.07884766
0.077986164
0.07711718
0.076239981
0.075353895
0.074458298
0.073552625
0.072636373
0.071709097
0.070770425
0.069820048
0.068857734
0.067883323
0.066896734
0.065897962
0.064887084
0.063864258
0.062829721
0.061783794
0.060726877
0.05965945
0.058582071
0.057495368
0.056400045
0.10036719
0.09937443
0.098401819
0.097447904
0.096511269
0.095590531
0.094684345
0.093791398
0.092910407
0.092040118
0.091179303
0.090326761
0.089481311
0.088641796
0.087807083
0.086976056
0.086147624
0.085320717
0.084494287
0.083667311
0.082838789
0.082007751
0.081173253
0.080334384
0.079490266
0.078640058
0.077782959
0.07691821
0.076045097
0.075162957
0.074271178
0.073369208
0.072456548
0.071532769
0.070597502
0.06965045
0.068691388
0.067720163
0.066736702
0.065741007
0.06473316
0.063713325
0.062681747
0.06163875
0.060584739
0.059520198
0.058445687
0.057361838
0.056269357
0.099900435
0.098924616
0.097967956
0.097029077
0.096106623
0.095199272
0.094305734
0.093424747
0.092555074
0.091695504
0.090844851
0.090001947
0.089165648
0.088334827
0.08750838
0.086685219
0.085864277
0.08504451
0.08422489
0.083404416
0.082582108
0.081757014
0.080928207
0.080094794
0.079255912
0.078410735
0.077558476
0.076698389
0.075829775
0.074951982
0.07406441
0.073166517
0.072257818
0.07133789
0.070406377
0.069462991
0.068507514
0.067539803
0.066559792
0.06556749
0.064562988
0.063546455
0.062518141
0.061478377
0.060427573
0.059366216
0.058294872
0.057214173
0.056124828
0.099388568
0.098431202
0.097491933
0.096569451
0.095662468
0.094769727
0.093889996
0.093022068
0.092164758
0.091316901
0.090477353
0.089644986
0.088818692
0.08799738
0.087179975
0.08636542
0.085552677
0.084740725
0.083928562
0.083115208
0.082299707
0.081481124
0.080658554
0.07983112
0.078997978
0.078158316
0.077311365
0.076456392
0.075592713
0.074719689
0.073836734
0.072943317
0.072038965
0.071123267
0.070195877
0.069256516
0.068304978
0.067341129
0.066364908
0.065376337
0.064375511
0.063362607
0.062337883
0.061301674
0.060254397
0.059196543
0.058128681
0.057051448
0.055965554
0.098829214
0.097891871
0.096971485
0.096066813
0.095176639
0.094299777
0.093435058
0.092581334
0.091737474
0.090902363
0.090074903
0.089254009
0.088438613
0.08762766
0.086820109
0.086014936
0.085211131
0.084407702
0.083603673
0.082798088
0.081990014
0.081178539
0.080362779
0.079541874
0.078715001
0.077881365
0.077040214
0.076190831
0.075332547
0.074464738
0.073586832
0.072698311
0.071798715
0.070887646
0.069964768
0.069029815
0.06808259
0.067122969
0.066150902
0.065166416
0.064169618
0.063160692
0.062139902
0.061107591
0.06006418
0.059010167
0.057946124
0.05687269
0.055790581
0.099152475
0.098219932
0.09730427
0.096404312
0.095518907
0.094646927
0.093787255
0.092938795
0.09210046
0.091271178
0.090449886
0.089635537
0.088827091
0.088023521
0.087223813
0.086426963
0.085631979
0.084837885
0.084043718
0.08324853
0.082451393
0.081651397
0.080847655
0.080039303
0.079225506
0.078405457
0.077578383
0.076743548
0.075900255
0.07504785
0.074185725
0.073313323
0.072430141
0.071535734
0.070629714
0.06971176
0.068781618
0.067839101
0.066884096
0.065916565
0.064936543
0.063944146
0.062939566
0.061923076
0.060895024
0.05985584
0.058806025
0.057746158
0.056676881
0.05559891
0.098466052
0.097558347
0.096666035
0.095788084
0.094923447
0.094071082
0.093229954
0.092399039
0.091577318
0.090763779
0.089957417
0.089157237
0.088362248
0.087571469
0.086783926
0.085998655
0.085214702
0.084431124
0.083646989
0.08286138
0.082073398
0.08128216
0.080486802
0.079686486
0.0788804
0.078067757
0.077247807
0.076419831
0.075583152
0.074737133
0.073881185
0.073014767
0.07213739
0.071248624
0.070348098
0.069435502
0.068510595
0.067573204
0.066623226
0.065660634
0.064685475
0.063697873
0.062698029
0.061686225
0.060662817
0.05962824
0.058583004
0.057527691
0.056462948
0.055389494
0.097723197
0.096842061
0.095974789
0.095120457
0.09427812
0.093446829
0.092625634
0.091813586
0.091009737
0.090213142
0.089422856
0.088637938
0.087857449
0.087080457
0.086306032
0.085533252
0.084761201
0.083988972
0.08321567
0.082440408
0.081662317
0.080880543
0.08009425
0.079302625
0.078504879
0.077700251
0.07688801
0.076067461
0.075237945
0.074398846
0.073549592
0.072689659
0.071818577
0.07093593
0.070041363
0.069134582
0.068215358
0.067283532
0.066339014
0.065381788
0.064411912
0.063429521
0.062434826
0.061428117
0.060409758
0.059380193
0.058339937
0.057289578
0.056229771
0.055161232
0.09692146
0.096068673
0.095228157
0.094399082
0.093580606
0.092771876
0.091972031
0.091180202
0.090395517
0.089617097
0.088844062
0.088075529
0.087310615
0.086548437
0.085788112
0.085028763
0.084269516
0.083509501
0.082747859
0.081983739
0.081216303
0.080444728
0.079668206
0.078885953
0.078097204
0.077301224
0.076497305
0.075684775
0.074862996
0.074031373
0.073189353
0.072336432
0.071472157
0.070596131
0.069708013
0.068807526
0.067894456
0.066968658
0.066030055
0.065078644
0.064114496
0.063137755
0.062148643
0.06114746
0.06013458
0.059110452
0.058075601
0.057030622
0.055976174
0.054912978
0.096892262
0.096058399
0.095235806
0.094423783
0.09362162
0.092828586
0.092043926
0.091266872
0.090496639
0.089732433
0.088973446
0.088218864
0.087467867
0.086719629
0.085973318
0.085228104
0.084483154
0.083737638
0.082990728
0.082241602
0.081489445
0.080733455
0.079972839
0.079206821
0.078434645
0.077655575
0.076868901
0.076073942
0.075270047
0.074456604
0.073633037
0.072798817
0.071953458
0.071096527
0.070227645
0.06934649
0.0684528
0.067546378
0.066627094
0.065694885
0.064749762
0.063791808
0.06282118
0.06183811
0.060842909
0.059835959
0.058817719
0.057788721
0.056749569
0.05570093
0.054643533
0.095931637
0.095131718
0.094341137
0.093559345
0.092785759
0.092019757
0.091260691
0.090507884
0.089760642
0.089018249
0.088279973
0.087545069
0.08681278
0.086082341
0.085352976
0.084623905
0.083894347
0.083163514
0.082430624
0.081694893
0.080955547
0.080211816
0.079462945
0.078708188
0.07794682
0.077178135
0.07640145
0.07561611
0.074821492
0.074017006
0.073202101
0.072376268
0.071539045
0.070690019
0.06982883
0.068955173
0.068068808
0.067169552
0.066257291
0.065331979
0.064393641
0.063442372
0.062478343
0.061501798
0.060513057
0.059512514
0.058500636
0.057477964
0.05644511
0.055402755
0.054351651
0.094903311
0.094139184
0.093382412
0.09263258
0.091889228
0.091151851
0.090419905
0.089692811
0.088969963
0.08825073
0.087534457
0.086820469
0.086108079
0.08539658
0.084685257
0.083973384
0.083260228
0.082545053
0.081827119
0.081105685
0.080380017
0.079649384
0.078913064
0.078170347
0.077420541
0.076662969
0.075896978
0.075121943
0.074337265
0.073542381
0.072736766
0.071919933
0.071091443
0.070250905
0.069397979
0.068532383
0.067653892
0.066762343
0.06585764
0.064939752
0.064008718
0.063064651
0.062107732
0.061138219
0.060156443
0.059162808
0.058157791
0.057141941
0.056115879
0.055080302
0.093805168
0.093078661
0.092357465
0.091641298
0.090929824
0.090222652
0.089519346
0.088819426
0.088122378
0.087427655
0.086734682
0.08604286
0.085351567
0.084660163
0.083967992
0.083274384
0.08257866
0.081880132
0.081178108
0.080471891
0.079760789
0.079044109
0.078321168
0.077591292
0.076853821
0.076108112
0.075353543
0.074589517
0.073815466
0.073030852
0.072235175
0.071427977
0.07060884
0.069777397
0.06893333
0.068076378
0.067206335
0.066323059
0.065426471
0.064516558
0.063593376
0.062657049
0.061707777
0.060745829
0.059771547
0.058785347
0.057787716
0.05677921
0.055760455
0.054732138
0.092635243
0.091948136
0.091264241
0.090583408
0.089905425
0.089230015
0.088556851
0.087885553
0.0872157
0.086546833
0.085878457
0.085210047
0.084541055
0.083870905
0.083199003
0.082524738
0.081847484
0.081166606
0.08048146
0.079791394
0.07909576
0.078393907
0.077685189
0.076968972
0.076244629
0.075511552
0.074769151
0.074016861
0.073254142
0.072480486
0.07169542
0.070898512
0.070089371
0.069267651
0.068433061
0.067585359
0.066724363
0.065849949
0.064962059
0.064060696
0.063145934
0.062217914
0.06127685
0.060323024
0.059356793
0.058378581
0.057388886
0.056388273
0.055377372
0.054356872
0.091391751
0.090745757
0.090100826
0.089456943
0.088814018
0.08817189
0.087530337
0.086889083
0.086247802
0.085606118
0.084963622
0.084319866
0.083674372
0.083026633
0.082376118
0.081722276
0.081064537
0.080402318
0.079735024
0.079062055
0.078382803
0.077696662
0.077003027
0.0763013
0.075590894
0.074871234
0.074141765
0.073401954
0.072651292
0.071889301
0.071115539
0.070329597
0.069531114
0.068719769
0.067895294
0.067057473
0.066206144
0.065341205
0.064462617
0.063570405
0.062664658
0.061745536
0.060813267
0.059868148
0.058910548
0.057940905
0.056959726
0.055967584
0.054965115
0.053953016
0.090073121
0.089469856
0.088865471
0.088260083
0.087653722
0.08704634
0.086437824
0.085827998
0.085216629
0.084603431
0.083988075
0.083370194
0.082749382
0.0821252
0.081497183
0.080864839
0.080227657
0.079585107
0.078936646
0.078281721
0.077619772
0.076950237
0.076272552
0.07558616
0.074890511
0.074185067
0.073469309
0.072742736
0.072004873
0.071255273
0.070493522
0.069719243
0.0689321
0.068131801
0.067318103
0.066490813
0.065649793
0.064794965
0.06392631
0.063043872
0.062147761
0.061238152
0.06031529
0.059379488
0.058431129
0.057470662
0.056498605
0.05551554
0.054522113
0.053519027
0.088678018
0.088118985
0.087556621
0.086991183
0.086422816
0.085851574
0.085277455
0.084700387
0.084120227
0.083536775
0.082949786
0.082358971
0.081764001
0.081164503
0.080560078
0.079950295
0.079334702
0.078712824
0.07808417
0.077448238
0.076804515
0.076152483
0.075491621
0.074821415
0.074141352
0.073450934
0.072749676
0.072037113
0.071312804
0.070576334
0.069827321
0.069065417
0.068290316
0.067501753
0.066699511
0.065883424
0.065053379
0.064209319
0.063351249
0.062479233
0.0615934
0.060693946
0.05978113
0.058855282
0.057916798
0.056966142
0.056003842
0.055030491
0.054046741
0.053053309
0.087205389
0.086691941
0.086172944
0.085648806
0.085119762
0.084585965
0.084047524
0.083504475
0.082956761
0.082404261
0.081846816
0.081284219
0.080716213
0.080142495
0.079562729
0.078976549
0.078383561
0.077783344
0.077175462
0.076559463
0.075934882
0.075301248
0.074658084
0.074004915
0.073341272
0.072666695
0.071980735
0.071282964
0.070572975
0.069850387
0.069114851
0.06836605
0.067603706
0.066827586
0.0660375
0.065233307
0.064414921
0.06358231
0.062735499
0.061874576
0.06099969
0.060111055
0.059208949
0.058293719
0.057365773
0.05642559
0.05547371
0.054510736
0.05353733
0.052554218
0.085654494
0.085187807
0.084713358
0.084231745
0.083743242
0.08324808
0.082746496
0.082238646
0.081724539
0.081204127
0.080677338
0.080144056
0.079604093
0.079057209
0.078503133
0.077941565
0.07737217
0.076794581
0.076208417
0.075613275
0.075008742
0.074394392
0.073769793
0.073134513
0.072488123
0.071830202
0.071160341
0.070478149
0.069783254
0.06907531
0.068354
0.067619041
0.066870187
0.066107232
0.065330016
0.064538427
0.063732404
0.06291194
0.062077085
0.061227948
0.0603647
0.059487574
0.058596868
0.057692943
0.056776225
0.055847205
0.054906436
0.053954532
0.052992165
0.052020069
0.084024986
0.083605975
0.083177039
0.082739062
0.08229219
0.081836706
0.081373032
0.080901468
0.080422043
0.079934762
0.079439661
0.078936725
0.078425826
0.077906774
0.077379368
0.07684338
0.076298531
0.075744505
0.075180976
0.074607594
0.074023994
0.073429798
0.07282462
0.072208069
0.071579759
0.070939308
0.070286347
0.069620521
0.068941497
0.068248964
0.067542638
0.066822271
0.066087647
0.065338593
0.064574977
0.063796717
0.063003778
0.062196179
0.061373995
0.060537359
0.059686462
0.058821559
0.057942966
0.05705106
0.056146286
0.055229147
0.054300208
0.053360096
0.052409491
0.051449137
0.082317039
0.081946166
0.081563402
0.081170137
0.080765841
0.080350872
0.079925994
0.079491724
0.079047955
0.078594728
0.078132239
0.07766061
0.077179734
0.07668944
0.076189618
0.075680125
0.075160729
0.074631158
0.074091144
0.073540391
0.072978583
0.072405389
0.071820467
0.071223471
0.070614055
0.069991879
0.069356611
0.068707938
0.06804556
0.067369206
0.066678626
0.065973605
0.065253961
0.064519553
0.063770279
0.063006086
0.062226967
0.061432969
0.06062419
0.059800789
0.058962979
0.058111034
0.057245291
0.056366145
0.055474055
0.054569541
0.053653179
0.052725608
0.051787519
0.050839663
0.080531722
0.080208356
0.079871958
0.07952478
0.079163807
0.078789855
0.078404427
0.078008457
0.077601208
0.07718278
0.076753684
0.076314263
0.075864309
0.075403601
0.074932183
0.074450043
0.073956955
0.073452675
0.072937007
0.072409714
0.071870518
0.071319141
0.070755285
0.070178646
0.06958892
0.068985807
0.068369016
0.067738269
0.06709331
0.066433899
0.065759825
0.065070908
0.064366999
0.063647988
0.062913806
0.06216443
0.061399881
0.060620233
0.059825612
0.059016198
0.058192228
0.057353999
0.056501866
0.055636243
0.054757605
0.053866485
0.052963475
0.052049224
0.051124432
0.050189858
0.07866415
0.078392342
0.078101804
0.077803643
0.077486209
0.077153133
0.07680743
0.076451095
0.076081056
0.075697865
0.07530273
0.074896439
0.074478272
0.074047812
0.073605488
0.073151509
0.072685533
0.072207299
0.071716753
0.071213701
0.07069789
0.070169102
0.069627085
0.069071576
0.068502311
0.067919028
0.067321477
0.066709419
0.066082635
0.065440925
0.064784113
0.064112054
0.063424634
0.062721776
0.062003443
0.061269641
0.060520422
0.059755887
0.058976188
0.058181531
0.057372175
0.056548439
0.055710697
0.054859383
0.053994987
0.053118058
0.0522292
0.051329074
0.050418389
0.049497914
0.076720242
0.076501535
0.076259083
0.076003754
0.075730797
0.075440203
0.075133673
0.074819883
0.074487199
0.074139071
0.073778094
0.073406177
0.073020696
0.072620792
0.072208038
0.071783068
0.071344959
0.070893389
0.070428681
0.069950612
0.069458889
0.068953411
0.06843396
0.067900316
0.067352248
0.066789535
0.066211962
0.065619332
0.065011465
0.064388199
0.063749395
0.063094943
0.062424763
0.061738813
0.061037086
0.060319621
0.0595865
0.05883785
0.058073851
0.057294733
0.05650078
0.055692332
0.054869783
0.054033585
0.053184245
0.052322327
0.051448448
0.050563278
0.049667539
0.048762005
0.07470495
0.074532837
0.074337979
0.074129494
0.073901361
0.073652506
0.073389196
0.073111425
0.07281645
0.072505463
0.072177976
0.071843105
0.071491307
0.071121326
0.070738253
0.070343527
0.069933996
0.069509379
0.069071227
0.068618875
0.068151816
0.067670314
0.067174101
0.066663008
0.066136837
0.065595395
0.065038507
0.064466017
0.063877785
0.063273685
0.062653619
0.062017509
0.061365312
0.060697018
0.060012655
0.059312291
0.058596038
0.057864052
0.05711654
0.056353757
0.05557601
0.054783661
0.053977125
0.05315687
0.052323422
0.051477357
0.050619307
0.049749953
0.048870024
0.047980302
0.072616077
0.072492904
0.07234577
0.072180652
0.071995121
0.071788465
0.071568998
0.071329629
0.071071649
0.07079857
0.070508486
0.070204791
0.06988496
0.069547785
0.069193875
0.068832386
0.068451903
0.068053527
0.067643001
0.067217199
0.066775045
0.06631819
0.065845805
0.065357906
0.064854285
0.064334774
0.063799236
0.06324756
0.062679647
0.062095412
0.06149479
0.060877741
0.060244256
0.059594359
0.058928109
0.058245607
0.057546994
0.056832456
0.056102224
0.055356579
0.054595853
0.053820428
0.053030739
0.052227273
0.051410572
0.050581226
0.049739878
0.048887221
0.048023993
0.047150983
0.070457052
0.070380276
0.070279611
0.070159937
0.070017507
0.069853788
0.069672944
0.069472033
0.069251389
0.069018113
0.068763111
0.068493032
0.068206193
0.067901607
0.067580978
0.067246
0.066893758
0.066522768
0.066143077
0.065744952
0.065326748
0.064895644
0.064447478
0.063983389
0.063502927
0.063005953
0.062492377
0.061962143
0.061415196
0.060851488
0.06027099
0.059673697
0.059059634
0.058428858
0.057781462
0.057117576
0.056437372
0.055741062
0.055028907
0.054301211
0.053558329
0.052800664
0.052028671
0.051242856
0.050443773
0.04963203
0.048808281
0.047973227
0.047127615
0.046272239
0.068230137
0.068199604
0.06814547
0.068067822
0.06796766
0.067845038
0.067705328
0.067542436
0.067360911
0.067161247
0.066940923
0.066707399
0.066454441
0.066181168
0.065892737
0.065586939
0.06526417
0.06492404
0.064568819
0.06419592
0.063803418
0.06340213
0.062977486
0.062538013
0.062081256
0.061607353
0.061116282
0.060608062
0.060082679
0.059540122
0.058980394
0.058403523
0.057809567
0.057198618
0.056570798
0.055926271
0.055265236
0.054587935
0.053894651
0.053185717
0.052461507
0.051722447
0.050969011
0.05020172
0.049421145
0.048627907
0.04782267
0.047006145
0.046179087
0.045342294
0.065940166
0.065954109
0.065942917
0.065907689
0.065849369
0.065767626
0.065664954
0.065539906
0.065397283
0.065233268
0.065048792
0.064847328
0.064626046
0.064384698
0.064130669
0.06385373
0.063560891
0.06324993
0.062921795
0.062575802
0.062211787
0.061831609
0.061431076
0.061020795
0.060587964
0.060137556
0.059669435
0.059183737
0.058680468
0.05815964
0.057621287
0.057065468
0.056492275
0.055901831
0.055294292
0.05466985
0.054028733
0.05337121
0.052697591
0.052008229
0.051303523
0.050583918
0.049849906
0.049102025
0.04834086
0.047567043
0.046781251
0.045984202
0.045176656
0.044359417
0.063590402
0.0636469
0.063677233
0.063682342
0.063663444
0.06362134
0.063556526
0.063469351
0.063361377
0.063231641
0.063082503
0.062915457
0.062725663
0.062517692
0.062291221
0.062044063
0.0617837
0.061501124
0.061200876
0.060882031
0.060544972
0.06018994
0.059816137
0.059424423
0.059020307
0.058595298
0.058150441
0.057687729
0.057207072
0.056708503
0.056192084
0.055657907
0.055106096
0.054536806
0.053950225
0.053346574
0.052726108
0.052089121
0.051435949
0.050766968
0.050082596
0.049383299
0.048669584
0.047942006
0.047201164
0.046447699
0.045682298
0.044905687
0.044118632
0.043321938
0.061184997
0.061281589
0.061351335
0.06139521
0.061414147
0.061408986
0.061380482
0.061329921
0.061256652
0.061161672
0.061045677
0.060909398
0.060751445
0.060577004
0.060379902
0.060163646
0.059927922
0.059676701
0.059405783
0.059113734
0.058803463
0.058474452
0.058126698
0.057760694
0.057377249
0.056973462
0.056557971
0.056118764
0.055661163
0.055185329
0.054691353
0.05417936
0.053649507
0.053101984
0.052537008
0.051954827
0.051355724
0.050740017
0.050108064
0.049460263
0.048797052
0.048118913
0.047426372
0.046719996
0.046000395
0.045268224
0.044524174
0.043768979
0.043003407
0.042228267
0.058728451
0.058862367
0.058969013
0.059049323
0.059104163
0.059134318
0.059140449
0.059123583
0.059084231
0.059022666
0.058938963
0.058834066
0.058708055
0.058561921
0.058394198
0.058209814
0.058002815
0.057777482
0.057531429
0.057270073
0.056987126
0.056684141
0.056362016
0.056021088
0.055661485
0.05528268
0.054885217
0.054475116
0.054041599
0.053588919
0.053117836
0.052628513
0.052121146
0.05159596
0.0510532
0.050493141
0.049916088
0.049322384
0.048712407
0.048086575
0.047445343
0.046789211
0.046118718
0.045434445
0.044737012
0.044027081
0.043305352
0.042572562
0.041829483
0.041076922
0.056225496
0.056393646
0.056534346
0.056648466
0.056736812
0.056800127
0.05683909
0.056854369
0.056846609
0.056816143
0.056764204
0.056689764
0.056593869
0.056476941
0.056339034
0.056181016
0.056001502
0.055805633
0.055586966
0.055348534
0.055093892
0.054818709
0.054521842
0.054205928
0.053870861
0.053516604
0.053143366
0.052751363
0.052346526
0.05191829
0.051470481
0.051004244
0.050519836
0.05001751
0.049497539
0.048960219
0.048405878
0.047834877
0.047247614
0.046644524
0.04602608
0.045392796
0.044745223
0.044083952
0.043409614
0.042722876
0.042024445
0.041315058
0.040595489
0.039866544
0.053680991
0.053879987
0.054051596
0.054196608
0.054315764
0.054409748
0.054479195
0.054524696
0.054546776
0.054545838
0.054522763
0.054477888
0.054410947
0.054322289
0.054212425
0.054081659
0.053929935
0.05375773
0.053567799
0.053357219
0.053125684
0.052873618
0.052605909
0.052315118
0.052004669
0.051674836
0.051325781
0.05095771
0.050571023
0.050172353
0.049748472
0.049305646
0.048844604
0.048365616
0.047868967
0.04735497
0.04682397
0.046276347
0.045712515
0.045132924
0.044538063
0.043928456
0.043304667
0.042667294
0.042016977
0.041354386
0.040680231
0.039995251
0.039300217
0.038595933
0.050845773
0.051099809
0.051326008
0.051525114
0.051697835
0.051844833
0.051966727
0.052064092
0.052137459
0.052187312
0.052214086
0.052218205
0.052200298
0.052160714
0.052099471
0.052016317
0.051912005
0.051786744
0.051640885
0.051474926
0.05128794
0.051083918
0.050857643
0.050610948
0.050348234
0.050062775
0.049757211
0.049432223
0.049087837
0.04872377
0.048347622
0.047951173
0.047532019
0.047094715
0.046639502
0.04616667
0.045676544
0.045169484
0.044645885
0.044106176
0.04355082
0.042980318
0.042395205
0.041796052
0.041183465
0.040558087
0.039920592
0.03927169
0.038612119
0.037942646
0.037264069
0.048209994
0.048486743
0.048736279
0.048959246
0.04915626
0.049327901
0.049474713
0.049597206
0.04969585
0.049771082
0.049823301
0.049852881
0.04986016
0.049845642
0.049809685
0.04975246
0.049673303
0.049573148