/*--------------------------------*- C++ -*----------------------------------*\
| =========                 |                                                 |
| \\      /  F ield         | OpenFOAM: The Open Source CFD Toolbox           |
|  \\    /   O peration     | Version:  2312                                  |
|   \\  /    A nd           | Website:  www.openfoam.com                      |
|    \\/     M anipulation  |                                                 |
\*---------------------------------------------------------------------------*/
FoamFile
{
    version     2.0;
    format      ascii;
    arch        "LSB;label=32;scalar=64";
    class       volScalarField;
    location    "0.07";
    object      f_Bilger;
}
// * * * * * * * * * * * * * * * * * * * * * * * * * * * * * * * * * * * * * //

dimensions      [0 0 0 0 0 0 0];

internalField   nonuniform List<scalar> 
3250
(
0.11732276
0.11610114
0.11491115
0.11375058
0.11261735
0.11150946
0.11042499
0.10936211
0.10831904
0.10729407
0.10628554
0.10529185
0.10431141
0.10334272
0.10238427
0.10143462
0.10049234
0.099556054
0.098624395
0.09769604
0.096769693
0.095844093
0.094918008
0.093990242
0.093059637
0.092125072
0.091185467
0.090239788
0.089287047
0.088326307
0.087356687
0.086377362
0.085387571
0.084386616
0.083373873
0.082348787
0.081310883
0.080259765
0.079195119
0.078116721
0.077024432
0.075918208
0.074798101
0.073664241
0.072516674
0.071355722
0.070181989
0.068995997
0.067798388
0.11729367
0.11607318
0.11488424
0.11372465
0.11259234
0.11148531
0.11040166
0.10933955
0.10829721
0.10727293
0.10626505
0.10527197
0.10429213
0.10332399
0.10236607
0.10141692
0.10047512
0.099539287
0.098608062
0.097680121
0.096754171
0.095828949
0.094903227
0.093975809
0.093045537
0.092111293
0.091171996
0.090226614
0.08927416
0.088313697
0.087344345
0.08636528
0.08537574
0.084375031
0.083362526
0.082337673
0.081299995
0.080249098
0.079184669
0.078106482
0.0770144
0.075908376
0.074788457
0.073654759
0.072507395
0.071346697
0.07017319
0.068987407
0.067789968
0.11723548
0.11601724
0.11483039
0.11367276
0.11254229
0.111437
0.11035498
0.10929441
0.10825352
0.10723062
0.10622404
0.1052322
0.10425352
0.10328649
0.10232962
0.10138147
0.10044062
0.099505688
0.098575324
0.097648203
0.096723035
0.095798561
0.094873553
0.093946819
0.093017202
0.092083585
0.091144892
0.09020009
0.089248194
0.08828827
0.087319438
0.086340875
0.085351823
0.084351586
0.08333954
0.082315134
0.081277892
0.08022742
0.079163407
0.078085627
0.076993944
0.075888309
0.074768765
0.073635427
0.072488452
0.071328171
0.070155067
0.068969669
0.067772585
0.11714826
0.11593337
0.11474965
0.11359496
0.11246725
0.11136456
0.11028499
0.10922673
0.10818802
0.10716718
0.10616256
0.10517256
0.10419563
0.10323025
0.10227496
0.1013283
0.10038887
0.099455292
0.098526214
0.097600319
0.096676319
0.09575296
0.094829017
0.093903302
0.092974661
0.092041979
0.091104184
0.090160244
0.089209177
0.088250052
0.087281991
0.086304175
0.085315844
0.084316307
0.083304941
0.082281196
0.081244598
0.080194756
0.079131358
0.07805418
0.076963087
0.07585803
0.074739051
0.073606266
0.072459861
0.071300167
0.070127641
0.068942805
0.067746261
0.11703212
0.11582167
0.11464212
0.11349134
0.1123673
0.11126807
0.11019176
0.10913657
0.10810077
0.10708267
0.10608064
0.1050931
0.1041185
0.10315533
0.10220213
0.10125746
0.10031992
0.099388137
0.098460768
0.097536501
0.096614055
0.095692177
0.09476965
0.093845288
0.092917942
0.091986502
0.091049897
0.090107101
0.089157134
0.088199069
0.08723203
0.086255201
0.085267826
0.084269215
0.083258749
0.082235879
0.081200135
0.080151124
0.079088541
0.07801216
0.076921849
0.075817559
0.074699332
0.07356729
0.072421637
0.071262703
0.070090929
0.068906833
0.067711013
0.11689546
0.11569024
0.11451558
0.11336939
0.11224968
0.11115451
0.11008203
0.10903046
0.10799807
0.1069832
0.10598422
0.10499957
0.1040277
0.10306713
0.10211639
0.10117406
0.10023874
0.099309065
0.098383706
0.097461353
0.096540731
0.095620595
0.094699731
0.093776958
0.092851134
0.091921151
0.090985944
0.090044491
0.089095816
0.088138994
0.087173154
0.086197483
0.085211229
0.084213705
0.083204294
0.08218245
0.081147705
0.080099671
0.079038042
0.077962596
0.076873202
0.075769813
0.074652473
0.073521308
0.072376534
0.07121848
0.070047581
0.068864348
0.06766938
0.11674255
0.11554315
0.11437396
0.11323291
0.11211802
0.11102739
0.1099592
0.10891167
0.1078831
0.10687184
0.10587627
0.10489485
0.10392604
0.10296837
0.10202038
0.10108066
0.10014782
0.099220514
0.098297402
0.09737719
0.096458609
0.095540419
0.094621414
0.093700418
0.092776295
0.091847941
0.090914296
0.089974343
0.089027111
0.088071679
0.087107179
0.086132802
0.085147801
0.08415149
0.083143257
0.082122559
0.081088931
0.080041987
0.078981423
0.077907023
0.076818653
0.075716272
0.074599924
0.073469742
0.072325948
0.071168872
0.069998945
0.068816675
0.06762266
0.11656146
0.11536894
0.11420622
0.11307123
0.11196206
0.11087681
0.10981368
0.10877094
0.10774688
0.10673989
0.10574836
0.10477075
0.10380557
0.10285132
0.10190659
0.10096997
0.10004007
0.099115554
0.098195102
0.097277422
0.096361255
0.095445369
0.094528564
0.093609672
0.09268756
0.091761134
0.090829338
0.089891161
0.088945635
0.087991847
0.087028932
0.086056086
0.085072565
0.08407769
0.08307085
0.082051508
0.081019201
0.079973546
0.078914244
0.077841079
0.076753923
0.075652735
0.074537564
0.073408546
0.07226591
0.071109987
0.069941206
0.068760073
0.067567187
0.11635023
0.11516573
0.11401052
0.1128826
0.11178008
0.11070109
0.10964387
0.10860669
0.1075879
0.10658587
0.10559905
0.1046259
0.10366493
0.10271469
0.10177375
0.10084073
0.099914256
0.098992997
0.098075644
0.097160917
0.096247565
0.095334364
0.094420123
0.093503682
0.092583916
0.091659737
0.090730096
0.089793987
0.088850452
0.087898579
0.086937512
0.08596645
0.084984656
0.083991454
0.082986238
0.081968476
0.080937708
0.079893557
0.078835725
0.077764001
0.07667826
0.075578464
0.074464665
0.073337006
0.072195719
0.071041137
0.06987369
0.06869388
0.067502309
0.11610681
0.11493152
0.11378495
0.11266517
0.11157028
0.1104985
0.10944807
0.1084173
0.10740456
0.10640826
0.10542684
0.10445882
0.1035027
0.10255707
0.1016205
0.10069163
0.099769101
0.098851591
0.097937808
0.097026481
0.096116369
0.09520626
0.094294973
0.093381355
0.09246429
0.091542699
0.09061554
0.089681815
0.088740571
0.087790905
0.086831966
0.08586296
0.084883154
0.08389188
0.082888535
0.081872592
0.080843598
0.079801179
0.078745041
0.077674978
0.076590868
0.075492677
0.074380462
0.073254368
0.072114635
0.070961597
0.069795683
0.068617398
0.067427343
0.11582907
0.11466425
0.11352752
0.11241698
0.1113308
0.11026722
0.10922452
0.10820105
0.1071952
0.10620542
0.10523017
0.10426799
0.10331741
0.10237702
0.10144543
0.10052129
0.099603254
0.09869002
0.097780305
0.096872855
0.095966438
0.095059856
0.094151936
0.093241538
0.092327554
0.091408915
0.090484587
0.08955358
0.08861495
0.087667802
0.08671129
0.085744629
0.084767092
0.083778015
0.082776806
0.08176294
0.080735969
0.079695526
0.078641322
0.077573154
0.076490906
0.075394548
0.074284141
0.073159836
0.072021876
0.070870598
0.069706433
0.068529886
0.06734156
0.11551479
0.11436178
0.11323614
0.11213604
0.11105968
0.11000535
0.10897138
0.10795615
0.10695809
0.10597566
0.10500739
0.1040518
0.10310747
0.10217301
0.10124705
0.10032826
0.099415301
0.0985069
0.097601786
0.096698717
0.09579648
0.094893885
0.093989774
0.093083017
0.092172518
0.091257217
0.090336091
0.08940816
0.088472488
0.087528187
0.086574422
0.085610414
0.084635444
0.083648856
0.082650063
0.081638547
0.080613868
0.079575662
0.078523647
0.077457625
0.076377486
0.075283204
0.074174845
0.073052565
0.071916613
0.070767328
0.069605142
0.068430562
0.067244194
0.11516166
0.11402187
0.11290866
0.11182023
0.11075488
0.10971092
0.10868673
0.10768073
0.1066914
0.10571723
0.10475676
0.10380857
0.10287126
0.10194345
0.10102381
0.10011101
0.099203756
0.098300779
0.097400828
0.09650268
0.095605134
0.094707016
0.093807182
0.092904514
0.091997929
0.091086378
0.090168849
0.089244373
0.088312024
0.087370923
0.086420244
0.085459218
0.084487133
0.083503342
0.082507264
0.081498391
0.080476287
0.079440597
0.078391044
0.077327437
0.076249669
0.075157722
0.074051668
0.072931667
0.071797972
0.070650928
0.069490967
0.0683186
0.067134434
0.11476733
0.11364223
0.11254283
0.1114674
0.11041429
0.10938187
0.10836857
0.10737286
0.10639325
0.10542827
0.10447651
0.10353656
0.10260706
0.10168667
0.10077407
0.099867957
0.098967062
0.098070135
0.097175945
0.096283285
0.095390973
0.094497852
0.09360279
0.092704687
0.091802471
0.090895106
0.089981594
0.089060976
0.088132337
0.08719481
0.086247579
0.085289883
0.084321022
0.083340355
0.082347313
0.081341392
0.080322167
0.079289289
0.078242488
0.07718158
0.076106465
0.07501713
0.073913653
0.072796201
0.071665031
0.070520492
0.06936302
0.068193127
0.067011424
0.11432934
0.11322048
0.11213635
0.11107529
0.11003572
0.10901608
0.10801483
0.10703051
0.10606166
0.10510687
0.10416475
0.10323394
0.1023131
0.10140093
0.10049613
0.099597436
0.098703593
0.097813376
0.096925576
0.096039006
0.095152503
0.094264927
0.093375163
0.092482126
0.09158476
0.090682045
0.089772993
0.08885666
0.087932142
0.086998586
0.086055186
0.085101192
0.084135912
0.083158719
0.08216905
0.081166413
0.080150389
0.079120638
0.078076899
0.077018993
0.075946829
0.074860401
0.073759792
0.072645176
0.071516816
0.070375064
0.069220361
0.068053222
0.066874258
0.11384518
0.11275417
0.11168683
0.11064159
0.10961693
0.10861134
0.10762337
0.10665159
0.1056946
0.10475103
0.10381954
0.1028988
0.10198752
0.10108441
0.10018822
0.099297709
0.098411649
0.097528838
0.096648092
0.095768246
0.094888157
0.094006705
0.093122793
0.092235354
0.091343348
0.09044577
0.089541648
0.088630051
0.087710091
0.086780925
0.085841762
0.084891861
0.083930545
0.082957195
0.081971259
0.080972256
0.079959775
0.078933487
0.077893137
0.076838556
0.075769661
0.074686453
0.073589022
0.072477548
0.0713523
0.070213637
0.069062001
0.067897913
0.066721986
0.11331229
0.1122408
0.11119183
0.11016391
0.10915557
0.10816539
0.10719197
0.10623394
0.10528995
0.10435869
0.10343886
0.10252918
0.10162838
0.10073523
0.099848494
0.098966968
0.098089456
0.097214784
0.09634179
0.095469335
0.094596298
0.09372158
0.092844105
0.091962823
0.091076714
0.090184788
0.089286092
0.08837971
0.087464767
0.086540436
0.085605937
0.084660547
0.083703597
0.082734481
0.08175266
0.080757661
0.079749087
0.078726616
0.077690004
0.076639091
0.075573802
0.074494146
0.073400221
0.072292215
0.071170403
0.070035148
0.068886898
0.067726177
0.066553602
0.11272803
0.1116778
0.11064885
0.1096398
0.10864927
0.10767589
0.10671835
0.10577532
0.10484554
0.10392773
0.10302063
0.10212303
0.10123369
0.10035142
0.099475025
0.09860333
0.097735172
0.096869404
0.096004896
0.095140533
0.094275218
0.093407875
0.09253745
0.091662914
0.090783267
0.089897538
0.08900479
0.088104125
0.087194684
0.086275656
0.085346276
0.084405834
0.083453676
0.082489209
0.081511905
0.080521305
0.079517022
0.078498745
0.07746624
0.076419359
0.075358033
0.074282282
0.073192213
0.072088019
0.070969985
0.069838478
0.068693953
0.067536937
0.066368049
0.11208974
0.11106255
0.11005534
0.10906678
0.10809558
0.10714046
0.10620016
0.10527346
0.10435911
0.10345593
0.10256269
0.10167824
0.10080138
0.099930959
0.099065826
0.098204842
0.097346878
0.096490819
0.095635564
0.094780026
0.093923134
0.093063839
0.092201109
0.091333938
0.090461347
0.089582384
0.088696134
0.087801716
0.086898288
0.085985057
0.085061274
0.084126243
0.083179327
0.082219946
0.081247585
0.080261799
0.079262213
0.078248528
0.077220522
0.076178056
0.075121073
0.074049601
0.072963757
0.071863743
0.07074985
0.069622453
0.068482012
0.067329059
0.066164215
0.11241668
0.11139466
0.11039241
0.10940869
0.10844229
0.10749201
0.10655664
0.10563502
0.10472599
0.10382837
0.10294103
0.10206283
0.10119263
0.10032931
0.099471744
0.098618837
0.097769482
0.096922589
0.096077076
0.095231875
0.094385928
0.093538195
0.09268765
0.09183329
0.090974132
0.090109219
0.089237622
0.088358447
0.087470831
0.086573954
0.085667038
0.084749354
0.083820223
0.082879021
0.081925187
0.080958219
0.079977686
0.078983226
0.077974554
0.07695146
0.075913816
0.074861576
0.07379478
0.072713553
0.071618107
0.07050874
0.069385837
0.068249862
0.067101353
0.065940933
0.11163357
0.11064012
0.10966473
0.10870631
0.10776378
0.10683603
0.10592196
0.10502048
0.10413051
0.10325095
0.10238073
0.10151876
0.10066396
0.099815271
0.098971615
0.098131931
0.097295159
0.096460249
0.095626154
0.094791841
0.093956285
0.093118475
0.092277416
0.09143213
0.090581661
0.089725078
0.088861474
0.087989976
0.087109746
0.086219983
0.085319928
0.084408871
0.083486151
0.082551163
0.081603359
0.080642257
0.079667439
0.078678559
0.077675344
0.076657598
0.075625206
0.074578134
0.073516431
0.072440235
0.071349768
0.070245336
0.069127332
0.067996229
0.066852568
0.065696975
0.11078637
0.10982346
0.10887684
0.10794556
0.10702863
0.10612508
0.10523389
0.10435406
0.10348459
0.10262445
0.10177265
0.10092815
0.10008995
0.099257018
0.098428349
0.097602921
0.09677972
0.095957737
0.095135965
0.094313406
0.093489071
0.092661981
0.091831171
0.090995694
0.090154621
0.089307045
0.088452089
0.087588901
0.086716666
0.085834605
0.084941982
0.084038105
0.083122334
0.082194082
0.081252819
0.08029808
0.079329464
0.07834664
0.07734935
0.076337412
0.075310725
0.074269267
0.073213101
0.072142374
0.071057319
0.069958254
0.068845579
0.067719776
0.066581393
0.065431059
0.10987235
0.10894199
0.10802609
0.1071238
0.10623426
0.10535659
0.10448989
0.10363325
0.10278574
0.10194643
0.10111437
0.10028863
0.099468235
0.098652236
0.097839666
0.09702956
0.09622095
0.09541287
0.094604356
0.093794448
0.092982194
0.092166649
0.091346882
0.090521977
0.089691033
0.088853173
0.088007545
0.087153325
0.086289721
0.085415979
0.084531383
0.083635266
0.082727007
0.081806038
0.080871851
0.079923997
0.078962094
0.077985826
0.076994953
0.075989308
0.074968803
0.073933431
0.072883268
0.071818472
0.070739288
0.069646044
0.068539152
0.067419103
0.066286456
0.065141841
0.10979768
0.10888877
0.10799305
0.10710984
0.10623843
0.10537807
0.104528
0.10368742
0.10285553
0.10203147
0.10121441
0.10040347
0.099597777
0.098796443
0.097998565
0.097203238
0.096409548
0.095616578
0.094823407
0.094029115
0.093232783
0.092433498
0.091630353
0.09082245
0.090008906
0.089188852
0.088361442
0.087525851
0.086681283
0.085826972
0.084962189
0.084086244
0.08319849
0.08229833
0.081385219
0.080458666
0.079518244
0.078563589
0.077594404
0.076610465
0.075611621
0.074597801
0.073569011
0.072525341
0.071466963
0.070394134
0.069307192
0.068206561
0.067092745
0.065966317
0.06482792
0.10870309
0.1078331
0.10697408
0.10612552
0.10528686
0.10445748
0.10363673
0.10282393
0.10201836
0.10121927
0.1004259
0.099637466
0.098853156
0.09807215
0.097293612
0.096516695
0.095740541
0.094964284
0.094187053
0.093407973
0.092626169
0.091840768
0.091050902
0.09025571
0.089454343
0.088645966
0.087829765
0.087004945
0.086170738
0.085326408
0.084471251
0.083604603
0.082725842
0.081834395
0.080929738
0.080011405
0.079078987
0.078132141
0.077170589
0.076194125
0.075202618
0.074196009
0.073174323
0.072137663
0.071086215
0.070020248
0.068940114
0.067846248
0.066739166
0.065619469
0.064487842
0.10753186
0.10670286
0.10588257
0.10507062
0.10426658
0.10346998
0.10268027
0.1018969
0.10111924
0.10034664
0.099578422
0.098813887
0.0980523
0.097292912
0.096534952
0.095777633
0.095020155
0.094261707
0.093501469
0.092738614
0.091972311
0.091201732
0.090426048
0.089644437
0.088856087
0.088060199
0.08725599
0.086442699
0.085619588
0.08478595
0.083941109
0.08308443
0.082215316
0.081333219
0.08043764
0.079528134
0.078604317
0.077665866
0.076712523
0.075744103
0.074760491
0.073761647
0.072747612
0.071718505
0.070674526
0.069615956
0.068543161
0.067456587
0.066356764
0.065244318
0.10628167
0.10549572
0.10471613
0.1039427
0.10317513
0.10241308
0.10165614
0.10090384
0.10015567
0.09941108
0.098669483
0.097930255
0.097192745
0.096456274
0.09572014
0.094983621
0.094245976
0.093506449
0.092764275
0.092018675
0.091268869
0.090514069
0.08975349
0.088986353
0.088211881
0.087429314
0.086637903
0.085836921
0.085025663
0.084203451
0.083369642
0.082523627
0.081664838
0.080792752
0.079906897
0.079006853
0.078092258
0.077162812
0.07621828
0.075258496
0.074283364
0.073292865
0.072287055
0.071266069
0.070230123
0.069179513
0.068114615
0.067035887
0.065943862
0.064839142
0.10495038
0.10420946
0.10347251
0.10273946
0.10201018
0.10128443
0.10056193
0.099842326
0.09912522
0.098410154
0.09769663
0.096984114
0.096272031
0.09555978
0.094846728
0.094132218
0.09341557
0.092696089
0.091973062
0.091245764
0.090513461
0.089775414
0.089030883
0.088279128
0.087519415
0.08675102
0.085973233
0.085185361
0.084386733
0.083576704
0.082754662
0.081920028
0.081072264
0.080210875
0.079335414
0.078445489
0.077540762
0.076620958
0.075685862
0.074735332
0.073769292
0.072787742
0.071790757
0.070778489
0.069751169
0.068709107
0.067652693
0.066582393
0.065498744
0.064402348
0.10353604
0.10284206
0.1021496
0.10145874
0.10076949
0.10008174
0.099395328
0.09871002
0.098025517
0.097341462
0.096657452
0.095973036
0.095287725
0.09460099
0.093912272
0.09322098
0.092526498
0.091828191
0.091125401
0.090417457
0.089703677
0.088983369
0.088255838
0.087520389
0.08677633
0.086022977
0.085259656
0.084485712
0.083700511
0.082903441
0.082093922
0.081271408
0.08043539
0.079585403
0.078721031
0.077841905
0.076947716
0.076038211
0.075113204
0.074172571
0.07321626
0.07224429
0.071256757
0.070253829
0.069235755
0.06820286
0.067155546
0.066094288
0.065019633
0.063932192
0.10203697
0.10139172
0.1007455
0.10009855
0.099451001
0.098802882
0.098154148
0.097504678
0.096854276
0.096202687
0.095549598
0.094894648
0.09423743
0.093577494
0.092914349
0.092247476
0.091576324
0.090900315
0.090218853
0.089531319
0.088837085
0.088135508
0.08742594
0.086707731
0.085980232
0.0852428
0.084494802
0.083735621
0.082964659
0.08218134
0.081385118
0.08057548
0.07975195
0.078914094
0.078061522
0.077193899
0.076310939
0.075412419
0.074498174
0.073568106
0.072622187
0.071660456
0.070683027
0.069690091
0.068681911
0.067658829
0.066621259
0.065569691
0.064504679
0.063426852
0.10045175
0.099856871
0.099258524
0.098657092
0.098052829
0.097445887
0.096836341
0.096224185
0.095609326
0.094991605
0.094370802
0.093746646
0.093118813
0.092486928
0.091850576
0.091209305
0.09056263
0.089910035
0.089250983
0.088584911
0.087911244
0.08722939
0.08653875
0.085838719
0.085128693
0.084408072
0.083676263
0.08293269
0.082176792
0.08140803
0.080625895
0.079829908
0.079019625
0.078194644
0.077354608
0.07649921
0.075628194
0.074741363
0.073838579
0.07291977
0.071984929
0.07103412
0.070067477
0.06908521
0.068087601
0.067075006
0.066047858
0.065006656
0.063951968
0.062884437
0.098779267
0.098236248
0.097687247
0.09713281
0.096573298
0.096008971
0.095440027
0.09486658
0.094288633
0.093706115
0.093118904
0.092526818
0.091929616
0.091326998
0.090718622
0.090104107
0.089483034
0.088854949
0.088219373
0.087575803
0.086923715
0.086262571
0.08559182
0.084910905
0.084219266
0.083516348
0.082801601
0.082074489
0.081334489
0.080581103
0.079813856
0.079032306
0.078236044
0.077424702
0.076597953
0.075755523
0.074897184
0.074022769
0.073132168
0.072225333
0.071302283
0.070363104
0.069407954
0.068437061
0.067450727
0.066449326
0.065433303
0.064403175
0.063359522
0.062303002
0.09701878
0.096528891
0.096030519
0.095524412
0.09501098
0.09449057
0.093963524
0.093430081
0.092890324
0.092344261
0.091791868
0.091233063
0.090667681
0.090095494
0.089516232
0.088929588
0.088335207
0.087732697
0.08712164
0.086501588
0.085872075
0.085232614
0.084582703
0.083921834
0.083249493
0.08256517
0.081868358
0.081158561
0.080435299
0.079698113
0.078946566
0.078180251
0.077398797
0.07660187
0.075789176
0.074960473
0.074115565
0.073254313
0.072376636
0.071482514
0.07057199
0.069645176
0.068702251
0.067743464
0.066769137
0.065779662
0.064775501
0.063757185
0.062725308
0.061680541
0.095169969
0.094734193
0.094287489
0.093830904
0.093364727
0.09288937
0.092405368
0.091913114
0.091412718
0.090904254
0.090387811
0.089863418
0.089330976
0.088790315
0.088241244
0.087683533
0.087116889
0.08654098
0.085955447
0.085359902
0.084753933
0.084137105
0.083508968
0.082869062
0.08221692
0.081552074
0.080874065
0.080182437
0.079476754
0.078756595
0.078021563
0.077271289
0.076505439
0.075723714
0.074925856
0.074111654
0.073280946
0.072433623
0.071569632
0.070688982
0.069791743
0.06887805
0.067948108
0.067002186
0.066040627
0.06506384
0.064072305
0.063066568
0.062047238
0.061015
0.093233088
0.092851915
0.092457582
0.092051645
0.091633728
0.091204327
0.090764325
0.090314342
0.089854363
0.0893845
0.088905014
0.088416076
0.087917618
0.087409494
0.08689161
0.08636383
0.085825914
0.085277578
0.084718527
0.084148436
0.083566945
0.082973671
0.082368217
0.081750168
0.081119105
0.080474608
0.079816257
0.079143646
0.078456376
0.077754069
0.077036368
0.076302945
0.075553501
0.074787774
0.074005542
0.073206628
0.072390903
0.071558289
0.070708764
0.069842366
0.068959191
0.0680594
0.067143222
0.066210949
0.065262944
0.064299635
0.063321521
0.062329161
0.06132318
0.060304276
0.091209331
0.090882114
0.090540352
0.09018646
0.089817582
0.089434676
0.089039372
0.088632719
0.088214075
0.08778362
0.087341934
0.086889419
0.08642591
0.085951219
0.085465413
0.08496849
0.084460226
0.083940368
0.083408701
0.08286496
0.082308833
0.081739995
0.081158094
0.080562768
0.079953642
0.07933034
0.078692489
0.078039724
0.077371692
0.076688056
0.0759885
0.075272734
0.074540498
0.073791569
0.073025761
0.07224293
0.071442983
0.070625873
0.069791611
0.06894026
0.068071948
0.067186861
0.066285252
0.065367436
0.064433798
0.063484785
0.062520912
0.061542757
0.060550959
0.059546226
0.089093956
0.088824698
0.088534986
0.088236055
0.087916429
0.087579885
0.087229572
0.086867609
0.086491023
0.086100448
0.085697172
0.085282046
0.084854402
0.084413857
0.083960871
0.083495669
0.083017915
0.082527346
0.082023893
0.081507342
0.080977407
0.080433831
0.079876313
0.079304535
0.078718168
0.078116881
0.077500345
0.076868238
0.076220252
0.075556091
0.074875481
0.074178173
0.073463947
0.072732615
0.071984031
0.071218086
0.070434719
0.06963392
0.068815727
0.067980237
0.067127604
0.066258043
0.065371828
0.064469302
0.063550868
0.062616994
0.061668213
0.060705119
0.059728365
0.058738673
0.086893161
0.086683223
0.086447782
0.086197546
0.085928059
0.085639479
0.085333585
0.085019222
0.08468485
0.08433399
0.083969337
0.083592867
0.083202014
0.082795956
0.082376299
0.081943703
0.081497255
0.081036633
0.080562153
0.080073576
0.079570579
0.07905303
0.078520666
0.077973215
0.077410389
0.076831898
0.076237458
0.075626793
0.074999635
0.074355735
0.073694859
0.073016799
0.072321373
0.071608435
0.070877873
0.070129616
0.069363639
0.068579963
0.06777866
0.066959856
0.066123735
0.065270536
0.064400563
0.063514179
0.06261181
0.061693945
0.060761133
0.059813984
0.058853166
0.057879414
0.08461197
0.084454935
0.084273145
0.084075435
0.083856352
0.083614977
0.083357491
0.083084157
0.082792326
0.082483245
0.082156542
0.081821399
0.081468345
0.081096145
0.080709943
0.080311208
0.079896798
0.079466437
0.079021673
0.078561831
0.07808638
0.077595555
0.077089048
0.076566645
0.076028091
0.075473134
0.074901532
0.074313052
0.073707476
0.073084595
0.072444218
0.071786177
0.071110331
0.070416572
0.069704826
0.068975059
0.06822728
0.067461545
0.066677958
0.065876675
0.06505791
0.064221929
0.063369061
0.062499693
0.061614272
0.060713307
0.059797366
0.058867074
0.057923113
0.056966231
0.082248624
0.082146494
0.082018347
0.081869746
0.081698792
0.081504964
0.081296314
0.081066342
0.080816314
0.080549713
0.080264845
0.07996513
0.079648121
0.07931266
0.078959389
0.078597504
0.078215609
0.077814797
0.07740083
0.076970571
0.07652292
0.076059506
0.075579466
0.075082773
0.074569169
0.074038428
0.073490352
0.07292476
0.072341477
0.071740339
0.071121197
0.070483923
0.069828416
0.069154606
0.068462459
0.067751976
0.067023202
0.066276226
0.065511185
0.064728267
0.063927712
0.063109816
0.062274931
0.06142347
0.0605559
0.059672751
0.058774607
0.057862109
0.056935954
0.055996899
0.079806864
0.079757216
0.07968115
0.079583267
0.079460775
0.079315067
0.079150122
0.078963473
0.078755487
0.078533076
0.078287701
0.078025786
0.077745801
0.077446832
0.077130578
0.076798793
0.076448574
0.076078448
0.075698475
0.075298927
0.074878115
0.07444322
0.073990042
0.073519682
0.073031644
0.072525738
0.072001815
0.071459753
0.070899427
0.070320714
0.069723507
0.069107717
0.068473283
0.067820174
0.067148391
0.066457975
0.065749005
0.065021603
0.064275939
0.063512231
0.062730748
0.061931814
0.061115805
0.060283157
0.05943436
0.058569961
0.057690562
0.056796821
0.055889445
0.054969205
0.077289733
0.077291835
0.077267209
0.077216996
0.07714189
0.077042325
0.07692314
0.076779319
0.076614914
0.076430666
0.076224278
0.076002893
0.075760734
0.075496954
0.075216559
0.074917499
0.074600149
0.074264149
0.073911775
0.073540443
0.073148205
0.072745888
0.072318862
0.071875634
0.071413705
0.070933166
0.07043394
0.069915984
0.069379221
0.068823567
0.068248952
0.067655327
0.067042668
0.066410982
0.06576031
0.065090726
0.064402346
0.063695326
0.062969866
0.062226214
0.061464669
0.06068558
0.05988935
0.059076434
0.058247346
0.057402651
0.056542967
0.055668966
0.054781369
0.053880956
0.074701973
0.074753986
0.074777411
0.07477445
0.074745849
0.074691883
0.074614693
0.074513272
0.074391903
0.074247598
0.074081177
0.073895935
0.073689372
0.073461256
0.073218718
0.072952038
0.072667932
0.072364304
0.072042093
0.071700622
0.071339712
0.07096121
0.070560892
0.070149362
0.069713742
0.069258979
0.068784883
0.068291535
0.067778878
0.067246861
0.066695446
0.066124621
0.0655344
0.06492483
0.064295986
0.06364798
0.062980961
0.062295116
0.061590679
0.060867927
0.060127185
0.059368829
0.058593285
0.057801033
0.056992604
0.056168581
0.055329599
0.054476344
0.053609547
0.052729998
0.072047098
0.072146409
0.072216587
0.072259063
0.072274388
0.07226414
0.072229245
0.072169888
0.072087609
0.071981772
0.071854515
0.071707394
0.071536164
0.07134494
0.071133603
0.070900079
0.070651553
0.070379444
0.070088119
0.069776687
0.069445509
0.069094817
0.06872379
0.06833326
0.067928705
0.067501604
0.067052926
0.066584628
0.066096561
0.065588697
0.065061034
0.064513594
0.063946432
0.06335963
0.0627533
0.062127589
0.061482678
0.060818789
0.060136182
0.059435164
0.058716088
0.057979353
0.057225409
0.056454757
0.055667947
0.054865579
0.054048304
0.053216817
0.052371864
0.051514239
0.06932995
0.06947385
0.069587985
0.069673549
0.069731587
0.06976239
0.069768011
0.069748889
0.06970534
0.06963805
0.069547776
0.069435293
0.069299465
0.069144967
0.068966436
0.068766988
0.068546442
0.068308545
0.068049398
0.067767577
0.06746588
0.067143799
0.066801312
0.066438886
0.066057295
0.065653599
0.065236423
0.064793659
0.064330596
0.063847338
0.063343917
0.062820391
0.062276854
0.061713428
0.06113026
0.06052753
0.059905451
0.059264273
0.058604288
0.057925829
0.057229273
0.056515045
0.055783616
0.055035506
0.054271284
0.053491565
0.052697012
0.051888335
0.051066285
0.050231666
0.06655554
0.06674084
0.066895937
0.067021915
0.067119746
0.067190255
0.067234572
0.067252915
0.067246604
0.067216189
0.06716176
0.067084148
0.066983523
0.066860849
0.066714905
0.066550143
0.066361322
0.06615231
0.065920922
0.065672301
0.065400486
0.065106931
0.064792481
0.064457445
0.064101922
0.063725349
0.063328235
0.062916574
0.062479506
0.062021236
0.061542476
0.061043326
0.060523924
0.059984432
0.05942503
0.05884593
0.058247375
0.057629643
0.056993052
0.056337961
0.055664771
0.054973929
0.054265927
0.053541303
0.052800641
0.052044572
0.051273771
0.050488957
0.049690888
0.048880373
0.063729083
0.063952218
0.064144974
0.064308349
0.064443265
0.064550576
0.064631137
0.064685657
0.064714204
0.064718282
0.064698422
0.064654477
0.064587084
0.064496704
0.064383461
0.064248189
0.064089699
0.063912666
0.063711285
0.063488323
0.063247152
0.062983705
0.06269682
0.062389015
0.062060165
0.061710202
0.061339298
0.060947627
0.060541102
0.060109068
0.059655306
0.059180915
0.058686092
0.058171035
0.057635958
0.057081099
0.056506726
0.055913144
0.055300697
0.054669765
0.054020774
0.053354189
0.052670521
0.051970325
0.051254199
0.050522787
0.049776774
0.049016885
0.048243887
0.04745859
0.06085591
0.061112979
0.061339764
0.061537171
0.061706046
0.061847181
0.061961323
0.062049143
0.062111253
0.06214757
0.062159744
0.062147888
0.062112202
0.062052904
0.061970438
0.061865132
0.061736981
0.061586454
0.061416034
0.061223193
0.061007596
0.060769599
0.060513863
0.060233271
0.059931067
0.059607489
0.059262665
0.058896762
0.058510139
0.058109415
0.057681256
0.057231899
0.056762026
0.056271852
0.05576161
0.055231559
0.054681992
0.054113235
0.053525655
0.052919654
0.052295676
0.051654206
0.050995771
0.050320941
0.049630325
0.048924578
0.048204393
0.047470501
0.046723672
0.045964718
0.057623746
0.057941342
0.058228162
0.05848505
0.058712815
0.058912214
0.059083957
0.059228708
0.059347067
0.05943957
0.059506654
0.059549039
0.059566689
0.059560606
0.059531001
0.059477727
0.059401313
0.059301979
0.059180076
0.059036076
0.058869174
0.05868301
0.058472835
0.058240304
0.057989588
0.057714258
0.057416797
0.057097832
0.056757355
0.056395043
0.056018464
0.055619366
0.05519525
0.05475065
0.054285758
0.053800816
0.053296099
0.052771922
0.052228632
0.051666613
0.051086289
0.050488121
0.049872608
0.049240293
0.048591755
0.047927617
0.047248539
0.04655522
0.045848396
0.045128837
0.044397355
0.054648402
0.054990594
0.055302731
0.055585544
0.055839734
0.056065962
0.056264851
0.056436981
0.056582888
0.056703063
0.05679796
0.05686805
0.056913696
0.056934879
0.056932593
0.056907083
0.056858
0.056785893
0.056691008
0.056573555
0.05643352
0.056271118
0.056088938
0.055883889
0.055655623
0.055409101
0.055138096
0.054844912
0.054530292
0.054194461
0.053838148
0.053466257
0.0530702
0.0526512
0.052211953
0.051752729
0.051273828
0.050775584
0.050258364
0.049722569
0.049168639
0.048597049
0.048008313
0.047402983
0.04678165
0.046144941
0.045493524
0.044828101