/*--------------------------------*- C++ -*----------------------------------*\
| =========                 |                                                 |
| \\      /  F ield         | OpenFOAM: The Open Source CFD Toolbox           |
|  \\    /   O peration     | Version:  2312                                  |
|   \\  /    A nd           | Website:  www.openfoam.com                      |
|    \\/     M anipulation  |                                                 |
\*---------------------------------------------------------------------------*/
FoamFile
{
    version     2.0;
    format      ascii;
    arch        "LSB;label=32;scalar=64";
    class       volScalarField;
    location    "0.07";
    object      H2O;
}
// * * * * * * * * * * * * * * * * * * * * * * * * * * * * * * * * * * * * * //

dimensions      [0 0 0 0 0 0 0];

internalField   nonuniform List<scalar> 
3250
(
0.031245863
0.03098587
0.030736288
0.030496654
0.030266539
0.03004553
0.02983323
0.029629255
0.029433232
0.029244795
0.029063585
0.028889248
0.028721435
0.028559797
0.028403985
0.028253652
0.028108446
0.027968013
0.027831995
0.02770003
0.027571748
0.027446774
0.027324727
0.027205217
0.027087848
0.026972217
0.026857913
0.026744518
0.026631609
0.026518757
0.026405528
0.026291483
0.026176184
0.026059189
0.025940057
0.025818352
0.025693637
0.025565487
0.025433482
0.025297211
0.025156281
0.025010312
0.024858949
0.024701842
0.024538468
0.024368531
0.024191949
0.024008496
0.023818016
0.031237539
0.030977895
0.030728629
0.030489288
0.030259446
0.030038693
0.029826634
0.029622885
0.029427074
0.029238836
0.029057813
0.028883653
0.028716006
0.028554523
0.028398858
0.028248663
0.028103586
0.027963276
0.027827373
0.027695515
0.027567335
0.027442457
0.027320499
0.027201074
0.027083784
0.026968228
0.026853993
0.026740664
0.026627817
0.026515022
0.026401846
0.026287852
0.0261726
0.026055648
0.025936558
0.02581489
0.025690212
0.025562094
0.025430119
0.025293876
0.025152971
0.025007022
0.024855668
0.024698541
0.024535195
0.024365338
0.024188809
0.02400539
0.023814896
0.031221013
0.030962056
0.030713424
0.030474672
0.030245382
0.030025147
0.029813573
0.029610279
0.029414896
0.029227061
0.029046417
0.028872612
0.0287053
0.028544133
0.028388765
0.028238849
0.028094036
0.027953973
0.027818303
0.027686666
0.027558692
0.027434008
0.027312233
0.02719298
0.027075852
0.026960447
0.026846355
0.02673316
0.026620438
0.026507761
0.026394696
0.026280805
0.02616565
0.02604879
0.025929784
0.025808197
0.025683593
0.025555546
0.025423636
0.025287454
0.025146604
0.025000705
0.02484939
0.024692288
0.024528999
0.024359231
0.024182778
0.023999415
0.023808943
0.031196317
0.030938381
0.030690697
0.030452831
0.030224369
0.03000491
0.029794065
0.029591457
0.029396717
0.029209486
0.029029411
0.028856142
0.028689334
0.028528641
0.02837372
0.028224225
0.028079808
0.027940118
0.0278048
0.027673493
0.027545831
0.02742144
0.027299942
0.027180947
0.027064063
0.026948888
0.026835011
0.026722018
0.026609486
0.026496987
0.02638409
0.026270356
0.026155348
0.026038626
0.025919751
0.025798285
0.025673795
0.025545855
0.025414046
0.025277959
0.025137197
0.024991378
0.024840133
0.024683095
0.024519891
0.024350227
0.024173871
0.023990589
0.023800176
0.031163484
0.030906901
0.030660479
0.030423791
0.030196433
0.029978008
0.029768134
0.029566438
0.029372556
0.029186131
0.029006815
0.02883426
0.028668123
0.028508064
0.028353739
0.028204805
0.028060917
0.027921726
0.027786877
0.027656012
0.027528766
0.027404767
0.027283636
0.027164989
0.027048431
0.026933561
0.026819973
0.026707251
0.026594973
0.026482713
0.026370039
0.026256516
0.026141705
0.026025169
0.025906467
0.025785165
0.025660829
0.025533034
0.025401361
0.025265401
0.02512476
0.024979053
0.024827911
0.024670971
0.024507878
0.024338338
0.024162102
0.023978928
0.023788607
0.031124904
0.030869905
0.030624963
0.03038966
0.030163599
0.029946391
0.029737659
0.029537036
0.029344162
0.029158686
0.028980262
0.028808547
0.028643202
0.028483887
0.028330264
0.028181991
0.028038726
0.027900121
0.027765825
0.027635481
0.027508725
0.027385187
0.027264491
0.027146253
0.027030079
0.026915571
0.026802323
0.026689919
0.026577941
0.026465963
0.026353554
0.026240279
0.026125702
0.026009384
0.025890889
0.02576978
0.025645626
0.025518002
0.025386491
0.025250684
0.025110186
0.024964614
0.024813599
0.024656783
0.024493821
0.024324418
0.024148316
0.023965269
0.023775064
0.031081774
0.030828542
0.030585252
0.030351495
0.030126884
0.029911035
0.02970358
0.029504155
0.029312409
0.029127994
0.028950568
0.028779792
0.028615332
0.028456851
0.028304013
0.02815648
0.028013912
0.027875964
0.027742287
0.027612525
0.027486318
0.027363297
0.027243088
0.027125306
0.027009563
0.026895461
0.026782593
0.026670547
0.026558905
0.026447243
0.02633513
0.026222134
0.026107818
0.025991746
0.025873482
0.02575259
0.025628641
0.02550121
0.025369881
0.025234246
0.02509391
0.024948492
0.024797623
0.024640949
0.024478133
0.024308878
0.024132924
0.023950017
0.023759946
0.031030744
0.030779597
0.030538259
0.030306329
0.03008343
0.029869188
0.029663242
0.029465236
0.029274823
0.029091662
0.028915416
0.028745753
0.028582339
0.028424844
0.028272936
0.028126279
0.027984536
0.027847365
0.02771442
0.027585349
0.027459792
0.027337383
0.02721775
0.027100511
0.026985278
0.026871655
0.026759238
0.026647617
0.026536373
0.026425085
0.026313324
0.026200658
0.026086653
0.025970873
0.025852882
0.025732249
0.025608543
0.025481341
0.025350228
0.025214797
0.025074656
0.024929422
0.024778729
0.024622227
0.024459583
0.024290502
0.024114718
0.023931977
0.023742068
0.030971276
0.030722552
0.030483482
0.030253677
0.03003277
0.029820399
0.029616209
0.029419853
0.029230992
0.029049292
0.028874422
0.028706053
0.028543859
0.028387514
0.028236688
0.028091051
0.02795027
0.027814005
0.027681915
0.027553648
0.027428848
0.027307153
0.027188192
0.027071586
0.026956948
0.026843885
0.026731995
0.026620868
0.02651009
0.026399238
0.026287888
0.026175607
0.026061965
0.025946525
0.025828855
0.025708523
0.025585102
0.025458168
0.025327308
0.025192117
0.025052203
0.024907186
0.024756702
0.024600401
0.024437959
0.024269077
0.024093491
0.023910943
0.023721223
0.030902811
0.030656868
0.030420402
0.030193037
0.029974419
0.029764196
0.029562024
0.029367566
0.02918049
0.029000469
0.028827181
0.028660301
0.028499511
0.028344487
0.028194907
0.028050445
0.02791077
0.027775549
0.027644441
0.027517101
0.027393174
0.027272302
0.027154114
0.027038237
0.026924285
0.026811866
0.026700582
0.026590026
0.026479784
0.026369436
0.026258559
0.026146723
0.026033498
0.025918452
0.025801152
0.025681168
0.025558074
0.02543145
0.025300883
0.02516597
0.02502632
0.024881554
0.024731312
0.024575246
0.024413035
0.024244383
0.024069022
0.023886697
0.023697196
0.030824771
0.030581986
0.030348478
0.030123885
0.029907869
0.029700089
0.029500212
0.029307913
0.029122868
0.028944759
0.02877327
0.028608086
0.028448893
0.028295375
0.028147214
0.02800409
0.027865676
0.027731644
0.027601656
0.027475372
0.02735244
0.027232504
0.027115199
0.027000152
0.026886982
0.0267753
0.026664707
0.026554802
0.026445171
0.026335398
0.02622506
0.026113732
0.026000985
0.025886387
0.025769509
0.025649923
0.025527204
0.025400934
0.025270702
0.025136106
0.024996758
0.024852282
0.024702317
0.024546521
0.024384575
0.024216183
0.024041079
0.023859006
0.023669755
0.030736559
0.030497329
0.03026715
0.030045681
0.029832595
0.029627569
0.02943028
0.029240415
0.029057661
0.028881708
0.02871225
0.028548979
0.028391589
0.028239771
0.028093212
0.027951598
0.027814609
0.027681919
0.027553197
0.027428106
0.027306298
0.027187421
0.027071114
0.026957006
0.02684472
0.026733869
0.026624059
0.026514889
0.026405949
0.026296827
0.0261871
0.026076347
0.025964139
0.025850049
0.025733649
0.025614513
0.025492219
0.02536635
0.025236497
0.025102263
0.024963258
0.02481911
0.024669461
0.024513971
0.024352325
0.024184228
0.024009414
0.023827627
0.023638659
0.030637563
0.030402302
0.030175843
0.029957864
0.029748056
0.029546108
0.029351716
0.029164574
0.028984383
0.028810845
0.028643661
0.028482533
0.028327163
0.028177249
0.028032486
0.027892565
0.027757172
0.027625988
0.027498685
0.027374931
0.027254385
0.027136696
0.027021507
0.026908453
0.026797159
0.026687241
0.02657831
0.026469965
0.026361803
0.02625341
0.02614437
0.026034261
0.02592266
0.025809141
0.025693278
0.025574648
0.025452832
0.025327414
0.025197989
0.02506416
0.024925542
0.024781764
0.024632472
0.024477328
0.024316019
0.024148253
0.023973764
0.023792298
0.023603649
0.030527153
0.030296294
0.030073963
0.029859858
0.02965369
0.029455163
0.029263988
0.029079874
0.028902534
0.02873168
0.028567026
0.028408283
0.028255161
0.028107367
0.027964603
0.027826567
0.027692952
0.027563445
0.027437723
0.02731546
0.027196318
0.027079953
0.026966012
0.026854133
0.026743944
0.026635068
0.026527116
0.026419692
0.026312396
0.026204818
0.026096543
0.025987155
0.025876231
0.025763349
0.025648087
0.025530022
0.025408739
0.025283826
0.02515488
0.025021505
0.02488332
0.024739956
0.024591063
0.024436306
0.024275374
0.024107979
0.023933853
0.023752746
0.023564453
0.030404688
0.030178682
0.029960901
0.029751072
0.029548921
0.029354172
0.029166551
0.028985782
0.028811593
0.028643708
0.028481852
0.028325746
0.028175111
0.028029663
0.027889111
0.027753163
0.027621517
0.027493866
0.027369896
0.027249284
0.027131699
0.027016801
0.026904243
0.026793665
0.026684703
0.026576981
0.026470115
0.026363713
0.026257378
0.026150703
0.026043279
0.02593469
0.025824518
0.025712343
0.025597747
0.025480311
0.025359621
0.025235269
0.025106854
0.024973984
0.024836281
0.02469338
0.024544931
0.024390605
0.024230093
0.024063109
0.023889388
0.023708681
0.023520783
0.030269517
0.030048826
0.029836037
0.029630898
0.029433157
0.029242558
0.029058841
0.02888175
0.028711024
0.028546403
0.028387624
0.028234421
0.028086524
0.027943657
0.027805542
0.027671892
0.027542414
0.02741681
0.027294769
0.027175977
0.027060108
0.026946829
0.026835794
0.026726653
0.026619044
0.026512595
0.026406927
0.026301653
0.026196378
0.026090701
0.025984215
0.025876509
0.025767167
0.025655774
0.025541914
0.025425172
0.025305138
0.025181406
0.025053579
0.024921269
0.0247841
0.024641711
0.024493755
0.024339907
0.02417986
0.024013331
0.023840058
0.023659793
0.023472333
0.030120976
0.029906081
0.029698737
0.02949872
0.029305797
0.02911973
0.028940283
0.028767212
0.028600275
0.028439227
0.028283817
0.028133791
0.027988891
0.027848853
0.027713408
0.027582277
0.027455177
0.027331816
0.027211892
0.027095097
0.026981111
0.026869606
0.026760245
0.02665268
0.026546556
0.026441505
0.026337153
0.026233118
0.026129008
0.026024428
0.025918973
0.025812236
0.025703808
0.025593274
0.025480224
0.025364247
0.025244934
0.025121886
0.024994707
0.024863013
0.024726432
0.024584607
0.024437195
0.024283874
0.024124341
0.023958315
0.023785536
0.023605759
0.023418783
0.0299584
0.029749789
0.029548359
0.029353908
0.029166223
0.028985088
0.028810285
0.028641591
0.02847878
0.028321623
0.028169883
0.028023321
0.02788169
0.027744738
0.027612205
0.027483824
0.027359319
0.027238406
0.027120794
0.027006179
0.02689425
0.026784685
0.026677152
0.026571311
0.02646681
0.026363288
0.026260375
0.026157695
0.02605486
0.025951479
0.025847153
0.025741478
0.025634049
0.025524458
0.025412295
0.025297155
0.025178633
0.025056334
0.024929865
0.024798848
0.024662914
0.024521709
0.024374894
0.024222152
0.024063183
0.02389771
0.023725475
0.023546235
0.023359791
0.02978111
0.029579289
0.029384258
0.029195829
0.029013813
0.028838018
0.028668246
0.028504296
0.02834596
0.028193023
0.028045266
0.027902464
0.027764382
0.027630781
0.027501412
0.027376018
0.027254334
0.027136085
0.027020986
0.026908743
0.026799052
0.026691598
0.026586056
0.026482091
0.026379357
0.0262775
0.026176156
0.026074951
0.025973506
0.025871432
0.025768336
0.02566382
0.025557481
0.025448917
0.025337723
0.025223496
0.025105839
0.024984358
0.024858666
0.024728389
0.024593162
0.024452635
0.024306474
0.024154366
0.023996015
0.023831148
0.023659509
0.023480859
0.023295
0.029789403
0.029588408
0.02939392
0.029205783
0.029023842
0.028847937
0.0286779
0.028513558
0.028354728
0.028201222
0.028052845
0.027909393
0.027770655
0.027636412
0.027506436
0.027380492
0.027258332
0.027139702
0.027024338
0.026911962
0.02680229
0.026695025
0.026589859
0.026486475
0.026384545
0.026283729
0.026183679
0.026084036
0.025984434
0.025884497
0.025783844
0.025682084
0.025578826
0.025473673
0.025366225
0.025256084
0.025142852
0.025026135
0.024905544
0.024780699
0.024651228
0.024516771
0.024376984
0.024231537
0.024080121
0.023922445
0.023758239
0.023587253
0.023409249
0.023224029
0.02957226
0.029379659
0.029193032
0.029012288
0.028837309
0.028667964
0.028504111
0.028345602
0.028192277
0.028043968
0.027900497
0.027761679
0.027627319
0.027497212
0.027371144
0.027248891
0.02713022
0.027014886
0.026902633
0.026793198
0.026686301
0.026581656
0.026478962
0.026377911
0.02627818
0.026179437
0.026081341
0.025983539
0.02588567
0.025787366
0.025688249
0.025587936
0.025486041
0.025382171
0.025275933
0.025166933
0.025054779
0.024939082
0.024819459
0.024695532
0.024566936
0.024433317
0.024294333
0.024149663
0.023998999
0.023842057
0.023678573
0.023508299
0.023331002
0.023146482
0.029337918
0.029154227
0.028975984
0.028803134
0.028635593
0.028473261
0.028316025
0.02816376
0.028016331
0.02787359
0.027735379
0.027601532
0.027471869
0.027346201
0.027224329
0.027106043
0.026991121
0.026879329
0.026770425
0.026664151
0.026560241
0.026458416
0.026358384
0.026259844
0.026162482
0.026065973
0.025969982
0.025874164
0.025778165
0.025681621
0.025584161
0.02548541
0.025384986
0.025282502
0.025177571
0.025069804
0.024958816
0.024844221
0.024725643
0.024602711
0.024475063
0.02434235
0.024204238
0.024060409
0.023910562
0.023754417
0.023591716
0.023422218
0.023245693
0.023061941
0.029085733
0.028911481
0.028742144
0.028577688
0.028418064
0.028263201
0.028113016
0.027967411
0.027826272
0.027689475
0.027556884
0.027428348
0.027303708
0.027182789
0.027065408
0.026951369
0.026840461
0.026732465
0.026627148
0.026524265
0.026423558
0.026324758
0.026227582
0.026131738
0.026036919
0.025942809
0.02584908
0.025755393
0.025661402
0.025566751
0.025471074
0.025374003
0.025275161
0.025174168
0.025070644
0.024964206
0.024854474
0.024741068
0.024623618
0.024501758
0.024375134
0.024243401
0.024106231
0.023963311
0.023814347
0.023659065
0.023497213
0.023328556
0.023152875
0.022969969
0.028983641
0.028815064
0.028650811
0.0284909
0.028335336
0.028184103
0.028037165
0.027894466
0.027755935
0.027621484
0.027491011
0.0273644
0.027241521
0.027122232
0.027006376
0.026893785
0.026784275
0.026677653
0.02657371
0.026472225
0.026372965
0.026275681
0.026180116
0.026085995
0.025993035
0.025900938
0.025809396
0.025718088
0.025626685
0.025534847
0.025442223
0.025348458
0.025253188
0.025156043
0.025056652
0.024954639
0.024849627
0.024741244
0.024629117
0.02451288
0.024392174
0.024266652
0.024135974
0.023999819
0.02385788
0.023709869
0.023555518
0.023394582
0.023226836
0.023052075
0.022870111
0.028682763
0.028525363
0.02837164
0.028221663
0.02807548
0.027933109
0.027794546
0.027659765
0.027528722
0.027401355
0.027277584
0.027157316
0.02704044
0.026926833
0.026816355
0.026708854
0.026604162
0.026502099
0.026402469
0.026305065
0.026209662
0.026116027
0.026023908
0.025933045
0.02584316
0.025753967
0.025665166
0.025576443
0.025487479
0.025397939
0.025307483
0.025215761
0.025122416
0.025027088
0.024929409
0.024829013
0.02472553
0.024618592
0.024507835
0.0243929
0.024273434
0.024149094
0.024019551
0.023884487
0.023743603
0.023596617
0.023443268
0.023283317
0.023116553
0.022942792
0.022761902
0.028361823
0.028216108
0.028073422
0.027933874
0.027797548
0.027664499
0.027534753
0.027408316
0.02728517
0.027165278
0.027048586
0.026935021
0.026824494
0.026716899
0.026612115
0.026510006
0.02641042
0.02631319
0.026218136
0.026125061
0.026033755
0.025943993
0.025855538
0.025768136
0.025681522
0.025595417
0.025509531
0.025423561
0.025337192
0.0252501
0.025161953
0.025072408
0.024981117
0.024887725
0.024791875
0.024693205
0.024591354
0.024485961
0.024376669
0.024263126
0.024144986
0.024021914
0.023893587
0.023759694
0.023619941
0.023474055
0.023321781
0.023162886
0.022997169
0.022824476
0.028020351
0.027886816
0.027755652
0.027627006
0.027500998
0.027377715
0.027257218
0.027139539
0.027024691
0.02691266
0.026803417
0.026696911
0.026593074
0.026491818
0.026393042
0.026296625
0.026202432
0.026110311
0.026020094
0.025931599
0.025844628
0.025758968
0.025674392
0.025590657
0.025507509
0.025424679
0.025341886
0.025258835
0.025175221
0.025090729
0.025005034
0.024917803
0.024828694
0.024737363
0.024643457
0.024546625
0.024446513
0.024342766
0.024235037
0.024122979
0.024006256
0.023884539
0.023757511
0.02362487
0.02348633
0.023341622
0.023190498
0.023032731
0.022868119
0.022696473
0.027657939
0.027537051
0.027417868
0.027300574
0.027185321
0.027072233
0.026961398
0.026852879
0.026746716
0.026642922
0.026541489
0.026442391
0.026345578
0.026250984
0.026158525
0.026068097
0.025979581
0.02589284
0.025807721
0.025724055
0.025641656
0.025560324
0.025479843
0.025399982
0.025320497
0.025241128
0.025161604
0.025081642
0.025000944
0.024919204
0.024836106
0.024751326
0.024664532
0.024575385
0.024483543
0.024388662
0.024290396
0.0241884
0.024082332
0.023971856
0.023856641
0.023736368
0.023610727
0.023479424
0.023342179
0.02319873
0.023048835
0.022892272
0.022728836
0.022558333
0.027274245
0.027166436
0.027059661
0.026954138
0.026850054
0.026747561
0.026646782
0.026547807
0.0264507
0.026355503
0.02626223
0.026170875
0.026081412
0.025993794
0.025907953
0.025823804
0.025741244
0.025660151
0.025580387
0.025501795
0.025424203
0.025347424
0.025271253
0.02519547
0.025119842
0.025044121
0.024968044
0.024891338
0.024813716
0.024734882
0.024654527
0.024572337
0.024487988
0.024401151
0.024311493
0.024218678
0.024122368
0.024022227
0.023917923
0.023809126
0.023695514
0.023576777
0.023452613
0.023322734
0.023186869
0.023044764
0.022896183
0.022740906
0.022578732
0.022409476
0.026868998
0.026774657
0.026680678
0.02658731
0.026494774
0.026403253
0.026312896
0.026223823
0.026136125
0.026049866
0.025965085
0.025881797
0.025799997
0.025719656
0.025640726
0.025563137
0.025486804
0.025411619
0.025337459
0.025264181
0.025191627
0.025119621
0.02504797
0.024976467
0.024904889
0.024832999
0.024760545
0.024687263
0.024612877
0.024537099
0.024459632
0.02438017
0.024298398
0.024213998
0.024126644
0.02403601
0.023941767
0.023843588
0.02374115
0.023634131
0.02352222
0.023405112
0.023282516
0.023154152
0.023019757
0.022879084
0.022731903
0.022578002
0.022417183
0.022249276
0.026442005
0.026361473
0.026280631
0.026199762
0.026119116
0.026038905
0.025959308
0.025880469
0.025802505
0.025725504
0.025649527
0.02557461
0.025500768
0.025427992
0.02535625
0.025285491
0.025215644
0.025146619
0.025078304
0.025010573
0.02494328
0.02487626
0.024809335
0.024742309
0.024674969
0.02460709
0.024538431
0.024468737
0.024397744
0.024325173
0.024250737
0.024174139
0.024095076
0.024013237
0.023928308
0.02383997
0.023747906
0.023651797
0.023551327
0.023446188
0.023336074
0.023220692
0.023099758
0.022973002
0.022840168
0.022701018
0.02255533
0.022402898
0.022243532
0.022077075
0.025993156
0.025926714
0.0258593
0.025791225
0.025722768
0.025654169
0.025585631
0.025517326
0.025449392
0.025381941
0.025315054
0.025248791
0.025183182
0.025118239
0.025053946
0.024990271
0.024927157
0.024864528
0.02480229
0.024740327
0.024678508
0.024616682
0.024554681
0.024492321
0.024429401
0.024365708
0.02430101
0.024235065
0.024167618
0.024098401
0.024027136
0.023953539
0.023877313
0.02379816
0.023715774
0.023629848
0.023540073
0.02344614
0.023347744
0.023244585
0.023136369
0.023022809
0.022903634
0.02277858
0.022647402
0.02250987
0.022365769
0.022214904
0.022057092
0.021892187
0.025522431
0.025470298
0.025416542
0.025361502
0.025305484
0.025248752
0.025191533
0.025134021
0.025076379
0.025018738
0.0249612
0.024903844
0.02484672
0.024789855
0.024733254
0.024676897
0.024620744
0.024564735
0.024508788
0.024452803
0.02439666
0.024340221
0.024283332
0.024225819
0.024167494
0.024108153
0.024047578
0.023985537
0.023921783
0.023856062
0.023788106
0.023717639
0.023644378
0.023568032
0.023488307
0.023404906
0.023317529
0.02322588
0.023129662
0.023028585
0.022922365
0.022810727
0.022693407
0.022570154
0.022440729
0.022304912
0.022162498
0.0220133
0.021857146
0.021693899
0.0250299
0.024992223
0.024952291
0.02491047
0.024867086
0.024822424
0.024776735
0.024730235
0.024683106
0.024635497
0.024587532
0.024539307
0.024490889
0.024442323
0.024393629
0.024344803
0.02429582
0.024246634
0.024197177
0.024147362
0.024097082
0.024046213
0.023994611
0.023942115
0.023888548
0.023833718
0.023777418
0.023719426
0.023659509
0.023597419
0.023532903
0.023465693
0.023395518
0.023322097
0.023245148
0.023164382
0.023079513
0.022990252
0.022896315
0.022797422
0.0226933
0.022583683
0.022468318
0.022346962
0.02221939
0.022085389
0.021944764
0.021797338
0.021642948
0.021481468
0.024515737
0.02449258
0.024466568
0.024438082
0.024407464
0.024375021
0.024341022
0.024305703
0.024269262
0.024231868
0.024193661
0.024154754
0.024115232
0.024075154
0.024034554
0.023993446
0.023951817
0.023909634
0.023866845
0.023823374
0.023779127
0.023733992
0.023687837
0.023640514
0.023591857
0.023541685
0.023489801
0.023435996
0.023380047
0.023321718
0.023260765
0.023196934
0.023129961
0.023059579
0.022985516
0.022907494
0.022825237
0.022738468
0.022646914
0.022550306
0.022448381
0.022340885
0.022227574
0.022108218
0.0219826
0.021850518
0.021711787
0.02156624
0.021413724
0.021254125
0.023980224
0.02397155
0.023959477
0.023944372
0.02392659
0.02390645
0.023884241
0.023860218
0.023834594
0.023807549
0.023779241
0.0237498
0.023719324
0.023687887
0.023655538
0.023622303
0.023588184
0.02355316
0.023517191
0.023480216
0.023442151
0.023402896
0.023362332
0.023320322
0.023276711
0.023231329
0.023183991
0.023134499
0.02308264
0.023028191
0.022970917
0.022910576
0.022846916
0.022779681
0.022708608
0.022633433
0.02255389
0.022469715
0.022380644
0.02228642
0.022186791
0.022081515
0.02197036
0.021853105
0.021729543
0.021599486
0.021462757
0.021319199
0.021168672
0.02101107
0.023423683
0.023429386
0.023431215
0.023429459
0.02342451
0.023416692
0.023406308
0.023393639
0.023378906
0.023362291
0.023343974
0.0233241
0.023302782
0.0232801
0.02325612
0.02323088
0.023204395
0.023176656
0.023147633
0.023117278
0.02308552
0.02305227
0.023017419
0.022980842
0.022942395
0.02290192
0.022859243
0.022814175
0.022766517
0.022716054
0.022662566
0.022605819
0.022545574
0.022481585
0.022413602
0.022341373
0.022264641
0.022183156
0.022096665
0.022004922
0.021907688
0.021804732
0.021695832
0.02158078
0.021459381
0.021331455
0.021196839
0.021055385
0.020906964
0.020751481
0.022846741
0.02286641
0.022882132
0.022893545
0.02290131
0.022905805
0.022907207
0.022905889
0.022902067
0.0228959
0.022887614
0.022877359
0.022865263
0.022851407
0.022835872
0.022818712
0.02279995
0.022779586
0.022757604
0.022733966
0.022708613
0.022681466
0.022652427
0.022621382
0.022588198
0.022552727
0.022514807
0.022474261
0.022430898
0.022384517
0.022334907
0.022281847
0.022225109
0.022164458
0.022099657
0.022030464
0.021956636
0.021877933
0.021794115
0.021704948
0.021610205
0.021509666
0.021403122
0.021290377
0.021171246
0.021045561
0.02091317
0.020773938
0.020627744
0.020474506
0.022249559
0.022283397
0.022312723
0.022336896
0.022357196
0.022373967
0.02238702
0.022396955
0.022403987
0.02240824
0.022409969
0.022409327
0.022406475
0.022401461
0.022394403
0.022385365
0.022374377
0.02236144
0.022346558
0.022329702
0.02231082
0.022289846
0.022266691
0.022241252
0.022213407
0.022183018
0.022149933
0.022113985
0.022074996
0.022032776
0.021987124
0.021937831
0.021884681
0.021827451
0.021765913
0.021699841
0.021629002
0.021553167
0.021472111
0.021385612
0.021293453
0.021195427
0.021091339
0.020981003
0.020864247
0.020740915
0.020610865
0.020473974
0.020330134
0.02017927
0.021633119
0.021680358
0.021722976
0.021760046
0.021792758
0.021821542
0.021845808
0.021866884
0.021884715
0.021899235
0.021910921
0.021919829
0.021926137
0.021929957
0.02193136
0.02193044
0.021927238
0.021921735
0.021913972
0.02190393
0.02189155
0.021876787
0.02185956
0.021839773
0.021817316
0.021792062
0.021763866
0.021732576
0.021698021
0.021660023
0.021618394
0.021572934
0.021523439
0.021469699
0.021411498
0.02134862
0.021280847
0.021207963
0.021129752
0.021046006
0.020956521
0.020861104
0.02075957
0.020651746
0.020537472
0.020416605
0.020289015
0.020154589
0.02001323
0.019864877
0.020998125
0.021059028
0.021114251
0.021163169
0.021207922
0.021248347
0.021284026
0.021316031
0.021344431
0.021368805
0.021390396
0.021408704
0.021424068
0.021436653
0.021446451
0.021453589
0.021458103
0.021460012
0.021459346
0.021456118
0.021450227
0.021441682
0.021430392
0.021416274
0.021399227
0.021379133
0.021355859
0.02132926
0.021299178
0.021265446
0.021227884
0.021186307
0.021140521
0.021090328
0.021035525
0.020975907
0.020911269
0.020841406
0.020766117
0.020685206
0.020598483
0.020505765
0.020406882
0.020301672
0.02018999
0.020071702
0.019946691
0.019814856
0.019676113
0.01953041
0.020346329
0.0204196
0.020485851
0.020547444
0.02060369
0.020655449
0.02070152
0.020744324
0.020782749
0.020817342
0.020848614
0.020875848
0.020900073
0.020921366
0.020939382
0.020954489
0.020966629
0.020975872
0.020982237
0.020985726
0.020986289
0.020983945
0.020978563
0.020970098
0.020958451
0.020943514
0.020925164
0.020903267
0.020877674
0.020848228
0.020814761
0.020777099
0.02073506
0.020688457
0.020637099
0.020580794
0.020519348
0.020452572
0.020380276
0.020302276
0.020218395
0.020128465
0.020032327
0.019929833
0.01982085
0.019705256
0.019582947
0.019453834
0.019317844
0.019174935
0.019677525
0.019763005
0.019840729
0.019913174
0.019979897
0.020042254
0.020099459
0.020152498
0.020200207
0.020244445
0.020284969
0.020321373
0.020354403
0.020384093
0.020409872
0.020432885
0.020452471
0.020468909
0.020482186
0.020492311
0.020499254
0.020502989
0.02050344
0.020500603
0.020494309
0.020484498
0.020471047
0.020453833
0.020432719
0.020407558
0.020378192
0.020344457
0.020306184
0.020263197
0.020215317
0.020162366
0.020104162
0.020040526
0.019971284
0.019896265
0.019815304
0.019728246
0.019634946
0.019535268
0.019429091
0.019316308
0.019196826
0.019070568
0.018937471
0.018797508
0.018992277
0.01908841
0.019177875
0.019261777
0.019338614
0.019410136
0.019477304
0.019539756
0.019597438
0.019651087
0.019700204
0.019744928
0.019786592
0.019824178
0.01985814
0.019888736
0.019915292
0.019938771
0.019958783
0.019975403
0.019988583
0.0199983
0.020004504
0.020007137
0.020006119
0.020001391
0.01999278
0.019980203
0.019963532
0.019942627
0.019917344
0.019887528
0.019853022
0.01981366
0.019769278
0.019719707
0.019664779
0.019604329
0.019538195
0.019466218
0.019388249
0.019304143
0.01921377
0.019117007
0.019013746
0.018903891
0.018787363
0.018664095
0.018534039
0.018397175
0.018292136
0.018398365
0.018498035
0.018591644
0.018679435
0.018760185
0.018836803
0.018907386
0.018974108
0.019036273
0.019094015
0.019147433
0.019197097
0.019241863
0.019283545
0.019321268
0.019355329
0.019385225
0.019411636
0.01943458
0.019453806
0.019469344
0.019481147
0.019489152
0.019493287
0.019493464
0.019489651
0.019481635
0.01946934
0.019452639
0.019431395
0.019405468
0.019374707
0.019338962
0.019298079
0.019251901
0.019200273
0.019143043
0.01908006
0.019011181
0.018936268
0.018855191
0.018767832
0.018674081
0.018573843
0.018467035
0.018353589
0.018233452
0.018106587
0.017972984
0.017578248
0.017693631
0.017802427
0.017904971
0.018001499
0.018092108
0.018177847
0.0182569
0.018331081
0.018401017
0.018466741
0.018527996
0.018584985
0.01863765
0.018686539
0.018730581
0.018771381
0.018808012
0.018840921
0.018869495
0.018894471
0.018915622
0.018932833
0.018946039
0.018955175
0.018960164
0.018960919
0.01895739
0.018949388
0.018936807
0.018919536
0.018897441
0.018870386
0.01883823
0.018800829
0.018758041
0.018709723
0.018655735
0.018595939
0.018530205
0.018458408
0.018380431
0.018296169
0.018205526
0.018108419
0.018004778
0.017894547
0.017777685
0.017654165
0.01752399
0.016851698
0.016975169
0.017092061
0.017202663
0.017307231
0.017406019
0.017499422
0.017587532
0.01766905
0.017746607
0.017818631
0.017887097
0.017951086
0.018010687
0.018066056
0.018117115
0.018164309
0.018206588
0.018245387
0.018280107
0.018310335
0.018336667
0.018359061
0.018377248
0.018391185
0.018400802
0.018406018
0.01840674
0.018402924
0.018394371
0.018380976
0.018362635
0.018339221
0.018310605
0.018276655
0.01823724
0.018192228
0.018141492
0.018084908
0.018022358
0.01795373
0.017878921
0.017797838
0.017710397
0.017616529
0.017516176
0.017409294
0.017295854
0.01717584
0.017049265
0.016113546
0.016243953
0.016367855
0.016485507
0.016597151
0.016703027
0.016803385
0.016898406
0.016988286
0.017071935
0.01715108
0.017225215
0.017295389
0.017361304
0.017422814
0.017479971
0.017532892
0.017581552
0.01762535
0.017665166
0.017700938
0.017732512
0.017759377
0.017782258
0.017800752
0.017814777
0.017824256
0.017829101
0.01782922
0.017824585
0.017814954
0.017800263
0.017780406
0.017755262
0.017724712
0.017688635
0.017646912
0.017599429
0.017546073
0.017486738
0.017421327
0.017349748
0.017271921
0.017187777
0.017097256
0.017000314
0.016896919
0.016787051
0.016670708
0.016547913
0.01522207
0.015364802
0.015500931
0.015630685
0.015754289
0.015871956
0.015983892
0.016090293
0.016191318
0.016287086
0.016377598
0.016463517
0.016543354
0.016618572
0.016689605
0.016756691
0.016819324
0.016877533
0.016931313
0.016980609
0.017025693
0.017065777
0.017101913
0.017133701
0.017160626
0.017183353
0.017201528
0.017215034
0.01722379
0.017227709
0.017226719
0.017220749
0.017209584
0.017193176
0.017171418
0.017144199
0.017111412
0.017072948
0.017028705
0.016978583
0.016922488
0.016860335
0.016792045
0.01671755
0.016636794
0.016549728
0.016456321
0.016356551
0.016250412
0.016137909
0.016019076
0.014459449
0.01460641
0.014746987
0.014881377
0.015009769
0.015132347
0.015249284
0.015360744
0.015466871
0.015567789
0.01566362
0.01575458