/*--------------------------------*- C++ -*----------------------------------*\
| =========                 |                                                 |
| \\      /  F ield         | OpenFOAM: The Open Source CFD Toolbox           |
|  \\    /   O peration     | Version:  2312                                  |
|   \\  /    A nd           | Website:  www.openfoam.com                      |
|    \\/     M anipulation  |                                                 |
\*---------------------------------------------------------------------------*/
FoamFile
{
    version     2.0;
    format      ascii;
    arch        "LSB;label=32;scalar=64";
    class       volScalarField;
    location    "0.07";
    object      N2;
}
// * * * * * * * * * * * * * * * * * * * * * * * * * * * * * * * * * * * * * //

dimensions      [0 0 0 0 0 0 0];

internalField   nonuniform List<scalar> 
3250
(
0.67966318
0.68060391
0.68152029
0.68241401
0.68328668
0.68413985
0.68497499
0.68579351
0.68659677
0.6873861
0.68816278
0.68892803
0.68968308
0.69042909
0.69116721
0.69189856
0.69262424
0.69334531
0.69406281
0.69477778
0.6954912
0.69620405
0.69691728
0.6976318
0.69834851
0.69906828
0.69979192
0.70052025
0.70125402
0.70199394
0.70274071
0.70349495
0.70425725
0.70502815
0.70580812
0.7065976
0.70739694
0.70820647
0.7090264
0.70985693
0.71069815
0.7115501
0.71241274
0.71328597
0.71416974
0.7150638
0.71596769
0.71688102
0.71780329
0.67968557
0.68062543
0.681541
0.68243396
0.68330593
0.68415844
0.68499294
0.68581087
0.68661357
0.68740237
0.68817854
0.68894332
0.68969792
0.6904435
0.69118121
0.69191218
0.69263748
0.6933582
0.69407537
0.69479002
0.69550314
0.6962157
0.69692864
0.6976429
0.69835935
0.69907887
0.69980228
0.70053037
0.70126392
0.70200363
0.70275019
0.70350423
0.70426633
0.70503704
0.70581683
0.70660613
0.7074053
0.70821465
0.70903442
0.70986478
0.71070584
0.71155764
0.71242013
0.71329323
0.71417684
0.71507071
0.71597443
0.71688761
0.71780975
0.67973037
0.6806685
0.68158245
0.68247391
0.68334446
0.68419563
0.68502888
0.68584561
0.6866472
0.68743494
0.6882101
0.68897393
0.68972763
0.69047235
0.69120926
0.69193945
0.69266403
0.69338405
0.69410056
0.69481457
0.69552709
0.69623907
0.69695146
0.69766519
0.69838114
0.69910017
0.69982312
0.70055077
0.70128388
0.70202318
0.70276933
0.70352299
0.70428472
0.70505506
0.70583449
0.70662344
0.70742228
0.7082313
0.70905075
0.7098808
0.71072155
0.71157304
0.71243525
0.71330807
0.71419138
0.71508492
0.71598834
0.71690122
0.71782309
0.67979751
0.68073306
0.6816446
0.6825338
0.68340222
0.68425139
0.68508275
0.68589771
0.68669761
0.68748376
0.68825743
0.68901983
0.68977218
0.69051563
0.69125132
0.69198037
0.69270385
0.69342283
0.69413835
0.69485141
0.69556303
0.69627415
0.69698572
0.69769867
0.69841386
0.69913217
0.69985443
0.70058141
0.70131388
0.70205256
0.70279813
0.7035512
0.70431238
0.70508218
0.70586109
0.70664953
0.70744787
0.7082564
0.70907538
0.70990496
0.71074525
0.7115963
0.71245807
0.71333046
0.71421333
0.71510643
0.7160094
0.71692185
0.7178433
0.67988693
0.68081905
0.68172738
0.68261357
0.68347916
0.68432566
0.68515452
0.68596711
0.68676477
0.68754881
0.68832047
0.68908099
0.68983154
0.69057329
0.69130737
0.69203488
0.69275691
0.69347451
0.69418871
0.69490052
0.69561094
0.69632092
0.6970314
0.6977433
0.6984575
0.69917485
0.69989618
0.70062229
0.70135391
0.70209178
0.70283655
0.70358886
0.7043493
0.70511839
0.7058966
0.70668437
0.70748205
0.70828994
0.70910829
0.70993725
0.71077695
0.7116274
0.71248858
0.7133604
0.71424269
0.7151352
0.7160376
0.71694948
0.71787038
0.67999213
0.68092024
0.6818248
0.68270745
0.68356971
0.68441308
0.68523898
0.68604879
0.68684383
0.68762538
0.68839469
0.68915298
0.68990143
0.69064118
0.69137337
0.69209908
0.69281939
0.69353536
0.69424801
0.69495835
0.69566736
0.696376
0.6970852
0.69779587
0.6985089
0.69922513
0.69994539
0.70067045
0.70140108
0.70213799
0.70288184
0.70363326
0.70439283
0.70516108
0.70593848
0.70672546
0.70752237
0.70832951
0.70914711
0.70997536
0.71081434
0.7116641
0.7125246
0.71339574
0.71427735
0.71516919
0.71607091
0.71698213
0.71790237
0.68010986
0.68103348
0.68193383
0.68281253
0.68367107
0.68451094
0.68533354
0.68614023
0.68693233
0.6877111
0.68847779
0.68923359
0.68997968
0.6907172
0.69144727
0.69217096
0.69288937
0.69360352
0.69431444
0.69502313
0.69573056
0.6964377
0.69714547
0.69785477
0.69856649
0.69928146
0.70000052
0.70072443
0.70145394
0.70218978
0.70293259
0.70368302
0.70444162
0.70520893
0.70598543
0.70677152
0.70756757
0.70837387
0.70919065
0.71001809
0.71085628
0.71170526
0.712565
0.71343538
0.71431624
0.71520732
0.71610829
0.71701877
0.71793828
0.68024929
0.6811676
0.68206298
0.682937
0.68379115
0.68462687
0.68544557
0.68624858
0.6870372
0.68781269
0.68857626
0.68932912
0.69007242
0.6908073
0.69153485
0.69225617
0.69297231
0.69368431
0.69439318
0.69509992
0.69580549
0.69651086
0.69721693
0.69792461
0.69863478
0.69934827
0.70006589
0.70078844
0.70151664
0.7022512
0.7029928
0.70374204
0.7044995
0.70526571
0.70604113
0.70682618
0.70762121
0.70842651
0.70924232
0.71006881
0.71090607
0.71175412
0.71261295
0.71348243
0.7143624
0.71525259
0.71615268
0.71706229
0.71798092
0.68041192
0.68132406
0.68221365
0.68308222
0.68393125
0.68476216
0.68557631
0.68637503
0.6871596
0.68793125
0.68869121
0.68944064
0.69018069
0.69091248
0.69163712
0.69235566
0.69306916
0.69377865
0.69448513
0.69518959
0.695893
0.6965963
0.6973004
0.69800619
0.69871455
0.69942631
0.70014227
0.70086322
0.70158989
0.70232298
0.70306315
0.70381101
0.70456715
0.70533206
0.70610623
0.70689006
0.7076839
0.70848805
0.70930273
0.7101281
0.71096427
0.71181125
0.71266902
0.71353745
0.71441638
0.71530554
0.7162046
0.71711319
0.71803081
0.68059934
0.68150439
0.68238732
0.68324964
0.68409278
0.68491814
0.68572706
0.68652084
0.68730075
0.688068
0.68882379
0.68956927
0.69030558
0.69103383
0.69175509
0.69247044
0.6931809
0.6938875
0.69459123
0.69529308
0.69599399
0.6966949
0.69739673
0.69810035
0.69880662
0.69951639
0.70023044
0.70094955
0.70167445
0.70240584
0.70314437
0.70389066
0.70464526
0.70540869
0.70618141
0.70696384
0.70775631
0.70855912
0.7093725
0.71019659
0.7110315
0.71187724
0.71273379
0.71360102
0.71447874
0.71536672
0.7162646
0.71717201
0.71808847
0.68081319
0.68171018
0.68258553
0.68344072
0.68427716
0.68509621
0.68589917
0.68668734
0.68746194
0.68822417
0.6889752
0.68971619
0.69044824
0.69117244
0.69188987
0.69260158
0.69330858
0.69401189
0.69471249
0.69541135
0.69610941
0.69680761
0.69750684
0.69820797
0.69891188
0.69961937
0.70033124
0.70104826
0.70177114
0.70250059
0.70323725
0.70398173
0.70473458
0.70549632
0.7062674
0.70704822
0.70783914
0.70864042
0.70945231
0.71027494
0.71110841
0.71195274
0.71280789
0.71367374
0.7145501
0.71543672
0.71633326
0.71723933
0.71815445
0.68105518
0.68194307
0.68280988
0.68365704
0.68448591
0.68529783
0.68609408
0.6868759
0.6876445
0.68840106
0.68914673
0.68988264
0.69060987
0.69132951
0.69204261
0.69275019
0.69345328
0.69415287
0.69484992
0.69554541
0.69624025
0.69693538
0.69763167
0.69833001
0.69903122
0.69973614
0.70044555
0.70116019
0.7018808
0.70260806
0.7033426
0.70408503
0.70483591
0.70559573
0.70636494
0.70714396
0.70793311
0.70873267
0.70954286
0.71036384
0.71119569
0.71203842
0.71289199
0.71375628
0.7146311
0.71551618
0.71641119
0.71731574
0.71822936
0.68132708
0.68220479
0.68306203
0.6839002
0.6847206
0.68552453
0.68631325
0.68708795
0.68784983
0.68860004
0.6893397
0.69006991
0.69079174
0.69150625
0.69221449
0.69291745
0.69361615
0.69431156
0.69500464
0.69569633
0.69638757
0.69707924
0.69777224
0.69846743
0.69916563
0.69986766
0.70057429
0.70128628
0.70200433
0.70272912
0.70346128
0.70420142
0.70495007
0.70570773
0.70647485
0.70725183
0.708039
0.70883662
0.70964492
0.71046403
0.71129405
0.71213499
0.71298678
0.71384931
0.71472239
0.71560574
0.71649904
0.71740189
0.71831381
0.68163071
0.6824971
0.68334371
0.68417187
0.68498285
0.68577789
0.68655822
0.68732501
0.6880794
0.68882253
0.68955548
0.69027934
0.69099515
0.69170396
0.69240677
0.69310459
0.69379839
0.69448913
0.69517778
0.69586525
0.69655245
0.69724027
0.6979296
0.69862127
0.69931611
0.70001491
0.70071845
0.70142746
0.70214265
0.70286469
0.7035942
0.70433177
0.70507793
0.70583319
0.70659798
0.70737268
0.70815762
0.70895308
0.70975926
0.71057629
0.71140427
0.71224319
0.713093
0.71395357
0.71482469
0.71570612
0.7165975
0.71749844
0.71840847
0.68196796
0.68282185
0.6836567
0.68447378
0.68527433
0.68605954
0.68683059
0.68758861
0.68833471
0.68907
0.68979553
0.69051235
0.69122149
0.69192397
0.69262077
0.69331287
0.69400124
0.69468682
0.69537054
0.69605332
0.69673605
0.69741961
0.69810485
0.69879262
0.69948372
0.70017894
0.70087905
0.70158476
0.70229677
0.70301575
0.70374231
0.70447702
0.70522043
0.70597301
0.7067352
0.70750737
0.70828985
0.7090829
0.70988671
0.71070144
0.71152714
0.71236382
0.71321142
0.7140698
0.71493876
0.71581804
0.71670729
0.71760611
0.71851403
0.68234076
0.6831809
0.68400282
0.68480773
0.6855968
0.68637118
0.68713201
0.68788037
0.68861734
0.68934398
0.69006133
0.69077039
0.69147218
0.69216767
0.69285784
0.69354365
0.69422602
0.6949059
0.69558419
0.69626179
0.69693958
0.69761842
0.69829915
0.69898261
0.69966958
0.70036085
0.70105715
0.70175922
0.70246772
0.70318332
0.70390661
0.70463817
0.70537853
0.70612815
0.70688746
0.70765683
0.70843658
0.70922696
0.71002817
0.71084033
0.71166351
0.71249771
0.71334286
0.71419882
0.71506539
0.71594228
0.71682917
0.71772564
0.71863122
0.68275108
0.6835762
0.68438397
0.68517554
0.68595204
0.68671456
0.68746418
0.68820195
0.68892891
0.68964607
0.69035444
0.69105499
0.6917487
0.69243653
0.69311942
0.6937983
0.6944741
0.69514771
0.69582003
0.69649193
0.69716429
0.69783794
0.69851372
0.69919244
0.69987487
0.70056178
0.70125391
0.70195195
0.70265659
0.70336846
0.70408817
0.70481625
0.70555324
0.7062996
0.70705574
0.70782203
0.70859877
0.70938621
0.71018453
0.71099387
0.71181427
0.71264573
0.71348818
0.71434147
0.71520539
0.71607966
0.71696394
0.71785782
0.71876081
0.68320096
0.68400971
0.68480206
0.6855791
0.68634188
0.68709146
0.68782886
0.68855508
0.6892711
0.68997791
0.69067646
0.69136772
0.6920526
0.69273205
0.69340698
0.69407829
0.69474688
0.69541363
0.69607942
0.69674509
0.6974115
0.69807948
0.69874983
0.69942334
0.7001008
0.70078294
0.70147048
0.70216413
0.70286453
0.70357231
0.70428807
0.70501235
0.70574565
0.70648842
0.70724108
0.70800398
0.70877742
0.70956162
0.71035678
0.71116301
0.71198036
0.71280882
0.7136483
0.71449865
0.71535966
0.71623104
0.71711245
0.71800348
0.71890363
0.68369244
0.68448344
0.68525906
0.68602032
0.68676822
0.68750374
0.68822785
0.68894151
0.68964564
0.69034119
0.69102907
0.6917102
0.69238548
0.6930558
0.69372205
0.69438512
0.69504585
0.69570513
0.69636379
0.69702267
0.69768259
0.69834437
0.69900879
0.69967663
0.70034865
0.70102558
0.70170812
0.70239695
0.70309272
0.70379604
0.70450749
0.7052276
0.70595686
0.70669572
0.70744457
0.70820376
0.70897357
0.70975424
0.71054594
0.71134877
0.71216277
0.71298793
0.71382415
0.71467128
0.71552911
0.71639732
0.71727559
0.71816349
0.71906052
0.68344063
0.68422766
0.68499945
0.68575697
0.68650117
0.68723296
0.68795328
0.68866301
0.68936305
0.6900543
0.69073765
0.69141396
0.69208411
0.69274896
0.69340938
0.69406622
0.69472033
0.69537254
0.6960237
0.69667461
0.6973261
0.69797897
0.69863401
0.69929199
0.69995366
0.70061977
0.70129102
0.70196811
0.70265171
0.70334243
0.70404089
0.70474764
0.7054632
0.70618806
0.70692264
0.70766734
0.70842248
0.70918835
0.70996516
0.71075307
0.71155218
0.71236253
0.71318409
0.71401675
0.71486037
0.7157147
0.71657946
0.71745429
0.71833876
0.71923239
0.68404362
0.68480864
0.68555976
0.6862978
0.68702362
0.68773806
0.68844198
0.6891362
0.68982156
0.69049891
0.69116907
0.69183288
0.69249117
0.69314476
0.69379447
0.69444113
0.69508554
0.69572853
0.69637089
0.69701342
0.69765691
0.69830214
0.69894987
0.69960086
0.70025584
0.70091553
0.70158063
0.70225181
0.70292971
0.70361496
0.70430813
0.70500977
0.7057204
0.70644047
0.70717041
0.70791059
0.70866133
0.7094229
0.7101955
0.71097929
0.71177436
0.71258073
0.71339836
0.71422715
0.71506693
0.71591746
0.71677845
0.71764952
0.71853027
0.71942018
0.68469596
0.68543747
0.68616643
0.68688358
0.68758967
0.68828549
0.68897178
0.68964933
0.69031891
0.69098131
0.69163729
0.69228764
0.69293315
0.6935746
0.69421277
0.69484845
0.69548242
0.69611545
0.69674832
0.6973818
0.69801665
0.69865362
0.69929346
0.69993689
0.70058463
0.70123739
0.70189583
0.70256061
0.70323235
0.70391166
0.70459911
0.70529522
0.7060005
0.70671538
0.70744028
0.70817556
0.70892152
0.70967843
0.71044646
0.71122578
0.71201645
0.7128185
0.71363186
0.71445644
0.71529205
0.71613845
0.71699534
0.71786233
0.71873901
0.71962487
0.68539975
0.68611619
0.6868215
0.68751632
0.68820133
0.68887721
0.68954465
0.69020435
0.69085702
0.69150338
0.69214415
0.69278006
0.69341186
0.69404027
0.69466605
0.69528993
0.69591266
0.69653498
0.69715764
0.69778138
0.69840692
0.699035
0.69966633
0.70030163
0.70094157
0.70158684
0.7022381
0.70289597
0.70356107
0.70423397
0.70491524
0.70560537
0.70630486
0.70701413
0.70773358
0.70846356
0.70920435
0.7099562
0.7107193
0.71149377
0.71227968
0.71307703
0.71388577
0.71470578
0.71553687
0.71637879
0.71723122
0.71809378
0.71896605
0.7198475
0.68545718
0.6861571
0.68684687
0.687527
0.68819805
0.6888606
0.68951523
0.69016255
0.69080319
0.6914378
0.69206702
0.69269153
0.69331201
0.69392913
0.69454358
0.69515608
0.69576732
0.69637801
0.69698885
0.69760056
0.69821384
0.6988294
0.69944793
0.70007012
0.70069667
0.70132822
0.70196545
0.70260897
0.70325941
0.70391735
0.70458335
0.70525795
0.70594165
0.7066349
0.70733812
0.70805169
0.70877594
0.70951115
0.71025754
0.7110153
0.71178453
0.71256529
0.71335757
0.71416131
0.71497638
0.71580257
0.71663964
0.71748725
0.71834501
0.71921248
0.72008915
0.68630001
0.68696996
0.68763147
0.68828492
0.68893075
0.68956944
0.69020149
0.69082743
0.6914478
0.69206318
0.69267416
0.69328135
0.69388535
0.69448682
0.69508638
0.6956847
0.69628244
0.69688026
0.69747882
0.69807882
0.69868091
0.69928578
0.69989408
0.70050649
0.70112365
0.70174622
0.70237481
0.70301003
0.70365249
0.70430275
0.70496134
0.70562878
0.70630555
0.70699208
0.70768879
0.70839603
0.70911411
0.70984331
0.71058382
0.71133582
0.7120994
0.7128746
0.71366142
0.71445976
0.71526949
0.71609039
0.71692221
0.71776462
0.71861719
0.71947948
0.72035094
0.68720184
0.68784023
0.68847192
0.68909719
0.68971636
0.69032982
0.69093796
0.69154124
0.69214012
0.6927351
0.69332671
0.69391549
0.694502
0.69508682
0.69567054
0.69625377
0.69683712
0.69742122
0.6980067
0.6985942
0.69918436
0.69977781
0.70037519
0.70097714
0.70158428
0.70219723
0.70281658
0.70344293
0.70407684
0.70471886
0.70536951
0.70602927
0.70669861
0.70737794
0.70806766
0.7087681
0.70947956
0.71020228
0.71093648
0.71168228
0.71243977
0.713209
0.71398992
0.71478244
0.71558641
0.71640162
0.71722779
0.71806458
0.71891157
0.71976827
0.68816448
0.68876973
0.68937007
0.68996568
0.69055677
0.69114362
0.69172654
0.69230589
0.69288206
0.69345547
0.69402659
0.69459588
0.69516385
0.69573102
0.69629793
0.69686514
0.69743322
0.69800275
0.69857432
0.69914854
0.69972599
0.70030729
0.70089304
0.70148384
0.70208029
0.70268298
0.70329248
0.70390934
0.70453413
0.70516735
0.70580949
0.70646104
0.70712243
0.70779405
0.70847628
0.70916943
0.70987379
0.71058958
0.71131698
0.71205613
0.7128071
0.71356989
0.71434448
0.71513074
0.71592853
0.71673761
0.71755769
0.71838843
0.71922941
0.72008016
0.68918957
0.68976014
0.69032765
0.69089216
0.69145378
0.69201268
0.69256908
0.69312325
0.6936755
0.69422618
0.69477567
0.6953244
0.69587278
0.6964213
0.69697044
0.69752071
0.69807262
0.69862671
0.69918354
0.69974366
0.70030763
0.70087603
0.70144942
0.70202837
0.70261346
0.70320523
0.70380424
0.70441101
0.70502607
0.7056499
0.70628299
0.70692577
0.70757866
0.70824205
0.70891627
0.70960163
0.71029838
0.71100674
0.71172688
0.7124589
0.71320286
0.71395877
0.71472655
0.7155061
0.71629725
0.71709974
0.71791329
0.71873754
0.71957206
0.7204164
0.6902786
0.69081303
0.69134629
0.69187831
0.69240911
0.69293874
0.69346735
0.69399512
0.69452226
0.69504906
0.69557583
0.69610291
0.69663069
0.69715956
0.69768996
0.69822234
0.69875718
0.69929497
0.69983622
0.70038143
0.70093114
0.70148587
0.70204617
0.70261257
0.7031856
0.70376579
0.70435366
0.7049497
0.70555442
0.70616827
0.70679171
0.70742516
0.70806901
0.70872361
0.70938929
0.71006633
0.71075497
0.7114554
0.71216776
0.71289216
0.71362863
0.71437715
0.71513766
0.71591001
0.71669403
0.71748947
0.718296
0.71911328
0.71994088
0.72077831
0.69143288
0.69192979
0.69242744
0.69292566
0.69342434
0.69392346
0.69442305
0.69492322
0.69542411
0.69592591
0.69642887
0.69693326
0.6974394
0.69794764
0.69845834
0.69897192
0.6994888
0.70000942
0.70053424
0.70106373
0.70159839
0.7021387
0.70268517
0.70323829
0.70379857
0.70436649
0.70494256
0.70552723
0.70612098
0.70672424
0.70733744
0.70796098
0.7085952
0.70924046
0.70989705
0.71056523
0.71124522
0.71193719
0.71264127
0.71335753
0.71408599
0.71482663
0.71557935
0.71634401
0.71712041
0.71790828
0.71870731
0.71951713
0.72033729
0.72116732
0.6926535
0.69311162
0.69357241
0.69403557
0.69450092
0.69496834
0.69543776
0.6959092
0.69638271
0.69685844
0.69733653
0.69781721
0.69830072
0.69878736
0.69927743
0.6997713
0.70026933
0.70077191
0.70127948
0.70179244
0.70231126
0.70283638
0.70336827
0.7039074
0.70445422
0.7050092
0.70557279
0.70614545
0.7067276
0.70731965
0.707922
0.70853502
0.70915904
0.70979438
0.71044132
0.71110008
0.71177087
0.71245384
0.71314909
0.71385667
0.7145766
0.71530883
0.71605324
0.71680968
0.71757794
0.71835773
0.71914874
0.71995057
0.72076278
0.72158487
0.69394131
0.6943595
0.69478229
0.69520927
0.69564016
0.69607476
0.69651292
0.69695454
0.69739964
0.69784825
0.69830048
0.69875647
0.69921639
0.69968049
0.70014902
0.70062228
0.7011006
0.70158431
0.70207379
0.70256943
0.70307163
0.70358081
0.70409738
0.70462178
0.70515444
0.70569579
0.70624624
0.70680622
0.70737612
0.70795633
0.70854722
0.70914912
0.70976234
0.71038718
0.71102388
0.71167266
0.71233368
0.71300709
0.71369295
0.71439131
0.71510216
0.71582543
0.71656099
0.71730867
0.71806824
0.71883941
0.71962185
0.72041514
0.72121885
0.72203246
0.69529689
0.69567416
0.69605797
0.69644773
0.69684314
0.69724392
0.69764982
0.69806064
0.69847633
0.69889687
0.69932229
0.69975265
0.70018807
0.70062873
0.70107485
0.70152665
0.7019844
0.70244842
0.70291902
0.70339655
0.70388137
0.70437384
0.70487437
0.70538333
0.70590113
0.70642816
0.7069648
0.70751144
0.70806845
0.70863619
0.70921498
0.70980515
0.71040697
0.7110207
0.71164658
0.71228478
0.71293546
0.71359873
0.71427464
0.71496321
0.71566441
0.71637815
0.71710429
0.71784265
0.71859297
0.71935496
0.72012825
0.72091245
0.72170709
0.72251164
0.69672047
0.69705608
0.6974001
0.69775173
0.69811075
0.69847684
0.69884959
0.6992287
0.69961408
0.70000567
0.7004034
0.70080726
0.70121732
0.70163371
0.70205657
0.70248609
0.70292249
0.70336602
0.70381697
0.70427562
0.70474231
0.70521736
0.70570111
0.70619393
0.70669618
0.7072082
0.70773036
0.70826301
0.70880649
0.70936111
0.70992718
0.71050499
0.71109479
0.71169682
0.71231127
0.7129383
0.71357805
0.71423058
0.71489595
0.71557415
0.71626511
0.71696875
0.71768489
0.71841334
0.71915383
0.71990604
0.72066961
0.72144412
0.72222909
0.72302399
0.69821187
0.69850543
0.69880913
0.69912176
0.69944362
0.69977432
0.70011319
0.70045975
0.700814
0.70117587
0.70154515
0.7019217
0.70230559
0.70269692
0.70309577
0.70350224
0.70391652
0.70433882
0.70476937
0.70520843
0.70565626
0.70611317
0.70657946
0.70705545
0.70754146
0.70803781
0.70854483
0.70906284
0.70959213
0.710133
0.71068573
0.71125056
0.71182773
0.71241743
0.71301985
0.71363511
0.71426331
0.71490451
0.71555874
0.71622596
0.71690609
0.71759902
0.71830456
0.7190225
0.71975254
0.72049438
0.72124761
0.72201181
0.7227865
0.72357113
0.69977016
0.70002218
0.70028539
0.70055795
0.70084205
0.70113695
0.7014414
0.70175459
0.70207702
0.70240854
0.70274871
0.70309722
0.70345419
0.70381978
0.70419393
0.70457663
0.70496808
0.70536845
0.70577791
0.70619668
0.70662498
0.70706307
0.70751122
0.70796971
0.70843882
0.70891885
0.70941009
0.70991281
0.71042729
0.71095378
0.71149253
0.71204376
0.71260768
0.71318444
0.71377421
0.71437708
0.71499313
0.7156224
0.71626487
0.7169205
0.71758918
0.71827078
0.7189651
0.7196719
0.72039088
0.7211217
0.72186397
0.72261723
0.723381
0.72415471
0.701399
0.70160639
0.70182952
0.70205976
0.70230593
0.70256513
0.70283494
0.70311372
0.70340376
0.70370457
0.70401516
0.70433488
0.70466424
0.70500353
0.70535241
0.70571069
0.70607863
0.70645645
0.70684419
0.70724201
0.70765015
0.70806878
0.70849815
0.70893851
0.7093901
0.70985318
0.710328
0.71081481
0.71131384
0.71182534
0.7123495
0.71288651
0.71343656
0.71399977
0.71457627
0.71516614
0.71576942
0.71638612
0.71701621
0.71765963
0.71831624
0.71898588
0.71966834
0.72036337
0.72107064
0.7217898
0.72252043
0.7232621
0.72401427
0.7247764
0.70309362
0.70325532
0.70343667
0.70362941
0.70383697
0.70405924
0.70429484
0.70453697
0.7047945
0.70506473
0.70534558
0.70563554
0.70593656
0.7062493
0.70657251
0.70690568
0.70724952
0.70760427
0.7079697
0.70834598
0.70873337
0.70913196
0.70954197
0.70996359
0.71039705
0.71084257
0.71130037
0.71177067
0.71225367
0.71274956
0.71325852
0.71378071
0.71431627
0.71486532
0.71542794
0.71600418
0.71659407
0.71719758
0.71781467
0.71844523
0.71908912
0.71974616
0.72041612
0.72109871
0.7217936
0.72250043
0.72321877
0.72394815
0.72468805
0.72543791
0.70485014
0.70497111
0.70511114
0.70526343
0.70543218
0.7056181
0.70581643
0.70602696
0.70625174
0.7064898
0.70674143
0.70699955
0.70727147
0.70755814
0.70785558
0.70816268
0.70848185
0.7088133
0.70915584
0.70951
0.70987617
0.71025419
0.71064428
0.71104661
0.71146137
0.71188877
0.71232899
0.7127822
0.71324857
0.71372828
0.71422145
0.71472822
0.71524871
0.71578299
0.71633111
0.71689311
0.71746898
0.71805868
0.71866212
0.71927919
0.71990971
0.72055349
0.72121027
0.72187975
0.7225616
0.72325541
0.72396075
0.72467715
0.72540407
0.72614093
0.70666991
0.7067486
0.70684733
0.70696181
0.7070935
0.70724281
0.70740353
0.70758067
0.70777326
0.7079786
0.70819802
0.70842886
0.70867303
0.7089314
0.70920349
0.70948221
0.70977634
0.71008504
0.71040386
0.71073524
0.71108
0.71143691
0.71180661
0.71218914
0.7125847
0.71299345
0.71341554
0.71385113
0.71430034
0.71476329
0.71524011
0.71573089
0.71623571
0.71675463
0.71728766
0.71783481
0.71839604
0.71897129
0.71956044
0.72016337
0.72077986
0.72140971
0.72205264
0.72270833
0.72337643
0.72405652
0.72474816
0.72545085
0.72616405
0.72688718
0.70855007
0.70858835
0.70864697
0.70872239
0.70881677
0.70892902
0.70905609
0.70919987
0.70936008
0.7095314
0.70972041
0.70992214
0.7101378
0.71036807
0.71061165
0.71086719
0.71113693
0.711422
0.71171465
0.71202237
0.71234647
0.71268141
0.71303043
0.71339268
0.71376855
0.71415817
0.71456167
0.71497913
0.71541066
0.71585634
0.71631627
0.7167905
0.71727909
0.71778206
0.71829941
0.71883111
0.71937709
0.71993726
0.72051149
0.72109961
0.72170142
0.72231667
0.72294506
0.72358626
0.7242399
0.72490555
0.72558275
0.72627099
0.72696973
0.72767837
0.71048826
0.71048669
0.7105057
0.71054442
0.71060231
0.71067903
0.71077086
0.71088166
0.71100831
0.71115025
0.71130923
0.71147976
0.71166628
0.71186946
0.71208542
0.71231577
0.71256019
0.71281898
0.71309038
0.71337637
0.71367846
0.71398832
0.7143172
0.71465855
0.71501431
0.7153844
0.71576888
0.71616777
0.71658115
0.71700908
0.71745161
0.71790877
0.71838059
0.71886706
0.71936815
0.7198838
0.72041392
0.7209584
0.72151707
0.72208975
0.7226762
0.72327616
0.72388932
0.72451532
0.72515378
0.72580425
0.72646627
0.72713931
0.72782282
0.72851619
0.71248083
0.71244083
0.71242284
0.71242518
0.71244725
0.71248886
0.71254836
0.71262651
0.71272002
0.71283119
0.7129594
0.7131021
0.71326121
0.71343692
0.71362374
0.71382914
0.71404797
0.71428183
0.71453
0.714793
0.71507096
0.71536248
0.71567079
0.71598774
0.71632323
0.71667347
0.71703859
0.71741854
0.71781336
0.71822308
0.71864774
0.71908734
0.71954188
0.72001132
0.7204956
0.72099463
0.7215083
0.72203646
0.72257894
0.72313553
0.72370596
0.72428995
0.72488717
0.72549726
0.72611981
0.72675436
0.72740043
0.7280575
0.72872498
0.72940228
0.71452508
0.71444866
0.71439468
0.71436202
0.71435027
0.71435822
0.71438514
0.7144309
0.71449431
0.71457587
0.71467391
0.71478725
0.71491916
0.71506646
0.71522925
0.71540913
0.71560055
0.71581014
0.71603452
0.71627439
0.71652946
0.71679956
0.71708531
0.71738609
0.71769766
0.71802659
0.71837214
0.7187328
0.71910868
0.7194998
0.71990616
0.72032776
0.72076454
0.72121644
0.72168338
0.72216524
0.72266188
0.72317314
0.7236988
0.72423865
0.72479239
0.72535973
0.72594032
0.72653378
0.72713967
0.72775754
0.7283869
0.72902719
0.72967786
0.73033827
0.71661729
0.71650653
0.71641869
0.71635286
0.71630822
0.71628455
0.71628028
0.71629506
0.71632865
0.71638051
0.71645008
0.71653675
0.71664139
0.71676042
0.71689794
0.71705158
0.71722146
0.7174047
0.7176043
0.71782136
0.71805373
0.71830179
0.71856557
0.7188447
0.71913859
0.7194495
0.71977079
0.72011178
0.7204684
0.72084057
0.72122827
0.72163145
0.72205003
0.72248393
0.72293303
0.72339719
0.72387625
0.72437001
0.72487826
0.72540072
0.72593713
0.72648713
0.72705038
0.72762647
0.72821497
0.7288154
0.72942726
0.73004999
0.73068301
0.73132571
0.71875358
0.71861094
0.71849156
0.71839461
0.71831933
0.71826509
0.71823101
0.71821694
0.71822186
0.71824533
0.71828729
0.71834711
0.71842464
0.71851916
0.71863159
0.71875851
0.71890396
0.71906496
0.71924319
0.71943468
0.71964404
0.71987014
0.72011232
0.72037036
0.72064417
0.72093419
0.72124003
0.72155707
0.72189367
0.7222466
0.7226153
0.7229997
0.7233997
0.72381517
0.72424596
0.72469192
0.72515287
0.72562857
0.7261188
0.72662327
0.72714168
0.72767367
0.72821888
0.72877688
0.72934724
0.72992945
0.73052301
0.73112736
0.73174192
0.73236605
0.72092994
0.72075817
0.72060979
0.72048404
0.7203802
0.72029763
0.72023564
0.72019371
0.72017178
0.7201687
0.72018404
0.72021793
0.72026987
0.72033952
0.72042677
0.72053098
0.72065308
0.72078945
0.72094456
0.7211163
0.72130206
0.72150497
0.72172593
0.72196299
0.72221626
0.72248579
0.72277144
0.72307309
0.72338617
0.72371889
0.72406834
0.72443368
0.72481474
0.72521139
0.72562345
0.72605075
0.72649306
0.72695017
0.7274218
0.72790767
0.72840743
0.72892075
0.72944721
0.72998641
0.73053786
0.73110109
0.73167556
0.73226071
0.73285596
0.73346067
0.72314228
0.72294438
0.72276979
0.72261784
0.72248785
0.72237922
0.72229138
0.72222381
0.72217604
0.72214812
0.7221388
0.72214797
0.7221755
0.72222121
0.72228476
0.7223659
0.72246463
0.72258059
0.72271186
0.7228604
0.72302646
0.72320978
0.72340674
0.72362285
0.7238556
0.72410481
0.72437038
0.72465218
0.72494993
0.72525854
0.72558827
0.72593433
0.72629618
0.72667367
0.7270666
0.72747479
0.727898
0.72833599
0.72878847
0.72925513
0.72973564
0.73022961
0.73073664
0.7312563
0.73178811
0.73233157
0.73288615
0.73345128
0.73402638
0.7346108
0.72563099
0.72538648
0.72516567
0.72496791
0.72479257
0.72463908
0.72450688
0.72439547
0.72430439
0.7242332
0.7241816
0.72414901
0.72413547
0.7241402
0.72416304
0.72420411
0.724263
0.72433953
0.72443345
0.72454438
0.72467294
0.72481634
0.72497822
0.72515732
0.72535042
0.72556248
0.72579157
0.72603723
0.72629944
0.72657847
0.72686849
0.72717584
0.72750246
0.72784485
0.72820286
0.72857631
0.72896498
0.72936864
0.72978702
0.73021981
0.7306667
0.73112733
0.73160131
0.73208823
0.73258763
0.73309905
0.73362197
0.73415586
0.73470015
0.73525424
0.73581751
0.72792199
0.72765854
0.72741823
0.72720051
0.72700482
0.72683067
0.72667757
0.72654508
0.72643278
0.72634029
0.72626726
0.72621334
0.72617823
0.72616197
0.72616378
0.72618346
0.7262213
0.72627687
0.72634998
0.72644047
0.72654834
0.72667344
0.72681376
0.7269717
0.72714751
0.72733738
0.7275461
0.7277719
0.7280142
0.72827284
0.72854724
0.72883364
0.72913865
0.72946132
0.72979958
0.73015323
0.73052202
0.73090571
0.73130401
0.7317166
0.73214317
0.73258332
0.73303668
0.73350282
0.73398127
0.73447157
0.73497319
0.73548559
0.73600822
0.73654046
0.73708171
0.73023326
0.72995463
0.72969838
0.72946406
0.72925122
0.72905942
0.72888825
0.72873733
0.7286063
0.72849484
0.72840263
0.72832939
0.72827485
0.72823879
0.72822126
0.72822154
0.72823944
0.72827532
0.72832876
0.72839962
0.72848778
0.72859315
0.72871572
0.72885394
0.72900859
0.72918162
0.72936861
0.72957438
0.72979704
0.73003595
0.73029085
0.73056144
0.73084363
0.73114585
0.73146414
0.7317977
0.73214629
0.73250962
0.73288741
0.73327934
0.73368505
0.73410418
0.73453631
0.73498102
0.73543784
0.7359063
0.73638587
0.73687602
0.73737618
0.73788575
0.73840413
0.73256116
0.73227116
0.73200263
0.73175519
0.73152848
0.73132215
0.73113587
0.73096932
0.7308222
0.73069425
0.73058519
0.7304948
0.73042285
0.73036915
0.7303335
0.730316
0.73031598
0.73033329
0.73036831
0.73042064
0.73049018
0.73057679
0.73068037
0.73080071
0.73093804
0.73109
0.73126022
0.73144429
0.73164755
0.73186713
0.7321028
0.73235462
0.73261791
0.73289828
0.73319647
0.73350974
0.73383784
0.73418049
0.73453739
0.73490821
0.7352926
0.73569017
0.73610051
0.73652319
0.73695774
0.73740369
0.7378605
0.73832765
0.73880457
0.73929068
0.73978536
0.73490236
0.73460482
0.73432766
0.7340706
0.73383338
0.73361572
0.73341735
0.73323805
0.73307756
0.73293568
0.73281221
0.73270694
0.73261971
0.73255035
0.73249872
0.73246467
0.7324483
0.73244901
0.73246673
0.73250179
0.73255384
0.73262278
0.73270851
0.73281095
0.73293003
0.73306566
0.733216
0.73338191
0.7335647
0.7337652
0.7339815
0.7342134
0.73446035
0.73471894
0.73499616
0.73528898
0.7355964
0.73591811
0.73625381
0.73660317
0.73696581
0.73734137
0.73772942
0.73812953
0.73854123
0.73896404
0.73939744
0.73984091
0.74029388
0.74075577
0.74122598
0.73725372
0.73695237
0.7366702
0.73640701
0.73616261
0.7359368
0.7357294
0.73554024
0.73536914
0.73521596
0.73508053
0.73496273
0.73486241
0.73477947
0.73471378
0.73466524
0.73463376
0.73461943
0.73462173
0.73464065
0.73467645
0.73472884
0.73479775
0.73488307
0.73498473
0.73510262
0.73523659
0.73538456
0.7355482
0.73572903
0.73592637
0.73613913
0.73636723
0.73660684
0.7368625
0.73713487
0.7374215