/*--------------------------------*- C++ -*----------------------------------*\
| =========                 |                                                 |
| \\      /  F ield         | OpenFOAM: The Open Source CFD Toolbox           |
|  \\    /   O peration     | Version:  2312                                  |
|   \\  /    A nd           | Website:  www.openfoam.com                      |
|    \\/     M anipulation  |                                                 |
\*---------------------------------------------------------------------------*/
FoamFile
{
    version     2.0;
    format      ascii;
    arch        "LSB;label=32;scalar=64";
    class       volScalarField;
    location    "0.07";
    object      nut;
}
// * * * * * * * * * * * * * * * * * * * * * * * * * * * * * * * * * * * * * //

dimensions      [0 2 -1 0 0 0 0];

internalField   nonuniform List<scalar> 
3250
(
0.034681277
0.034544314
0.034412912
0.034287037
0.034166654
0.034051735
0.033942252
0.033838182
0.033739507
0.033646212
0.033558288
0.033475729
0.033398534
0.033326705
0.03326025
0.033199181
0.033143513
0.033093264
0.033048459
0.033009122
0.032975282
0.03294697
0.032924221
0.03290707
0.032895555
0.032889714
0.032889588
0.032895215
0.032906637
0.032923895
0.032947028
0.032976075
0.033011077
0.033052068
0.033099087
0.033152168
0.033211343
0.033276644
0.033348103
0.033425746
0.033509603
0.033599698
0.033696055
0.033798697
0.033907678
0.034023037
0.03414475
0.034272841
0.034407333
0.034677842
0.034541046
0.034409805
0.034284083
0.034163849
0.034049071
0.033939723
0.033835783
0.033737233
0.033644058
0.033556249
0.0334738
0.033396711
0.033324984
0.033258627
0.033197652
0.033142075
0.033091913
0.033047191
0.033007935
0.032974172
0.032945935
0.032923258
0.032906176
0.032894728
0.032888951
0.032888885
0.032894572
0.032906051
0.032923363
0.032946548
0.032975646
0.033010696
0.033051735
0.033098798
0.033151922
0.033211138
0.03327648
0.033347977
0.033425657
0.03350955
0.03359968
0.033696072
0.033798753
0.033907765
0.034023139
0.034144873
0.034272985
0.034407504
0.034671066
0.034534609
0.034403691
0.034278281
0.034158344
0.034043851
0.033934777
0.033831099
0.033732801
0.033639867
0.033552289
0.033470063
0.033393187
0.033321666
0.033255506
0.033194721
0.033139326
0.03308934
0.033044787
0.033005692
0.032972086
0.032943999
0.032921467
0.032904524
0.032893209
0.03288756
0.032887619
0.032893424
0.032905017
0.032922439
0.03294573
0.03297493
0.033010077
0.033051209
0.033098362
0.033151572
0.033210871
0.033276292
0.033347865
0.033425618
0.033509581
0.033599778
0.033696237
0.033798983
0.033908053
0.034023474
0.034145254
0.034273412
0.034407978
0.034660957
0.034525009
0.03439458
0.034269636
0.034150147
0.034036083
0.033927419
0.033824136
0.033726215
0.033633644
0.033546414
0.033464522
0.033387967
0.033316753
0.03325089
0.03319039
0.033135269
0.033085547
0.033041247
0.033002396
0.032969025
0.032941164
0.032918848
0.032902114
0.032891
0.032885545
0.032885789
0.032891773
0.032903538
0.032921125
0.032944574
0.032973926
0.033009219
0.033050491
0.033097779
0.033151117
0.03321054
0.033276079
0.033347766
0.033425628
0.033509694
0.033599992
0.033696546
0.033799386
0.03390854
0.034024037
0.03414589
0.034274118
0.034408754
0.034647528
0.03451226
0.034382482
0.034258161
0.034139268
0.034025776
0.03391766
0.033814901
0.033717484
0.033625396
0.03353863
0.033457183
0.033381056
0.033310254
0.033244786
0.033184666
0.03312991
0.033080539
0.033036577
0.032998052
0.032964993
0.032937433
0.032915406
0.032898951
0.032888104
0.032882907
0.032883398
0.032889621
0.032901614
0.032919421
0.032943082
0.032972636
0.033008124
0.033049583
0.033097049
0.03315056
0.033210147
0.033275843
0.03334768
0.033425687
0.033509891
0.033600321
0.033697002
0.033799962
0.033909229
0.03402483
0.034146781
0.034275104
0.034409831
0.034631756
0.034497289
0.034368276
0.03424469
0.034126499
0.034013679
0.033906208
0.033804067
0.033707242
0.033615723
0.033529503
0.033448581
0.033372957
0.033302639
0.033237637
0.033177963
0.033123637
0.03307468
0.033031116
0.032992973
0.032960282
0.032933076
0.032911391
0.032895263
0.032884732
0.032879838
0.032880621
0.032887123
0.032899386
0.032917452
0.032941361
0.032971154
0.03300687
0.033048549
0.033096226
0.033149938
0.033209719
0.0332756
0.033347614
0.03342579
0.033510156
0.03360074
0.033697569
0.033800669
0.033910069
0.034025793
0.034147862
0.034276296
0.034411129
0.034614129
0.034480559
0.034352404
0.034229638
0.034112234
0.034000166
0.033893417
0.033791967
0.033695806
0.033604924
0.033519315
0.033438979
0.033363919
0.033294143
0.033229661
0.033170488
0.033116643
0.033068149
0.03302503
0.032987316
0.032955037
0.032928227
0.032906923
0.032891162
0.032880984
0.032876429
0.032877539
0.032884355
0.032896919
0.032915274
0.032939462
0.032969522
0.033005494
0.033047419
0.033095332
0.033149269
0.033209266
0.033275354
0.033347566
0.033425931
0.033510478
0.033601234
0.033698227
0.033801484
0.033911032
0.034026895
0.034149095
0.034277654
0.034412606
0.034593281
0.034460773
0.034333634
0.03421184
0.034095365
0.033984189
0.033878294
0.033777664
0.033682288
0.033592159
0.033507274
0.033427633
0.033353241
0.033284106
0.033220241
0.033161661
0.033108386
0.03306044
0.033017849
0.032980641
0.032948851
0.032922511
0.032901658
0.032886332
0.032876572
0.032872418
0.032873914
0.032881102
0.032894024
0.032912722
0.032937238
0.032967615
0.033003891
0.033046106
0.033094298
0.033148502
0.033208755
0.033275088
0.033347534
0.033426123
0.033510883
0.033601843
0.033699031
0.033802472
0.033912194
0.034028222
0.034150578
0.034279286
0.034414379
0.034568993
0.034437724
0.034311769
0.034191108
0.034075718
0.033965582
0.033860682
0.033761007
0.033666547
0.033577298
0.033493257
0.033414426
0.033340813
0.033272426
0.033209279
0.033151391
0.033098781
0.033051474
0.033009498
0.032972883
0.032941661
0.032915869
0.032895543
0.032880724
0.032871451
0.032867767
0.032869714
0.032877335
0.032890673
0.032909771
0.032934672
0.032965417
0.033002047
0.033044601
0.033093118
0.033147635
0.033208186
0.033274804
0.033347523
0.033426372
0.033511381
0.033602579
0.033699992
0.033803649
0.033913574
0.034029795
0.034152333
0.034281214
0.034416472
0.034541041
0.034411197
0.034286606
0.03416725
0.03405311
0.033944171
0.033840419
0.033741844
0.033648439
0.033560202
0.033477133
0.033399236
0.03332652
0.033258995
0.033196677
0.033139585
0.033087741
0.033041171
0.032999904
0.03296397
0.032933405
0.032908243
0.032888525
0.03287429
0.032865579
0.032862435
0.032864901
0.032873021
0.032886839
0.032906399
0.032931742
0.032962912
0.03299995
0.033042896
0.033091788
0.033146663
0.033207557
0.033274505
0.033347538
0.033426687
0.033511983
0.033603453
0.033701127
0.03380503
0.03391519
0.034031633
0.034154382
0.034283462
0.034418909
0.03450919
0.034380973
0.034257937
0.034140069
0.034027354
0.033919779
0.033817335
0.033720015
0.033627813
0.033540731
0.033458771
0.033381939
0.033310245
0.033243703
0.033182331
0.033126147
0.033075177
0.033029448
0.032988989
0.032953833
0.032924016
0.032899574
0.032880549
0.03286698
0.03285891
0.032856382
0.032859441
0.032868131
0.032882497
0.032902582
0.032928431
0.032960086
0.032997589
0.03304098
0.0330903
0.033145584
0.033206871
0.033274193
0.033347584
0.033427076
0.033512698
0.03360448
0.03370245
0.033806635
0.033917063
0.034033759
0.034156748
0.034286056
0.034421719
0.034473204
0.034346824
0.034225546
0.03410936
0.033998256
0.033892225
0.03379126
0.033695357
0.033604517
0.03351874
0.033438034
0.033362406
0.033291869
0.033226439
0.033166135
0.033110979
0.033060998
0.033016219
0.032976674
0.032942398
0.032913428
0.032889801
0.032871558
0.032858743
0.032851398
0.032849568
0.032853298
0.032862632
0.032877617
0.032898298
0.032924718
0.032956921
0.032994951
0.033038847
0.03308865
0.033144398
0.033206128
0.033273874
0.03334767
0.033427549
0.033513541
0.033605675
0.03370398
0.033808484
0.033919214
0.034036196
0.034159458
0.034289024
0.034424931
0.034432839
0.034308521
0.034189215
0.034074917
0.03396562
0.033861321
0.033762016
0.033667705
0.033578392
0.033494082
0.033414783
0.033340507
0.033271269
0.033207087
0.033147983
0.033093982
0.03304511
0.033001398
0.032962881
0.032929593
0.032901573
0.032878861
0.032861499
0.03284953
0.032842999
0.032841952
0.032846435
0.032856494
0.032872175
0.032893524
0.032920586
0.032953405
0.032992026
0.033036489
0.033086835
0.033143103
0.033205331
0.033273554
0.033347806
0.033428119
0.033514525
0.033607055
0.033705736
0.033810597
0.033921667
0.034038973
0.03416254
0.034292395
0.034428577
0.034387846
0.034265826
0.03414872
0.034036527
0.033929246
0.033826878
0.033729425
0.03363689
0.03354928
0.033466605
0.033388876
0.033316109
0.03324832
0.033185532
0.033127767
0.033075053
0.03302742
0.0329849
0.032947528
0.032915343
0.032888384
0.032866693
0.032850313
0.03283929
0.032833668
0.032833496
0.032838819
0.032849686
0.032866144
0.032888239
0.032916017
0.032949525
0.032988805
0.033033901
0.033084854
0.033141703
0.033204487
0.033273241
0.033348001
0.033428799
0.033515669
0.033608639
0.03370774
0.033813001
0.03392445
0.034042116
0.034166025
0.034296204
0.034432692
0.034337975
0.034218505
0.034103837
0.033993978
0.033888932
0.033788706
0.033693306
0.033602741
0.033517021
0.03343616
0.033360174
0.03328908
0.033222899
0.033161656
0.033105377
0.033054093
0.033007834
0.032966636
0.032930537
0.032899576
0.032873795
0.032853237
0.032837947
0.032827973
0.03282336
0.032824158
0.032830415
0.03284218
0.0328595
0.032882423
0.032910998
0.032945269
0.032985282
0.03303108
0.033082706
0.0331402
0.033203601
0.033272946
0.03334827
0.033429607
0.03351699
0.03361045
0.033710018
0.033815722
0.033927593
0.034045658
0.034169946
0.034300484
0.034437313
0.034282977
0.034166318
0.034054339
0.033947055
0.033844476
0.033746614
0.03365348
0.033565088
0.033481455
0.033402596
0.033328533
0.033259286
0.033194881
0.033135345
0.033080707
0.033031
0.032986259
0.032946522
0.032911828
0.032882219
0.032857738
0.032838432
0.032824347
0.032815532
0.032812034
0.032813905
0.032821193
0.032833948
0.032852221
0.03287606
0.032905513
0.032940628
0.032981451
0.033028025
0.033080395
0.033138602
0.033202685
0.033272681
0.033348629
0.033430561
0.033518512
0.033612513
0.033712596
0.03381879
0.033931126
0.034049633
0.03417434
0.034305276
0.034442482
0.034222603
0.03410903
0.034000005
0.033895549
0.033795678
0.033700411
0.033609767
0.033523763
0.033442422
0.033365764
0.033293814
0.033226597
0.033164144
0.033106483
0.03305365
0.033005678
0.032962606
0.032924474
0.032891324
0.032863202
0.032840152
0.032822222
0.032809462
0.032801921
0.032799649
0.032802699
0.032811121
0.032824967
0.032844288
0.032869134
0.032899554
0.032935597
0.03297731
0.033024738
0.033077927
0.033136917
0.03320175
0.033272464
0.033349097
0.033431684
0.033520259
0.033614856
0.033715505
0.033822238
0.033935087
0.03405408
0.034179248
0.034310621
0.034448241
0.034156609
0.03404641
0.033940614
0.033839249
0.033742341
0.033649913
0.033561992
0.033478601
0.033399767
0.033325517
0.033255879
0.033190886
0.033130568
0.033074961
0.033024102
0.032978029
0.032936784
0.032900411
0.032868953
0.032842458
0.032820975
0.032804553
0.032793243
0.032787098
0.032786169
0.032790511
0.032800175
0.032815216
0.032835684
0.032861633
0.032893112
0.032930172
0.032972861
0.033021225
0.033075309
0.033135158
0.033200813
0.033272313
0.033349697
0.033433001
0.033522261
0.033617509
0.03371878
0.033826104
0.033939513
0.034059039
0.034184713
0.034316565
0.034454639
0.034084759
0.033978234
0.033875953
0.033777955
0.033684273
0.033594939
0.033509985
0.033429441
0.03335334
0.033281714
0.033214598
0.033152027
0.033094038
0.033040671
0.032991965
0.032947964
0.032908712
0.032874256
0.032844643
0.032819924
0.03280015
0.032785373
0.032775646
0.032771024
0.032771561
0.032777312
0.032788333
0.032804676
0.032826398
0.03285355
0.032886185
0.032924355
0.032968108
0.033017493
0.033072557
0.033133343
0.033199894
0.033272252
0.033350456
0.033434543
0.03352455
0.03362051
0.033722458
0.033830427
0.033944449
0.034064557
0.034190782
0.034323158
0.034461727
0.034113397
0.03400683
0.033904287
0.03380582
0.033711475
0.033621294
0.033535317
0.033453583
0.033376131
0.033302997
0.033234222
0.033169844
0.033109905
0.033054447
0.033003512
0.032957146
0.032915396
0.032878311
0.032845939
0.032818332
0.032795544
0.032777627
0.032764638
0.032756633
0.032753667
0.032755797
0.032763081
0.032775576
0.032793337
0.03281642
0.032844882
0.032878774
0.032918151
0.032963062
0.033013558
0.033069685
0.033131491
0.033199018
0.033272309
0.033351405
0.033436343
0.033527162
0.033623897
0.033726583
0.033835253
0.033949942
0.034070682
0.034197508
0.034330452
0.034469561
0.034024685
0.033922609
0.033824368
0.033730022
0.033639626
0.033553231
0.033470886
0.033392636
0.033318528
0.033248606
0.033182915
0.033121502
0.033064412
0.033011693
0.032963393
0.032919561
0.032880249
0.032845509
0.032815395
0.032789961
0.032769265
0.032753361
0.03274231
0.032736169
0.032734998
0.032738855
0.0327478
0.032761893
0.03278119
0.032805751
0.032835631
0.032870886
0.032911571
0.032957737
0.033009437
0.033066718
0.033129629
0.033198213
0.033272516
0.033352579
0.033438441
0.033530141
0.033627715
0.0337312
0.033840632
0.033956043
0.03407747
0.034204946
0.034338506
0.034478199
0.033929141
0.033831902
0.033738294
0.033648387
0.033562245
0.033479931
0.033401499
0.033327005
0.033256503
0.033190044
0.033127681
0.033069466
0.03301545
0.032965687
0.03292023
0.032879134
0.032842454
0.032810247
0.03278257
0.032759483
0.032741045
0.032727316
0.032718357
0.032714231
0.032714998
0.032720721
0.032731461
0.032747279
0.032768236
0.032794392
0.032825806
0.032862533
0.032904632
0.032952155
0.033005155
0.033063683
0.033127788
0.033197516
0.033272912
0.03335402
0.033440879
0.033533531
0.033632014
0.033736363
0.033846617
0.03396281
0.034084979
0.034213157
0.034347382
0.034487706
0.033826588
0.03373454
0.033645904
0.033560761
0.033479188
0.033401255
0.033327028
0.03325657
0.033189943
0.033127207
0.033068422
0.033013645
0.032962936
0.032916353
0.032873955
0.032835801
0.032801954
0.032772472
0.03274742
0.032726858
0.032710852
0.032699464
0.032692758
0.032690801
0.032693656
0.032701387
0.03271406
0.032731738
0.032754483
0.032782358
0.032815422
0.032853737
0.032897358
0.032946342
0.033000744
0.033060615
0.033126007
0.033196966
0.033273541
0.033355774
0.033443709
0.033537387
0.033636848
0.033742129
0.033853269
0.033970305
0.034093273
0.034222208
0.034357148
0.03449815
0.033806459
0.033716884
0.033630384
0.033547064
0.033467019
0.033390335
0.033317091
0.033247366
0.03318123
0.033118755
0.033060009
0.033005057
0.032953967
0.032906802
0.032863629
0.032824512
0.032789515
0.032758706
0.032732149
0.032709912
0.032692062
0.032678665
0.032669789
0.032665503
0.032665874
0.03267097
0.032680859
0.032695608
0.032715282
0.032739947
0.032769667
0.032804506
0.032844524
0.032889781
0.032940335
0.032996242
0.033057556
0.03312433
0.033196613
0.033274453
0.033357896
0.033446986
0.033541767
0.033642279
0.033748562
0.033860655
0.033978596
0.034102423
0.034232171
0.034367877
0.0345096
0.033683326
0.033599919
0.03351933
0.033441677
0.033367066
0.033295595
0.033227356
0.033162435
0.033100913
0.033042872
0.032988386
0.03293753
0.032890379
0.032847003
0.032807475
0.032771865
0.032740245
0.032712685
0.032689257
0.032670032
0.032655082
0.032644477
0.032638291
0.032636594
0.032639457
0.032646953
0.032659151
0.032676122
0.032697934
0.032724655
0.032756352
0.03279309
0.032834932
0.032881941
0.032934177
0.032991696
0.033054556
0.03312281
0.03319651
0.033275706
0.033360445
0.033450774
0.033546736
0.033648374
0.03375573
0.033868845
0.033987757
0.034112506
0.034243125
0.034379648
0.034522124
0.033552491
0.033475629
0.033401315
0.033329681
0.033260844
0.033194916
0.033131998
0.033072187
0.033015575
0.032962252
0.032912303
0.03286581
0.032822854
0.032783515
0.032747871
0.032716
0.032687979
0.032663884
0.032643793
0.032627781
0.032615924
0.032608299
0.032604982
0.032606048
0.032611572
0.032621629
0.032636292
0.032655635
0.032679729
0.032708645
0.032742453
0.032781219
0.03282501
0.03287389
0.032927921
0.032987163
0.033051674
0.033121509
0.033196723
0.033277367
0.033363491
0.033455142
0.033552366
0.033655208
0.033763712
0.033877918
0.033997869
0.034123603
0.034255157
0.034392555
0.033413944
0.033344003
0.033276329
0.033211065
0.033148343
0.033088285
0.033031006
0.032976613
0.032925209
0.032876893
0.032831757
0.032789895
0.032751395
0.032716343
0.032684826
0.032656928
0.032632732
0.032612321
0.032595777
0.032583181
0.032574616
0.03257016
0.032569895
0.032573901
0.032582256
0.032595038
0.032612325
0.032634193
0.032660717
0.03269197
0.032728024
0.03276895
0.032814816
0.032865689
0.032921632
0.032982708
0.033048977
0.033120497
0.033197324
0.033279511
0.033367109
0.03346017
0.033558739
0.033662864
0.033772589
0.03388796
0.034009018
0.034135806
0.034268361
0.034406726
0.033267744
0.033205095
0.033144418
0.033085871
0.033029601
0.032975741
0.032924418
0.03287575
0.03282985
0.032786827
0.032746784
0.032709821
0.032676037
0.032645525
0.032618378
0.032594689
0.032574546
0.032558038
0.032545254
0.032536281
0.032531204
0.03253011
0.032533083
0.032540207
0.032551565
0.03256724
0.032587311
0.032611859
0.032640962
0.032674696
0.032713135
0.032756354
0.032804423
0.032857411
0.032915385
0.032978408
0.033046545
0.033119854
0.033198394
0.03328222
0.033371386
0.033465943
0.033565941
0.03367143
0.033782455
0.033899063
0.034021299
0.034149207
0.034282829
0.034422219
0.033114025
0.033059026
0.033005696
0.032954208
0.03290472
0.032857379
0.032812323
0.032769682
0.03272958
0.032692135
0.032657461
0.032625665
0.032596856
0.032571134
0.032548601
0.032529355
0.032513493
0.032501109
0.032492298
0.032487153
0.032485765
0.032488224
0.032494621
0.032505043
0.032519578
0.032538312
0.03256133
0.032588714
0.032620545
0.032656905
0.03269787
0.032743516
0.032793917
0.032849144
0.032909268
0.032974354
0.033044468
0.033119672
0.033200026
0.033285588
0.033376414
0.033472557
0.03357407
0.033681003
0.033793405
0.033911325
0.03403481
0.034163907
0.034298661
0.03443913
0.032953006
0.032906
0.032860354
0.032816252
0.032773867
0.032733357
0.032694872
0.032658554
0.032624537
0.03259295
0.032563915
0.032537551
0.032513971
0.032493288
0.032475608
0.032461038
0.032449682
0.032441641
0.032437015
0.032435902
0.0324384
0.032444605
0.032454611
0.032468511
0.032486396
0.032508357
0.032534482
0.032564857
0.032599568
0.032638698
0.032682328
0.032730535
0.032783398
0.03284099
0.032903383
0.032970647
0.033042849
0.033120054
0.033202324
0.03328972
0.033382299
0.033480118
0.03358323
0.03369169
0.033805547
0.033924854
0.03404966
0.034180013
0.034315962
0.034457569
0.032785001
0.032746314
0.032708669
0.032672266
0.032637289
0.032603909
0.032572287
0.032542577
0.032514923
0.032489464
0.032466331
0.032445653
0.032427553
0.032412149
0.032399558
0.032389893
0.032383263
0.032379779
0.032379545
0.032382667
0.032389247
0.032399387
0.032413185
0.032430739
0.032452145
0.032477499
0.032506891
0.032540412
0.032578152
0.032620196
0.032666628
0.032717531
0.032772984
0.032833065
0.032897847
0.032967403
0.033041803
0.033121114
0.033205402
0.033294728
0.033389154
0.033488737
0.033593535
0.033703603
0.033818995
0.033939763
0.03406596
0.034197638
0.034334847
0.03447765
0.032610436
0.032580365
0.032551016
0.032522602
0.032495319
0.032469349
0.032444866
0.032422033
0.032401005
0.032381932
0.032364954
0.032350208
0.032337825
0.032327935
0.032320659
0.032316118
0.032314431
0.032315711
0.032320072
0.032327625
0.032338477
0.032352735
0.032370504
0.032391886
0.032416981
0.032445889
0.032478705
0.032515525
0.032556439
0.032601539
0.032650911
0.032704641
0.032762811
0.032825501
0.032892789
0.032964751
0.033041458
0.03312298
0.033209385
0.033300738
0.033397103
0.03349854
0.033605108
0.033716865
0.033833868
0.033956172
0.034083832
0.034216901
0.034355434
0.034499495
0.032429854
0.032408663
0.032387875
0.032367713
0.032348384
0.032330083
0.032312992
0.032297286
0.032283131
0.032270685
0.032260098
0.032251514
0.032245076
0.032240919
0.032239173
0.032239968
0.032243426
0.032249671
0.032258821
0.032270992
0.032286299
0.032304854
0.032326767
0.032352143
0.03238109
0.032413709
0.032450101
0.032490365
0.032534597
0.032582889
0.032635333
0.032692018
0.032753029
0.032818448
0.032888358
0.032962835
0.033041954
0.03312579
0.033214411
0.033307885
0.033406279
0.033509656
0.033618077
0.033731604
0.033850295
0.033974207
0.0341034
0.034237928
0.034377847
0.034523226
0.032243927
0.032231843
0.032219844
0.032208163
0.032197019
0.032186615
0.032177143
0.03216879
0.03216173
0.032156131
0.032152151
0.032149943
0.032149658
0.032151439
0.032155424
0.03216175
0.032170546
0.032181942
0.032196063
0.032213031
0.032232966
0.032255986
0.032282205
0.032311736
0.032344687
0.032381168
0.032421281
0.032465131
0.032512816
0.032564433
0.032620077
0.032679839
0.032743809
0.032812073
0.032884714
0.032961813
0.033043448
0.033129695
0.033220627
0.033316314
0.033416825
0.033522226
0.033632582
0.033747956
0.033868408
0.033994002
0.034124795
0.034260847
0.034402216
0.034548972
0.03205347
0.032050673
0.032047647
0.032044635
0.032041867
0.032039555
0.032037898
0.032037092
0.032037323
0.032038765
0.032041583
0.03204594
0.032051995
0.032059899
0.032069798
0.032081832
0.032096142
0.032112861
0.03213212
0.032154048
0.032178772
0.032206413
0.032237092
0.032270925
0.032308026
0.032348508
0.032392479
0.032440046
0.032491313
0.032546379
0.032605343
0.0326683
0.032735342
0.032806558
0.032882035
0.032961858
0.033046106
0.033134859
0.033228192
0.033326179
0.033428891
0.033536398
0.033648766
0.033766061
0.033888348
0.03401569
0.03414815
0.034285789
0.034428669
0.034576861
0.031859448
0.031866061
0.03187214
0.031877939
0.031883697
0.031889628
0.031895941
0.031902842
0.031910526
0.031919171
0.031928949
0.031940032
0.031952589
0.031966777
0.031982747
0.032000648
0.032020625
0.032042819
0.032067366
0.032094402
0.032124059
0.032156463
0.032191739
0.032230009
0.032271392
0.032316003
0.032363957
0.032415363
0.032470329
0.032528958
0.032591354
0.032657613
0.032727831
0.032802101
0.032880513
0.032963154
0.033050107
0.033141454
0.033237274
0.033337643
0.033442635
0.033552323
0.033666777
0.033786065
0.033910254
0.034039411
0.034173601
0.034312889
0.034457337
0.034607021
0.031662979
0.031679063
0.031694323
0.031709019
0.0317234
0.031737678
0.031752072
0.031766797
0.031782055
0.031798027
0.031814892
0.03183283
0.031852019
0.031872623
0.031894796
0.031918693
0.031944469
0.031972267
0.03200223
0.0320345
0.032069214
0.032106503
0.032146498
0.032189323
0.032235103
0.032283958
0.032336005
0.032391359
0.03245013
0.032512426
0.032578353
0.032648012
0.032721501
0.032798917
0.032880352
0.032965897
0.033055638
0.03314966
0.033248045
0.033350872
0.033458219
0.033570159
0.033686767
0.033808113
0.033934269
0.034065302
0.034201282
0.034342275
0.034488348
0.034639578
0.03146534
0.031490885
0.031515337
0.031538957
0.031561994
0.03158467
0.031607205
0.031629822
0.031652732
0.031676111
0.031700148
0.03172503
0.031750949
0.031778064
0.031806538
0.031836532
0.031868208
0.031901712
0.031937193
0.031974798
0.032014671
0.032056947
0.03210176
0.03214924
0.032199514
0.032252708
0.032308943
0.032368337
0.032431004
0.032497056
0.032566601
0.032639744
0.032716587
0.032797229
0.032881767
0.032970292
0.033062896
0.033159665
0.033260685
0.033366038
0.033475804
0.033590061
0.033708885
0.033832351
0.033960531
0.034093498
0.034231323
0.034374075
0.034521825
0.034674651
0.031267967
0.031302887
0.031336467
0.031368965
0.031400633
0.031431693
0.031462372
0.031492897
0.031523475
0.031554293
0.031585542
0.031617417
0.03165012
0.031683803
0.031718637
0.031754793
0.031792439
0.031831719
0.031872787
0.031915803
0.03196091
0.032008248
0.032057955
0.032110165
0.032165009
0.032222618
0.032283115
0.032346623
0.032413259
0.032483139
0.032556373
0.032633071
0.032713336
0.032797272
0.032884977
0.032976548
0.033072078
0.033171656
0.033275372
0.03338331
0.033495553
0.033612183
0.033733278
0.033858917
0.033989174
0.034124125
0.034263845
0.034408406
0.034557879
0.034712349
0.031072447
0.031116574
0.031159138
0.031200395
0.031240592
0.031279956
0.031318716
0.031357099
0.031395308
0.031433541
0.031471994
0.031510864
0.031550347
0.031590611
0.031631826
0.031674169
0.031717815
0.031762903
0.031809596
0.031858065
0.03190845
0.031960895
0.032015544
0.032072533
0.032131998
0.032194073
0.032258885
0.032326559
0.032397218
0.032470979
0.032547956
0.03262826
0.032712001
0.032799283
0.032890207
0.032984875
0.03308338
0.033185818
0.033292278
0.033402849
0.033517618
0.033636668
0.033760081
0.033887938
0.034020317
0.034157298
0.034298957
0.034445369
0.03459661
0.034752765
0.030880514
0.030933587
0.030984905
0.031034718
0.031083266
0.03113078
0.031177487
0.031223609
0.031269349
0.031314913
0.0313605
0.031406305
0.031452523
0.031499328
0.031546898
0.031595411
0.031645036
0.031695925
0.031748245
0.031802174
0.031857844
0.031915409
0.031975016
0.032036804
0.032100912
0.032167477
0.032236631
0.032308501
0.032383213
0.032460886
0.032541638
0.032625583
0.032712833
0.032803495
0.032897675
0.032995474
0.033096991
0.033202324
0.033311566
0.033424807
0.033542138
0.033663645
0.033789412
0.033919525
0.034054064
0.034193111
0.034336746
0.034485047
0.034638093
0.034795971
0.030694022
0.030755687
0.030815438
0.030873515
0.030930155
0.030985584
0.031040024
0.031093693
0.031146798
0.031199543
0.031252127
0.031304747
0.031357596
0.031410853
0.031464696
0.031519306
0.03157485
0.031631492
0.0316894
0.031748745
0.03180967
0.031872331
0.031936879
0.03200345
0.032072193
0.032143244
0.032216738
0.032292806
0.032371574
0.032453167
0.032537703
0.032625301
0.032716074
0.032810132
0.032907583
0.033008533
0.033113083
0.033221332
0.033333377
0.033449313
0.03356923
0.033693219
0.033821368
0.033953764
0.034090491
0.034231633
0.034377274
0.034527495
0.034682377
0.034842012
0.030514926
0.030584729
0.030652496
0.030718457
0.030782838
0.03084586
0.030907741
0.030968691
0.031028917
0.031088621
0.031148001
0.031207251
0.031266563
0.031326118
0.031386097
0.03144668
0.031508033
0.031570328
0.031633733
0.031698413
0.031764523
0.031832218
0.031901644
0.031972949
0.032046283
0.032121783
0.032199584
0.032279821
0.032362623
0.032448116
0.032536421
0.032627659
0.032721945
0.032819394
0.032920115
0.033024215
0.033131799
0.033242969
0.033357825
0.033476463
0.033598978
0.033725462
0.033856008
0.033990703
0.034129637
0.034272895
0.034420564
0.034572729
0.034729473
0.03489089
0.030345242
0.030422627
0.030497895
0.030571264
0.030642947
0.030713155
0.030782098
0.030849982
0.030917007
0.030983373
0.031049273
0.031114901
0.031180443
0.031246083
0.031312
0.031378372
0.031445369
0.031513164
0.031581924
0.031651813
0.03172299
0.031795608
0.031869818
0.031945768
0.032023608
0.032103485
0.032185526
0.032269872
0.032356653
0.032445997
0.032538029
0.032632869
0.032730636
0.032831446
0.032935411
0.033042641
0.033153243
0.033267321
0.033384978
0.033506312
0.033631421
0.033760401
0.033893345
0.034030346
0.034171494
0.03431688
0.034466591
0.034620716
0.03477934
0.034942561
0.030186994
0.03027131
0.030353469
0.030433674
0.030512127
0.030589025
0.030664568
0.030738954
0.030812378
0.030885031
0.030957104
0.031028783
0.031100255
0.031171698
0.031243293
0.031315213
0.03138763
0.031460715
0.031534636
0.031609555
0.031685631
0.03176302
0.031841872
0.031922338
0.032004566
0.032088701
0.032174879
0.032263241
0.032353915
0.032447032
0.032542717
0.032641093
0.032742282
0.0328464
0.032953562
0.033063879
0.033177462
0.033294415
0.033414845
0.033538852
0.033666537
0.033797998
0.033933332
0.034072632
0.034215993
0.034363508
0.034515266
0.03467136
0.034831878
0.03499692
0.030042163
0.030132662
0.03022101
0.03030739
0.03039199
0.030474993
0.03055659
0.030636966
0.030716305
0.030794794
0.030872615
0.03094995
0.031026978
0.031103877
0.031180823
0.031257988
0.031335541
0.031413651
0.031492483
0.031572199
0.031652959
0.031734916
0.031818222
0.031903028
0.031989482
0.032077727
0.032167901
0.032260144
0.032354591
0.032451368
0.032550603
0.032652422
0.032756945
0.032864292
0.032974579
0.033087919
0.033204423
0.033324201
0.033447358
0.033573999
0.033704226
0.03383814
0.033975839
0.034117422
0.034262983
0.03441262
0.034566424
0.034724489
0.034886908
0.035053783
0.029912611
0.030008462
0.03010221
0.030194019
0.030284059
0.0303725
0.030459518
0.030545288
0.030629983
0.030713779
0.030796851
0.030879371
0.030961515
0.031043454
0.03112536
0.031207402
0.031289746
0.031372556
0.031455995
0.031540222
0.031625396
0.031711671
0.031799197
0.031888123
0.031978595
0.032070758
0.032164749
0.032260706
0.032358765
0.032459057
0.032561709
0.032666846
0.032774589
0.032885059
0.032998374
0.033114649
0.033233996
0.033356525
0.033482346
0.033611564
0.033744284
0.033880609
0.03402064
0.034164477
0.034312218
0.034463961
0.034619803
0.034779838
0.034944162
0.035112879
0.029800008
0.029900302
0.029998585
0.030094998
0.030189694
0.030282828
0.03037456
0.030465051
0.030554466
0.030642967
0.030730717
0.030817885
0.030904633
0.030991131
0.031077542
0.031164032
0.03125076
0.031337887
0.031425572
0.031513972
0.031603241
0.031693531
0.031784992
0.031877772
0.031972013
0.032067859
0.032165448
0.032264915
0.032366394
0.03247002
0.032575923
0.032684223
0.032795044
0.032908506
0.033024729
0.033143827
0.033265916
0.033391108
0.033519512
0.033651236
0.033786387
0.033925069
0.034067387
0.034213441
0.034363334
0.034517164
0.034675031
0.034837031
0.035003264
0.035173835
0.029599873
0.029705752
0.029809499
0.029911389
0.030011515
0.030110015
0.030207028
0.030302696
0.030397168
0.030490594
0.030583127
0.030674919
0.030766128
0.030856907
0.030947417
0.031037817
0.031128264
0.031218912
0.031309916
0.031401432
0.03149361
0.031586604
0.03168056
0.031775626
0.031871947
0.031969665
0.032068919
0.032169846
0.032272581
0.032377256
0.032484005
0.032592961
0.032704241
0.032817971
0.03293427
0.033053257
0.03317505
0.033299764
0.033427511
0.033558403
0.03369255
0.03383006
0.033971039
0.034115592
0.034263824
0.034415838
0.034571735
0.034731616
0.034895581
0.035063731
0.035236173
0.029522659
0.029630711
0.029736964
0.029841527
0.02994441
0.030045806
0.030145823
0.03024459
0.03034224
0.030438911
0.030534742
0.030629875