/*--------------------------------*- C++ -*----------------------------------*\
| =========                 |                                                 |
| \\      /  F ield         | OpenFOAM: The Open Source CFD Toolbox           |
|  \\    /   O peration     | Version:  2312                                  |
|   \\  /    A nd           | Website:  www.openfoam.com                      |
|    \\/     M anipulation  |                                                 |
\*---------------------------------------------------------------------------*/
FoamFile
{
    version     2.0;
    format      ascii;
    arch        "LSB;label=32;scalar=64";
    class       volScalarField;
    location    "0.06";
    object      CH4;
}
// * * * * * * * * * * * * * * * * * * * * * * * * * * * * * * * * * * * * * //

dimensions      [0 0 0 0 0 0 0];

internalField   nonuniform List<scalar> 
3250
(
0.10662564
0.1055618
0.1045211
0.10350134
0.10250044
0.1015164
0.10054732
0.099591373
0.098646804
0.097711924
0.096785109
0.095864791
0.094949457
0.094037649
0.093127961
0.09221904
0.091309585
0.090398346
0.089484129
0.088565791
0.08764224
0.086712435
0.085775382
0.084830131
0.083875781
0.082911484
0.081936455
0.080949973
0.079951361
0.078939961
0.077915133
0.07687629
0.075822935
0.074754686
0.073671287
0.072572602
0.07145861
0.070329397
0.069185147
0.068026135
0.066852726
0.065665364
0.064464574
0.06325094
0.062025389
0.060788882
0.059541859
0.058285283
0.057020143
0.10660101
0.10553817
0.10449839
0.10347951
0.10247944
0.10149619
0.10052785
0.099572609
0.098628709
0.097694466
0.096768256
0.095848514
0.094933728
0.094022444
0.093113256
0.092204813
0.091295815
0.090385015
0.089471218
0.088553282
0.087630118
0.086700685
0.08576399
0.084819083
0.083865063
0.082901081
0.081926353
0.080940162
0.079941837
0.07893072
0.077906168
0.076867594
0.075814498
0.074746501
0.073663346
0.0725649
0.071451142
0.070322159
0.069178135
0.068019347
0.066846159
0.065659021
0.064458463
0.063245104
0.062019778
0.060783368
0.059536495
0.058280074
0.057015143
0.10655229
0.10549144
0.10445351
0.10343636
0.10243793
0.10145623
0.10048935
0.099535496
0.098592906
0.097659905
0.096734873
0.095816249
0.094902526
0.093992252
0.093084026
0.092176499
0.091268375
0.090358408
0.089445407
0.088528234
0.087605799
0.086677065
0.085741039
0.084796774
0.083843367
0.082879969
0.081905799
0.080920146
0.07992235
0.078911754
0.077887712
0.076849629
0.075797005
0.074729461
0.073646744
0.072548722
0.071435378
0.070306801
0.069163174
0.068004777
0.066831975
0.065645221
0.064445051
0.063232097
0.062007142
0.060771021
0.059524457
0.058268345
0.05700376
0.10647956
0.10542167
0.10438649
0.10337194
0.10237596
0.10139656
0.10043187
0.099480068
0.098539427
0.097608271
0.096684987
0.09576802
0.094855872
0.093947093
0.093040289
0.092134115
0.091227279
0.09031854
0.089406711
0.088490656
0.087569291
0.086641581
0.085706536
0.084763209
0.083810698
0.082848152
0.081874792
0.080889922
0.079892896
0.078883061
0.077859761
0.076822391
0.07577045
0.07470356
0.073621471
0.072524058
0.071411307
0.070283308
0.069140248
0.067982409
0.066810156
0.065623945
0.064424318
0.063211909
0.061987472
0.060751817
0.059505721
0.058250074
0.056985971
0.10638289
0.10532891
0.1042974
0.1032863
0.10229356
0.10131723
0.10035543
0.09940636
0.098468302
0.09753959
0.096618622
0.095703852
0.094793787
0.093886987
0.092982062
0.092077676
0.091172542
0.090265424
0.08935514
0.088440559
0.087520603
0.08659424
0.085660486
0.084718394
0.083767062
0.082805634
0.081833337
0.080849491
0.079853476
0.078844641
0.077822317
0.076785883
0.075734835
0.074668797
0.073587527
0.072490906
0.071378925
0.070251678
0.069109356
0.067952239
0.066780699
0.065595191
0.064396261
0.063184543
0.061960774
0.06072575
0.059480279
0.058225253
0.056961777
0.10626926
0.10521987
0.10419266
0.10318561
0.10219669
0.10122395
0.10026554
0.099319675
0.098384648
0.097458804
0.096540553
0.095628357
0.094720734
0.093816252
0.09291353
0.092011238
0.091108095
0.090202874
0.089294397
0.088381541
0.087463232
0.086538444
0.085606197
0.084665549
0.083715594
0.082755472
0.081784412
0.080801756
0.079806921
0.078799258
0.077778074
0.076742734
0.075692724
0.074627677
0.073547358
0.072451657
0.07134057
0.070214195
0.069072727
0.067916449
0.066745733
0.065561038
0.064362911
0.063151986
0.06192899
0.060694712
0.059449978
0.058195683
0.056932938
0.10614216
0.10509789
0.10407549
0.10307296
0.10208829
0.10111957
0.10016495
0.099222668
0.098291025
0.097368384
0.096453165
0.095543843
0.094638946
0.093737052
0.092836788
0.091936832
0.091035912
0.090132806
0.089226345
0.088315411
0.087398938
0.086475906
0.085545341
0.084606302
0.083657883
0.082699216
0.081729528
0.080748193
0.079754672
0.07874832
0.077728412
0.076694289
0.075645435
0.074581488
0.073502226
0.072407545
0.07129745
0.070172044
0.069031523
0.067876176
0.066706375
0.065522581
0.064325343
0.063115294
0.061893156
0.060659714
0.059415805
0.058162329
0.056900397
0.10599167
0.10495345
0.10393673
0.10293955
0.10195991
0.10099594
0.1000458
0.099107745
0.098180102
0.097261247
0.096349612
0.095443688
0.094542013
0.093643177
0.092745818
0.091848622
0.090950327
0.09004972
0.08914564
0.088236977
0.087322672
0.086401714
0.085473135
0.084536
0.083589396
0.082632444
0.081664373
0.080684587
0.079692619
0.078687822
0.077669427
0.076636742
0.075589249
0.074526598
0.073448579
0.072355099
0.071246173
0.070121907
0.068982504
0.067828252
0.066659528
0.065476795
0.064280602
0.063071583
0.061850454
0.060618003
0.059375072
0.058122565
0.056861595
0.10581614
0.10478495
0.10377485
0.10278389
0.10181011
0.10085166
0.099906736
0.098973612
0.098050628
0.097136179
0.096228719
0.095326751
0.094428828
0.093533552
0.092639575
0.091745593
0.090850354
0.089952655
0.089051346
0.088145326
0.087233544
0.086315001
0.085388735
0.084453819
0.083509332
0.082554374
0.081588175
0.080610178
0.079620021
0.078617048
0.077600422
0.076569413
0.075523502
0.074462354
0.073385777
0.072293693
0.071186124
0.070063184
0.068925079
0.0677721
0.066604628
0.065423126
0.064228146
0.063020322
0.061800369
0.060569073
0.059327282
0.058075906
0.056816057
0.10561383
0.10459074
0.10358823
0.10260442
0.10163739
0.10068529
0.099746366
0.098818908
0.097901282
0.096991904
0.096089245
0.095191828
0.094298221
0.093407043
0.092516956
0.091626671
0.090734947
0.089840595
0.088942473
0.088039492
0.087130614
0.086214847
0.085291246
0.084358888
0.083416842
0.082464175
0.081500118
0.080524157
0.079536089
0.078535238
0.077520659
0.076491579
0.075447483
0.074388059
0.073313138
0.072222657
0.071116647
0.069995231
0.068858618
0.067707104
0.06654107
0.065360984
0.064167398
0.062960946
0.061742345
0.060512382
0.059271907
0.058021834
0.056763278
0.10538295
0.10436905
0.1033752
0.10239953
0.10144017
0.1004953
0.099563206
0.098642202
0.097730678
0.096827075
0.095929885
0.095037652
0.094148962
0.09326245
0.092376795
0.091490722
0.090603004
0.089712463
0.088817972
0.087918453
0.087012881
0.08610028
0.085179717
0.084250284
0.083311028
0.082360963
0.081399334
0.080425661
0.079439984
0.078441586
0.077429358
0.076402474
0.075360439
0.074302974
0.073229935
0.072141277
0.071037044
0.069917363
0.06878245
0.067632605
0.06646821
0.065289737
0.064097739
0.062892853
0.061675794
0.060447351
0.059208379
0.057959796
0.056702717
0.1051216
0.10411808
0.10313398
0.1021675
0.10121679
0.1002801
0.099355711
0.098441993
0.09753736
0.096640279
0.095749267
0.094862889
0.093979754
0.093098514
0.092217866
0.091336551
0.090453357
0.089567122
0.088676734
0.087781126
0.08687929
0.085970265
0.085053144
0.084127032
0.08319094
0.082243803
0.081284896
0.080313762
0.079330812
0.078335243
0.077325691
0.076301286
0.07526157
0.074206311
0.073135394
0.072048795
0.070946569
0.069828851
0.068695861
0.067547903
0.066385363
0.065208715
0.064018513
0.062815397
0.061600083
0.060373364
0.059136096
0.057889201
0.056633795
0.10482782
0.10383592
0.10286275
0.10190655
0.10096555
0.100038
0.099122259
0.098216709
0.097319801
0.096430032
0.095545948
0.094666137
0.093789233
0.092913907
0.092038875
0.091162897
0.090284778
0.089403374
0.088517588
0.087626367
0.08672872
0.085823709
0.084910462
0.083988106
0.083055579
0.082111709
0.081155813
0.080187462
0.079207621
0.078215319
0.07720879
0.076187154
0.075150026
0.074097231
0.073028692
0.071944403
0.07084443
0.069728917
0.068598089
0.067452252
0.066291797
0.065117199
0.063929017
0.062727892
0.061514542
0.060289762
0.059054413
0.057809419
0.056555898
0.10449959
0.1035206
0.10255958
0.10161484
0.10068463
0.099767275
0.098861156
0.097964704
0.097076402
0.096194782
0.095318417
0.094445925
0.093575965
0.092707231
0.09183846
0.090968431
0.090095971
0.089219954
0.088339298
0.087452968
0.086559988
0.085659454
0.084750548
0.08383243
0.082903891
0.081963663
0.081011004
0.080045669
0.079069397
0.078080884
0.077077741
0.076059167
0.075024901
0.073974844
0.072908952
0.071827239
0.070729784
0.069616735
0.068488322
0.067344856
0.066186732
0.065014428
0.063828504
0.062629605
0.061418453
0.060195843
0.058962642
0.057719777
0.056468368
0.10413481
0.10317009
0.10222251
0.10129043
0.10037217
0.099466098
0.098570637
0.097684261
0.096805493
0.0959329
0.09506509
0.094200711
0.093338448
0.092477022
0.091615192
0.090751759
0.089885572
0.089015529
0.088140565
0.087259654
0.086371846
0.085476275
0.084572217
0.083658889
0.082734754
0.081798711
0.080849238
0.079887137
0.078915068
0.077930983
0.076931589
0.075916357
0.074885235
0.073838201
0.072775242
0.071696391
0.070601733
0.069491424
0.068365698
0.067224871
0.06606934
0.064899587
0.063716178
0.062519757
0.061311051
0.060090859
0.058860051
0.057619559
0.056370502
0.10373129
0.10278225
0.10184946
0.10093133
0.10002623
0.099132582
0.098248862
0.09737359
0.096505331
0.09564269
0.094784312
0.093928879
0.093075107
0.092221742
0.091367568
0.090511411
0.089652146
0.0887887
0.087920023
0.08704509
0.086162981
0.08527288
0.084374237
0.083466341
0.082546914
0.081616287
0.080668942
0.079710306
0.078743524
0.077764653
0.076769333
0.075757695
0.074730002
0.073686292
0.072626572
0.071550884
0.070459323
0.069352048
0.0682293
0.067091396
0.065938738
0.064771813
0.063591189
0.062397516
0.061191523
0.059974013
0.058745859
0.057508
0.056261555
0.10328681
0.10235492
0.10143832
0.10053547
0.09964479
0.098764766
0.097893923
0.09703083
0.096174099
0.095322379
0.094474355
0.093628744
0.092784295
0.091939783
0.091094015
0.090245847
0.089394189
0.088537999
0.087676242
0.086807878
0.085932025
0.085047923
0.084155344
0.083253614
0.082338715
0.081417371
0.080471834
0.079512886
0.078550668
0.077579733
0.076589907
0.075582076
0.074558111
0.073518045
0.072461888
0.071389686
0.07030154
0.069197614
0.068078151
0.066943473
0.065793988
0.064630185
0.063452637
0.062261999
0.061059002
0.059844455
0.058619235
0.057384286
0.056140729
0.10279907
0.10188583
0.10098689
0.10010071
0.099225775
0.098360621
0.097503837
0.096654047
0.095809911
0.094970126
0.094133418
0.093298546
0.092464291
0.09162946
0.090792885
0.089953454
0.08911012
0.088261892
0.087407737
0.086546571
0.085677578
0.084800041
0.083914364
0.083019323
0.082116035
0.081192232
0.080253635
0.079301127
0.078336452
0.077371006
0.076391305
0.075388294
0.074368398
0.073332316
0.072280069
0.071211698
0.070127307
0.069027063
0.067911214
0.066780086
0.065634092
0.064473724
0.063299562
0.062112263
0.060912566
0.059701282
0.058479294
0.05724755
0.056007177
0.10226566
0.10137269
0.10049294
0.09962487
0.098767039
0.097918052
0.097076559
0.096241239
0.095410808
0.094584013
0.093759627
0.092936451
0.092113303
0.091289019
0.090462455
0.089632541
0.088798287
0.087958781
0.087112974
0.086259687
0.085398257
0.084528013
0.083650789
0.082767856
0.081863258
0.080945389
0.080013403
0.079067293
0.078107907
0.077137577
0.076170354
0.075175227
0.074159626
0.073127893
0.072079926
0.071015755
0.06993548
0.068839275
0.067727388
0.066600154
0.065457988
0.064301389
0.063130942
0.061947309
0.060751234
0.059543532
0.058325092
0.057096869
0.055859993
0.1025682
0.101684
0.10081311
0.099954148
0.099105688
0.098266377
0.0974349
0.096609973
0.095790337
0.094974764
0.094162056
0.093351037
0.092540554
0.091729463
0.09091663
0.090100925
0.089281336
0.088456958
0.087627015
0.08679037
0.085945706
0.085092717
0.084231232
0.083368101
0.082483868
0.081586169
0.080675042
0.079749881
0.078810372
0.077856575
0.076887308
0.075924282
0.074940747
0.073930457
0.072903486
0.071860197
0.070800618
0.069724846
0.068633056
0.067525504
0.066402528
0.065264549
0.064112075
0.062945692
0.061766072
0.060573961
0.059370182
0.058155628
0.05693126
0.055698214
0.10191057
0.10105182
0.10020474
0.099368181
0.098540866
0.097721532
0.09690895
0.096101907
0.095299206
0.094499682
0.093702198
0.09290563
0.092108879
0.091310832
0.090510392
0.089706419
0.088897988
0.088084317
0.087264907
0.086438269
0.085602981
0.084759221
0.083914296
0.083050337
0.082173464
0.081283311
0.080379556
0.079461639
0.078529136
0.077581744
0.076617461
0.075653046
0.074682413
0.073679626
0.072657731
0.071619544
0.070564976
0.069494116
0.068407143
0.067304319
0.066185988
0.06505258
0.063904605
0.06274266
0.06156742
0.060379639
0.059180144
0.057969833
0.056749676
0.055520816
0.10119843
0.10036672
0.09954516
0.098732662
0.09792806
0.097130196
0.096337931
0.095550129
0.094765653
0.093983405
0.093202318
0.09242132
0.091639377
0.090855399
0.090068337
0.089276981
0.088480555
0.08767844
0.086870802
0.086054843
0.08522959
0.084403777
0.083559551
0.082703711
0.081835055
0.080953078
0.080057284
0.079147113
0.07822211
0.077281938
0.076326244
0.075357971
0.074396612
0.073405261
0.072389143
0.071356546
0.070307438
0.069241925
0.068160195
0.067062517
0.065949242
0.064820807
0.063677732
0.062520619
0.061350152
0.060167088
0.058972262
0.057766574
0.056551003
0.055326702
0.10042916
0.099626243
0.098831948
0.098045186
0.097264893
0.096490021
0.095719527
0.094952357
0.094187428
0.093423712
0.092660228
0.09189595
0.091129933
0.090361082
0.089588444
0.088810578
0.088027
0.087237207
0.086443301
0.085637886
0.084831911
0.084007961
0.083173258
0.082326537
0.081466894
0.080593738
0.079706502
0.078804627
0.077887649
0.076955207
0.076007007
0.075042212
0.074082892
0.073105412
0.072096214
0.071069716
0.070026534
0.068966827
0.06789079
0.066798699
0.065690915
0.064567883
0.063430131
0.06227827
0.061112989
0.059935055
0.058745306
0.057544646
0.056334055
0.055114704
0.10037975
0.099599983
0.0988279
0.098062665
0.097303333
0.096548963
0.095798624
0.095051381
0.094306266
0.093562229
0.092818324
0.092073683
0.091327291
0.090578371
0.089825716
0.089068663
0.088305088
0.087535193
0.086757973
0.085981807
0.085193366
0.084390867
0.083577967
0.082753677
0.081916988
0.081067121
0.080203455
0.079325399
0.078432404
0.07752401
0.076599858
0.075659755
0.074704022
0.073738783
0.072777496
0.071777562
0.070757488
0.069720711
0.068667293
0.067597423
0.066511385
0.065409552
0.064292376
0.063160395
0.06201423
0.060854577
0.059682211
0.058497973
0.057302769
0.056097574
0.054883565
0.099453567
0.098708628
0.097969269
0.097234883
0.09650468
0.095777856
0.095053599
0.094331101
0.093609499
0.092887718
0.092164901
0.091440386
0.090713036
0.089982465
0.089247027
0.088506988
0.087758284
0.087003055
0.08624829
0.085482125
0.084702756
0.083912906
0.083111907
0.082298925
0.081473121
0.080633787
0.079780299
0.078912073
0.078028577
0.07712936
0.076214063
0.075282462
0.074334582
0.073371183
0.072418902
0.071431178
0.070418157
0.069388319
0.068341701
0.067278499
0.066199008
0.065103609
0.063992769
0.062867035
0.061727035
0.060573478
0.059407144
0.05822888
0.057039591
0.05584023
0.054631917
0.098461102
0.097752757
0.097047969
0.096346206
0.095646821
0.094949154
0.094252521
0.093556261
0.092859683
0.092161523
0.091461039
0.090758012
0.090050758
0.089339997
0.08862251
0.087901654
0.087167713
0.086437643
0.085692093
0.084937691
0.084172476
0.083396047
0.082607793
0.081806986
0.080992892
0.080164849
0.07932225
0.078464532
0.077591184
0.07670177
0.075795929
0.074873359
0.073933677
0.072975683
0.072028904
0.071055088
0.070049959
0.069027626
0.067988343
0.066932334
0.065859907
0.064771455
0.063667456
0.062548469
0.061415133
0.060268166
0.059108358
0.057936563
0.056753686
0.055560649
0.097399922
0.096730036
0.096061674
0.095394285
0.094727381
0.094060461
0.09339296
0.092724397
0.092054456
0.091381274
0.090704223
0.090024293
0.089337799
0.088648942
0.087949033
0.087251723
0.086539587
0.085819539
0.085090145
0.084350816
0.083600389
0.082838168
0.082063506
0.081275724
0.080474154
0.079658172
0.078827197
0.07798069
0.077118169
0.076239216
0.075343475
0.074430613
0.073500098
0.072550094
0.071605503
0.070646818
0.069651121
0.06863681
0.06760541
0.066557144
0.065492326
0.06441136
0.063314736
0.062203025
0.061076879
0.059937027
0.058784267
0.057619467
0.056443548
0.055257516
0.096267736
0.095638174
0.095008145
0.094376849
0.093744035
0.093109413
0.09247249
0.091832951
0.091191541
0.090544665
0.089891671
0.089237286
0.088570835
0.087908198
0.087234385
0.086549543
0.085856392
0.085154248
0.084441997
0.083718923
0.082984166
0.082237009
0.081476799
0.080702894
0.079914668
0.079111532
0.078292935
0.077458369
0.076607379
0.075739573
0.074854613
0.073952203
0.073032071
0.072094459
0.071145995
0.070202779
0.069219651
0.068213925
0.067190993
0.066151049
0.065094412
0.064021498
0.062932811
0.061828935
0.060710534
0.059578349
0.058433192
0.057275943
0.056107543
0.054929047
0.095062362
0.094474898
0.093885295
0.093291738
0.092694532
0.092093715
0.091488736
0.090879105
0.090268895
0.089649678
0.089019755
0.08839637
0.087757442
0.087112023
0.086458774
0.085795499
0.085122496
0.084439357
0.083745267
0.083039518
0.082321384
0.081590194
0.080845319
0.08008615
0.079312099
0.078522612
0.077717169
0.076895294
0.076056565
0.075200613
0.074327127
0.073435843
0.072526558
0.071599379
0.070655441
0.069722147
0.068753365
0.067756913
0.066743077
0.065712064
0.064664208
0.063599941
0.062519781
0.061424328
0.060314258
0.059190325
0.058053356
0.056904242
0.055743944
0.054573539
0.093781749
0.093237744
0.092691331
0.09213696
0.091576694
0.091011181
0.090439544
0.089859197
0.089285111
0.088695374
0.088095047
0.087492983
0.086880466
0.086259181
0.085628496
0.084987363
0.08433547
0.083672394
0.082997491
0.082310095
0.081609554
0.080895257
0.080166615
0.079423054
0.078664024
0.077889004
0.077097509
0.076289097
0.075463377
0.074620009
0.073758709
0.07287923
0.071981349
0.071064822
0.070128978
0.069203258
0.068250027
0.067263628
0.066259544
0.065238098
0.064199652
0.063144656
0.062073645
0.060987233
0.059886111
0.058771048
0.057642881
0.056502519
0.055350936
0.054189219
0.092424226
0.091923313
0.091425197
0.090910768
0.090388353
0.089859743
0.089323738
0.088779926
0.088232487
0.087673846
0.087105085
0.086529261
0.085943457
0.085347443
0.084740711
0.084122639
0.083492816
0.082850828
0.082196142
0.081528108
0.080846126
0.080149658
0.079438156
0.078711085
0.077967933
0.077208213
0.076431475
0.075637314
0.07482537
0.073995336
0.073146955
0.072280007
0.071394277
0.070489415
0.069564131
0.068643327
0.067706786
0.066731859
0.065738177
0.064726954
0.063698574
0.062653505
0.061592294
0.060515573
0.05942405
0.058318504
0.057199791
0.05606883
0.054926611
0.053774225
0.090989618
0.090537404
0.090079148
0.089608187
0.089127101
0.088637109
0.088138059
0.087629966
0.087113817
0.086586875
0.086049227
0.085502045
0.084944042
0.084374407
0.08379278
0.083198755
0.082591965
0.081972065
0.081338637
0.080690962
0.080028489
0.079350783
0.078657332
0.07794764
0.077221232
0.076477656
0.075716498
0.074937388
0.074140003
0.073324069
0.072489361
0.071635701
0.070762955
0.069871109
0.06896089
0.068038573
0.067119767
0.066159228
0.065176635
0.064176324
0.063158697
0.062124238
0.061073512
0.060007166
0.058925923
0.05783058
0.056722005
0.055601132
0.054468962
0.053326592
0.089475229
0.089070629
0.088657882
0.088230703
0.087791448
0.087341252
0.086880238
0.086408457
0.085925989
0.08543172
0.084925601
0.084408784
0.083879896
0.083337642
0.082782129
0.082213114
0.081630292
0.08103344
0.080422367
0.079796027
0.079153965
0.078495953
0.077821463
0.077130042
0.07642125
0.07569467
0.074949921
0.074186673
0.07340464
0.072603583
0.071783314
0.070943693
0.070084642
0.069206221
0.068308924
0.067394122
0.066487965
0.065543236
0.06457247
0.06358379
0.062577633
0.061554501
0.060514975
0.059459721
0.058389477
0.057305057
0.056207341
0.05509728
0.053975886
0.05284426
0.087879982
0.087522212
0.087160173
0.086776648
0.086379714
0.085970309
0.085548341
0.08511384
0.084666595
0.084205944
0.083731717
0.083247236
0.082748917
0.082234719
0.081706199
0.081163113
0.08060513
0.080032172
0.079444753
0.078840658
0.078219797
0.077582433
0.076927804
0.076255543
0.075565245
0.074856516
0.074129011
0.073382439
0.072616556
0.071831162
0.071026104
0.070201277
0.069356627
0.068492164
0.067607996
0.066704175
0.065809433
0.064881407
0.063923141
0.062946827
0.061952887
0.060941829
0.059914254
0.058870842
0.057812351
0.05673961
0.055653515
0.054555029
0.053445179
0.052325067
0.086204203
0.085898089
0.085579356
0.085242769
0.084890107
0.084522573
0.084140606
0.083744427
0.083333624
0.082907469
0.082464174
0.082015751
0.081549468
0.081063078
0.080562412
0.080046174
0.079513805
0.078965185
0.078403445
0.077822229
0.077223066
0.076607463
0.075973547
0.07532133
0.074650409
0.073960392
0.073250964
0.07252188
0.071772946
0.071004003
0.070214937
0.069405676
0.068576184
0.067726427
0.066856271
0.06596518
0.065081265
0.064170915
0.063225962
0.0622628
0.061281858
0.060283657
0.059268814
0.058238032
0.057192084
0.056131817
0.055058143
0.053972037
0.052874539
0.051766758
0.084446678
0.084191061
0.083919895
0.083629906
0.083321671
0.082996638
0.082655406
0.082298627
0.081925425
0.081535458
0.081129016
0.080709459
0.080273635
0.079819403
0.079348172
0.078859827
0.078353838
0.077828392
0.077297054
0.07673813
0.076160399
0.075568413
0.0749558
0.074324529
0.073673882
0.073003443
0.072312918
0.071602127
0.070870932
0.070119226
0.069346934
0.068554025
0.067740498
0.066906349
0.066051427
0.065174818
0.064300002
0.063408382
0.062478159
0.061528977
0.06056185
0.059577318
0.058576025
0.057558692
0.056526116
0.055479158
0.054418745
0.053345868
0.052261576
0.051166985
0.082607258
0.082401188
0.082180662
0.081937493
0.081673454
0.081391284
0.08109113
0.080775051
0.080440276
0.080086912
0.079716042
0.079328808
0.078924899
0.078502459
0.078061345
0.077601859
0.077124014
0.076627959
0.076116384
0.07558281
0.075026916
0.074463533
0.073871388
0.07326222
0.072632775
0.071982791
0.071311979
0.07062026
0.069907577
0.069173881
0.068419142
0.067643369
0.066846623
0.066029021
0.065190829
0.06433304
0.063460897
0.062589678
0.061676826
0.060742534
0.059790075
0.058820057
0.057833161
0.056830137
0.055811799
0.054779025
0.053732757
0.052673999
0.051603813
0.050523319
0.080687264
0.080533284
0.080358969
0.08016251
0.079944376
0.079705589
0.079445747
0.079172948
0.078876928
0.078559954
0.078224572
0.077870822
0.077500579
0.077110439
0.076699726
0.076269644
0.075820449
0.075352724
0.074865788
0.074358002
0.073829662
0.07328358
0.07271227
0.072131641
0.071524196
0.070895574
0.070245243
0.069573331
0.0688799
0.068164965
0.067428539
0.066670672
0.065891472
0.065091129
0.064269997
0.063428813
0.062568822
0.061713671
0.060819159
0.05990061
0.058963673
0.058009036
0.05703742
0.056049598
0.055046404
0.054028731
0.052997535
0.051953833
0.050898699
0.049833258
0.078687105
0.078583496
0.078457109
0.07830723
0.078134619
0.077939877
0.077723724
0.077488372
0.077231305
0.076952716
0.076653359
0.076332429
0.075998923
0.075641795
0.075261011
0.074860631
0.074440214
0.07400191
0.073541215
0.073059403
0.072557254
0.072034222
0.071488543
0.070921711
0.070342084
0.069739018
0.069109825
0.068458375
0.067784881
0.067089429
0.066372061
0.065632854
0.064871946
0.064089552
0.063285993
0.062461747
0.061617295
0.060777879
0.059902323
0.059000282
0.058079715
0.057141349
0.056185927
0.055214241
0.054227138
0.053225525
0.052210373
0.05118271
0.050143622
0.049094239
0.076606752
0.076552719
0.076475292
0.076371452
0.076244047
0.076093005
0.075919198
0.075723414
0.075505233
0.075264735
0.075002341
0.074718515
0.074415476
0.074090326
0.073742363
0.073372481
0.072979688
0.072574802
0.072139606
0.07168359
0.07120856
0.070710321
0.070189668
0.069646986
0.069081774
0.068503563
0.067902843
0.067272393
0.066619467
0.065944195
0.065246616
0.064526817
0.063784957
0.063021253
0.062235993
0.061429528
0.060602236
0.059779124
0.058923264
0.058038522
0.057135206
0.056214036
0.055275762
0.054321184
0.053351161
0.052366612
0.051368521
0.050357928
0.04933593
0.048303659
0.074449027
0.074444251
0.074413198
0.074354777
0.074272959
0.074164869
0.074032815
0.073876956
0.073697603
0.073494953
0.07326934
0.073021207
0.07275119
0.072458549
0.072142919
0.071804575
0.071443848
0.071062863
0.070656877
0.070226185
0.0697822
0.069308374
0.068812982
0.068295423
0.06775414
0.06719038
0.066613537
0.066012285
0.065380542
0.064726162
0.064049103
0.063349464
0.062627422
0.061883209
0.061117085
0.060329334
0.059520286
0.05871417
0.057878806
0.057012232
0.056127104
0.055224106
0.054303978
0.053367524
0.052415613
0.051449177
0.05046921
0.049476766
0.048472949
0.047458898
0.072216207
0.072258872
0.072273241
0.072260134
0.072220425
0.07215541
0.072064997
0.071948598
0.071807746
0.071642567
0.071453348
0.071240444
0.071004141
0.070744314
0.07046087
0.070153949
0.069823802
0.069470823
0.069093829
0.06869307
0.068270529
0.067820798
0.067355431
0.066864757
0.066347045
0.065807421
0.065244705
0.064668628
0.064064929
0.063432248
0.062776452
0.062097718
0.06139628
0.060672394
0.059926317
0.059158261
0.058368386
0.0575798
0.056765719
0.055918288
0.055052367
0.054168575
0.053267639
0.052350368
0.051417644
0.050470412
0.049509679
0.048536509
0.047552017
0.046557343
0.069910503
0.069998691
0.070057444
0.070087666
0.070090043
0.070065953
0.070014479
0.069938232
0.06983543
0.069707153
0.069553777
0.06937569
0.069173091
0.068946049
0.068694617
0.068418906
0.068119068
0.067795201
0.067447042
0.067074679
0.066678457
0.066257473
0.06581374
0.065343596
0.064856755
0.064343107
0.063803662
0.063241751
0.062665757
0.062059517
0.061425674
0.060768566
0.060088506
0.059385806
0.058660748
0.057913482
0.057143775
0.056372768
0.055580721
0.054753623
0.053908021
0.053044521
0.052163863
0.051266874
0.050354452
0.049427559
0.048487213
0.04753449
0.046570513
0.045596425
0.06753484
0.067666319
0.067767499
0.067839276
0.067882364
0.067897469
0.067885105
0.067845711
0.067779807
0.067688738
0.067570347
0.067426504
0.06725722
0.067062647
0.066842906
0.06659812
0.06632841
0.06603385
0.065714424
0.065370185
0.065001219
0.064607415
0.064189191
0.06374615
0.06327986
0.062786779
0.062278264
0.061740586
0.061178777
0.060604254
0.05999391
0.059359092
0.058701152
0.058020477
0.057317427
0.056592215
0.055844191
0.055089728
0.054320496
0.053515413
0.052691237
0.05184914
0.050989874
0.050114296
0.049223327
0.048317944
0.047399182
0.046468123
0.045525899
0.044573655
0.065092607
0.065264761
0.065405993
0.065517159
0.065598935
0.065651932
0.065676649
0.065673532
0.065643413
0.065585782
0.065502937
0.065392764
0.065256107
0.06509342
0.06490486
0.064690568
0.064450667
0.06418525
0.063894379
0.063578121
0.063236541
0.062869681
0.062477693
0.062060633
0.061618787
0.061151552
0.060659675
0.060151127
0.059613526
0.059060833
0.058478474
0.057866518
0.057231392
0.056573507
0.055893306
0.055191313
0.054468342
0.053727064
0.052982353
0.052200961
0.051399382
0.050579795
0.049743046
0.04889003
0.048021693
0.04713903
0.046243084
0.045334949
0.044415759
0.043486661
0.062587625
0.062797447
0.062975978
0.063124007
0.063242155
0.06333098
0.06339097
0.063422564
0.063426132
0.06340247
0.063351121
0.063274037
0.063169759
0.063038125
0.062880021
0.062695602
0.062485004
0.062248341
0.061985709
0.061697196
0.061382886
0.061042866
0.060677255
0.060286173
0.059869769
0.059428065
0.058961395
0.058470084
0.057962358
0.05742795
0.056875425
0.056288242
0.055676622
0.055042252
0.054385575
0.053707122
0.053007562
0.052287671
0.051565406
0.050808106
0.050030069
0.049234056
0.048420947
0.047591661
0.046747161
0.045888454
0.045016593
0.044132677
0.043237843
0.042333235
0.060024151
0.06026824
0.060480955
0.060662976
0.060814856
0.060937095
0.061030148
0.061094424
0.061130286
0.061138087
0.061118435
0.06107107
0.060997591
0.060897001
0.060768398
0.060613023
0.060431024
0.060222529
0.059987653
0.059726503
0.059439185
0.059125812
0.058786512
0.058421431
0.058030738
0.057614611
0.057173334
0.056707245
0.056216725
0.055709567
0.055180846
0.054621956
0.054034568
0.053424471
0.052792057
0.052137832
0.051462378
0.050766287
0.050067116
0.049334588
0.048581077
0.04780971
0.047021376
0.046217003
0.045397564
0.044564075
0.043717593
0.042859221
0.041990096
0.041111358
0.057406844
0.057681418
0.057924876
0.0581377
0.058320352
0.05847327
0.058596859
0.058691488
0.058757492
0.05879518
0.058804827
0.058786975
0.058741407
0.058669537
0.058570536
0.058443159
0.058288847
0.058107736
0.057899953
0.057665618
0.057404855
0.057117793
0.056804578
0.056465379
0.05610039
0.05570984
0.055294019
0.054853278
0.054388027
0.053898803
0.05339441
0.052865473
0.052303364
0.051718361
0.051111001
0.050481824
0.049831416
0.049160394
0.048485307
0.047778382
0.047050434
0.046304808
0.045542394
0.044764127
0.043970987
0.043163992
0.042344204
0.041512723
0.040670683
0.039819219
0.054407497
0.054740273
0.05504163
0.055312163
0.055552313
0.05576248
0.055943041
0.056094342
0.056216705
0.056310423
0.056375762
0.056412968
0.056422261
0.056404151
0.056358363
0.056286269
0.056186917
0.05605917
0.055904462
0.05572292
0.055514673
0.055279854
0.055018607
0.054731092
0.054417494
0.054078023
0.053712926
0.053322495
0.052907054
0.052466879
0.052001561
0.051517991
0.051015763
0.050481856
0.049922629
0.049341059
0.048737723
0.048113247
0.04746829
0.046818274
0.046137803
0.045436467
0.044717677
0.04398233
0.043231365
0.042465763
0.041686545
0.04089477
0.040091536
0.039277971
0.038455198
0.051675713
0.052030289
0.052354145
0.05264775
0.052911464
0.053145613
0.053350504
0.053526419
0.053673622
0.053792356
0.053882844
0.053945289
0.053979881
0.053986795
0.053966537
0.053918688
0.053844701
0.053743301
0.053613806
0.053457457