/*--------------------------------*- C++ -*----------------------------------*\
| =========                 |                                                 |
| \\      /  F ield         | OpenFOAM: The Open Source CFD Toolbox           |
|  \\    /   O peration     | Version:  2312                                  |
|   \\  /    A nd           | Website:  www.openfoam.com                      |
|    \\/     M anipulation  |                                                 |
\*---------------------------------------------------------------------------*/
FoamFile
{
    version     2.0;
    format      ascii;
    arch        "LSB;label=32;scalar=64";
    class       volScalarField;
    location    "0.06";
    object      CO2;
}
// * * * * * * * * * * * * * * * * * * * * * * * * * * * * * * * * * * * * * //

dimensions      [0 0 0 0 0 0 0];

internalField   nonuniform List<scalar> 
3250
(
0.041376369
0.041150891
0.040940027
0.040743257
0.040560103
0.040390102
0.0402328
0.040087754
0.03995452
0.039832657
0.039721719
0.039621252
0.039530795
0.039449873
0.039377995
0.039314655
0.039259324
0.039211454
0.039170472
0.039135779
0.039106751
0.039082736
0.039063052
0.039046991
0.039033815
0.039022756
0.03901302
0.039003787
0.038994209
0.038983415
0.038970514
0.038954594
0.038934728
0.038909978
0.038879395
0.03884203
0.038796932
0.038743156
0.038679766
0.038605846
0.038520499
0.038422862
0.038312114
0.038187452
0.038047771
0.037892349
0.037720887
0.037532815
0.037327695
0.041366217
0.041141187
0.040930722
0.040734322
0.040551514
0.040381836
0.040224837
0.040080074
0.039947106
0.039825491
0.039714785
0.039614536
0.039524282
0.03944355
0.039371849
0.039308674
0.039253497
0.03920577
0.03916492
0.039130351
0.039101436
0.039077526
0.039057938
0.039041966
0.03902887
0.039017884
0.039008216
0.038999042
0.038989518
0.038978773
0.038965914
0.038950031
0.038930198
0.038905475
0.038874916
0.03883757
0.038792487
0.038738722
0.03867534
0.038601424
0.038516076
0.038418429
0.038307654
0.038182912
0.038043232
0.037887911
0.037716497
0.037528444
0.037323263
0.041346352
0.041122199
0.040912539
0.040716888
0.040534779
0.040365757
0.040209374
0.040065187
0.03993276
0.039811653
0.039701423
0.03960162
0.039511784
0.039431444
0.03936011
0.039297278
0.039242422
0.039194994
0.039154424
0.039120114
0.039091441
0.039067755
0.039048375
0.039032594
0.039019675
0.039008851
0.038999331
0.038990293
0.038980893
0.038970259
0.038957501
0.038941708
0.038921955
0.038897303
0.038866807
0.038829515
0.038784479
0.038730753
0.038667404
0.038593512
0.038508182
0.038410544
0.038299757
0.03817498
0.038035319
0.037880075
0.037708716
0.037520686
0.037315473
0.041316814
0.041093962
0.040885509
0.040690982
0.040509927
0.040341892
0.040186434
0.040043116
0.039911505
0.039791163
0.039681652
0.039582524
0.039493321
0.039413574
0.039342797
0.039280486
0.039226117
0.039179146
0.039139001
0.039105088
0.039076785
0.039053442
0.03903438
0.039018894
0.039006247
0.038995675
0.038986385
0.038977558
0.03896835
0.038957892
0.038945293
0.038929643
0.038910019
0.038885482
0.038855087
0.038817885
0.038772926
0.038719268
0.038655976
0.038582133
0.038496841
0.038399229
0.038288451
0.03816367
0.038024043
0.037868869
0.037697568
0.037509572
0.037304356
0.041277648
0.041056516
0.040849667
0.040656639
0.040476987
0.040310268
0.040156045
0.040013887
0.039883364
0.039764045
0.039655494
0.039557267
0.039468911
0.039389959
0.039319927
0.039258314
0.039204599
0.039158239
0.039118666
0.039085286
0.03905748
0.039034599
0.039015968
0.039000879
0.0389886
0.038978367
0.03896939
0.038960849
0.038951903
0.038941684
0.038929302
0.038913849
0.038894401
0.038870022
0.038839768
0.038802691
0.038757842
0.03870428
0.038641071
0.038567298
0.038482065
0.038384498
0.038273751
0.038148993
0.038009412
0.037854306
0.037683068
0.037495117
0.037289922
0.041231697
0.041012578
0.040807611
0.040616344
0.040438343
0.040273172
0.040120402
0.039979609
0.039850367
0.039732253
0.039624833
0.039527669
0.039440311
0.039362295
0.039293142
0.039232353
0.039179411
0.039133773
0.039094876
0.039062127
0.039034909
0.039012575
0.038994452
0.038979836
0.038967993
0.038958163
0.038949556
0.038941357
0.038932723
0.038922788
0.038910666
0.038895447
0.038876211
0.038852022
0.038821938
0.038785012
0.038740297
0.038686851
0.038623744
0.03855006
0.038464901
0.038367395
0.038256696
0.03813198
0.037992455
0.037837416
0.037666244
0.037478347
0.037273189
0.04118037
0.040963497
0.040760631
0.040571331
0.040395174
0.040231733
0.040080588
0.039941321
0.039813514
0.039696747
0.039590593
0.039494619
0.039408378
0.039331412
0.039263243
0.039203378
0.0391513
0.039106473
0.039068333
0.039036292
0.039009733
0.038988015
0.038970463
0.038956376
0.038945024
0.038935647
0.038927458
0.038919642
0.03891136
0.038901747
0.038889916
0.038874963
0.038855966
0.038831993
0.038802101
0.038765346
0.038720783
0.038667472
0.038604482
0.038530899
0.038445827
0.038348395
0.038237758
0.038113098
0.037973635
0.037818666
0.037647562
0.037459723
0.037254617
0.041119681
0.040905456
0.040705071
0.040518095
0.040344118
0.040182724
0.0400335
0.039896038
0.039769928
0.039654755
0.0395501
0.039455534
0.039370616
0.039294892
0.03922789
0.039169118
0.039118066
0.039074199
0.039036957
0.039005755
0.03897998
0.03895899
0.038942116
0.038928659
0.038917889
0.038909051
0.038901358
0.038893998
0.038886134
0.038876903
0.038865421
0.038850784
0.038832073
0.038808356
0.038778695
0.038742145
0.038697764
0.038644614
0.038581765
0.038508305
0.03842334
0.038326
0.038215443
0.038090855
0.037951467
0.037796577
0.037625548
0.037437779
0.037232737
0.041048988
0.04083784
0.040640339
0.040456066
0.040284625
0.040125612
0.039978626
0.039843266
0.039719131
0.039605815
0.039502906
0.039409981
0.039326605
0.03925233
0.039186687
0.039129191
0.039079335
0.039036588
0.039000394
0.038970171
0.03894531
0.038925172
0.038909089
0.038896367
0.038886278
0.038878069
0.038870955
0.038864129
0.038856754
0.038847971
0.038836897
0.03882263
0.038804254
0.038780839
0.038751448
0.038715139
0.038670973
0.038618012
0.03855533
0.038482017
0.03839718
0.038299951
0.038189491
0.038064992
0.037925693
0.037770891
0.037599948
0.03741226
0.037207296
0.040967624
0.040760008
0.040565816
0.040384647
0.04021612
0.040059843
0.039915428
0.039782485
0.039660622
0.039549443
0.039448542
0.039357505
0.039275904
0.039203295
0.039139218
0.039083191
0.039034712
0.038993255
0.038958269
0.038929174
0.038905366
0.038886209
0.038871039
0.038859164
0.03884986
0.038842376
0.038835932
0.038829721
0.038822911
0.038814645
0.038804042
0.038790203
0.038772214
0.038749147
0.038720069
0.03868404
0.038640122
0.038587382
0.038524895
0.038451753
0.038367065
0.038269968
0.038159624
0.038035233
0.037896036
0.037741335
0.037570488
0.037382893
0.03717802
0.040874898
0.040671292
0.040480859
0.040303219
0.040138004
0.039984839
0.039843349
0.039713155
0.039593878
0.03948513
0.039386516
0.039297629
0.039218049
0.039147339
0.039085045
0.039030691
0.038983782
0.038943796
0.038910185
0.038882377
0.038859769
0.038841731
0.038827602
0.038816694
0.038808286
0.03880163
0.038795949
0.038790441
0.038784276
0.038776599
0.038766535
0.038753185
0.038735638
0.038712971
0.03868425
0.038648542
0.038604909
0.038552421
0.038490158
0.038417212
0.038332698
0.038235754
0.038125546
0.038001279
0.037862201
0.037707613
0.037536876
0.037349386
0.037144617
0.040770096
0.040571004
0.040384804
0.040211137
0.040049654
0.039899997
0.039761804
0.039634711
0.039518351
0.039412346
0.039316312
0.039229852
0.039152553
0.039083986
0.039023706
0.038971243
0.038926106
0.038887781
0.038855725
0.038829371
0.03880812
0.038791347
0.038778395
0.038768579
0.038761183
0.038755464
0.038750647
0.038745933
0.038740497
0.038733489
0.038724034
0.038711238
0.038694192
0.038671976
0.038643662
0.038608316
0.038565006
0.038512805
0.038450796
0.038378075
0.038293759
0.03819699
0.038086939
0.037962816
0.037823871
0.037669411
0.037498797
0.037311426
0.037106776
0.040652484
0.040458431
0.040276959
0.040107733
0.039950424
0.03980469
0.039670187
0.039546565
0.039433469
0.039330536
0.039237392
0.039153649
0.039078906
0.039012742
0.038954718
0.038904374
0.038861224
0.038824762
0.038794449
0.038769725
0.038749996
0.038734641
0.038723009
0.03871442
0.03870816
0.038703491
0.038699644
0.038695821
0.038691204
0.038684946
0.038676176
0.038664002
0.038647518
0.03862581
0.038597951
0.038563012
0.038520066
0.038468189
0.038406466
0.038333998
0.038249906
0.038153336
0.038043464
0.037919502
0.037780709
0.037626393
0.037455916
0.037268679
0.037064162
0.040521305
0.040332842
0.040156616
0.03999232
0.039839646
0.039698271
0.039567868
0.039448104
0.039338638
0.039239122
0.039149192
0.039068474
0.038996574
0.038933084
0.038877573
0.038829587
0.038788651
0.038754263
0.038725893
0.038702984
0.038684951
0.038671177
0.038661016
0.038653793
0.0386488
0.038645302
0.038642534
0.038639706
0.038636001
0.03863058
0.038622573
0.038611092
0.038595236
0.038574093
0.038546743
0.03851226
0.03846972
0.038418203
0.0383568
0.038284615
0.038200775
0.038104428
0.037994756
0.037870977
0.037732353
0.037578197
0.037407874
0.037220786
0.037016418
0.040375788
0.040193483
0.040023042
0.039864187
0.039716629
0.039580068
0.039454195
0.039338694
0.039233241
0.039137502
0.039051127
0.038973754
0.038905001
0.03884447
0.038791739
0.038746365
0.038707879
0.038675787
0.038649568
0.03862867
0.038612515
0.038600492
0.038591961
0.038586251
0.038582661
0.038580459
0.038578889
0.038577161
0.038574468
0.038569974
0.038562813
0.038552101
0.03853694
0.038516425
0.038489637
0.038455659
0.038413569
0.038362453
0.038301405
0.038229535
0.038145974
0.038049876
0.037940428
0.037816852
0.037678417
0.037524439
0.037354285
0.037167365
0.036963161
0.040215144
0.040039587
0.039875489
0.039722604
0.039580664
0.03944939
0.039328494
0.039217679
0.039116638
0.039025052
0.038942588
0.038868895
0.038803605
0.03874633
0.03869666
0.038654161
0.038618373
0.03858881
0.03856496
0.038546278
0.038532191
0.038522097
0.038515362
0.03851132
0.038509275
0.038508503
0.038508252
0.038507736
0.038506156
0.038502687
0.038496459
0.038486593
0.038472199
0.038452374
0.038426207
0.038392785
0.038351191
0.038300517
0.038239861
0.038168339
0.038085086
0.037989263
0.037880063
0.037756713
0.037618486
0.037464704
0.03729474
0.037108003
0.036903982
0.040038573
0.039870368
0.039713192
0.039566825
0.039431023
0.039305527
0.039190072
0.039084381
0.038988166
0.038901125
0.038822941
0.038753277
0.038691779
0.038638071
0.038591755
0.038552405
0.038519574
0.038492784
0.03847153
0.038455276
0.038443458
0.038435479
0.038430712
0.038428499
0.03842815
0.038428943
0.038430142
0.038430957
0.03843059
0.038428243
0.038423043
0.038414105
0.03840055
0.038381483
0.038355997
0.038323184
0.038282135
0.038231944
0.038171718
0.038100578
0.038017665
0.037922144
0.037813215
0.037690113
0.037552117
0.037398551
0.037228794
0.037042261
0.036838442
0.03984526
0.039685027
0.03953537
0.039396089
0.03926696
0.03914775
0.039038215
0.038938102
0.038847143
0.038765053
0.038691531
0.038626259
0.038568894
0.038519076
0.038476415
0.038440502
0.038410896
0.038387131
0.03836871
0.038355107
0.038345764
0.038340094
0.038337477
0.038337259
0.038338752
0.038341267
0.038344045
0.038346314
0.038347277
0.038346136
0.038342064
0.038334143
0.038321504
0.038303263
0.03827852
0.038246372
0.038205916
0.038156253
0.038096497
0.038025773
0.03794323
0.03784804
0.037739409
0.037616578
0.037478833
0.037325505
0.037155977
0.036969667
0.036766071
0.03963437
0.03948275
0.039341232
0.039209621
0.039087716
0.038975313
0.038872193
0.038778126
0.038692864
0.038616143
0.03854768
0.038487173
0.038434296
0.038388699
0.03835001
0.038317829
0.038291727
0.038271248
0.038255906
0.038245183
0.038238531
0.03823537
0.038235088
0.038237027
0.038240547
0.038244923
0.038249417
0.038253267
0.03825568
0.038255845
0.038252985
0.038246181
0.038234537
0.038217193
0.038193256
0.03816183
0.038122018
0.038072929
0.038013682
0.037943411
0.03786127
0.03776644
0.037658132
0.037535597
0.037398125
0.037245057
0.03707578
0.036889717
0.036686365
0.039557001
0.039405015
0.039262726
0.039129983
0.039006637
0.038892521
0.038787459
0.03869126
0.038603717
0.038524607
0.038453685
0.038390689
0.038335332
0.038287305
0.038246275
0.038211881
0.038183737
0.038161426
0.038144504
0.038132494
0.038124889
0.038121149
0.038120704
0.038122932
0.038127239
0.038132938
0.038139328
0.038145681
0.03815124
0.038155222
0.038156819
0.038155241
0.038149653
0.038139089
0.038122715
0.03809965
0.038069004
0.038029889
0.03798142
0.037922724
0.037852942
0.037771236
0.037676794
0.037568837
0.037446621
0.037309447
0.037156661
0.036987659
0.036801869
0.036598787
0.039297714
0.039156433
0.039024152
0.038900825
0.038786348
0.038680594
0.038583416
0.038494654
0.038414126
0.038341631
0.038276949
0.038219835
0.038170023
0.03812722
0.038091108
0.038061343
0.038037549
0.038019325
0.038006237
0.037997821
0.037993576
0.037992977
0.037995439
0.038000416
0.038007257
0.038015305
0.038023867
0.038032225
0.038039628
0.038045301
0.038048445
0.038048247
0.038043953
0.038034567
0.038019236
0.037997109
0.037967303
0.037928937
0.037881136
0.037823032
0.037753776
0.037672538
0.037578515
0.037470935
0.037349064
0.037212211
0.037059732
0.036891031
0.036705543
0.036502761
0.039017793
0.038887841
0.038766232
0.03865296
0.038547963
0.038451149
0.038362407
0.038281604
0.038208587
0.038143181
0.038085185
0.038034379
0.037990514
0.037953315
0.037922482
0.037897684
0.037878562
0.037864727
0.037855758
0.037851201
0.037850567
0.037853315
0.037858949
0.037866857
0.037876422
0.037886993
0.037897889
0.037908399
0.037917782
0.037925272
0.037930076
0.037931381
0.037928438
0.03792033
0.03790612
0.037884999
0.037856094
0.037818532
0.037771445
0.037713976
0.037645284
0.037564548
0.037470973
0.037363797
0.037242296
0.037105789
0.036953641
0.036785269
0.036600116
0.036397671
0.038716408
0.038598448
0.038488176
0.038385599
0.03829069
0.038203398
0.038123645
0.038051329
0.037986326
0.037928484
0.037877629
0.03783356
0.03779605
0.037764842
0.037739654
0.03772017
0.037706045
0.037696905
0.037692345
0.037691918
0.037695118
0.037701508
0.037710512
0.037721557
0.037734036
0.037747308
0.037760703
0.037773517
0.037785019
0.037794452
0.037801032
0.037803954
0.037802441
0.037795696
0.03778269
0.037762644
0.037734701
0.037697995
0.037651671
0.03759488
0.037526789
0.037446588
0.037353491
0.037246747
0.037125641
0.036989503
0.036837712
0.036669698
0.03648492
0.036282866
0.038504844
0.038392712
0.038287477
0.038189207
0.038097957
0.038013745
0.037936554
0.037866343
0.037803042
0.037746555
0.037696758
0.037653499
0.037616601
0.037585857
0.037561031
0.037541856
0.037528035
0.037519237
0.037515105
0.037515246
0.037519188
0.037526545
0.037536788
0.037549387
0.037563778
0.037579366
0.037595519
0.037611578
0.037626848
0.03764061
0.037652114
0.037660586
0.037665234
0.037665249
0.037659931
0.037648225
0.03762932
0.037602398
0.037566605
0.03752109
0.037465018
0.037397566
0.037317933
0.037225345
0.03711906
0.036998374
0.036862629
0.036711218
0.036543591
0.036359235
0.036157655
0.038143923
0.038046021
0.037954187
0.037868568
0.037789269
0.037716349
0.037649833
0.037589714
0.037535953
0.037488483
0.037447208
0.037412001
0.037382707
0.037359142
0.037341087
0.037328298
0.037320492
0.03731735
0.037318534
0.037323642
0.037332299
0.037344038
0.037358376
0.037374795
0.037392743
0.037411635
0.037430851
0.03744974
0.037467621
0.037483782
0.037497485
0.037507967
0.037514443
0.037516107
0.037512259
0.037501947
0.037484253
0.037458413
0.037423584
0.037378927
0.037323617
0.03725684
0.037177808
0.037085757
0.036979957
0.036859715
0.036724386
0.036573377
0.036406161
0.036222273
0.036021325
0.037758707
0.037675661
0.037597869
0.037525527
0.037458783
0.037397741
0.037342461
0.037292973
0.037249268
0.037211311
0.037179032
0.037152328
0.037131069
0.037115093
0.037104197
0.037098164
0.037096725
0.037099548
0.037106366
0.037116781
0.037130397
0.037146778
0.037165455
0.03718592
0.037207635
0.037230026
0.037252484
0.03727437
0.037295014
0.037313714
0.037329744
0.037342351
0.03735076
0.037354177
0.037351868
0.037343025
0.037326614
0.037301917
0.037268105
0.037224352
0.037169842
0.037103777
0.037025378
0.036933893
0.036828604
0.03670883
0.036573937
0.036423348
0.036256552
0.036073146
0.037348558
0.037280985
0.037217848
0.03715938
0.037105775
0.037057174
0.037013676
0.036975344
0.036942201
0.036914241
0.036891422
0.036873665
0.036860862
0.036852881
0.036849527
0.036850614
0.036855854
0.036865026
0.036877786
0.036893782
0.036912631
0.036933911
0.036957165
0.036981901
0.037007592
0.037033675
0.037059554
0.037084602
0.037108159
0.037129537
0.037148019
0.037162865
0.03717331
0.037178574
0.037177887
0.037170572
0.037155522
0.037132023
0.037099278
0.037056473
0.037002805
0.036937486
0.03685975
0.036768859
0.036664106
0.036544823
0.036410387
0.03626023
0.03609384
0.03591074
0.036912903
0.036861392
0.036813486
0.036769459
0.036729545
0.036693925
0.036662732
0.036636061
0.036613967
0.036596473
0.036583567
0.036575186
0.036571251
0.036571666
0.036576195
0.036584772
0.036597082
0.036612892
0.036631897
0.036653759
0.03667811
0.036704541
0.036732609
0.036761836
0.036791706
0.03682167
0.036851146
0.036879516
0.036906135
0.036930324
0.036951381
0.036968576
0.036981158
0.036988357
0.036989392
0.036983633
0.036970031
0.036947784
0.036916154
0.036874339
0.036821549
0.036757009
0.036679967
0.036589697
0.036485504
0.036366734
0.036232775
0.036083065
0.035917088
0.035734351
0.036451239
0.036416336
0.036384194
0.036355133
0.036329428
0.036307296
0.036288903
0.036274376
0.036263793
0.036257209
0.036254657
0.036256062
0.036261371
0.036270549
0.036283394
0.036299782
0.036319479
0.036342242
0.036367786
0.036395792
0.036425906
0.036457733
0.036490845
0.036524775
0.036559023
0.036593052
0.036626293
0.036658141
0.036687963
0.036715094
0.036738843
0.036758493
0.036773306
0.036782525
0.036785376
0.036781212
0.036769124
0.036748183
0.036717714
0.03667693
0.036625053
0.036561323
0.036485002
0.036395377
0.036291769
0.036173535
0.036040075
0.035890835
0.035725301
0.035542996
0.035963138
0.035945334
0.035929432
0.035915813
0.035904795
0.035896621
0.035891487
0.035889557
0.035890915
0.035895655
0.035903854
0.035915446
0.03593041
0.0359487
0.035970187
0.03599473
0.036022126
0.036052142
0.036084508
0.036118924
0.036155051
0.036192509
0.036230883
0.036269721
0.036308536
0.036346806
0.036383973
0.036419447
0.036452608
0.036482803
0.036509356
0.036531562
0.036548696
0.036560014
0.036564757
0.036562239
0.036551719
0.036532136
0.036502871
0.036463152
0.03641222
0.036349329
0.036273755
0.0361848
0.036081799
0.035964123
0.035831186
0.035682445
0.035517393
0.035335577
0.035448251
0.035447975
0.035448716
0.035450959
0.035455058
0.035461266
0.035469808
0.035480868
0.03549458
0.035511062
0.035530379
0.035552515
0.035577469
0.035605219
0.03563567
0.035668684
0.035704079
0.03574163
0.035781083
0.035822159
0.035864536
0.035907846
0.035951689
0.035995627
0.036039188
0.036081862
0.036123107
0.036162346
0.036198971
0.036232346
0.036261805
0.036286658
0.036306195
0.036319687
0.036326388
0.036325575
0.036316656
0.036298486
0.036270459
0.036231839
0.03618188
0.036119852
0.036045048
0.035956785
0.035854414
0.03573732
0.035604932
0.035456719
0.03529219
0.035110915
0.03490631
0.034923917
0.03494162
0.034960092
0.034979677
0.03500064
0.035023224
0.035047641
0.035074064
0.035102636
0.035133427
0.035166425
0.035201673
0.035239198
0.035278915
0.035320695
0.035364367
0.035409716
0.035456495
0.035504462
0.035553309
0.035602676
0.035652178
0.035701393
0.035749862
0.035797092
0.035842553
0.035885684
0.035925889
0.035962546
0.035995004
0.036022588
0.036044602
0.036060331
0.036069045
0.036070008
0.036062689
0.036045993
0.036019234
0.035981739
0.035932777
0.035871635
0.035797622
0.035710071
0.035608351
0.035491862
0.035360048
0.035212396
0.035048432
0.034867746
0.034337137
0.034372952
0.034407754
0.034442761
0.034478159
0.034514194
0.034551133
0.034589213
0.034628654
0.034669628
0.034712218
0.034756331
0.034802126
0.034849716
0.034898979
0.034949791
0.035001994
0.03505538
0.035109691
0.035164755
0.035220275
0.035275881
0.035331213
0.035385863
0.035439387
0.035491306
0.035541106
0.03558824
0.035632126
0.035672157
0.035707695
0.035738082
0.035762635
0.035780655
0.035791428
0.035794229
0.035788513
0.035773329
0.035747865
0.035711517
0.035663572
0.035603334
0.035530129
0.035443309
0.035342259
0.035226398
0.035095187
0.034948129
0.034784769
0.03460472
0.033740627
0.03379505
0.033846691
0.033898586
0.033950077
0.03400143
0.034052967
0.034104948
0.034157651
0.034211301
0.034266018
0.034321371
0.034377898
0.034435842
0.034494901
0.034554978
0.034615942
0.034677583
0.034739568
0.034801917
0.034864298
0.034926296
0.034987605
0.035047825
0.035106526
0.035163248
0.035217492
0.035268723
0.035316376
0.035359856
0.035398541
0.035431789
0.035458931
0.035479286
0.035492155
0.035496829
0.035492732
0.035479082
0.035454933
0.035419749
0.035372834
0.035313513
0.035241131
0.035155058
0.035054697
0.034939487
0.034808905
0.034662477
0.034499764
0.0343204
0.033116651
0.03318921
0.033258968
0.033327503
0.033395087
0.033461902
0.033528205
0.033594233
0.033660367
0.033726908
0.033794232
0.033860612
0.033927994
0.033996655
0.034065712
0.034135241
0.034205163
0.034275295
0.034344949
0.034414771
0.034484211
0.034552698
0.034620109
0.034686005
0.034749982
0.034811596
0.034870366
0.034925769
0.034977255
0.035024242
0.035066125
0.035102275
0.035132043
0.035154762
0.035169752
0.035176321
0.035173856
0.035161747
0.035138926
0.035104914
0.035059039
0.035000644
0.034929095
0.034843782
0.034744128
0.03462959
0.034499668
0.034353904
0.034191883
0.034013259
0.032465442
0.032556428
0.032643626
0.032728962
0.032812814
0.032895205
0.032976384
0.033056475
0.033136105
0.033215557
0.033294883
0.03337364
0.033452338
0.03353134
0.033610431
0.033689528
0.033768556
0.033847595
0.033924474
0.034002097
0.034078859
0.034153787
0.034227427
0.034299072
0.034368388
0.034434954
0.034498306
0.034557934
0.034613297
0.03466383
0.034708942
0.034748021
0.034780435
0.034805533
0.034822653
0.034831125
0.0348303
0.034819721
0.034798239
0.034765399
0.034720564
0.034663099
0.034592389
0.034507848
0.034408916
0.034295075
0.034165842
0.034020782
0.0338595
0.033681672
0.031787219
0.031896953
0.03200051
0.032102665
0.032202995
0.032300998
0.032397151
0.032491075
0.032584212
0.032676719
0.032768431
0.032859248
0.032949202
0.033038768
0.033128003
0.033216734
0.033304814
0.033392045
0.033477887
0.033563042
0.033647252
0.033728074
0.033808239
0.033885628
0.033960307
0.034031851
0.034099814
0.034163693
0.034222956
0.034277051
0.034325403
0.034367417
0.034402477
0.034429952
0.034449198
0.034459564
0.034460394
0.034451294
0.034431164
0.034399486
0.034355686
0.034299149
0.034229283
0.034145521
0.034047329
0.033934206
0.033805695
0.03366138
0.03350089
0.033323922
0.031081746
0.031208815
0.031330754
0.031449574
0.031565574
0.031678964
0.031790441
0.03189728
0.032003978
0.032109759
0.032213971
0.032316818
0.032417741
0.032517875
0.032617375
0.03271581
0.032813005
0.032908678
0.03300291
0.033095677
0.033186637
0.033275111
0.033361843
0.033444182
0.033524229
0.033600735
0.033673309
0.03374144
0.0338046
0.03386225
0.03391383
0.033958762
0.033996451
0.034026282
0.034047631
0.034059866
0.034062349
0.034054679
0.034035888
0.034005359
0.033962583
0.033906968
0.033837945
0.03375497
0.033657531
0.033545152
0.033417397
0.033273874
0.033114234
0.032938196
0.030349212
0.030494347
0.030633229
0.030768583
0.03090013
0.03102844
0.031153784
0.031275789
0.031395857
0.031514172
0.031630706
0.031745915
0.031856901
0.031967505
0.032077529
0.032185695
0.032292074
0.032395965
0.032498453
0.0325989
0.032696854
0.032792221
0.032884923
0.032974388
0.03305899
0.033139961
0.033217124
0.033289484
0.033356513
0.033417683
0.033472453
0.033520265
0.033560541
0.033592687
0.033616099
0.033630165
0.033634269
0.033627989
0.033610506
0.033581101
0.03353933
0.033484626
0.033416442
0.03333426
0.03323759
0.033125981
0.032999022
0.032856342
0.032697618
0.032522591
0.029592189
0.029754724
0.029907908
0.030059977
0.030206549
0.030349497
0.030488875
0.030624937
0.030758232
0.030889036
0.031017461
0.031143551
0.031266709
0.031388003
0.031507634
0.031625291
0.031741177
0.031852217
0.031963266
0.032071487
0.032176213
0.032278242
0.03237701
0.032472122
0.032563302
0.032648732
0.032729515
0.032806058
0.032876899
0.032941525
0.03299942
0.033050045
0.033092844
0.033127243
0.033152658
0.033168498
0.033174171
0.033169235
0.033153015
0.033124701
0.03308391
0.0330301
0.032962749
0.032881363
0.03278548
0.032674672
0.032548552
0.032406776
0.032249042
0.032075116
0.028811446
0.02898684
0.029157308
0.029325346
0.029484608
0.029641977
0.029795004
0.02994453
0.030090695
0.030233738
0.03037383
0.03051104
0.030645316
0.030777012
0.030906282
0.031033033
0.031157119
0.03127786
0.031396411
0.031512462
0.031622934
0.03173175
0.031836486
0.031937041
0.032033372
0.03212486
0.032209731
0.032289339
0.032363896
0.032431875
0.032492794
0.032546138
0.03259137
0.032627935
0.032655271
0.032672811
0.032679984
0.032676333
0.032661321
0.032634055
0.032594212
0.032541275
0.032474749
0.032394166
0.032299089
0.032189117
0.032063887
0.031923081
0.031766423
0.031593703
0.028001505
0.028194157
0.028381878
0.028560929
0.028737638
0.028906322
0.029071641
0.029234256
0.02939282
0.029547694
0.02969912
0.029847195
0.029992
0.030133702
0.03027239
0.030408035
0.030540527
0.030669675
0.030795675
0.030918288
0.031036802
0.031152309
0.031261761
0.031367321
0.031468809
0.031564836
0.031655259
0.031738271
0.031815587
0.031886762
0.031950568
0.032006504
0.03205405
0.03209267
0.032121826
0.03214097
0.032149559
0.03214712
0.032133247
0.032106979
0.032068046
0.032015959
0.031950249
0.031870476
0.031776228
0.031667133
0.031542853
0.031403096
0.031247612
0.031076215
0.027167386
0.02737484
0.027576063
0.027770877
0.027961488
0.028142212
0.028322041
0.028494002
0.028664163
0.028830294
0.028992608
0.029151091
0.029305897
0.029457142
0.029604885
0.029749113
0.029889757
0.030026717
0.03015995
0.030289281
0.030414428
0.030535391
0.030651427
0.030763116
0.030867998
0.030968088
0.031062613
0.031150577
0.031230468
0.031304145
0.031370667
0.031429038
0.031478751
0.031519291
0.031550139
0.031570773
0.031580675
0.031579364
0.03156655
0.031541223
0.031503158
0.031451894
0.031386991
0.031308037
0.031214649
0.031106479
0.030983219
0.030844603
0.030690406
0.030520469
0.026309363
0.02653021
0.02674444
0.026952408
0.02715485
0.02735166
0.027539964
0.027725381
0.027905997
0.028080797
0.028253616
0.028421894
0.028586109
0.028746357
0.028902677
0.029055055
0.029203436
0.029347733
0.029487846
0.02962362
0.029754855
0.029881369
0.03000282
0.03011904
0.030229383
0.030334298
0.03043124
0.030522532
0.03060677
0.030682035
0.030750969
0.030811589
0.030863294
0.030905589
0.030937979
0.03095997
0.030971066
0.030970786
0.030958934
0.030934492
0.030897244
0.030846776
0.030782674
0.030704554
0.030612061
0.030504876
0.030382719
0.030245348
0.030092569
0.029924246
0.025428013
0.025660913
0.025887003
0.026106669
0.026320332
0.026528232
0.02673077
0.026924693
0.027114926
0.027302493
0.02748184
0.027658793
0.02783174
0.028000362
0.028164678
0.028324665
0.028480265
0.028631389
0.028777923
0.028919715
0.029056582
0.029188318
0.02931466
0.029435344
0.029550026
0.029658535
0.029760391
0.0298538
0.029940756
0.030018707
0.030089328
0.030151987
0.030205477
0.030249335
0.030283092
0.030306281
0.030318435
0.030319092
0.030308082
0.030284458
0.030247979
0.030198278
0.030134974
0.030057708
0.029966157
0.029860028
0.029739068
0.029603067
0.029451854
0.029285319
0.024524004
0.024767522
0.025004126
0.025234158
0.025457938
0.0256757
0.025887596
0.026093417
0.026295077
0.026488029
0.026679139
0.026862175
0.027041915
0.02721819
0.027389827
0.027556783
0.027718991
0.027876356
0.028028756
0.028176043
0.028318035
0.028454528
0.028585278
0.028710018
0.028828454
0.028940295
0.029045168
0.029142684
0.029231109
0.029312027
0.02938379
0.029448077
0.029503106
0.029548301
0.029583224
0.029607434
0.029620493
0.029621965
0.029611685
0.029588799
0.029553038
0.02950408
0.029441574
0.029365191
0.029274635
0.029169645
0.029049995
0.028915502
0.028766022
0.028601474
0.023598058
0.023850641
0.024096283
0.024335283
0.024567911
0.024794394
0.025014923
0.025229693
0.025439252
0.02564357
0.025839122
0.026032359
0.026217697
0.026398932
0.026577122
0.026750314
0.026918425
0.027081356
0.02723898
0.027391146
0.027537678
0.027678371
0.027812993
0.027941283
0.028062956
0.028177706
0.028285189
0.028385035
0.028476857
0.028559101
0.028632498
0.028697741
0.02875402
0.028800292
0.028836151
0.028861183
0.028874976
0.028877124
0.028867464
0.028845228
0.02881013
0.028761891
0.028700187
0.028624721
0.028535226
0.028431469
0.028313255
0.028180427
0.028032869
0.027870524
0.022650934
0.022910908
0.023164001
0.023410461
0.023650516
0.023884375
0.024112228
0.024334271
0.024550743
0.024761739
0.024967317
0.025163994
0.025358005
0.025544122
0.025725664
0.025904263
0.026077479
0.026245206
0.026407317
0.026563661
0.026714062
0.02685832
0.026996207
0.027127469
0.02725183
0.027368987
0.027478613
0.027580355
0.027673843
0.027758682
0.027833291
0.02789895
0.027956118
0.028003168
0.028039706
0.028065339
0.028079679
0.028082347
0.028073187
0.028051506
0.028017014
0.027969468
0.027908574
0.027834065
0.027745704
0.027643288
0.027526648
0.027395657
0.027250226
0.027090323
0.021410827
0.021683415
0.021949027
0.022207876
0.022460169
0.022706097
0.022945836
0.023179548
0.023407386
0.023629491
0.023845953
0.024056819
0.024262102
0.024458375
0.024651763
0.024837081
0.02501778
0.025195198
0.025366856
0.025532622
0.025692349
0.025845862
0.025992965
0.026133435
0.026267023
0.026393462
0.026512458
0.026623698
0.026726853
0.026821593
0.026907694
0.026983781
0.027049902
0.027107343
0.02715485
0.027191785
0.027217776
0.027232458
0.027235475
0.027226683
0.027205454
0.027171502
0.027124621
0.027064544
0.026991035
0.026903887
0.026802925
0.026688009
0.02655904
0.026415955
0.026258748
0.020420273
0.020696402
0.020965786
0.021228593
0.021484987
0.021735119
0.021979127
0.022217135
0.022449253
0.022675575
0.022896163