/*--------------------------------*- C++ -*----------------------------------*\
| =========                 |                                                 |
| \\      /  F ield         | OpenFOAM: The Open Source CFD Toolbox           |
|  \\    /   O peration     | Version:  2312                                  |
|   \\  /    A nd           | Website:  www.openfoam.com                      |
|    \\/     M anipulation  |                                                 |
\*---------------------------------------------------------------------------*/
FoamFile
{
    version     2.0;
    format      ascii;
    arch        "LSB;label=32;scalar=64";
    class       volScalarField;
    location    "0.06";
    object      Ma;
}
// * * * * * * * * * * * * * * * * * * * * * * * * * * * * * * * * * * * * * //

dimensions      [0 0 0 0 0 0 0];

internalField   nonuniform List<scalar> 
3250
(
0.0079835072
0.0078838411
0.0077855817
0.0076886206
0.0075928567
0.0074981982
0.007404559
0.0073118595
0.0072200251
0.0071289868
0.0070386797
0.0069490438
0.0068600225
0.0067715634
0.0066836171
0.0065961379
0.0065090824
0.0064224109
0.0063360854
0.006250071
0.0061643344
0.0060788456
0.0059935769
0.0059085027
0.0058236003
0.0057388472
0.0056542276
0.0055697321
0.0054853461
0.0054010537
0.0053168418
0.0052327014
0.0051486288
0.0050646231
0.0049806863
0.0048968216
0.004813034
0.0047293289
0.0046457136
0.004562196
0.0044787861
0.0043954953
0.0043123374
0.0042293282
0.0041464811
0.0040638053
0.0039813163
0.0038990406
0.0038169997
0.0079817389
0.0078821538
0.0077839698
0.007687079
0.0075913806
0.0074967835
0.0074032018
0.0073105563
0.0072187726
0.0071277821
0.00703752
0.0069479267
0.0068589458
0.006770525
0.0066826151
0.0065951706
0.0065081485
0.0064215089
0.0063352142
0.0062492294
0.0061635215
0.0060780606
0.005992819
0.0059077713
0.0058228946
0.0057381661
0.0056535705
0.0055690993
0.005484738
0.0054004699
0.0053162817
0.0052321643
0.0051481144
0.0050641309
0.0049802161
0.0048963732
0.0048126071
0.0047289232
0.0046453288
0.0045618317
0.0044784421
0.0043951711
0.0043120323
0.0042290408
0.0041462106
0.0040635503
0.0039810783
0.00389882
0.0038167976
0.0079782125
0.0078787906
0.0077807583
0.0076840089
0.0075884427
0.0074939693
0.0074005034
0.0073079663
0.0072162845
0.0071253897
0.0070352178
0.0069457095
0.0068568087
0.0067684638
0.0066806259
0.0065932498
0.0065062927
0.0064197154
0.0063334804
0.006247553
0.0061619003
0.0060764927
0.0059913027
0.0059063051
0.0058214771
0.0057367952
0.0056522447
0.0055678191
0.0054835038
0.005399281
0.0053151372
0.0052310631
0.0051470557
0.0050631143
0.004979241
0.0048954393
0.0048117138
0.0047280702
0.0046445155
0.0045610578
0.0044777068
0.004394474
0.0043113723
0.0042284166
0.0041456199
0.0040629935
0.0039805556
0.003898331
0.0038163433
0.0079730007
0.0078738276
0.0077760271
0.007679494
0.0075841301
0.0074898459
0.0073965572
0.0073041862
0.00721266
0.0071219112
0.0070318765
0.0069424971
0.0068537177
0.0067654873
0.0066777573
0.0065904833
0.0065036231
0.0064171377
0.0063309902
0.0062451463
0.0061595735
0.0060742423
0.005989126
0.0059041996
0.0058194401
0.0057348235
0.0056503358
0.0055659734
0.0054817218
0.0053975618
0.0053134791
0.0052294647
0.0051455159
0.0050616325
0.0049778167
0.004894072
0.0048104031
0.0047268157
0.0046433167
0.0045599143
0.0044766181
0.0043934393
0.0043103908
0.0042274865
0.0041447403
0.0040621637
0.0039797759
0.003897601
0.0038156628
0.0079661922
0.00786736
0.0077698777
0.0076736426
0.007578558
0.0074845357
0.0073914925
0.0072993519
0.0072080418
0.007117496
0.0070276516
0.006938451
0.0068498395
0.0067617666
0.0066741847
0.0065870499
0.0065003207
0.0064139589
0.0063279279
0.0062421941
0.0061567254
0.0060714928
0.0059864703
0.0059016334
0.0058169595
0.0057324232
0.0056480112
0.0055637246
0.0054795489
0.005395463
0.0053114517
0.0052275064
0.0051436253
0.0050598085
0.0049760588
0.0048923797
0.0048087761
0.0047252537
0.0046418195
0.0045584816
0.0044752497
0.0043921348
0.0043091497
0.0042263079
0.0041436231
0.0040611084
0.0039787826
0.0038966693
0.0038147932
0.0079583258
0.0078598998
0.0077627983
0.0076669206
0.0075721717
0.0074784647
0.0073857181
0.0072938562
0.0072028082
0.0071125087
0.007022896
0.006933913
0.0068455061
0.0067576254
0.006670224
0.0065832588
0.006496689
0.0064104769
0.0063245869
0.0062389856
0.0061536415
0.006068526
0.0059836145
0.0058988829
0.0058143088
0.005729865
0.0056455393
0.0055613386
0.0054772487
0.0053932455
0.005309313
0.005225443
0.0051416349
0.0050578897
0.0049742105
0.0048906011
0.0048070668
0.0047236131
0.0046402473
0.0045569776
0.0044738136
0.0043907663
0.0043078483
0.0042250731
0.0041424546
0.0040600064
0.0039777475
0.0038957011
0.0038138919
0.0079495963
0.0078516108
0.0077549214
0.0076594304
0.0075650448
0.0074716796
0.0073792547
0.007287696
0.0071969339
0.0071069044
0.0070175466
0.0069288048
0.006840626
0.0067529615
0.006665765
0.0065789941
0.0064926091
0.0064065728
0.0063208503
0.0062354087
0.0061502167
0.0060652463
0.0059804736
0.0058958756
0.0058114294
0.0057271061
0.0056428935
0.0055588055
0.0054748295
0.0053909364
0.0053071094
0.0052233404
0.0051396304
0.0050559806
0.0049723946
0.0048888765
0.0048054314
0.0047220652
0.0046387852
0.0045555995
0.0044725179
0.0043895515
0.0043067126
0.0042240146
0.0041414717
0.0040590984
0.0039769133
0.0038949397
0.0038132026
0.0079393601
0.0078418846
0.0077456731
0.0076506305
0.0075566667
0.0074636986
0.0073716483
0.0072804435
0.0071900162
0.0071003038
0.0070112471
0.0069227913
0.0068348847
0.0067474795
0.0066605305
0.0065739962
0.0064878377
0.0064020187
0.0063165049
0.0062312637
0.0061462642
0.0060614783
0.0059768836
0.0058924579
0.0058081772
0.0057240109
0.0056399464
0.0055560054
0.005472179
0.0053884311
0.0053047425
0.0052211061
0.0051375241
0.0050539984
0.004970533
0.0048871319
0.0048038003
0.0047205444
0.0046373713
0.0045542893
0.0044713083
0.0043884394
0.0043056948
0.0042230882
0.0041406339
0.0040583469
0.0039762462
0.0038943548
0.0038126981
0.0079275574
0.007830675
0.0077350197
0.0076405
0.0075470286
0.0074545252
0.007362914
0.0072721248
0.0071820917
0.0070927536
0.0070040529
0.0069159362
0.0068283531
0.006741257
0.0066546037
0.0065683526
0.0064824659
0.0063969081
0.0063116454
0.0062266458
0.0061418784
0.0060573153
0.005972935
0.0058887174
0.0058046362
0.0057206593
0.0056367723
0.0055530061
0.005469359
0.0053857847
0.0053022605
0.0052187806
0.0051353494
0.0050519692
0.0049686442
0.0048853788
0.0048021783
0.0047190487
0.0046359976
0.0045530333
0.0044701657
0.0043874062
0.0043047671
0.0042222622
0.0041399061
0.0040577145
0.0039757065
0.0038939054
0.003812337
0.0079140969
0.0078178988
0.0077228863
0.0076289715
0.0075360706
0.0074441058
0.0073530043
0.007262698
0.0071731232
0.0070842207
0.0069959347
0.0069082134
0.0068210077
0.0067342722
0.0066479639
0.0065620434
0.0064764738
0.0063912207
0.006306251
0.0062215331
0.006137036
0.0060527316
0.0059686003
0.0058846248
0.0058007738
0.0057170163
0.0056333338
0.0055497662
0.0054663258
0.0053829514
0.0052996148
0.0052163131
0.0051330529
0.0050498375
0.0049666712
0.0048835587
0.0048005054
0.0047175176
0.0046346028
0.0045517698
0.0044690286
0.0043863908
0.0043038689
0.004221477
0.0041392301
0.0040571444
0.0039752393
0.0038935383
0.0038120676
0.0078988529
0.0078034373
0.00770916
0.0076159376
0.0075236899
0.0074323423
0.0073418248
0.0072520721
0.0071630228
0.0070746197
0.0069868092
0.0068995409
0.0068127677
0.0067264451
0.0066405316
0.0065549889
0.0064697816
0.0063848763
0.0063002407
0.0062158436
0.0061316541
0.0060476439
0.0059637948
0.0058800942
0.0057965022
0.0057129939
0.005629543
0.0055461944
0.0054629875
0.0053798394
0.0052967133
0.0052136111
0.0051305425
0.0050475113
0.0049645225
0.0048815808
0.0047986919
0.0047158623
0.0046330999
0.0045504135
0.0044678136
0.0043853118
0.0043029212
0.0042206559
0.0041385315
0.0040565648
0.0039747753
0.003893187
0.0038118265
0.0078816676
0.0077871369
0.0076936916
0.0076012528
0.0075097444
0.0074190955
0.0073292392
0.007240113
0.0071516583
0.0070638202
0.0069765472
0.0068897911
0.0068035062
0.0067176498
0.0066321815
0.0065470645
0.0064622652
0.0063777514
0.0062934916
0.0062094549
0.0061256111
0.0060419306
0.0059583978
0.0058750065
0.0057917008
0.005708474
0.0056252847
0.005542173
0.0054592278
0.0053763355
0.0052934438
0.0052105645
0.0051277096
0.0050448843
0.0049620938
0.0048793432
0.0047966383
0.004713986
0.0046313943
0.0045488726
0.0044664314
0.0043840828
0.0043018401
0.0042197179
0.0041377321
0.0040559002
0.0039742418
0.0038927814
0.0038115459
0.0078623619
0.0077688224
0.0076763092
0.0075847486
0.0074940689
0.007404203
0.0073150875
0.0072266632
0.0071388744
0.0070516689
0.0069649977
0.0068788145
0.0067930757
0.0067077401
0.0066227691
0.0065381272
0.006453783
0.0063697061
0.0062858653
0.0062022302
0.006118772
0.0060354593
0.0059522791
0.0058692329
0.0057862388
0.0057033307
0.0056204392
0.0055375793
0.0054549254
0.0053723218
0.0052896908
0.0052070602
0.0051244441
0.0050418487
0.00495928
0.0048767432
0.0047942445
0.0047117911
0.0046293913
0.0045470547
0.0044647924
0.0043826166
0.0043005412
0.004218581
0.0041367523
0.0040550732
0.0039735637
0.0038922487
0.0038111553
0.0078407464
0.0077483086
0.0076568314
0.0075662471
0.0074764885
0.0073874929
0.0072992009
0.0072115567
0.0071245078
0.0070380051
0.0069520021
0.0068664552
0.0067813226
0.0066965652
0.0066121456
0.0065280305
0.0064441907
0.0063605984
0.0062772222
0.0061940323
0.0061110024
0.006028098
0.0059453095
0.0058626478
0.0057799864
0.0056974397
0.0056148935
0.0055322944
0.0054499616
0.0053676858
0.0052853431
0.0052029905
0.0051206405
0.0050383018
0.0049559806
0.0048736829
0.0047914151
0.0047091845
0.0046269999
0.0045448714
0.0044628103
0.0043808292
0.0042989424
0.0042171652
0.0041355142
0.004054008
0.0039726671
0.0038915169
0.0038105844
0.0078166328
0.00772541
0.0076350768
0.0075455703
0.007456829
0.0073687945
0.0072814119
0.0071946292
0.0071083976
0.0070226709
0.0069374059
0.0068525614
0.0067680981
0.0066839788
0.0066001677
0.0065166336
0.0064333503
0.0063502933
0.0062674303
0.0061847312
0.0061021752
0.0060197231
0.0059373728
0.0058551355
0.0057728164
0.0056906875
0.0056085447
0.0055262085
0.0054442244
0.0053623214
0.005280298
0.0051982556
0.0051162014
0.0050341481
0.0049521026
0.0048700712
0.0047880608
0.004706079
0.0046241351
0.0045422394
0.0044604036
0.004378641
0.004296966
0.0042153943
0.0041339433
0.0040526317
0.0039714807
0.0038905158
0.0038097648
0.007789837
0.0076999483
0.0076108704
0.0075225475
0.0074349233
0.0073479446
0.0072615609
0.0071757247
0.0070903908
0.0070055168
0.0069210626
0.00683699
0.0067532623
0.0066698441
0.0065867015
0.0065038053
0.0064211331
0.0063386657
0.006256367
0.0061742066
0.0060921727
0.0060102224
0.0059283671
0.0058465849
0.0057646318
0.0056829622
0.0056012572
0.0055192294
0.0054376251
0.0053561313
0.00527446
0.0051927644
0.0051110371
0.0050292997
0.0049475596
0.0048658236
0.004784099
0.0047023937
0.0046207175
0.004539081
0.0044574964
0.0043759774
0.0042945388
0.0042131969
0.0041319694
0.0040508755
0.0039699369
0.0038891797
0.0038086318
0.0077601855
0.0076717521
0.0075840456
0.0074970158
0.0074106125
0.0073247878
0.0072394964
0.0071546951
0.0070703432
0.0069864019
0.0069028347
0.0068196067
0.0067366839
0.0066540331
0.0065716218
0.0064894232
0.0064074194
0.0063255993
0.0062439194
0.0061623466
0.0060808865
0.0059994942
0.005918206
0.0058368867
0.0057553543
0.0056741224
0.0055928719
0.0055112969
0.005430111
0.0053490268
0.0052677405
0.0051864343
0.0051050657
0.0050236755
0.004942272
0.004860862
0.004779453
0.0046980535
0.0046166734
0.0045353239
0.0044540178
0.004372769
0.0042915929
0.0042105061
0.0041295268
0.004048675
0.0039679726
0.0038874464
0.0038071245
0.0077275099
0.007640659
0.0075544435
0.0074688203
0.0073837454
0.0072991768
0.0072150744
0.0071314001
0.0070481176
0.0069651924
0.0068825918
0.0068002843
0.006718239
0.0066364248
0.0065548104
0.0064733718
0.0063920959
0.0063109857
0.0062299817
0.0061490472
0.0060682159
0.0059874718
0.0059067777
0.0058258654
0.0057448351
0.0056641448
0.0055833581
0.0055023289
0.0054216038
0.0053408993
0.0052600447
0.0051791884
0.0050982108
0.0050171991
0.0049361645
0.0048551125
0.0047740505
0.0046929873
0.0046119333
0.0045309001
0.004449901
0.0043689502
0.0042880638
0.0042072589
0.004126554
0.0040459697
0.0039655285
0.0038852578
0.0038051861
0.0076916507
0.0076065111
0.0075219103
0.0074378107
0.0073541752
0.0072709681
0.007188155
0.0071057031
0.0070235809
0.0069417583
0.0068602069
0.006778899
0.0066978069
0.0066169016
0.0065361528
0.0064555389
0.0063750533
0.0062947209
0.0062144553
0.0061342164
0.0060540893
0.0059740639
0.0058938482
0.0058134079
0.0057330979
0.0056529358
0.0055726722
0.0054922364
0.0054119797
0.0053316787
0.0052512829
0.0051709475
0.0050903991
0.0050097972
0.0049291647
0.0048485042
0.004767822
0.0046871272
0.0046064306
0.0045257442
0.0044450819
0.0043644584
0.0042838902
0.004203395
0.0041229917
0.0040427016
0.0039625476
0.0038825583
0.003802762
0.0077361972
0.0076524496
0.0075691552
0.0074862951
0.0074038392
0.0073217573
0.0072400204
0.0071586001
0.0070774691
0.0069966012
0.0069159708
0.0068355543
0.0067553278
0.0066752676
0.0065953465
0.006515535
0.0064358134
0.0063561817
0.0062767042
0.0061972483
0.0061177633
0.0060384187
0.0059590172
0.0058793116
0.0057996153
0.0057200024
0.0056404102
0.0055607197
0.0054809078
0.0054011782
0.0053212684
0.0052413854
0.0051616335
0.0050815542
0.0050013956
0.0049212001
0.0048409663
0.0047606983
0.0046804054
0.0046000988
0.0045197913
0.0044394969
0.0043592313
0.0042790112
0.0041988548
0.0041187818
0.0040388134
0.0039589744
0.0038792929
0.0037997988
0.0076914018
0.0076097513
0.0075284371
0.007447447
0.0073667577
0.0072863465
0.0072061912
0.0071262699
0.0070465613
0.0069670445
0.0068876989
0.0068085057
0.0067294455
0.0066504988
0.0065716403
0.0064928408
0.0064140811
0.0063353704
0.0062568349
0.0061782558
0.0060995739
0.0060210051
0.005942218
0.0058632667
0.005784346
0.0057054301
0.0056264694
0.0055474043
0.0054682396
0.0053890849
0.0053096184
0.005230314
0.00515115
0.0050715893
0.0049919167
0.0049121962
0.0048324261
0.0047526084
0.0046727525
0.0045928702
0.0045129749
0.0044330814
0.0043532055
0.0042733647
0.0041935776
0.0041138643
0.0040342475
0.003954751
0.0038754061
0.0037962421
0.0076428072
0.007563398
0.0074842029
0.0074052141
0.0073264167
0.0072477956
0.0071693358
0.0070910224
0.0070128401
0.0069347737
0.0068568079
0.0067789293
0.0067011227
0.0066233739
0.0065456595
0.0064679502
0.0063902267
0.0063125095
0.0062349925
0.0061573508
0.0060795037
0.0060016985
0.0059237171
0.0058455891
0.0057674637
0.0056892836
0.0056110134
0.0055326245
0.0054541255
0.0053755658
0.0052967222
0.0052180342
0.0051393721
0.0050603985
0.0049812792
0.0049020751
0.0048228075
0.0047434777
0.0046640955
0.0045846734
0.0045052254
0.0044257667
0.004346314
0.0042668852
0.0041874993
0.0041081774
0.0040289416
0.0039498184
0.0038708391
0.0037920344
0.0075902575
0.0075132352
0.0074362974
0.0073594429
0.0072826644
0.0072059544
0.0071293058
0.007052711
0.0069761611
0.006899647
0.0068231584
0.0067466879
0.0066702245
0.0065937605
0.0065172742
0.0064407376
0.0063641329
0.0062874872
0.0062110359
0.0061343803
0.0060574012
0.0059805007
0.0059033898
0.0058261517
0.0057488562
0.0056714603
0.0055939391
0.0055162782
0.005438485
0.0053605774
0.0052824511
0.0052043752
0.0051262503
0.005047902
0.0049693982
0.0048907538
0.0048120286
0.0047332263
0.0046543561
0.0045754317
0.0044964675
0.0044174796
0.0043384851
0.0042595024
0.0041805514
0.004101653
0.0040228311
0.0039441114
0.0038655286
0.0037871145
0.0076080132
0.0075336004
0.007459107
0.0073845653
0.0073099787
0.0072353467
0.00716067
0.0070859497
0.0070111856
0.0069363758
0.0068615177
0.0067866054
0.0067116387
0.0066366098
0.0065615197
0.006486347
0.0064110687
0.0063356747
0.0062601975
0.0061847872
0.0061091544
0.0060332495
0.0059572851
0.0058811275
0.0058048234
0.005728407
0.0056518507
0.0055751367
0.0054982584
0.0054212222
0.0053440351
0.0052666564
0.0051892215
0.0051117154
0.0050340154
0.0049561811
0.0048781425
0.0048000009
0.004721767
0.0046434492
0.0045650616
0.0044866197
0.00440814
0.0043296404
0.0042511399
0.0041726586
0.0040942186
0.0040158431
0.0039375606
0.0038594067
0.003781414
0.0075442712
0.0074726826
0.0074008587
0.0073288512
0.0072566657
0.0071843082
0.0071117871
0.0070391123
0.006966292
0.0068933313
0.0068202342
0.0067469989
0.0066736336
0.0066001312
0.0065265059
0.0064527311
0.0063787985
0.0063047066
0.0062304253
0.0061561571
0.0060816589
0.0060068656
0.0059319322
0.0058567918
0.0057814734
0.0057059939
0.0056303362
0.0055544891
0.0054784504
0.005402226
0.0053258211
0.005249224
0.0051724932
0.0050956442
0.0050186481
0.0049415224
0.0048641429
0.0047866281
0.0047090054
0.004631282
0.0045534723
0.0044755928
0.0043976607
0.0043196943
0.0042417135
0.0041637391
0.004085793
0.0040079005
0.0039300893
0.0038523981
0.0037748589
0.0074759777
0.007407358
0.007338338
0.0072690006
0.0071993492
0.0071293931
0.0070591491
0.006988637
0.0069178731
0.0068468708
0.0067756413
0.0067041837
0.0066325194
0.0065606354
0.0064885688
0.0064162741
0.006343785
0.0062710277
0.0061980921
0.0061250403
0.0060517267
0.0059781177
0.0059042967
0.0058302402
0.0057559673
0.0056814867
0.0056067899
0.0055318709
0.0054567307
0.0053813756
0.0053058112
0.0052300378
0.005154072
0.0050779386
0.005001691
0.0049253102
0.0048486472
0.0047718053
0.0046948383
0.0046177533
0.0045405646
0.0044632895
0.004385946
0.0043085532
0.0042311315
0.0041537024
0.0040762891
0.0039989161
0.0039216145
0.003844423
0.0074030006
0.0073374858
0.0072713955
0.0072048623
0.0071378761
0.0070704463
0.0070025993
0.0069343657
0.0068657696
0.0067968347
0.0067275803
0.0066579996
0.0065881399
0.006517964
0.0064475598
0.0063768229
0.0063058314
0.0062345687
0.0061630227
0.0060912686
0.0060192223
0.0059468622
0.0058742312
0.0058013275
0.0057281643
0.0056547482
0.0055810769
0.005507149
0.005432968
0.0053585408
0.0052838744
0.0052089731
0.005133836
0.0050584839
0.0049830287
0.0049074269
0.0048315377
0.0047554187
0.0046791541
0.0046027536
0.0045262309
0.0044496041
0.0043728921
0.004296115
0.0042192936
0.0041424505
0.004065609
0.0039887964
0.0039120433
0.00383539
0.0073252171
0.007262937
0.007199887
0.0071362891
0.0070720973
0.0070073156
0.0069419822
0.0068761415
0.0068098209
0.006743061
0.0066758918
0.0066082817
0.0065403407
0.0064719574
0.006403268
0.0063342494
0.0062648541
0.0061951227
0.0061250521
0.0060546895
0.005983993
0.0059129502
0.0058415849
0.0057699036
0.0056979175
0.0056256337
0.0055530545
0.0054801823
0.0054070229
0.005333584
0.0052598737
0.0051858983
0.0051116539
0.0050371477
0.0049625385
0.0048877499
0.0048126886
0.0047373471
0.0046618331
0.0045861648
0.0045103549
0.0044344222
0.0043583866
0.0042822689
0.004206091
0.0041298758
0.0040536484
0.0039774355
0.0039012709
0.0038251929
0.0072425207
0.007183591
0.0071236729
0.0070631398
0.0070018696
0.006939852
0.0068771445
0.0068138113
0.0067498656
0.0066853861
0.0066204224
0.0065548617
0.0064889048
0.0064224809
0.006355627
0.0062883563
0.0062206481
0.0061525338
0.0060840219
0.0060151419
0.0059458777
0.0058762255
0.0058062004
0.0057358127
0.0056650736
0.0055939917
0.0055225726
0.0054508224
0.0053787486
0.0053063603
0.0052336667
0.0051606757
0.0050873874
0.0050138023
0.0049400709
0.0048661527
0.004791963
0.0047174585
0.0046427465
0.0045678602
0.0044928119
0.004417621
0.0043423084
0.0042668958
0.004191406
0.0041158629
0.0040402917
0.0039647217
0.0038891854
0.0038137208
0.0071548058
0.0070993352
0.0070426304
0.0069852841
0.0069270563
0.0068679102
0.0068079359
0.0067472335
0.006685742
0.0066236478
0.0065609579
0.0064976205
0.0064337553
0.006369343
0.0063044124
0.0062389811
0.0061730479
0.0061066386
0.0060397686
0.0059724596
0.0059047103
0.0058365244
0.0057679147
0.0056988935
0.0056294729
0.0055596636
0.0054894742
0.0054189135
0.0053479911
0.0052767176
0.0052051035
0.0051331587
0.0050608874
0.0049882899
0.0049154915
0.0048424941
0.0047692207
0.0046956139
0.0046217573
0.0045477045
0.0044734686
0.0043990689
0.0043245277
0.0042498677
0.0041751126
0.0041002868
0.0040254173
0.0039505324
0.0038756673
0.0038008583
0.0070619571
0.0070100498
0.0069566646
0.0069026193
0.0068475274
0.0067913488
0.0067342099
0.0066762025
0.0066173424
0.0065577268
0.0064973936
0.0064363571
0.0063746869
0.0063123762
0.0062494584
0.0061859576
0.0061218859
0.0060572679
0.0059921238
0.0059264719
0.0058603195
0.0057936775
0.0057265592
0.0056589785
0.0055909494
0.0055224845
0.0054535953
0.005384293
0.0053145892
0.0052444962
0.0051740262
0.0051031909
0.0050319982
0.0049604517
0.0048886484
0.0048166263
0.0047443145
0.0046716669
0.0045987211
0.0045255546
0.0044521831
0.0043786259
0.0043049063
0.0042310481
0.0041570757
0.004083015
0.0040088926
0.0039347392
0.003860589
0.0037864789
0.0069638084
0.0069155511
0.0068658026
0.0068150851
0.0067631616
0.0067100419
0.0066558376
0.0066006344
0.0065444783
0.0064874377
0.0064295623
0.0063709129
0.0063115354
0.0062514149
0.0061905972
0.0061291157
0.0060669909
0.0060042494
0.005940915
0.0058770046
0.0058125304
0.0057475104
0.0056819602
0.0056158948
0.0055493308
0.005482283
0.0054147654
0.0053467914
0.0052783747
0.0052095292
0.0051402689
0.0050706075
0.0050005565
0.0049301248
0.0048593746
0.0047883927
0.0047170921
0.0046454622
0.0045734856
0.004501259
0.0044288053
0.0043561434
0.0042832973
0.0042102917
0.0041371521
0.0040639049
0.0039905786
0.0039172028
0.0038438142
0.0037704493
0.0068603844
0.0068159032
0.0067698516
0.0067225366
0.0066738536
0.0066238746
0.0065726913
0.0065203838
0.0064670119
0.0064126336
0.0063573053
0.0063011316
0.0062441403
0.0061862922
0.0061276593
0.0060682832
0.0060081896
0.005947408
0.0058859665
0.0058238803
0.0057611639
0.0056978443
0.0056339389
0.005569464
0.0055044392
0.0054388816
0.0053728076
0.0053062327
0.0052391724
0.0051716424
0.0051036588
0.0050352374
0.0049663927
0.0048971385
0.0048275135
0.0047576148
0.0046873943
0.0046168328
0.0045458868
0.0044746568
0.0044031763
0.0043314642
0.0042595449
0.0041874445
0.0041151893
0.0040428068
0.0039703253
0.0038977772
0.0038251978
0.0037526253
0.0067517007
0.0067110667
0.0066687103
0.0066248669
0.0065795065
0.0065327412
0.0064846525
0.0064353196
0.0063848084
0.0063331709
0.0062804736
0.0062268634
0.0061723402
0.0061168396
0.006060474
0.0060032875
0.0059453071
0.005886567
0.0058271001
0.0057669186
0.0057060373
0.0056444958
0.005582312
0.0055195025
0.0054560911
0.0053920969
0.0053275389
0.0052624343
0.0051968004
0.005130655
0.0050640159
0.0049969012
0.0049293284
0.0048613135
0.0047928818
0.0047241286
0.0046550468
0.0045856065
0.0045157535
0.0044455789
0.0043751284
0.004304422
0.0042334848
0.0041623437
0.0040910262
0.0040195602
0.0039479762
0.0038763053
0.0038045857
0.0037328554
0.0066377512
0.0066009617
0.0065623356
0.0065220079
0.0064800407
0.0064365471
0.0063916128
0.0063453197
0.0062977368
0.0062489146
0.006198938
0.0061479599
0.0060959623
0.0060428875
0.0059888728
0.0059339569
0.0058781681
0.005821549
0.0057641349
0.0057059356
0.0056469641
0.0055872779
0.005526892
0.0054658216
0.0054040974
0.0053417398
0.0052787699
0.0052152072
0.0051510702
0.0050863785
0.0050211523
0.0049554116
0.0048891765
0.0048224641
0.004755293
0.0046877529
0.0046198686
0.0045516038
0.0044829073
0.0044138476
0.0043444852
0.004274842
0.0042049434
0.0041348174
0.0040644923
0.0039939976
0.0039233631
0.003852623
0.0037818146
0.0037109772
0.0065185262
0.0064855872
0.0064506748
0.0064139075
0.0063753799
0.0063352034
0.0062934719
0.0062502712
0.0062056742
0.0061597384
0.0061125497
0.0060642601
0.0060148447
0.0059642863
0.0059126956
0.0058601215
0.0058065982
0.0057521811
0.0056968847
0.00564074
0.005583756
0.0055260011
0.0054674872
0.0054082276
0.0053482641
0.0052876153
0.0052263058
0.0051643562
0.0051017864
0.005038618
0.0049748729
0.0049105735
0.0048457417
0.0047803963
0.0047145551
0.0046482976
0.0045816713
0.0045146365
0.0044471606
0.0043792765
0.0043110616
0.0042425404
0.0041737386
0.0041046849
0.0040354089
0.0039659403
0.0038963114
0.0038265553
0.0037567117
0.0036868208
0.0063940414
0.0063649306
0.0063337216
0.0063005301
0.0062654637
0.006228634
0.0061901405
0.0061500741
0.0061085101
0.0060655159
0.0060211773
0.0059756161
0.0059288435
0.0058808683
0.0058317706
0.0057816073
0.0057304213
0.005678265
0.00562517
0.0055711436
0.0055162326
0.0054604727
0.0054038998
0.0053465227
0.0052883926
0.0052295237
0.0051699457
0.0051096801
0.0050487476
0.0049871714
0.0049249758
0.004862185
0.0047988225
0.0047349101
0.004670469
0.0046055568
0.0045402589
0.00447451
0.004408317
0.0043416714
0.0042746638
0.0042073245
0.004139679
0.0040717565
0.0040035873
0.0039352028
0.0038666349
0.0037979195
0.003729096
0.0036602054
0.0062643283
0.0062390064
0.0062114753
0.0061818499
0.0061502474
0.0061167761
0.0060815414
0.0060446371
0.0060061397
0.0059661238
0.0059246761
0.005881895
0.0058378199
0.0057924785
0.0057459329
0.0056982436
0.0056494597
0.0055996308
0.0055487915
0.0054969597
0.0054441829
0.0053904997
0.0053359356
0.0052805079
0.0052242796
0.0051672605
0.0051094842
0.0050509723
0.004991746
0.0049318307
0.0048712528
0.0048100381
0.0047482123
0.0046857999
0.0046228258
0.0045593334
0.0044954132
0.0044310234
0.0043661685
0.0043008261
0.0042350889
0.0041689932
0.004102565
0.0040358337
0.003968831
0.0039015887
0.003834141
0.003766523
0.0036987764
0.0036309433
0.0061294477
0.0061078415
0.0060839435
0.006057854
0.0060296977
0.0059995779
0.0059676051
0.005933875
0.0058984639
0.0058614499
0.00582292
0.0057829617
0.0057416311
0.0056989652
0.0056550213
0.0056098606
0.0055635349
0.0055160934
0.0054675719
0.0054179984
0.0053674196
0.0053158713
0.0052633801
0.0052099865
0.0051557183
0.0051006165
0.0050447115
0.0049880212
0.0049305684
0.0048723818
0.0048134893
0.0047539186
0.0046936969
0.0046328515
0.0045714089
0.0045094052
0.0044469281
0.0043839604
0.0043205028
0.004256529
0.0041921265
0.0041273376
0.0040621887
0.0039967103
0.0039309346
0.0038648954
0.0037986264
0.0037321656
0.0036655548
0.0035988362
0.0059894435
0.0059714681
0.0059511519
0.00592854
0.0059037926
0.0058769959
0.0058482709
0.0058177124
0.0057853933
0.0057513886
0.0057157922
0.0056786865
0.0056401331
0.0056001782
0.0055588783
0.005516292
0.0054724739
0.0054274721
0.0053813246
0.0053340657
0.0052857435
0.0052363913
0.0051860405
0.0051347308
0.0050825011
0.0050293833
0.004975412
0.0049206103
0.0048649969
0.0048086053
0.0047514654
0.0046936059
0.0046350559
0.004575844
0.0045159979
0.004455549
0.0043945809
0.0043330983
0.0042711021
0.0042085629
0.0041455602
0.0040821419
0.0040183354
0.0039541722
0.0038896859
0.0038249106
0.0037598825
0.0036946391
0.0036292237
0.0035636807
0.0058443824
0.0058299727
0.0058131112
0.0057939028
0.0057725179
0.005748995
0.0057234851
0.0056960849
0.0056668494
0.0056358421
0.0056031805
0.0055689429
0.0055331892
0.0054959722
0.005457348
0.005417374
0.005376104
0.005333587
0.0052898619
0.0052449708
0.0051989583
0.0051518577
0.0051037072
0.0050545457
0.0050044078
0.0049533417
0.0049013703
0.0048485166
0.0047948095
0.0047402781
0.0046849564
0.0046288746
0.004572063
0.0045145515
0.0044563675
0.0043975392
0.0043381426
0.0042782073
0.0042177419
0.0041567054
0.004095168
0.0040331844
0.0039707842
0.0039079998
0.0038448657
0.003781418
0.0037176925
0.003653729
0.0035895717
0.0035252642
0.0056944256
0.0056833885
0.0056698516
0.0056539935
0.0056358281
0.0056155425
0.0055932012
0.0055689366
0.0055427697
0.0055147161
0.0054849755
0.0054536098
0.0054206683
0.005386206
0.0053502795
0.0053129449
0.0052742556
0.0052342602
0.0051930015
0.0051505232
0.0051068671
0.0050620698
0.0050161765
0.0049692188
0.0049212352
0.0048722709
0.0048223607
0.0047715198
0.0047197795
0.0046671742
0.0046137353
0.0045594961
0.0045044888
0.0044487445
0.004392291
0.0043351498
0.0042773786
0.0042190494
0.0041601949
0.0041007318
0.0040407242
0.0039802393
0.0039193095
0.0038579681
0.0037962511
0.0037341944
0.0036718362
0.0036092163
0.0035463794
0.0034833721
0.0055396169
0.0055318058
0.0055214864
0.0055087861
0.0054937698
0.0054766143
0.0054573267
0.0054362418
0.0054131113
0.0053879011
0.0053610667
0.0053325721
0.0053024449
0.0052707434
0.0052375261
0.0052028485
0.0051667637
0.0051293199
0.0050905626
0.0050505348
0.0050092785
0.0049668329
0.004923242
0.0048785401
0.0048327682
0.0047859625
0.0047381613
0.0046893959
0.004639683
0.0045890657
0.0045375745
0.0044852409
0.0044321024
0.004378192
0.0043235397
0.0042681517
0.0042120461
0.0041553873
0.0040982394
0.004040419
0.003982002
0.0039230781
0.0038636833
0.0038038503
0.0037436152
0.0036830156
0.0036220896
0.0035608782
0.0034994278
0.0034377835
0.005380047
0.0053752803
0.0053680114
0.0053583488
0.0053463774
0.0053321685
0.0053159187
0.0052979719
0.0052777391
0.0052552881
0.0052313553
0.0052057281
0.0051784029
0.0051494561
0.0051189483
0.0050869359
0.00505347
0.0050185998
0.0049823699
0.0049448245
0.0049060046
0.0048659515
0.0048247064
0.0047823076
0.004738793
0.0046941998
0.0046485651
0.0046019229
0.0045543016
0.0045057283
0.0044562471
0.0044058814
0.004354673
0.0043026594
0.004249871
0.0041962998
0.0041419085
0.004087031
0.004031663
0.0039755369
0.0039187694
0.0038614708
0.0038036765
0.0037454183
0.0036867321
0.003627656
0.0035682287
0.0035084926
0.0034484934
0.0033882798
0.0052158021
0.0052138784
0.0052094797
0.0052027046
0.0051936412
0.005182374
0.0051690077
0.0051537951
0.0051363772
0.005116943
0.0050958639
0.0050730075
0.0050484412
0.0050222254
0.0049944163
0.0049650662
0.0049342256
0.0049019412
0.0048682583
0.0048332192
0.004796866
0.0047592387
0.0047203784
0.004680323
0.0046391106
0.0045967774
0.004553362
0.0045088967
0.0044634166
0.0044169496
0.0043695318
0.0043211954
0.0042719759
0.0042219112
0.0041710314
0.0041193424
0.0040668612
0.0040138393
0.0039601852
0.0039058155
0.0038507832
0.0037951851
0.0037390619
0.0036824469
0.0036253776
0.0035678924
0.0035100315
0.0034518371
0.0033933574
0.0033346398
0.0050469572
0.0050476547
0.0050459307
0.0050418685
0.0050355518
0.0050270594
0.0050164735
0.0050038965
0.0049892629
0.0049727587
0.0049543892
0.0049342947
0.004912457
0.0048889403
0.004863809
0.0048371106
0.0048088919
0.0047791983
0.0047480731
0.0047155581
0.004681694
0.0046465206
0.0046100773
0.0045724019