/*--------------------------------*- C++ -*----------------------------------*\
| =========                 |                                                 |
| \\      /  F ield         | OpenFOAM: The Open Source CFD Toolbox           |
|  \\    /   O peration     | Version:  2312                                  |
|   \\  /    A nd           | Website:  www.openfoam.com                      |
|    \\/     M anipulation  |                                                 |
\*---------------------------------------------------------------------------*/
FoamFile
{
    version     2.0;
    format      ascii;
    arch        "LSB;label=32;scalar=64";
    class       volScalarField;
    location    "0.06";
    object      nut;
}
// * * * * * * * * * * * * * * * * * * * * * * * * * * * * * * * * * * * * * //

dimensions      [0 2 -1 0 0 0 0];

internalField   nonuniform List<scalar> 
3250
(
0.034493873
0.034350017
0.034211703
0.034078904
0.033951597
0.033829757
0.033713366
0.033602404
0.033496855
0.033396705
0.033301941
0.033212553
0.033128531
0.033049868
0.032976554
0.032908584
0.032845951
0.032788646
0.032736663
0.032689994
0.032648629
0.032612558
0.032581767
0.032556243
0.032535969
0.032520925
0.032511091
0.032506444
0.032506961
0.032512615
0.032523377
0.032539214
0.032560092
0.032585974
0.032616824
0.032652605
0.032693281
0.032738814
0.032789169
0.032844312
0.032904211
0.032968837
0.033038162
0.03311217
0.033190873
0.033274254
0.033362287
0.033454973
0.033552317
0.03449047
0.034346786
0.034208637
0.034075996
0.03394884
0.033827146
0.033710894
0.033600065
0.033494644
0.033394616
0.033299971
0.033210696
0.033126783
0.033048224
0.032975012
0.032907139
0.032844598
0.032787384
0.032735489
0.032688903
0.032647619
0.032611626
0.032580911
0.032555461
0.032535257
0.032520283
0.032510515
0.032505933
0.032506512
0.032512227
0.032523049
0.032538944
0.032559878
0.032585816
0.03261672
0.032652554
0.032693281
0.032738865
0.03278927
0.032844462
0.03290441
0.032969084
0.033038459
0.033112518
0.033191264
0.033274681
0.033362754
0.033455482
0.033552875
0.034483626
0.034340287
0.034202469
0.034070146
0.033943294
0.033821891
0.033705917
0.033595356
0.033490192
0.033390411
0.033296002
0.033206955
0.033123261
0.033044913
0.032971903
0.032904225
0.032841873
0.03278484
0.032733119
0.032686702
0.03264558
0.032609744
0.032579181
0.032553876
0.032533815
0.032518976
0.032509341
0.032504885
0.032505588
0.032511423
0.03252236
0.032538368
0.032559411
0.032585455
0.032616462
0.032652396
0.032693221
0.032738899
0.032789396
0.032844679
0.032904715
0.032969476
0.033038936
0.03311308
0.033191904
0.033275394
0.033363539
0.03345634
0.033553812
0.034473351
0.03433053
0.034193209
0.034061361
0.033934964
0.033813998
0.033698443
0.033588283
0.033483504
0.033384094
0.03329004
0.033201335
0.03311797
0.033039938
0.032967232
0.032899848
0.032837778
0.032781017
0.032729558
0.032683394
0.032642516
0.032606915
0.032576578
0.032551493
0.032531643
0.032517009
0.03250757
0.032503305
0.032504191
0.032510203
0.032521313
0.032537487
0.032558692
0.032584892
0.032616051
0.032652132
0.0326931
0.032738917
0.032789549
0.032844962
0.032905126
0.032970011
0.033039594
0.033113857
0.033192794
0.033276391
0.03336464
0.033457546
0.033555124
0.034459657
0.034317527
0.034180867
0.034049653
0.033923863
0.033803478
0.03368848
0.033578856
0.033474591
0.033375673
0.033282094
0.033193844
0.033110917
0.033033307
0.032961007
0.032894013
0.032832319
0.032775921
0.032724811
0.032678984
0.032638431
0.032603143
0.032573108
0.032548315
0.032528746
0.032514383
0.032505206
0.032501193
0.032502323
0.032508572
0.032519909
0.032536305
0.032557724
0.032584131
0.03261549
0.032651765
0.03269292
0.032738919
0.032789728
0.032845314
0.032905644
0.032970691
0.033040432
0.033114849
0.033193932
0.03327767
0.033366057
0.033459098
0.033556811
0.034443544
0.034302226
0.034166344
0.034035874
0.033910798
0.033791097
0.033676756
0.033567761
0.033464101
0.033365764
0.033272742
0.033185029
0.033102618
0.033025503
0.032953681
0.032887147
0.032825896
0.032769924
0.032719226
0.032673795
0.032633624
0.032598704
0.032569025
0.032544574
0.032525337
0.032511294
0.032502424
0.032498707
0.032500124
0.032506649
0.032518255
0.032534909
0.032556579
0.032583228
0.032614821
0.032651324
0.032692698
0.032738911
0.032789926
0.032845711
0.032906235
0.032971471
0.033041395
0.033115989
0.033195243
0.033279145
0.033367692
0.033460889
0.033558756
0.034425517
0.034285108
0.034150096
0.03402046
0.033896182
0.033777247
0.03366364
0.03355535
0.033452365
0.033354678
0.03326228
0.033175167
0.033093333
0.033016774
0.032945486
0.032879467
0.032818712
0.032763217
0.032712979
0.032667991
0.032628248
0.032593741
0.032564459
0.032540392
0.032521525
0.032507839
0.032499314
0.032495928
0.032497664
0.032504499
0.032516404
0.032533348
0.032555297
0.032582217
0.032614072
0.032650828
0.032692447
0.032738897
0.032790141
0.032846149
0.032906889
0.032972333
0.03304246
0.033117251
0.033196694
0.033280779
0.033369503
0.033462874
0.03356091
0.034404179
0.034264846
0.034130864
0.034002215
0.033878882
0.033760852
0.033648114
0.033540658
0.033438474
0.033341556
0.033249897
0.033163495
0.033082344
0.033006443
0.032935788
0.032870378
0.03281021
0.03275528
0.032705587
0.032661125
0.032621888
0.032587869
0.032559058
0.032535445
0.032517017
0.032503754
0.032495636
0.032492642
0.032494757
0.032501958
0.032514218
0.032531504
0.032553784
0.032581023
0.032613188
0.032650242
0.032692151
0.03273888
0.032790395
0.032846665
0.032907659
0.03297335
0.033043715
0.033118737
0.033198402
0.033282703
0.033371636
0.03346521
0.033563445
0.034379307
0.034241229
0.034108447
0.033980947
0.033858716
0.033741743
0.033630018
0.033523534
0.033422283
0.033326262
0.033235465
0.033149891
0.033069538
0.032994403
0.032924487
0.032859787
0.032800304
0.032746034
0.032696976
0.032653126
0.03261448
0.032581031
0.032552769
0.032529686
0.032511769
0.032499
0.032491357
0.03248882
0.032491376
0.032499005
0.032511677
0.032529362
0.032552027
0.032579639
0.032612164
0.032649566
0.032691812
0.032738866
0.032790696
0.032847271
0.03290856
0.032974536
0.033045178
0.033120468
0.033200392
0.033284942
0.033374118
0.033467929
0.033566393
0.034350674
0.034214039
0.034082639
0.033956463
0.0338355
0.033719743
0.033609185
0.03350382
0.033403645
0.033308657
0.033218853
0.033134234
0.033054798
0.032980547
0.032911482
0.032847601
0.032788906
0.032735397
0.032687071
0.032643927
0.032605962
0.032573169
0.03254554
0.032523067
0.03250574
0.032493539
0.032486444
0.032484433
0.032487497
0.032495618
0.032508765
0.03252691
0.032550019
0.03257806
0.032610999
0.032648801
0.032691434
0.032738863
0.032791055
0.03284798
0.032909607
0.032975912
0.033046871
0.033122468
0.033202689
0.033287527
0.033376981
0.033471062
0.033569788
0.034318042
0.034183053
0.034053229
0.033928561
0.033809044
0.033694674
0.033585445
0.033481357
0.033382408
0.033288598
0.033199926
0.033116396
0.033038008
0.032964765
0.032896669
0.032833723
0.032775928
0.032723286
0.032675795
0.032633457
0.032596269
0.032564224
0.032537317
0.03251554
0.032498886
0.032487334
0.032480863
0.032479452
0.032483096
0.032491778
0.032505468
0.032524136
0.032547751
0.032576281
0.032609692
0.032647951
0.032691024
0.03273888
0.032791484
0.032848807
0.03291082
0.032977498
0.033048818
0.033124763
0.033205322
0.033290487
0.033380257
0.033474645
0.03357367
0.034281172
0.034148042
0.034019998
0.033897036
0.033779153
0.03366635
0.033558625
0.033455981
0.033358418
0.03326594
0.033178549
0.033096249
0.033019046
0.032946943
0.032879945
0.032818056
0.032761279
0.032709617
0.032663072
0.032621645
0.032585335
0.032554138
0.032528047
0.032507058
0.032491165
0.032480347
0.032474584
0.032473851
0.03247815
0.032487466
0.03250177
0.032521031
0.032545218
0.0325743
0.032608245
0.032647019
0.032690591
0.032738928
0.032791998
0.032849771
0.03291222
0.032979318
0.033051045
0.033127384
0.033208324
0.033293857
0.033383985
0.033478719
0.033578079
0.034239819
0.034108774
0.033982727
0.033861678
0.03374563
0.033634585
0.033528548
0.033427524
0.033331517
0.033240534
0.03315458
0.033073664
0.03299779
0.032926968
0.032861203
0.032800501
0.032744867
0.032694307
0.032648823
0.03260842
0.032573097
0.032542851
0.032517677
0.032497573
0.032482536
0.032472542
0.032467574
0.032467602
0.032472636
0.032482666
0.032497658
0.032517585
0.032542414
0.032572117
0.032606661
0.032646014
0.032690146
0.032739023
0.032792615
0.032850893
0.032913829
0.0329814
0.033053583
0.033130363
0.033211729
0.033297676
0.033388203
0.033483325
0.033583062
0.034193732
0.034065012
0.033941192
0.033822276
0.033708272
0.033599189
0.033495034
0.033395817
0.033301546
0.033212231
0.033127881
0.033048507
0.032974118
0.032904724
0.032840335
0.032780958
0.032726601
0.032677269
0.032632971
0.032593711
0.03255949
0.032530306
0.032506156
0.032487039
0.032472957
0.032463882
0.032459804
0.032460683
0.032466536
0.032477361
0.032493123
0.032513792
0.032539339
0.032569733
0.032604946
0.032644946
0.032689701
0.032739181
0.032793356
0.032852196
0.032915677
0.032983773
0.033056465
0.033133737
0.033215578
0.033301984
0.033392958
0.033488511
0.033588666
0.03414266
0.034016518
0.033895166
0.033778615
0.033666878
0.033559969
0.033457902
0.033360689
0.033268344
0.03318088
0.03309831
0.033020647
0.032947905
0.032880098
0.032817235
0.032759329
0.032706388
0.032658421
0.032615439
0.032577447
0.03254445
0.032516446
0.032493431
0.032475411
0.032462392
0.032454333
0.032451246
0.03245307
0.032459832
0.032471541
0.032488157
0.03250965
0.032535992
0.032567155
0.03260311
0.032643827
0.032689275
0.032739423
0.032794244
0.032853709
0.032917793
0.032986472
0.033059728
0.033137545
0.033219913
0.033306829
0.033398296
0.033494328
0.033594947
0.034086351
0.033963052
0.033844422
0.03373048
0.033621244
0.033516735
0.033416971
0.033321971
0.033231751
0.03314633
0.033065725
0.032989952
0.032919029
0.032852973
0.032791797
0.032735515
0.032684139
0.03263768
0.03259615
0.03255956
0.032527915
0.032501215
0.032479455
0.032462649
0.032450802
0.032443862
0.032441874
0.032444746
0.03245251
0.032465195
0.032482753
0.032505157
0.032532379
0.032564392
0.032601167
0.032642675
0.032688887
0.032739775
0.032795309
0.032855464
0.032920214
0.032989536
0.033063414
0.033141833
0.033224783
0.033312261
0.033404273
0.033500832
0.033601962
0.034024556
0.033904378
0.033788737
0.033677658
0.033571169
0.033469296
0.033372063
0.033279493
0.033191609
0.033108433
0.033029987
0.032956292
0.032887369
0.032823238
0.032763917
0.032709422
0.032659766
0.032614964
0.032575033
0.032539984
0.032509827
0.032484561
0.032464184
0.032448714
0.032438155
0.032432456
0.032431659
0.032435691
0.032444558
0.032458319
0.032476913
0.032500318
0.032528508
0.032561455
0.032599132
0.032641512
0.032688565
0.032740265
0.032796584
0.032857497
0.032922979
0.032993009
0.033067571
0.03314665
0.033230239
0.033318336
0.033410946
0.033508084
0.033609776
0.033957029
0.033840263
0.033727889
0.033619942
0.033516456
0.033417466
0.033323001
0.03323309
0.033147762
0.033067044
0.032990962
0.032919541
0.032852808
0.032790785
0.032733496
0.032680956
0.032633185
0.032590198
0.032552018
0.032518658
0.03249013
0.032466437
0.032447577
0.032433579
0.032424412
0.032420079
0.032420588
0.032425889
0.032435984
0.032450914
0.032470638
0.032495142
0.032524393
0.032558364
0.03259703
0.032640364
0.032688339
0.032740929
0.032798108
0.032859851
0.032926135
0.03299694
0.03307225
0.033152053
0.033236342
0.033325115
0.033418379
0.033516152
0.033618458
0.033883534
0.033770483
0.033661665
0.033557128
0.033456914
0.033361065
0.033269616
0.033182604
0.033100062
0.033022023
0.032948518
0.032879579
0.032815233
0.032755511
0.032700438
0.032650033
0.032604317
0.03256331
0.032527042
0.032495526
0.032468777
0.032446802
0.032429613
0.032417188
0.032409559
0.032406715
0.032408652
0.03241534
0.032426777
0.032442988
0.03246394
0.032489644
0.032520053
0.032555143
0.032594888
0.032639264
0.032688246
0.032741808
0.032799924
0.032862573
0.032929732
0.033001383
0.033077511
0.033158104
0.033243156
0.033332667
0.033426644
0.033525107
0.033628084
0.033916893
0.033803852
0.033694822
0.033589861
0.033489024
0.033392362
0.033299922
0.033211748
0.033127884
0.033048369
0.03297324
0.032902536
0.032836292
0.032774542
0.032717321
0.032664656
0.032616573
0.032573091
0.032534237
0.032500051
0.03247054
0.032445728
0.032425633
0.032410227
0.032399535
0.032393581
0.032392354
0.032395849
0.032404045
0.032416942
0.032434551
0.032456837
0.032483844
0.032515516
0.032551822
0.032592742
0.032638252
0.032688329
0.032742948
0.032802085
0.03286572
0.032933831
0.033006402
0.033083418
0.033164869
0.033250751
0.033341064
0.033435818
0.033535031
0.033638735
0.03382628
0.033717767
0.033613082
0.03351229
0.033415452
0.03332263
0.033233878
0.033149249
0.033068791
0.032992552
0.032920575
0.032852903
0.032789578
0.03273064
0.032676128
0.032626074
0.032580506
0.032539446
0.032502925
0.032470999
0.032443664
0.032420956
0.032402876
0.032389415
0.032380607
0.032376469
0.032376997
0.032382182
0.032392013
0.032406492
0.032425623
0.032449354
0.032477774
0.032510814
0.03254844
0.032590635
0.032637375
0.032688639
0.032744405
0.032804649
0.032869353
0.032938497
0.033012065
0.033090044
0.033172427
0.033259208
0.033350391
0.033445984
0.03354601
0.033650502
0.033728717
0.033625086
0.033525081
0.033428778
0.033336251
0.033247568
0.033162792
0.033081985
0.033005201
0.032932496
0.03286392
0.032799522
0.032739348
0.032683446
0.032631859
0.032584625
0.032541773
0.03250333
0.03246933
0.032439852
0.032414868
0.032394424
0.032378522
0.03236717
0.0323604
0.032358227
0.032360649
0.032367663
0.032379262
0.032395446
0.032416215
0.032441541
0.032471477
0.03250599
0.032545044
0.032588618
0.032636689
0.032689237
0.032746242
0.032807684
0.032873543
0.032943803
0.033018449
0.033097471
0.033180859
0.033268613
0.033360735
0.033457236
0.033558138
0.03366348
0.033624034
0.033525644
0.033430661
0.033339179
0.03325128
0.033167043
0.033086541
0.033009841
0.032937009
0.032868105
0.032803187
0.03274231
0.032685528
0.032632893
0.032584456
0.032540257
0.032500332
0.032464708
0.032433426
0.032406584
0.032384128
0.032366121
0.03235257
0.032343494
0.032338921
0.032338866
0.032343331
0.032352316
0.03236582
0.032383843
0.032406382
0.032433426
0.032465001
0.032501099
0.032541692
0.032586752
0.032636257
0.032690191
0.032748532
0.032811265
0.03287837
0.032949834
0.033025642
0.033105786
0.03319026
0.033279062
0.033372196
0.033469674
0.033571519
0.033677773
0.033607967
0.0335121
0.033419306
0.033329695
0.03324337
0.033160426
0.033080951
0.033005026
0.032932728
0.03286413
0.032799301
0.032738306
0.032681207
0.032628064
0.032578935
0.032533877
0.032492937
0.032456154
0.032423561
0.032395208
0.032371174
0.032351441
0.032336054
0.032325033
0.032318403
0.03231619
0.032318411
0.032325072
0.032336177
0.032351729
0.032371728
0.032396174
0.032425063
0.032458406
0.032496204
0.03253845
0.032585109
0.032636158
0.03269158
0.032751359
0.032815479
0.032883924
0.032956681
0.033033739
0.033115091
0.03320073
0.033290659
0.033384881
0.033483409
0.033586265
0.033693492
0.033482462
0.033392805
0.033305974
0.03322209
0.033141266
0.033063609
0.032989215
0.032918178
0.032850582
0.032786508
0.032726035
0.032669233
0.032616173
0.032566922
0.032521544
0.032480104
0.03244265
0.03240923
0.032379885
0.032354666
0.032333643
0.032316823
0.032304245
0.032295937
0.032291928
0.032292245
0.032296905
0.03230592
0.032319297
0.032337043
0.032359162
0.032385654
0.03241652
0.032451761
0.032491382
0.0325354
0.032583773
0.032636476
0.032693495
0.032754815
0.032820422
0.032890304
0.032964449
0.033042847
0.033125492
0.033212382
0.033303519
0.033398908
0.033498561
0.033602499
0.033710754
0.033349148
0.033266091
0.033185594
0.033107793
0.033032818
0.032960783
0.032891797
0.032825962
0.032763372
0.032704117
0.032648284
0.032595953
0.032547199
0.032502099
0.032460721
0.03242314
0.032389406
0.032359578
0.032333698
0.032311826
0.032294021
0.032280311
0.032270736
0.032265328
0.032264119
0.032267137
0.032274404
0.032285935
0.032301743
0.032321835
0.032346219
0.0323749
0.032407879
0.032445153
0.032486726
0.032532636
0.032582841
0.032637313
0.032696039
0.032759007
0.032826205
0.032897623
0.03297325
0.033053081
0.03313711
0.033225338
0.033317766
0.033414404
0.033515264
0.033620361
0.033208029
0.033131955
0.033058162
0.032986804
0.032918024
0.03285195
0.0327887
0.032728383
0.032671106
0.032616968
0.032566063
0.032518482
0.032474305
0.032433618
0.032396494
0.032363018
0.032333244
0.032307237
0.032285047
0.032266735
0.03225236
0.032241964
0.032235588
0.032233269
0.032235043
0.032240941
0.032250986
0.0322652
0.032283597
0.032306191
0.032332991
0.032364005
0.032399237
0.032438681
0.03248234
0.032530264
0.032582422
0.032638781
0.032699327
0.032764052
0.032832947
0.032906002
0.032983212
0.03306457
0.033150075
0.033239729
0.033333536
0.033431508
0.033533659
0.03364002
0.033059171
0.032990459
0.032923736
0.032859176
0.032796939
0.032737162
0.032679973
0.032625492
0.032573837
0.032525114
0.032479428
0.032436876
0.032397548
0.03236154
0.032328928
0.032299806
0.032274233
0.03225228
0.032234005
0.032219471
0.032208742
0.032201864
0.032198886
0.03219985
0.032204793
0.03221375
0.032226749
0.032243814
0.032264965
0.032290218
0.032319587
0.03235308
0.032390706
0.03243246
0.032478345
0.032528409
0.032582642
0.032641006
0.032703489
0.032770083
0.032840782
0.032915579
0.032994471
0.033077454
0.033164529
0.0332557
0.033350974
0.033450365
0.033553893
0.033661593
0.032902716
0.032841738
0.032782441
0.032725028
0.032669676
0.03261653
0.032565726
0.032517395
0.032471667
0.032428656
0.032388476
0.032351236
0.03231703
0.032285966
0.032258126
0.032233606
0.032212477
0.032194811
0.032180677
0.032170143
0.032163273
0.032160124
0.032160745
0.032165185
0.032173485
0.032185684
0.032201813
0.032221901
0.032245971
0.032274044
0.032306135
0.032342258
0.032382421
0.032426626
0.032474876
0.03252721
0.032583641
0.032644131
0.032708667
0.032777243
0.032849855
0.032926501
0.033007176
0.033091883
0.033180623
0.033273403
0.033370233
0.03347113
0.033576118
0.033685234
0.032738892
0.03268601
0.032634481
0.032584555
0.032536422
0.032490231
0.032446129
0.032404257
0.032364756
0.032327749
0.032293364
0.032261711
0.032232901
0.032207043
0.032184231
0.032164562
0.032148116
0.032134973
0.032125208
0.032118893
0.032116098
0.032116884
0.032121306
0.032129418
0.032141264
0.032156888
0.032176325
0.032199607
0.032226763
0.032257816
0.032292785
0.032331688
0.032374535
0.032421332
0.032472082
0.032526821
0.032585574
0.032648313
0.03271502
0.032785692
0.032860328
0.032938928
0.033021491
0.03310802
0.033198521
0.033293004
0.03339148
0.033493969
0.0336005
0.033711109
0.032568026
0.03252358
0.032480146
0.032438035
0.032397442
0.032358518
0.032321423
0.03228631
0.032253329
0.032222615
0.032194302
0.03216851
0.03214536
0.032124968
0.032107436
0.032092863
0.032081339
0.03207295
0.032067778
0.032065902
0.032067394
0.032072322
0.032080746
0.032092723
0.032108304
0.032127535
0.032150457
0.032177106
0.032207513
0.032241707
0.03227971
0.032321542
0.032367218
0.032416748
0.032470136
0.032527413
0.032588614
0.032653723
0.032722719
0.032795602
0.032872373
0.032953033
0.033037586
0.033126038
0.033218397
0.033314675
0.033414888
0.033519056
0.033627212
0.033739394
0.032390569
0.032354827
0.032319822
0.032285843
0.032253089
0.032221727
0.03219193
0.032163863
0.032137683
0.032113539
0.032091567
0.032071898
0.032054666
0.032039992
0.032027984
0.032018747
0.032012378
0.03200897
0.032008613
0.03201139
0.032017379
0.032026651
0.032039274
0.032055309
0.03207481
0.032097829
0.03212441
0.032154595
0.032188419
0.032225912
0.032267103
0.032312014
0.032360663
0.032413064
0.032469227
0.032529176
0.032592948
0.032660548
0.032731952
0.032807159
0.032886173
0.032969
0.033055647
0.033146121
0.033240433
0.033338599
0.033440638
0.033546572
0.033656436
0.033770271
0.032207054
0.032180306
0.032154015
0.03212845
0.032103811
0.032080287
0.032058061
0.032037308
0.032018196
0.032000881
0.031985506
0.03197221
0.031961144
0.03195243
0.031946182
0.03194251
0.031941521
0.031943314
0.031947984
0.031955623
0.031966312
0.031980127
0.031997141
0.032017419
0.032041022
0.032068005
0.032098417
0.032132303
0.032169704
0.032210653
0.032255182
0.032303317
0.032355081
0.032410491
0.032469561
0.032532311
0.032598781
0.03266899
0.032742916
0.032820559
0.032901926
0.032987024
0.033075865
0.033168458
0.033264819
0.033364965
0.033468918
0.033576704
0.033688359
0.033803927
0.03201817
0.032000673
0.031983343
0.031966438
0.031950165
0.031934727
0.03192032
0.031907129
0.031895329
0.031885085
0.031876545
0.031869855
0.031865188
0.031862661
0.031862394
0.031864506
0.03186911
0.031876312
0.031886214
0.031898914
0.031914496
0.031933043
0.031954632
0.031979334
0.032007213
0.032038329
0.032072737
0.032110485
0.032151618
0.032196174
0.032244188
0.032295689
0.032350705
0.032409256
0.032471361
0.032537038
0.032606328
0.032679261
0.032755822
0.03283601
0.032919834
0.033007307
0.03309844
0.033193249
0.033291751
0.033393966
0.03349992
0.033609641
0.033723169
0.033840547
0.03182475
0.031816713
0.031808549
0.031800511
0.031792818
0.031785686
0.031779317
0.031773906
0.031769636
0.03176668
0.031765192
0.031765323
0.031767268
0.031771134
0.031777052
0.03178515
0.031795546
0.031808351
0.031823676
0.031841624
0.031862282
0.031885738
0.031912077
0.031941371
0.031973692
0.032009102
0.032047662
0.032089424
0.032134437
0.032182743
0.032234381
0.032289384
0.032347783
0.032409603
0.032474866
0.03254359
0.032615815
0.032691584
0.032770888
0.032853726
0.032940109
0.033030054
0.033123575
0.033220691
0.033321423
0.033425795
0.033533833
0.033645572
0.03376105
0.033880317
0.031627776
0.031629351
0.031630509
0.031631504
0.031632566
0.031633917
0.03163577
0.031638324
0.03164177
0.031646288
0.031652041
0.031659192
0.031667926
0.031678369
0.031690658
0.031704923
0.031721289
0.031739875
0.031760796
0.031784164
0.031810064
0.031838593
0.031869842
0.031903886
0.031940801
0.031980655
0.032023512
0.03206943
0.032118461
0.032170651
0.032226043
0.032284675
0.032346579
0.032411787
0.032480323
0.032552208
0.032627479
0.032706189
0.032788338
0.032873924
0.032962963
0.033055472
0.033151471
0.033250983
0.03335403
0.03346064
0.033570844
0.033684677
0.033802183
0.033923412
0.031428383
0.031439661
0.031450244
0.031460387
0.031470329
0.031480298
0.031490511
0.031501175
0.031512487
0.031524631
0.031537781
0.031552109
0.031567789
0.031584966
0.031603781
0.03162437
0.031646864
0.031671386
0.031698058
0.031726991
0.031758281
0.031792031
0.031828333
0.031867267
0.031908914
0.031953346
0.032000631
0.032050834
0.032104008
0.032160205
0.032219471
0.032281846
0.032347369
0.032416073
0.032487987
0.032563137
0.032641559
0.032723306
0.032808393
0.03289682
0.032988602
0.033083763
0.033182325
0.033284313
0.033389755
0.033498682
0.033611126
0.033727128
0.033846733
0.033969995
0.031227871
0.031248874
0.031268922
0.031288269
0.031307161
0.031325827
0.031344491
0.031363363
0.031382646
0.031402528
0.031423191
0.031444812
0.031467562
0.031491598
0.031517064
0.031544104
0.031572852
0.031603438
0.031635986
0.031670612
0.03170742
0.031746514
0.03178799
0.031831934
0.031878432
0.031927558
0.031979387
0.032033986
0.032091414
0.032151725
0.032214968
0.032281189
0.03235043
0.032422727
0.032498114
0.032576621
0.032658285
0.032743158
0.032831269
0.032922617
0.033017224
0.033115114
0.033216315
0.033320855
0.033428766
0.033540079
0.033654835
0.033773073
0.033894844
0.034020205
0.031027697
0.031058374
0.031087856
0.031116396
0.031144243
0.031171628
0.031198777
0.031225902
0.031253209
0.031280893
0.031309138
0.031338125
0.031368027
0.031399006
0.031431214
0.031464796
0.031499892
0.031536637
0.031575159
0.031615575
0.031657998
0.031702534
0.031749283
0.031798335
0.031849777
0.031903693
0.031960159
0.032019247
0.032081019
0.032145534
0.032212843
0.032282995
0.032356038
0.03243201
0.03251095
0.032592893
0.032677877
0.032765953
0.03285716
0.032951502
0.033049004
0.033149693
0.0332536
0.033360759
0.033471202
0.033584967
0.033702096
0.033822633
0.033946632
0.034074152
0.030829478
0.030869694
0.0309085
0.030946148
0.030982885
0.031018942
0.031054544
0.031089905
0.031125233
0.031160726
0.03119657
0.031232949
0.031270037
0.031308
0.031346994
0.031387169
0.031428669
0.031471631
0.031516187
0.031562459
0.031610562
0.031660607
0.031712697
0.031766926
0.031823384
0.031882157
0.031943331
0.032006978
0.032073163
0.032141949
0.032213391
0.032287542
0.032364452
0.032444166
0.032526724
0.032612165
0.03270053
0.032791871
0.032886234
0.03298363
0.033084085
0.033187631
0.033294302
0.033404135
0.033517168
0.033633441
0.033752998
0.03387589
0.03400217
0.034131904
0.030634971
0.030684501
0.030732436
0.030779026
0.03082451
0.030869117
0.030913069
0.030956581
0.030999862
0.031043109
0.03108651
0.03113025
0.031174504
0.03121944
0.031265218
0.03131199
0.031359904
0.0314091
0.031459711
0.031511863
0.031565675
0.031621261
0.031678725
0.031738168
0.031799682
0.031863356
0.031929276
0.031997524
0.032068167
0.032141267
0.032216887
0.032295082
0.032375904
0.032459404
0.032545625
0.03263461
0.032726401
0.032821053
0.032918618
0.033019113
0.033122566
0.033229014
0.033338496
0.033451049
0.033566717
0.033685543
0.033807577
0.033932869
0.03406148
0.034193478
0.030446057
0.030504579
0.030561358
0.030616632
0.030670634
0.030723589
0.03077571
0.030827213
0.030878308
0.030929187
0.030980037
0.031031043
0.031082383
0.031134224
0.031186728
0.031240049
0.031294338
0.031349735
0.031406376
0.031464389
0.031523897
0.031585015
0.03164785
0.031712508
0.031779082
0.031847664
0.031918344
0.031991203
0.032066316
0.032143749
0.032223564
0.032305822
0.032390578
0.032477886
0.032567794
0.032660349
0.032755594
0.032853582
0.032954377
0.033058001
0.033164484
0.033273867
0.033386191
0.033501499
0.033619838
0.033741255
0.033865802
0.033993536
0.034124519
0.034258822
0.03026471
0.030331802
0.030397037
0.030460642
0.030522843
0.030583853
0.03064388
0.03070313
0.030761828
0.030820138
0.030878256
0.030936367
0.030994646
0.03105326
0.031112372
0.031172137
0.031232704
0.031294216
0.031356811
0.031420619
0.031485763
0.031552361
0.031620522
0.031690353
0.031761952
0.031835415
0.031910828
0.031988279
0.032067843
0.032149593
0.032233593
0.032319906
0.032408592
0.032499707
0.032593303
0.032689432
0.032788139
0.032889466
0.032993503
0.033100271
0.0332098
0.033322135
0.033437321
0.033555407
0.03367644
0.033800475
0.033927566
0.034057774
0.034191163
0.03432781
0.030092947
0.030168081
0.030241285
0.030312771
0.03038275
0.030451429
0.030519006
0.03058567
0.030651696
0.030717145
0.030782272
0.030847251
0.030912252
0.030977439
0.031042974
0.031109012
0.031175702
0.031243187
0.031311605
0.031381087
0.031451756
0.031523732
0.031597127
0.031672048
0.031748596
0.031826867
0.031906951
0.031988936
0.0320729
0.032158918
0.032247062
0.032337394
0.032429978
0.032524871
0.032622132
0.032721816
0.032823972
0.032928617
0.033035893
0.033145803
0.033258378
0.033373668
0.033491724
0.033612598
0.033736342
0.033863013
0.03399267
0.034125377
0.034261203
0.034400227
0.029932769
0.030015313
0.030095895
0.030174709
0.030251952
0.030327818
0.030402502
0.030476191
0.030549082
0.030621334
0.030693141
0.030764675
0.030836104
0.030907591
0.030979295
0.031051369
0.031123962
0.031197215
0.031271265
0.031346242
0.031422273
0.031499475
0.031577962
0.031657841
0.031739215
0.031822182
0.031906833
0.031993255
0.032081531
0.032171739
0.032263951
0.032358235
0.032454654
0.032553272
0.032654148
0.032757338
0.032862894
0.032970867
0.033081347
0.033194371
0.033309976
0.033428211
0.033549133
0.033672795
0.033799256
0.033928574
0.034060815
0.034196043
0.034334333
0.034475768
0.029786091
0.029875309
0.029962574
0.030048063
0.030131955
0.030214432
0.030295674
0.030375858
0.030455166
0.030533763
0.030611825
0.030689519
0.030767003
0.030844441
0.030921987
0.030999791
0.031077998
0.031156749
0.031236179
0.031316418
0.031397588
0.03147981
0.031563196
0.031647854
0.031733887
0.031821392
0.031910464
0.03200119
0.032093654
0.032187935
0.032284109
0.032382247
0.032482414
0.032584675
0.032689093
0.032795726
0.032904633
0.033015872
0.033129519
0.033245624
0.03336423
0.033485391
0.033609165
0.03373561
0.033864788
0.033996762
0.0341316
0.034269372
0.034410155
0.034554035
0.029654646
0.029749705
0.029842862
0.029934274
0.030024104
0.030112517
0.030199678
0.030285755
0.030370913
0.030455317
0.030539127
0.0306225
0.030705594
0.030788558
0.030871546
0.030954702
0.03103817
0.031122086
0.031206583
0.031291787
0.031377822
0.031464803
0.031552845
0.031642053
0.031732532
0.031824378
0.031917685
0.032012543
0.032109035
0.032207242
0.032307241
0.032409108
0.032512908
0.032618709
0.032726575
0.03283657
0.032948754
0.033063191
0.03317995
0.033299093
0.033420665
0.033544724
0.033671332
0.03380055
0.033932445
0.034067083
0.034204535
0.034344875
0.034488183
0.03463455
0.029539892
0.029639879
0.029738043
0.029834536
0.029929501
0.030023087
0.030115443
0.030206723
0.03029708
0.030386667
0.030475636
0.030564135
0.03065231
0.030740307
0.030828267
0.030916333
0.031004642
0.031093328
0.031182519
0.031272339
0.031362908
0.03145434
0.031546747
0.031640234
0.031734903
0.031830852
0.031928173
0.032026956
0.032127285
0.032229242
0.032332905
0.032438351
0.032545649
0.032654867
0.032766072
0.032879331
0.032994707
0.033112264
0.033232075
0.033354204
0.033478702
0.03360563
0.033735053
0.033867037
0.034001651
0.034138966
0.034279055
0.034421997
0.034567874
0.03471678
0.029337211
0.029442908
0.029546859
0.029649052
0.029749711
0.029848928
0.029946846
0.030043595
0.030139313
0.03023414
0.030328216
0.030421683
0.030514681
0.030607345
0.030699811
0.030792215
0.030884687
0.030977362
0.031070368
0.03116383
0.031257866
0.031352593
0.031448123
0.031544564
0.031642019
0.031740589
0.03184037
0.031941454
0.032043929
0.03214788
0.032253388
0.032360533
0.032469391
0.032580036
0.032692535
0.03280696
0.032923376
0.03304185
0.03316245
0.033285247
0.033410311
0.033537697
0.033667468
0.033799693
0.033934442
0.034071787
0.034211802
0.034354564
0.034500154
0.034648658
0.034800173
0.029256029
0.02936437
0.029471115
0.029576381
0.029680271
0.029782787
0.029884141
0.029984416
0.030083747
0.030182255
0.030280069
0.030377317