/*--------------------------------*- C++ -*----------------------------------*\
| =========                 |                                                 |
| \\      /  F ield         | OpenFOAM: The Open Source CFD Toolbox           |
|  \\    /   O peration     | Version:  2312                                  |
|   \\  /    A nd           | Website:  www.openfoam.com                      |
|    \\/     M anipulation  |                                                 |
\*---------------------------------------------------------------------------*/
FoamFile
{
    version     2.0;
    format      ascii;
    arch        "LSB;label=32;scalar=64";
    class       surfaceScalarField;
    location    "0.06";
    object      phi;
}
// * * * * * * * * * * * * * * * * * * * * * * * * * * * * * * * * * * * * * //

dimensions      [1 0 -1 0 0 0 0];

oriented        oriented;

internalField   nonuniform List<scalar> 
6383
(
1.7258637e-07
1.845488e-09
1.7077996e-07
1.8339145e-09
1.6898339e-07
1.823835e-09
1.6719539e-07
1.8150708e-09
1.6541481e-07
1.8074722e-09
1.6364057e-07
1.8009224e-09
1.6187169e-07
1.79529e-09
1.6010726e-07
1.7904741e-09
1.5834645e-07
1.7863641e-09
1.565885e-07
1.7828671e-09
1.548327e-07
1.779889e-09
1.5307843e-07
1.7773446e-09
1.513251e-07
1.7751538e-09
1.4957219e-07
1.773235e-09
1.478192e-07
1.771521e-09
1.4606571e-07
1.7699363e-09
1.4431135e-07
1.7684301e-09
1.4255576e-07
1.7669343e-09
1.4079865e-07
1.7654142e-09
1.3903974e-07
1.7638064e-09
1.3727883e-07
1.7620861e-09
1.3551573e-07
1.7601852e-09
1.3375031e-07
1.7580959e-09
1.3198247e-07
1.7557777e-09
1.3021217e-07
1.7532149e-09
1.284394e-07
1.7503299e-09
1.2666431e-07
1.7469788e-09
1.2488703e-07
1.7432233e-09
1.2310764e-07
1.739232e-09
1.2132619e-07
1.7349898e-09
1.1954283e-07
1.7305037e-09
1.1775777e-07
1.7256875e-09
1.1597133e-07
1.7205322e-09
1.1418384e-07
1.715004e-09
1.1239568e-07
1.7091178e-09
1.1060723e-07
1.7028616e-09
1.0881886e-07
1.6962508e-09
1.0703097e-07
1.6892809e-09
1.0524397e-07
1.6819626e-09
1.0345825e-07
1.6742941e-09
1.0167424e-07
1.6662879e-09
9.9892378e-08
1.6579335e-09
9.8113136e-08
1.6492278e-09
9.6337032e-08
1.6400172e-09
9.4564427e-08
1.6300397e-09
9.2795585e-08
1.6195396e-09
9.1030997e-08
1.6087086e-09
8.9271159e-08
1.5976285e-09
1.5863423e-09
1.7255573e-07
3.6188386e-09
1.7075049e-07
3.5942186e-09
1.6895501e-07
3.5725017e-09
1.6716804e-07
3.5533363e-09
1.6538841e-07
3.536447e-09
1.6361505e-07
3.521587e-09
1.6184699e-07
3.508512e-09
1.6008333e-07
3.4970077e-09
1.5832325e-07
3.4868628e-09
1.5656597e-07
3.4778863e-09
1.5481082e-07
3.4698937e-09
1.5305716e-07
3.4627148e-09
1.513044e-07
3.4561884e-09
1.4955202e-07
3.4501607e-09
1.4779955e-07
3.4444915e-09
1.4604657e-07
3.4390446e-09
1.4429268e-07
3.4337049e-09
1.4253755e-07
3.4283576e-09
1.4078088e-07
3.4229098e-09
1.3902241e-07
3.4172605e-09
1.3726193e-07
3.4113268e-09
1.3549924e-07
3.4050017e-09
1.3373423e-07
3.39822e-09
1.319668e-07
3.3909268e-09
1.301969e-07
3.3830549e-09
1.2842451e-07
3.3745182e-09
1.266498e-07
3.3650248e-09
1.2487293e-07
3.3546527e-09
1.2309395e-07
3.3436959e-09
1.213129e-07
3.3321666e-09
1.1952994e-07
3.320057e-09
1.1774528e-07
3.3072453e-09
1.1595923e-07
3.2936992e-09
1.1417213e-07
3.2793869e-09
1.1238436e-07
3.2643169e-09
1.1059629e-07
3.2484893e-09
1.0880831e-07
3.2319192e-09
1.0702082e-07
3.2146136e-09
1.052342e-07
3.1965861e-09
1.0344886e-07
3.1778467e-09
1.0166524e-07
3.1584124e-09
9.988375e-08
3.1382846e-09
9.8104878e-08
3.117458e-09
9.6329107e-08
3.095807e-09
9.4556785e-08
3.0731429e-09
9.2788239e-08
3.0496644e-09
9.1023967e-08
3.0255866e-09
8.9264495e-08
3.0010056e-09
2.9759365e-09
1.7249447e-07
5.3893409e-09
1.7069162e-07
5.3518196e-09
1.6889836e-07
5.3185876e-09
1.6711345e-07
5.2891361e-09
1.6533573e-07
5.26306e-09
1.6356417e-07
5.239983e-09
1.6179778e-07
5.2195475e-09
1.6003568e-07
5.2014274e-09
1.5827705e-07
5.1853108e-09
1.5652115e-07
5.1709098e-09
1.5476728e-07
5.1579496e-09
1.5301482e-07
5.1461767e-09
1.512632e-07
5.1353487e-09
1.495119e-07
5.1252406e-09
1.4776045e-07
5.1156393e-09
1.4600843e-07
5.1063488e-09
1.4425548e-07
5.0971907e-09
1.4250124e-07
5.088003e-09
1.4074543e-07
5.0786367e-09
1.3898779e-07
5.0689537e-09
1.3722811e-07
5.0588147e-09
1.3546621e-07
5.0480712e-09
1.3370197e-07
5.0366009e-09
1.3193529e-07
5.0243378e-09
1.3016612e-07
5.011169e-09
1.2839444e-07
4.996994e-09
1.2662045e-07
4.9813624e-09
1.2484433e-07
4.9643534e-09
1.230661e-07
4.9464247e-09
1.2128581e-07
4.9276128e-09
1.1950358e-07
4.907892e-09
1.1771965e-07
4.8870948e-09
1.1593433e-07
4.8651679e-09
1.1414796e-07
4.8420797e-09
1.1236093e-07
4.8178351e-09
1.1057359e-07
4.7924447e-09
1.0878635e-07
4.7659253e-09
1.0699959e-07
4.738294e-09
1.0521371e-07
4.709568e-09
1.034291e-07
4.6797679e-09
1.0164621e-07
4.6489147e-09
9.9865445e-08
4.6170197e-09
9.8087284e-08
4.5840782e-09
9.6312177e-08
4.5500036e-09
9.4540489e-08
4.5146714e-09
9.2772593e-08
4.4782405e-09
9.1008971e-08
4.440944e-09
8.9250184e-08
4.4028611e-09
4.3640376e-09
1.7240419e-07
7.1554649e-09
1.7060502e-07
7.1052816e-09
1.6881518e-07
7.0607454e-09
1.6703346e-07
7.0212038e-09
1.6525872e-07
6.9861197e-09
1.6348993e-07
6.9549889e-09
1.6172613e-07
6.9273418e-09
1.5996645e-07
6.9027418e-09
1.5821008e-07
6.880777e-09
1.5645628e-07
6.8610639e-09
1.5470438e-07
6.8432379e-09
1.5295377e-07
6.8269631e-09
1.5120388e-07
6.8119166e-09
1.4945421e-07
6.7978026e-09
1.4770429e-07
6.7843361e-09
1.4595372e-07
6.7712611e-09
1.4420214e-07
6.7583362e-09
1.424492e-07
6.7453547e-09
1.4069464e-07
6.7321109e-09
1.3893819e-07
6.7184322e-09
1.3717965e-07
6.7041218e-09
1.3541885e-07
6.6889906e-09
1.3365569e-07
6.6728553e-09
1.3189005e-07
6.6556495e-09
1.3012188e-07
6.6372167e-09
1.2835118e-07
6.6174306e-09
1.2657816e-07
6.5956842e-09
1.2480303e-07
6.5720187e-09
1.2302582e-07
6.5471109e-09
1.2124654e-07
6.5210255e-09
1.194653e-07
6.4937098e-09
1.1768236e-07
6.4649394e-09
1.1589803e-07
6.4346401e-09
1.1411265e-07
6.4027827e-09
1.1232661e-07
6.3693688e-09
1.1054028e-07
6.3344215e-09
1.0875405e-07
6.2979581e-09
1.0696831e-07
6.2600071e-09
1.0518345e-07
6.2205882e-09
1.0339987e-07
6.1797331e-09
1.0161799e-07
6.137466e-09
9.983825e-08
6.0938091e-09
9.8061094e-08
6.048763e-09
9.6286963e-08
6.0022777e-09
9.4516233e-08
5.9542858e-09
9.2749298e-08
5.9049244e-09
9.0986647e-08
5.8544191e-09
8.9228843e-08
5.8028487e-09
5.7502884e-09
1.7228687e-07
8.915561e-09
1.7049281e-07
8.853042e-09
1.6870776e-07
8.7974987e-09
1.6693052e-07
8.7481372e-09
1.6515996e-07
8.7042961e-09
1.6339509e-07
8.6653433e-09
1.6163495e-07
8.6307012e-09
1.5987869e-07
8.5998223e-09
1.5812553e-07
8.5721974e-09
1.5637472e-07
8.5473469e-09
1.5462563e-07
8.5248186e-09
1.5287763e-07
8.5041939e-09
1.5113018e-07
8.485071e-09
1.4938279e-07
8.4670836e-09
1.4763501e-07
8.449874e-09
1.4588644e-07
8.4331275e-09
1.4413673e-07
8.4165391e-09
1.4238555e-07
8.3998592e-09
1.4063264e-07
8.382825e-09
1.3887775e-07
8.3652328e-09
1.3712068e-07
8.3468264e-09
1.3536128e-07
8.3273784e-09
1.3359945e-07
8.3066369e-09
1.3183508e-07
8.2845448e-09
1.3006811e-07
8.2609153e-09
1.2829856e-07
8.235572e-09
1.2652664e-07
8.2077717e-09
1.2475266e-07
8.1774394e-09
1.2297661e-07
8.1455547e-09
1.2119845e-07
8.1122213e-09
1.1941832e-07
8.0773377e-09
1.1763645e-07
8.0406146e-09
1.158532e-07
8.0019538e-09
1.1406891e-07
7.9613355e-09
1.1228397e-07
7.9187552e-09
1.1049875e-07
7.8742533e-09
1.0871365e-07
7.8278446e-09
1.0692904e-07
7.7795727e-09
1.0514533e-07
7.7294568e-09
1.0336292e-07
7.6775433e-09
1.0158222e-07
7.6238567e-09
9.9803662e-08
7.5684347e-09
9.8027689e-08
7.511284e-09
9.6254725e-08
7.4523942e-09
9.4485162e-08
7.3917374e-09
9.2719411e-08
7.3294431e-09
9.0957957e-08
7.2657308e-09
8.9201367e-08
7.200674e-09
7.1343824e-09
1.5242926e-07
1.046764e-08
1.508462e-07
1.0394536e-08
1.4927078e-07
1.0329548e-08
1.4770195e-07
1.0271772e-08
1.4613875e-07
1.022044e-08
1.4458031e-07
1.0174805e-08
1.4302579e-07
1.0134198e-08
1.4147447e-07
1.0097973e-08
1.3992566e-07
1.0065538e-08
1.3837872e-07
1.0036328e-08
1.3683308e-07
1.0009816e-08
1.3528822e-07
9.9855083e-09
1.3374366e-07
9.962936e-09
1.3219898e-07
9.9416694e-09
1.3065378e-07
9.9212882e-09
1.2910774e-07
9.9014234e-09
1.2756053e-07
9.8817154e-09
1.2601191e-07
9.8618768e-09
1.2446162e-07
9.841597e-09
1.2290946e-07
9.8206442e-09
1.2135527e-07
9.7987105e-09
1.1979891e-07
9.7755309e-09
1.1824032e-07
9.7507902e-09
1.1667941e-07
9.7244435e-09
1.1511611e-07
9.6963079e-09
1.1355044e-07
9.6661072e-09
1.1198262e-07
9.6330362e-09
1.1041302e-07
9.5968078e-09
1.0884157e-07
9.5587584e-09
1.0726822e-07
9.5190492e-09
1.0569306e-07
9.4775061e-09
1.0411635e-07
9.4337722e-09
1.0253839e-07
9.3877293e-09
1.0095952e-07
9.3393681e-09
9.9380077e-08
9.2886808e-09
9.7800398e-08
9.235724e-09
9.622083e-08
9.1805114e-09
9.4641715e-08
9.1231005e-09
9.3063406e-08
9.0635108e-09
9.1486259e-08
9.0018018e-09
8.9910643e-08
8.9379993e-09
8.8336932e-08
8.8721557e-09
8.6765513e-08
8.8042847e-09
8.5196761e-08
8.7344065e-09
8.3631031e-08
8.6625249e-09
8.2068692e-08
8.5887714e-09
8.0510178e-08
8.5133529e-09
7.8955984e-08
8.4363546e-09
8.3579023e-09
1.5650844e-07
1.2055617e-08
1.5488761e-07
1.1972013e-08
1.5327425e-07
1.1897666e-08
1.5166731e-07
1.1831556e-08
1.5006584e-07
1.177281e-08
1.4846896e-07
1.1720571e-08
1.4687584e-07
1.1674075e-08
1.4528575e-07
1.1632579e-08
1.4369799e-07
1.1595406e-08
1.4211194e-07
1.1561906e-08
1.4052702e-07
1.1531474e-08
1.3894271e-07
1.1503544e-08
1.3735854e-07
1.1477577e-08
1.3577407e-07
1.145308e-08
1.3418892e-07
1.1429568e-08
1.3260276e-07
1.1406616e-08
1.3101529e-07
1.1383811e-08
1.2942623e-07
1.1360827e-08
1.2783535e-07
1.1337306e-08
1.2624245e-07
1.1312989e-08
1.2464735e-07
1.1287517e-08
1.2304995e-07
1.1260588e-08
1.2145018e-07
1.1231813e-08
1.1984796e-07
1.1201162e-08
1.1824317e-07
1.1168497e-08
1.1663589e-07
1.113335e-08
1.1502632e-07
1.1094992e-08
1.1341497e-07
1.1052706e-08
1.1180174e-07
1.1008322e-08
1.1018649e-07
1.0962112e-08
1.0856932e-07
1.0913777e-08
1.0695051e-07
1.0862884e-08
1.053304e-07
1.0809294e-08
1.0370933e-07
1.0753011e-08
1.0208765e-07
1.0694027e-08
1.0046572e-07
1.0632413e-08
9.8843887e-08
1.0568183e-08
9.7222508e-08
1.0501409e-08
9.5601944e-08
1.0432109e-08
9.3982561e-08
1.0360357e-08
9.2364738e-08
1.0286182e-08
9.0748859e-08
1.0209651e-08
8.9135316e-08
1.0130786e-08
8.7524492e-08
1.0049639e-08
8.591676e-08
9.9662376e-09
8.4312507e-08
9.8807201e-09
8.271218e-08
9.7932846e-09
8.1116288e-08
9.7040268e-09
9.6130892e-09
1.6067281e-07
1.3679206e-08
1.5901426e-07
1.3585262e-08
1.5736293e-07
1.3501704e-08
1.557178e-07
1.3427397e-08
1.5407791e-07
1.3361365e-08
1.524424e-07
1.330264e-08
1.5081045e-07
1.3250367e-08
1.4918132e-07
1.3203702e-08
1.4755433e-07
1.3161885e-08
1.4592885e-07
1.312418e-08
1.4430432e-07
1.3089906e-08
1.4268021e-07
1.3058423e-08
1.4105605e-07
1.3029123e-08
1.3943143e-07
1.3001446e-08
1.3780595e-07
1.2974845e-08
1.3617928e-07
1.2948836e-08
1.3455114e-07
1.2922952e-08
1.3292126e-07
1.289683e-08
1.3128939e-07
1.2870072e-08
1.2965534e-07
1.2842385e-08
1.2801894e-07
1.2813366e-08
1.2638006e-07
1.2782673e-08
1.2473869e-07
1.2749834e-08
1.2309473e-07
1.2714836e-08
1.2144796e-07
1.2677644e-08
1.1979862e-07
1.2637431e-08
1.1814677e-07
1.2593837e-08
1.1649319e-07
1.254533e-08
1.148377e-07
1.2494422e-08
1.1318004e-07
1.2441601e-08
1.1152033e-07
1.2386361e-08
1.0985886e-07
1.2328177e-08
1.08196e-07
1.2266896e-08
1.0653211e-07
1.2202536e-08
1.0486755e-07
1.2135088e-08
1.032027e-07
1.2064639e-08
1.015379e-07
1.1991204e-08
9.9873532e-08
1.1914864e-08
9.8209958e-08
1.1835643e-08
9.6547556e-08
1.1753625e-08
9.4886716e-08
1.1668843e-08
9.322783e-08
1.158138e-08
9.1571302e-08
1.149127e-08
8.9917524e-08
1.1398589e-08
8.8266888e-08
1.1303389e-08
8.6619797e-08
1.1205817e-08
8.4976717e-08
1.1106063e-08
8.333817e-08
1.1004239e-08
1.0900498e-08
1.6492261e-07
1.5337798e-08
1.6322669e-07
1.5233754e-08
1.6153767e-07
1.5141205e-08
1.5985455e-07
1.5058903e-08
1.5817639e-07
1.4985768e-08
1.5650232e-07
1.4920729e-08
1.5483157e-07
1.4862833e-08
1.5316338e-07
1.4811143e-08
1.5149709e-07
1.4764812e-08
1.4983208e-07
1.472302e-08
1.481678e-07
1.4685011e-08
1.4650371e-07
1.4650069e-08
1.4483937e-07
1.4617519e-08
1.4317435e-07
1.4586736e-08
1.4150828e-07
1.4557108e-08
1.3984083e-07
1.452809e-08
1.3817171e-07
1.4499163e-08
1.3650067e-07
1.4469929e-08
1.3482746e-07
1.4439953e-08
1.3315188e-07
1.4408907e-08
1.3147374e-07
1.4376351e-08
1.2979295e-07
1.4341907e-08
1.281095e-07
1.4304999e-08
1.264233e-07
1.4265631e-08
1.2473402e-07
1.4223954e-08
1.2304207e-07
1.4178506e-08
1.213473e-07
1.4129844e-08
1.1965087e-07
1.4074977e-08
1.1795254e-07
1.4017326e-08
1.1625184e-07
1.3957815e-08
1.1454889e-07
1.3895574e-08
1.1284404e-07
1.3829991e-08
1.1113768e-07
1.3760899e-08
1.0943021e-07
1.3688327e-08
1.0772198e-07
1.3612273e-08
1.0601338e-07
1.3532832e-08
1.0430478e-07
1.3450022e-08
1.0259655e-07
1.3363935e-08
1.0088907e-07
1.3274599e-08
9.918274e-08
1.3182106e-08
9.7477953e-08
1.3086498e-08
9.5775116e-08
1.298787e-08
9.407464e-08
1.2886272e-08
9.2376936e-08
1.2781799e-08
9.0682412e-08
1.2674528e-08
8.8991493e-08
1.2564614e-08
8.730466e-08
1.2452243e-08
8.5622456e-08
1.2337542e-08
1.2220675e-08
1.6925729e-07
1.7030522e-08
1.6752458e-07
1.6916712e-08
1.6579836e-07
1.6815476e-08
1.6407764e-07
1.6725458e-08
1.6236153e-07
1.6645476e-08
1.6064917e-07
1.6574357e-08
1.5893979e-07
1.6511051e-08
1.5723267e-07
1.6454533e-08
1.5552715e-07
1.6403868e-08
1.5382263e-07
1.6358154e-08
1.5211855e-07
1.6316557e-08
1.5041441e-07
1.6278292e-08
1.4870975e-07
1.6242613e-08
1.4700417e-07
1.6208832e-08
1.4529728e-07
1.6176271e-08
1.4358879e-07
1.6144323e-08
1.418784e-07
1.6112415e-08
1.4016587e-07
1.6080119e-08
1.3845095e-07
1.6046976e-08
1.3673343e-07
1.6012608e-08
1.3501313e-07
1.5976551e-08
1.3328994e-07
1.59384e-08
1.3156391e-07
1.589745e-08
1.2983494e-07
1.5853732e-08
1.2810251e-07
1.5807661e-08
1.2636739e-07
1.5756702e-08
1.2462898e-07
1.570331e-08
1.2288901e-07
1.5641995e-08
1.2114722e-07
1.5577327e-08
1.1940277e-07
1.5511081e-08
1.1765585e-07
1.5441756e-08
1.1590684e-07
1.5368682e-08
1.1415619e-07
1.5291679e-08
1.124043e-07
1.5210781e-08
1.1065157e-07
1.5125996e-08
1.0889836e-07
1.5037421e-08
1.0714507e-07
1.4945086e-08
1.0539208e-07
1.4849082e-08
1.0363978e-07
1.4749448e-08
1.0188859e-07
1.4646281e-08
1.0013891e-07
1.4539636e-08
9.8391167e-08
1.4429617e-08
9.6645781e-08
1.431629e-08
9.4903182e-08
1.419977e-08
9.3163795e-08
1.4080154e-08
9.1428068e-08
1.3957608e-08
8.9696501e-08
1.3832317e-08
8.7969655e-08
1.3704425e-08
1.3574106e-08
1.7367534e-07
1.8756268e-08
1.7190662e-07
1.8633137e-08
1.7014387e-07
1.8523618e-08
1.6838614e-07
1.8426256e-08
1.6663255e-07
1.8339765e-08
1.6488229e-07
1.8262878e-08
1.631346e-07
1.8194451e-08
1.6138878e-07
1.8133369e-08
1.596442e-07
1.8078611e-08
1.5790025e-07
1.8029196e-08
1.5615641e-07
1.7984214e-08
1.5441219e-07
1.794281e-08
1.5266714e-07
1.7904172e-08
1.5092084e-07
1.7867545e-08
1.4917296e-07
1.7832189e-08
1.4742318e-07
1.7797427e-08
1.4567124e-07
1.7762636e-08
1.439169e-07
1.7727361e-08
1.4215989e-07
1.7691134e-08
1.4040003e-07
1.7653509e-08
1.3863711e-07
1.7614011e-08
1.3687103e-07
1.7572239e-08
1.351019e-07
1.7527315e-08
1.333296e-07
1.7479335e-08
1.3155335e-07
1.7428988e-08
1.2977453e-07
1.737205e-08
1.2799168e-07
1.7314502e-08
1.2620744e-07
1.7246753e-08
1.2442157e-07
1.7174699e-08
1.2263265e-07
1.710171e-08
1.2084099e-07
1.702521e-08
1.1904705e-07
1.6944573e-08
1.172513e-07
1.6859574e-08
1.1545418e-07
1.6770252e-08
1.1365608e-07
1.6676625e-08
1.1185741e-07
1.6578791e-08
1.1005855e-07
1.6476786e-08
1.0825992e-07
1.6370706e-08
1.0646191e-07
1.6260598e-08
1.0466495e-07
1.6146565e-08
1.0286946e-07
1.6028674e-08
1.0107588e-07
1.5907039e-08
9.9284657e-08
1.5781744e-08
9.7496226e-08
1.5652921e-08
9.5711039e-08
1.5520685e-08
9.3929564e-08
1.5385214e-08
9.215232e-08
1.5246695e-08
9.0379891e-08
1.510529e-08
1.4961185e-08
1.781742e-07
2.0513713e-08
1.7637044e-07
2.0381828e-08
1.74572e-07
2.0264543e-08
1.7277798e-07
2.0160313e-08
1.7098753e-07
2.0067752e-08
1.6919988e-07
1.9985502e-08
1.674143e-07
1.9912324e-08
1.6563011e-07
1.9847019e-08
1.638467e-07
1.9788482e-08
1.6206351e-07
1.9735654e-08
1.6028001e-07
1.9687551e-08
1.5849574e-07
1.9643251e-08
1.5671025e-07
1.9601876e-08
1.5492315e-07
1.9562608e-08
1.5313411e-07
1.9524642e-08
1.5134284e-07
1.9487223e-08
1.495491e-07
1.9449683e-08
1.4775264e-07
1.9411542e-08
1.4595321e-07
1.9372357e-08
1.4415061e-07
1.9331567e-08
1.4234465e-07
1.9288715e-08
1.405352e-07
1.9243445e-08
1.3872248e-07
1.9194665e-08
1.3690627e-07
1.9142639e-08
1.3508551e-07
1.9088116e-08
1.332626e-07
1.9024458e-08
1.3143445e-07
1.8963573e-08
1.2960518e-07
1.8889603e-08
1.2777468e-07
1.8809653e-08
1.2594061e-07
1.872995e-08
1.2410349e-07
1.8646162e-08
1.2226385e-07
1.85579e-08
1.2042223e-07
1.8464838e-08
1.1857908e-07
1.8367013e-08
1.1673483e-07
1.8264446e-08
1.1488988e-07
1.8157236e-08
1.1304463e-07
1.8045428e-08
1.111995e-07
1.7929118e-08
1.0935493e-07
1.7808366e-08
1.0751133e-07
1.7683278e-08
1.0566917e-07
1.7553936e-08
1.0382888e-07
1.7420462e-08
1.0199093e-07
1.728296e-08
1.0015578e-07
1.7141573e-08
9.8323907e-08
1.6996441e-08
9.6495791e-08
1.6847748e-08
9.4671977e-08
1.6695689e-08
9.285307e-08
1.6540446e-08
1.6382214e-08
1.8275046e-07
2.2301316e-08
1.8091279e-07
2.2161384e-08
1.7907966e-07
2.2036978e-08
1.7725022e-07
2.1926474e-08
1.7542366e-07
2.1828389e-08
1.7359926e-07
2.174128e-08
1.7177632e-07
2.1663816e-08
1.699542e-07
2.1594716e-08
1.6813231e-07
2.1532792e-08
1.6631013e-07
2.1476913e-08
1.6448715e-07
2.1426022e-08
1.6266292e-07
2.1379132e-08
1.6083703e-07
2.1335302e-08
1.5900911e-07
2.1293652e-08
1.5717881e-07
2.1253309e-08
1.5534589e-07
2.1213439e-08
1.5351014e-07
2.1173319e-08
1.5167134e-07
2.113246e-08
1.4982917e-07
2.109049e-08
1.479835e-07
2.1046653e-08
1.4613412e-07
2.1000546e-08
1.4428088e-07
2.0951938e-08
1.4242416e-07
2.08995e-08
1.4056343e-07
2.0843909e-08
1.3869747e-07
2.0785112e-08
1.3683031e-07
2.0713774e-08
1.3495597e-07
2.0650445e-08
1.3308088e-07
2.0570752e-08
1.3120529e-07
2.0482333e-08
1.2932542e-07
2.0395956e-08
1.2744218e-07
2.030471e-08
1.2555614e-07
2.0208789e-08
1.2366792e-07
2.0107622e-08
1.2177802e-07
2.0001231e-08
1.1988686e-07
1.9889642e-08
1.1799486e-07
1.977295e-08
1.1610244e-07
1.9651212e-08
1.1421004e-07
1.9524527e-08
1.1231809e-07
1.9392965e-08
1.1042706e-07
1.9256639e-08
1.0853739e-07
1.9115642e-08
1.0664957e-07
1.8970109e-08
1.0476406e-07
1.8820159e-08
1.0288136e-07
1.8665952e-08
1.0100195e-07
1.8507643e-08
9.912635e-08
1.834543e-08
9.7255115e-08
1.8179518e-08
9.5388878e-08
1.8010104e-08
1.7837403e-08
1.8739997e-07
2.4117309e-08
1.8552974e-07
2.3970182e-08
1.8366309e-07
2.383944e-08
1.8179925e-07
2.3723383e-08
1.7993749e-07
2.3620442e-08
1.7807712e-07
2.3529088e-08
1.7621748e-07
2.3447904e-08
1.7435798e-07
2.3375531e-08
1.7249808e-07
2.3310701e-08
1.7063727e-07
2.3252212e-08
1.6877509e-07
2.3198938e-08
1.6691112e-07
2.3149831e-08
1.6504495e-07
2.310389e-08
1.6317624e-07
2.3060177e-08
1.6130467e-07
2.3017747e-08
1.5943003e-07
2.2975679e-08
1.5755215e-07
2.293319e-08
1.5567083e-07
2.2889791e-08
1.5378571e-07
2.2845274e-08
1.518967e-07
2.2798532e-08
1.500036e-07
2.2749289e-08
1.4810623e-07
2.2697531e-08
1.4620517e-07
2.2641759e-08
1.442993e-07
2.2583492e-08
1.4238741e-07
2.2519899e-08
1.4047627e-07
2.2440204e-08
1.3855465e-07
2.2374593e-08
1.3663299e-07
2.228998e-08
1.3471193e-07
2.2192786e-08
1.3278568e-07
2.2099743e-08
1.3085573e-07
2.2000796e-08
1.2892265e-07
2.1897232e-08
1.2698719e-07
2.178796e-08
1.2504985e-07
2.1672966e-08
1.2311109e-07
2.1552286e-08
1.2117133e-07
2.1426019e-08
1.1923101e-07
2.1294237e-08
1.172906e-07
2.1157038e-08
1.1535053e-07
2.1014507e-08
1.134113e-07
2.0866762e-08
1.1147336e-07
2.0713912e-08
1.0953722e-07
2.05561e-08
1.0760338e-07
2.0393466e-08
1.0567233e-07
2.0226179e-08
1.0374459e-07
2.0054415e-08
1.0182069e-07
1.9878383e-08
9.9901227e-08
1.96983e-08
9.7986844e-08
1.9514385e-08
1.9326868e-08
1.921181e-07
2.5959669e-08
1.9021682e-07
2.5806363e-08
1.8831803e-07
2.5670214e-08
1.8642102e-07
2.5549469e-08
1.8452513e-07
2.5442467e-08
1.8262971e-07
2.5347604e-08
1.8073419e-07
2.5263376e-08
1.7883802e-07
2.5188352e-08
1.769407e-07
2.5121189e-08
1.7504176e-07
2.5060617e-08
1.7314079e-07
2.5005445e-08
1.7123738e-07
2.4954566e-08
1.6933118e-07
2.4906927e-08
1.6742184e-07
2.4861533e-08
1.6550908e-07
2.4817366e-08
1.6359274e-07
2.4773405e-08
1.6167269e-07
2.4728802e-08
1.5974881e-07
2.4683076e-08
1.5782057e-07
2.4636348e-08
1.5588804e-07
2.4586879e-08
1.5395102e-07
2.4534638e-08
1.5200933e-07
2.4479913e-08
1.5006369e-07
2.4421443e-08
1.4811207e-07
2.4361725e-08
1.4615299e-07
2.4292346e-08
1.4419924e-07
2.4205639e-08
1.4222898e-07
2.4134385e-08
1.4025973e-07
2.4045981e-08
1.382931e-07
2.394075e-08
1.3631987e-07
2.3841113e-08
1.3434275e-07
2.3734138e-08
1.3236208e-07
2.3623078e-08
1.3037876e-07
2.3505767e-08
1.2839336e-07
2.3382165e-08
1.2640635e-07
2.3252345e-08
1.2441818e-07
2.3116423e-08
1.224293e-07
2.2974489e-08
1.2044018e-07
2.2826646e-08
1.1845129e-07
2.2672995e-08
1.1646314e-07
2.2513657e-08
1.1447621e-07
2.2348761e-08
1.1249103e-07
2.2178456e-08
1.1050809e-07
2.2002901e-08
1.0852794e-07
2.1822279e-08
1.0655111e-07
2.1636783e-08
1.0457815e-07
2.1446634e-08
1.0260968e-07
2.1252064e-08
1.0064637e-07
2.1053311e-08
2.0850631e-08
1.9689977e-07
2.7826093e-08
1.9496921e-07
2.7667786e-08
1.9303987e-07
2.7527332e-08
1.9111111e-07
2.7402912e-08
1.8918234e-07
2.7292788e-08
1.8725302e-07
2.7195278e-08
1.853226e-07
2.7108802e-08
1.8339062e-07
2.7031859e-08
1.8145662e-07
2.6963036e-08
1.7952019e-07
2.6901e-08
1.7758097e-07
2.6844499e-08
1.7563858e-07
2.6792375e-08
1.736927e-07
2.674352e-08
1.7174301e-07
2.6696899e-08
1.6978926e-07
2.665141e-08
1.6783133e-07
2.6605927e-08
1.658692e-07
2.6559515e-08
1.639028e-07
2.651172e-08
1.6193138e-07
2.6463266e-08
1.5995526e-07
2.6411306e-08
1.5797421e-07
2.6356284e-08
1.5598823e-07
2.6298737e-08
1.5399784e-07
2.6238904e-08
1.5199995e-07
2.6178481e-08
1.499922e-07
2.6101052e-08
1.4799673e-07
2.6021338e-08
1.459774e-07
2.592354e-08
1.4395944e-07
2.5833465e-08
1.4194749e-07
2.5725541e-08
1.3992642e-07
2.5619579e-08
1.3790176e-07
2.5504222e-08
1.3587302e-07
2.5386011e-08
1.338413e-07
2.5260846e-08
1.3180727e-07
2.5128666e-08
1.2977142e-07
2.4989674e-08
1.2773423e-07
2.484403e-08
1.2569615e-07
2.4691848e-08
1.2365769e-07
2.4533241e-08
1.2161934e-07
2.4368324e-08
1.195816e-07
2.4197229e-08
1.17545e-07
2.4020098e-08
1.1551007e-07
2.3837091e-08
1.1347734e-07
2.3648385e-08
1.1144738e-07
2.3454175e-08
1.0942073e-07
2.3254672e-08
1.0739798e-07
2.3050108e-08
1.0537977e-07
2.2840732e-08
1.0336679e-07
2.2626809e-08
2.2408616e-08
2.0173955e-07
2.9713972e-08
1.9978174e-07
2.9552033e-08
1.9782366e-07
2.940854e-08
1.9586479e-07
2.9281628e-08
1.9390463e-07
2.916947e-08
1.919427e-07
2.9070316e-08
1.8997857e-07
2.8982515e-08
1.8801182e-07
2.8904502e-08
1.8604206e-07
2.8834802e-08
1.8406895e-07
2.8772023e-08
1.8209216e-07
2.8714854e-08
1.8011139e-07
2.8662094e-08
1.7812633e-07
2.8612588e-08
1.761367e-07
2.8565269e-08
1.7414226e-07
2.8518951e-08
1.7214298e-07
2.8472388e-08
1.7013897e-07
2.8424538e-08
1.6813026e-07
2.8374982e-08
1.6611566e-07
2.8325531e-08
1.6409596e-07
2.8271433e-08
1.6207092e-07
2.8214083e-08
1.6004079e-07
2.815418e-08
1.5800619e-07
2.8095111e-08
1.5595987e-07
2.8032174e-08
1.539057e-07
2.7937654e-08
1.5186168e-07
2.7859124e-08
1.4979885e-07
2.7754824e-08
1.4773174e-07
2.7657985e-08
1.4567392e-07
2.7558148e-08
1.4360379e-07
2.7438085e-08
1.4153127e-07
2.7310405e-08
1.3945404e-07
2.7185579e-08
1.3737342e-07
2.7052894e-08
1.3529022e-07
2.6912205e-08
1.3320499e-07
2.6764017e-08
1.3111822e-07
2.6608594e-08
1.2903038e-07
2.6446078e-08
1.2694198e-07
2.6276597e-08
1.2485355e-07
2.610028e-08
1.227656e-07
2.591727e-08
1.2067869e-07
2.5727722e-08
1.1859337e-07
2.5531811e-08
1.1651019e-07
2.5329728e-08
1.1442974e-07
2.5121682e-08
1.1235258e-07
2.4907898e-08
1.1027935e-07
2.4688626e-08
1.0821069e-07
2.4464128e-08
1.0614735e-07
2.4234695e-08
2.4000642e-08
2.0663162e-07
3.1620351e-08
2.0464884e-07
3.145634e-08
2.026641e-07
3.1311291e-08
2.0067699e-07
3.1183244e-08
1.9868713e-07
3.1070305e-08
1.9669414e-07
3.0970658e-08
1.9469767e-07
3.0882593e-08
1.9269738e-07
3.0804488e-08
1.9069296e-07
3.073481e-08
1.8868413e-07
3.0672116e-08
1.8667065e-07
3.061504e-08
1.8465224e-07
3.0562347e-08
1.8262866e-07
3.0512838e-08
1.8059962e-07
3.0465439e-08
1.7856495e-07
3.0418867e-08
1.7652467e-07
3.0371758e-08
1.744791e-07
3.032292e-08
1.7242846e-07
3.0271989e-08
1.7037075e-07
3.02226e-08
1.6830754e-07
3.0166999e-08
1.6623881e-07
3.0108219e-08
1.6416534e-07
3.0047984e-08
1.6208576e-07
2.9997653e-08
1.5998643e-07
2.9897393e-08
1.5789085e-07
2.9813893e-08
1.5579733e-07
2.9730207e-08
1.5368935e-07
2.9624786e-08
1.515764e-07
2.9523038e-08
1.4946904e-07
2.9421553e-08
1.4735011e-07
2.9297249e-08
1.4522982e-07
2.9153742e-08
1.4310357e-07
2.9021425e-08
1.4097359e-07
2.8881543e-08
1.3884074e-07
2.8732416e-08
1.3670564e-07
2.8575003e-08
1.3456878e-07
2.8409746e-08
1.3243066e-07
2.8236821e-08
1.3029179e-07
2.8056366e-08
1.2815271e-07
2.7868525e-08
1.2601398e-07
2.767345e-08
1.2387617e-07
2.7471314e-08
1.2173984e-07
2.7262302e-08
1.196056e-07
2.7046623e-08
1.1747402e-07
2.6824497e-08
1.1534573e-07
2.6596167e-08
1.1322136e-07
2.6361893e-08
1.111016e-07
2.6121958e-08
1.0898722e-07
2.5876681e-08
2.5626414e-08
2.1156972e-07
3.3541867e-08
2.0956452e-07
3.3377638e-08
2.0755545e-07
3.3232719e-08
2.0554223e-07
3.3105086e-08
2.035246e-07
3.2992789e-08
2.015023e-07
3.2893961e-08
1.9947507e-07
3.2806841e-08
1.9744268e-07
3.2729757e-08
1.9540489e-07
3.2661127e-08
1.9336151e-07
3.2599464e-08
1.9131235e-07
3.254335e-08
1.8925724e-07
3.2491528e-08
1.8719595e-07
3.2442756e-08
1.851282e-07
3.2395986e-08
1.8305387e-07
3.2349832e-08
1.8097307e-07
3.2302822e-08
1.7888644e-07
3.2253544e-08
1.7679446e-07
3.220174e-08
1.7469383e-07
3.2153735e-08
1.7258746e-07
3.2097567e-08
1.7047524e-07
3.2039766e-08
1.68361e-07
3.1987082e-08
1.6622442e-07
3.1899135e-08
1.6408501e-07
3.1811804e-08
1.6194464e-07
3.172638e-08
1.5980216e-07
3.1637405e-08
1.5764819e-07
3.1531291e-08
1.5548912e-07
3.1424874e-08
1.5333174e-07
3.1317352e-08
1.511625e-07
3.119104e-08
1.4899565e-07
3.1035788e-08
1.4681991e-07
3.089393e-08
1.4464012e-07
3.0746427e-08
1.4245718e-07
3.058882e-08
1.4027178e-07
3.0422129e-08
1.3808438e-07
3.0246986e-08
1.3589551e-07
3.0063586e-08
1.3370567e-07
2.987207e-08
1.3151545e-07
2.967259e-08
1.2932542e-07
2.9465312e-08
1.2713617e-07
2.9250423e-08
1.2494829e-07
2.9028123e-08
1.2276241e-07
2.8798635e-08
1.2057913e-07
2.8562194e-08
1.1839909e-07
2.8319055e-08
1.1622298e-07
2.8069494e-08
1.140515e-07
2.7813808e-08
1.1188547e-07
2.7552346e-08
2.7285521e-08
2.1856596e-07
3.5658979e-08
2.1654705e-07
3.5474946e-08
2.1452224e-07
3.5312544e-08
2.1249141e-07
3.5169639e-08
2.1045447e-07
3.5044158e-08
2.0841126e-07
3.4934112e-08
2.0636164e-07
3.4837585e-08
2.0430547e-07
3.4752775e-08
2.0224262e-07
3.467797e-08
2.0017295e-07
3.461155e-08
1.9809637e-07
3.4551989e-08
1.9601277e-07
3.4497823e-08
1.9392204e-07
3.4447785e-08
1.9182402e-07
3.4400585e-08
1.8971844e-07
3.4355254e-08
1.8760517e-07
3.4310292e-08
1.8548447e-07
3.4264168e-08
1.8335745e-07
3.4215119e-08
1.8122508e-07
3.4163086e-08
1.7908174e-07
3.4117676e-08
1.7693257e-07
3.4061987e-08
1.7477941e-07
3.4005068e-08
1.7261225e-07
3.3934528e-08
1.7043231e-07
3.3848282e-08
1.682504e-07
3.376285e-08
1.6606408e-07
3.3674453e-08
1.6387332e-07
3.3580331e-08
1.6167295e-07
3.3472536e-08
1.5946736e-07
3.3360963e-08
1.5726031e-07
3.3245686e-08
1.5503799e-07
3.3117238e-08
1.5282662e-07
3.2955747e-08
1.5060112e-07
3.2803735e-08
1.48371e-07
3.2647146e-08
1.4613762e-07
3.2480766e-08
1.4390155e-07
3.2304736e-08
1.4166325e-07
3.2119663e-08
1.3942322e-07
3.1925735e-08
1.3718201e-07
3.1723081e-08
1.349402e-07
3.1511861e-08
1.326984e-07
3.1292254e-08
1.3045723e-07
3.1064458e-08
1.282173e-07
3.0828692e-08
1.2597926e-07
3.0585191e-08
1.2374375e-07
3.0334206e-08
1.2151143e-07
3.0076006e-08
1.1928302e-07
2.9810875e-08
1.1705926e-07
2.953913e-08
1.1484101e-07
2.926115e-08
2.8977418e-08
2.2358907e-07
3.7595607e-08
2.2155611e-07
3.7415644e-08
2.1951477e-07
3.7257311e-08
2.1746508e-07
3.7118509e-08
2.1540706e-07
3.6997131e-08
2.133407e-07
3.6891139e-08
2.11266e-07
3.6798572e-08
2.0918294e-07
3.6717603e-08
2.0709151e-07
3.664649e-08
2.0499167e-07
3.6583586e-08
2.0288344e-07
3.6527334e-08
2.0076681e-07
3.6476224e-08
1.9864175e-07
3.6429001e-08
1.9650819e-07
3.6384304e-08
1.943658e-07
3.6341327e-08
1.9221452e-07
3.6298434e-08
1.9005467e-07
3.6254156e-08
1.8788804e-07
3.6206296e-08
1.8571676e-07
3.6154791e-08
1.8353059e-07
3.6111976e-08
1.8133967e-07
3.605551e-08
1.7913981e-07
3.5992898e-08
1.7692606e-07
3.5916701e-08
1.7470468e-07
3.5832653e-08
1.7247835e-07
3.5747651e-08
1.7024596e-07
3.565619e-08
1.6800756e-07
3.5557455e-08
1.6576049e-07
3.5447059e-08
1.6350768e-07
3.5330119e-08
1.612522e-07
3.5204908e-08
1.5897539e-07
3.5061351e-08
1.567202e-07
3.492443e-08
1.5444442e-07
3.4752879e-08
1.5216375e-07
3.4582611e-08
1.4987979e-07
3.4407287e-08
1.4759281e-07
3.4221972e-08
1.453033e-07
3.4026958e-08
1.4301179e-07
3.3822466e-08
1.4071885e-07
3.3608615e-08
1.3842509e-07
3.3385566e-08
1.3613113e-07
3.3153514e-08
1.3383762e-07
3.2912671e-08
1.3154521e-07
3.2663271e-08
1.2925457e-07
3.2405564e-08
1.2696636e-07
3.2139817e-08
1.2468128e-07
3.186631e-08
1.2240006e-07
3.1585343e-08
1.2012352e-07
3.1297237e-08
1.1785254e-07
3.1002404e-08
3.0701421e-08
2.2863183e-07
3.9532643e-08
2.2658857e-07
3.9359509e-08
2.2453416e-07
3.9207777e-08
2.2246879e-07
3.9075429e-08
2.2039263e-07
3.8960329e-08
2.1830583e-07
3.88604e-08
2.1620853e-07
3.877364e-08
2.1410087e-07
3.8698216e-08
2.1198296e-07
3.8632368e-08
2.0985489e-07
3.8574435e-08
2.0771677e-07
3.8522844e-08
2.0556874e-07
3.8476028e-08
2.0341083e-07
3.8432778e-08
2.012431e-07
3.8391611e-08
1.9906517e-07
3.8351997e-08
1.9687702e-07
3.8312104e-08
1.9467896e-07
3.8270812e-08
1.9247324e-07
3.8225879e-08
1.9026519e-07
3.8176224e-08
1.880355e-07
3.8131828e-08
1.8580109e-07
3.807444e-08
1.8355639e-07
3.8008818e-08
1.8130041e-07
3.7931297e-08
1.7903586e-07
3.7849663e-08
1.7676499e-07
3.7763799e-08
1.7448671e-07
3.7669695e-08