/*--------------------------------*- C++ -*----------------------------------*\
| =========                 |                                                 |
| \\      /  F ield         | OpenFOAM: The Open Source CFD Toolbox           |
|  \\    /   O peration     | Version:  2312                                  |
|   \\  /    A nd           | Website:  www.openfoam.com                      |
|    \\/     M anipulation  |                                                 |
\*---------------------------------------------------------------------------*/
FoamFile
{
    version     2.0;
    format      ascii;
    arch        "LSB;label=32;scalar=64";
    class       volScalarField;
    location    "0.06";
    object      Qdot;
}
// * * * * * * * * * * * * * * * * * * * * * * * * * * * * * * * * * * * * * //

dimensions      [1 -1 -3 0 0 0 0];

internalField   nonuniform List<scalar> 
3250
(
3322234.9
3118225.5
2932226.7
2762356.9
2606965.1
2464592.7
2333948.5
2213886.7
2103387.7
2001542.4
1907538.5
1820647.8
1740216.9
1665657.4
1596438.5
1532079.9
1472146.2
1416241.5
1364004.5
1315105
1269239.7
1226129.4
1185516
1147160.2
1110839.1
1076345.4
1043485.5
1012078.7
981955.41
952955.44
924927.62
897729.85
871232.92
845307.31
819843.5
794737.91
769896.35
745233.98
720675.52
696155.49
671618.82
647021.45
622331.48
597526.56
572566.19
547453.85
522237.6
496946.23
471625.7
3316309.2
3112830.1
2927296
2757839.2
2602816.7
2460775.3
2330428.2
2210633.6
2100375.2
1998747.1
1904939.4
1818226.3
1737956.4
1663543.1
1594457.1
1530219.5
1470396.2
1414592.2
1362447.3
1313632
1267844
1224804.7
1184256.5
1145960.6
1109694.8
1075252
1042439.1
1011075.8
980992.96
952030.78
924038.25
896873.46
870407.4
844510.78
819074.32
793994.64
769177.74
744538.94
720003.08
695504.81
670989.06
646411.6
621739.58
596948.04
572008.57
546925.88
521734.31
496465.04
471160.29
3304675.7
3102237.9
2917623.9
2748985.8
2594694.7
2453308.3
2323549
2204282.7
2094500.1
1993301.2
1899881.2
1813519
1733567.1
1659442.5
1590618.8
1526620.1
1467014.5
1411409.2
1359446
1310797.1
1265161.5
1222262.1
1181842.5
1143665.1
1107508.3
1073166.1
1040446
1009168.7
979166.01
950278.68
922356.07
895256.65
868851.77
843012.67
817630.46
792602.22
767834.29
743242.33
718751.46
694296.54
669822.65
645285.49
620651.63
595895.81
570997.03
545960.02
520811.64
495582.94
470314.27
3287400.8
3086505.7
2903260.1
2735840.6
2582638.3
2442226.9
2313342.4
2194862.4
2085787.9
1985227.7
1892384.7
1806544.8
1727066.2
1653371.1
1584938
1521294.8
1462013.2
1406703.8
1355011
1306609.6
1261200.9
1218509.9
1178282
1140280.9
1104286.6
1070094.2
1037512.4
1006363.4
976480.2
947704.54
919886.33
892884.48
866570.97
840817.73
815516.56
790565.14
765870.4
741348.46
716924.87
692534.84
668123.71
643647.29
619071.97
594373.13
569534.39
544560.24
519473.36
494303.9
469091.49
3264573.6
3065711.8
2884273.6
2718464.8
2566701.8
2427579.4
2299851.6
2182411.5
2074273.5
1974558
1882478.3
1797329.2
1718476.8
1645350.1
1577433.7
1514260.9
1455408.3
1400490.4
1349155.5
1301081.9
1255973.8
1213558.7
1173584.6
1135817.2
1100038.3
1066044.4
1033646
1002666.9
972942.2
944314.77
916635.13
889762.82
863570.58
837931.33
812737.76
787888.39
763290.87
738861.98
714527.82
690224.11
665896.57
641501.27
617004.81
592383.49
567623.9
542730.38
517723.22
492631.68
467495.1
3237921.4
3041427.4
2862096.1
2698166.2
2548082.7
2410464.7
2284087.1
2167861
2060816.4
1962087.5
1870899.5
1786557.3
1708436.5
1635974.1
1568661.6
1506038.7
1447687.5
1393227.4
1342311.2
1294621
1249864.4
1207772.3
1168095.1
1130601.3
1095074.6
1061313.2
1029129.4
998349.27
968810.27
940356.68
912839.57
886119.17
860069.14
834563.59
809496.24
784766.61
760283.2
735963.55
711734.44
687532.14
663302.89
639003.18
614600.02
590070.65
565403.56
540603.08
515688.26
490687.68
465640.58
3208328.4
3014456.4
2837459.7
2675612.7
2527391.6
2391442.4
2266562.7
2151683.8
2045852.9
1948219.3
1858021.2
1774575.3
1697267.1
1625542.6
1558901.3
1496889.5
1439095.6
1385144.6
1334693.9
1287430
1243064.5
1201331.6
1161985
1124795.7
1089549.8
1056047.3
1024102.3
993543.72
964211.66
935951.93
908616.09
882065.07
856173.6
830817.12
805890.55
781294.5
756938.44
732740.75
708628.92
684539.92
660420.53
636227.8
611929.25
587503.04
562938.97
538241.51
513428.99
488529.62
463582.75
3173581.1
2982778.3
2808515.8
2649109.3
2503071.3
2369078.5
2245955.8
2132657.2
2028250.5
1931902.4
1842866.5
1760473.1
1684119.4
1613261.8
1547409
1486115.5
1428976.8
1375624.2
1325721
1278958.5
1235053.1
1193743
1154785.5
1117954.8
1083039.5
1049841.8
1018178.2
987880.29
958792.12
930761.14
903639.2
877287.95
851583.47
826402.83
801642.36
777203.97
752998.25
728944.58
704971.32
681016.21
657026.74
632960.61
608786.01
584481.99
560039.46
535463.1
510770.87
485990.79
461162.39
3133442.3
2946172.2
2775058.2
2618463.6
2474941.7
2343204.8
2222108.4
2110633.2
2007870.1
1913006
1825312.3
1744134.5
1668883.6
1599027.9
1534086.7
1473623.7
1417242.7
1364582.4
1315312.7
1269130.6
1225757.9
1184937.3
1146430.5
1110015.4
1075483.4
1042638.9
1011301.1
981305.21
952500.01
924734.76
897861.25
871741.93
846254.49
821277.97
796710.39
772455.18
748424.21
724537.98
700725.88
676926.54
653088.31
629169.64
605139.51
580977.89
556676.62
532240.72
507688.02
483046.51
458355.94
3087694.8
2904434.2
2736895.5
2583495.3
2442833.2
2313661.5
2194870.1
2085469.9
1984577.9
1891403.7
1805238.9
1725446.4
1651452.6
1582739.4
1518837.8
1459322.3
1403806.1
1351936.1
1303389.6
1257870.5
1215106.2
1174845.1
1136853.6
1100913.9
1066820.4
1034379.9
1003414.7
973763.94
945282.85
917822.47
891233.84
865383.51
840141.49
815398.9
791052.49
767007.39
743176.94
719482.94
695855.92
672235.56
648571.16
624822.06
600958.15
576960.33
552821.3
528546.5
504153.84
479671.41
455139.19
3036146.8
2857382.1
2693854.4
2544040.3
2406590.1
2280300.8
2164100.7
2057034.3
1958247.5
1866975.6
1782532.3
1704300.3
1631723.1
1564297.7
1501568.5
1443121.9
1388581.4
1337603.4
1289873.6
1245103.2
1203026.4
1163397.6
1125988.8
1090586.9
1056989.7
1025006.2
994462.09
965201.43
937087.71
909973.55
883708.11
858158.9
833198.73
808721.35
784625.81
760819.16
737216.41
713740.77
690324.08
666907.21
643440.52
619884.39
596209.69
572398.27
548443.73
524351.99
500141.17
475839.59
451487.46
2978638
2804860.9
2645785.8
2499954.7
2366074.4
2242990.4
2129673.4
2025204.8
1928762.6
1839610.3
1757086
1680594.3
1609597.4
1543609.3
1482189.1
1424936.4
1371486.1
1321505.2
1274688.5
1230755.5
1189447.9
1150526.9
1113770.9
1078972.1
1045931.1
1014459.5
984386.65
955562.5
927861.64
901137.34
875235.14
850023.94
825380.15
801200.65
777387.09
753848.64
730502.1
707272.31
684092.53
660904.94
637661.14
614322.64
590861.39
567260.26
543513.72
519628.3
495622.45
471524.76
447375.72
2915046.2
2746748.7
2592568.7
2451119.9
2321169.8
2201617
2091478.2
1989874.7
1896019.9
1809207.6
1728803.3
1654234.8
1584985.4
1520587.3
1460615.8
1404684.7
1352442.1
1303566
1257761.5
1214757.2
1174302.8
1136167.3
1100136.5
1066008.4
1033585.8
1002682.9
973131.99
944792.07
917552.13
891263.8
865766.43
840931.37
816639.79
792792.16
769293.02
746053.82
722993.36
700038.2
677123.19
654191.98
631197.52
608102.58
584880.27
561514.57
538000.85
514346.32
490569.86
466700.43
442778.77
2845294.2
2682962.9
2534117.1
2397447.5
2271787
2156090.7
2049425.3
1950955.2
1859931.5
1775681.6
1697599.6
1625139.3
1557806.4
1495152.9
1436771.8
1382292.5
1331376.8
1283715.3
1239024.1
1197041.5
1157526.3
1120255.9
1085024.8
1051637.7
1019896.8
989622.51
960642.08
932834.98
906107.69
880304.24
855254.47
830834.58
806932.11
783451.58
760300.56
737392.96
714649.69
691999.2
669378.09
646731.6
624014.18
601189.96
578233.35
555129.47
531874.69
508476.93
484955.62
461340.09
437671.41
2769356.9
2613466.4
2470384.7
2338884.4
2217867.3
2106349.3
2003449.5
1908378.9
1820429.1
1738962.8
1663405.6
1593238.5
1527991.6
1467238.1
1410589.9
1357693.2
1308225
1261889.3
1218413.7
1177547.2
1139058.2
1102733.8
1068379
1035805.5
1004809.6
975232.21
946860.1
919634.78
893478.58
868212.17
843653.26
819688.08
796212.57
773135.44
750367.41
727824.94
705431.17
683116.6
660819.71
638487.5
616076.02
593550.92
570887.97
548073.56
525105.07
501991.28
478752.17
455417.54
432028.74
2687268.6
2538274.3
2401371.5
2275418.4
2159388.8
2052362.4
1953514.2
1862104.1
1777466.7
1699002.3
1626169.7
1558479.1
1495486.4
1436787.4
1382014.2
1330830.9
1282930.7
1238032
1195875.1
1156219.5
1118844.5
1083547.4
1050147.4
1018462.2
988270.74
959486.08
931723.67
905129.48
879617.82
854944.26
830918.96
807447.93
784438.04
761801.64
739452.53
717309.8
695298.94
673352.65
651411.43
629424.17
607348.69
585152.26
562812.15
540316.04
517662.47
494861.09
471932.55
448907.11
425826.39
2599129.6
2457460
2327129.6
2207083.6
2096370.6
1994136.7
1899615.5
1812118.2
1731024.4
1655774.2
1585861.2
1520826.5
1460252.9
1403760.5
1351002.2
1301661.5
1255448.7
1212097.9
1171362.4
1133012.4
1096838.9
1062650.7
1030286.5
999561.88
970221.02
942362.16
915285.55
889255.38
864412.13
840434.91
817013.42
794072.33
771567.52
749410.06
727516.74
705809.32
684215.76
662671.1
641118.01
619507.44
597799.08
575961.98
553974.98
531827.18
509518.34
487059.07
464470.71
441784.05
419040.9
2505111.9
2371161
2247769.1
2133966.2
2028878.3
1931720.3
1841786.7
1758441.9
1681112.5
1609279.7
1542473.8
1480267.9
1422273.2
1368134.7
1317527.5
1270155.3
1225746.9
1184053.4
1144840.8
1107890.1
1073005.7
1040008.7
1008768.2
979049.18
950849.69
923608.56
897403
872165.4
847836.73
824548.91
801874.33
779521.99
757562.81
735923.28
714523.39
693287.64
672146.6
651037.77
629906.19
608704.96
587395.84
565949.72
544347.16
522578.77
500645.61
478559.31
456341.99
434024.92
411650.09
2405461.3
2279585
2163463.6
2056209.6
1957028.8
1865207.5
1780102.6
1701133.3
1627774.5
1559550.3
1496028.4
1436815.3
1381551.4
1329907.6
1281582
1236299.3
1193808.6
1153879
1116289
1080829.8
1047322.2
1015606.4
985542.3
957126.08
929675.59
903364.54
878057.18
853653.78
830075.66
807262.36
785429.18
763765.73
742389.61
721307.42
700439.18
679712.06
659059.39
638421.31
617745.33
596986.91
576109.96
555087.39
533901.55
512544.66
491019.15
469337.8
447523.52
425608.09
403633.56
2427755.5
2300490.7
2183017.2
2074456.2
1974019
1880994.9
1794742.8
1714683.3
1640291.5
1571091.5
1506651.1
1446576.5
1390508.4
1338117.1
1289100.2
1243178.5
1200099.7
1159634.1
1121572.4
1085701
1051822.2
1019778.8
989415.43
960836.09
933285.71
906904.67
881592.7
857228.27
833704.37
810926.26
788767.79
767620.89
746757.45
726017.69
705533.04
685235
665053.86
644925.85
624793.9
604608.2
584326.67
563915.55
543349.83
522613.79
501701.37
480616.44
459373
437994.84
416514.26
394973.16
2308274
2190649.4
2081828.2
1981063.7
1887666.3
1801009.3
1720525.3
1645698.6
1576060.6
1511185.1
1450684.3
1394203.4
1341417.8
1292028.1
1245758.8
1202353.4
1161583.6
1123243.5
1087150.9
1053086.7
1020870.9
990366.41
961687.61
934121.34
907773.39
882526.57
858273.8
834901.92
812305.6
790385.47
768996.83
748467.51
728455.02
708426.07
688576.34
668887.03
649289.29
629722.37
610132.2
590471.78
570701.67
550790.51
530715.56
510463.08
490028.8
469418.16
448646.45
427738.47
406727.04
385653.72
2184302.6
2076466.3
1976472.3
1883679.4
1797492.3
1717367.9
1642811.2
1573370.5
1508632.4
1448220.8
1391792.3
1339031
1289647.9
1243373
1199959
1159168.9
1120802
1084677.6
1050656.7
1018470.9
987990.54
959369.94
931882.77
905671.97
880595.64
856541.28
833402.27
811072.33
789451.25
768445.05
747959.2
727988.86
708799.78
689590.53
670419.5
651377.73
632400.59
613431.07
594418.3
575318.26
556094.27
536717.54
517167.63
497432.93
477511.02
457409
437143.54
416740.6
396233.67
375663.69
2056522.5
1958553.2
1867487
1782773.9
1703909.6
1630431.8
1561917.2
1497976.2
1438249.7
1382410.5
1330160.2
1281220.6
1235339.2
1192274
1151807.7
1113715.7
1077831.3
1043996.7
1012165.4
981891.13
953504.74
926252.1
900300.8
875514.01
851769.71
828961.01
806985.78
785744.66
765143.61
745096.55
725511.65
706305.77
687815.51
669496.29
651053.81
632697.33
614377.24
596040.9
577640.8
559136.03
540492.81
521685
502694.58
483512.12
464137.15
444578.45
424854.23
404991.77
385025.64
364996.13
2020252.7
1925700
1837611.4
1755493.3
1678895.7
1607402.1
1540628.5
1478220.7
1419849.9
1365207.3
1314014.4
1266017.8
1220974.5
1178671.2
1138888.2
1101446.6
1066114.9
1032776.1
1001270.4
971796.17
943704.09
916878.63
891349.49
866992.41
843688.07
821328.09
799812.75
779046.5
758937.31
739397.75
720347.57
701704.2
683406.83
665496.27
648130.08
630483.57
612845.13
595217.15
577548.85
559796
541920.87
523892.68
505688.04
487291.45
468695.7
449902.3
430921.78
411773.92
392487.64
373099.35
353649.83
1876497.8
1792739.2
1714431.5
1641193
1572668.1
1508524.2
1448450.9
1392160.5
1339382.8
1289853.8
1243341.9
1199641.7
1158537.3
1119864.1
1083408.5
1049056.9
1016518.9
985777.19
956985.56
929578.51
903407.32
878498.39
854741.1
832027.32
810253.02
789321.23
769140.45
749622.81
730683.82
712245.11
694225.86
676556.01
659170.84
642019.4
625491.72
608714.4
591829.74
574927.93
557961.3
540889.16
523677.14
506297.54
488729.79
470960.94
452986.07
434808.66
416441.01
397904.46
379229.7
360456.31
341631.27
1731851.2
1658613.5
1589881.3
1525361.6
1464785.3
1407896.9
1354454.7
1304234.1
1257023.1
1212590.9
1170751.1
1131356.3
1094194.9
1059182.1
1026059.7
994867.22
965108.81
937348.93
910756.59
885503.42
861439.26
838479.18
816529.4
795496.08
775288.29
755819.53
737007.04
718771.04
701036.84
683726.63
666772.34
650106.33
633661.75
617360.1
601630.88
585766.79
569672.05
553528.52
537295.36
520935.89
504419.15
487720.59
470822.52
453714.58
436394.14
418866.65
401146.06
383255.14
365225.99
347101.96
1587449.7
1524356.6
1464894.1
1408840.2
1356004.4
1306202.3
1259253.9
1214993.7
1173274.2
1133872.5
1096645.5
1061536.3
1028269.6
996940.88
967084.94
939174.36
912423.9
887039.17
862897.07
839904.58
817954.47
796960.87
776840.68
757512.15
738895.82
720915.12
703496.1
686567.22
670061.27
653907.88
638045.07
622410.58
606940.52
591552.43
576589.79
561669.38
546407.55
531050.65
515580.37
499963.51
484172.5
468185.94
451989.05
435574.06
418940.62
402096.12
385056.03
367844.15
350492.52
333039.04
1444479.1
1391047.3
1340454.7
1292522.5
1247135.5
1204175.4
1163514
1125037.8
1088692.3
1054203.9
1021464.8
990615.08
961102.53
933532.7
907194.01
882048.97
858144.74
835392.31
813694.35
792968.94
773132.5
754109.19
735826.52
718213.68
701201.66
684723.35
668713.5
653110.45
637848.99
622871.5
608120.45
593540.02
579075.98
564683.47
550417.2
536452.63
522084.67
507539.95
492859.29
478012.55
462975.52
447729.97
432264.03
416572.51
400657.29
384527.62
368200.41
351700.22
335058.71
318312.51
1304146.2
1259786.2
1217583.2
1177340
1139028.2
1102593.1
1067944.1
1034995.9
1003885.5
974144.13
945658.52
919117.83
893516.46
869193.59
846043.26
823935.13
802834.56
782679.83
763397.98
744921.12
727182.23
710117.53
693665.24
677764.91
662357.24
647384.12
632790.35
618516.9
604511.33
590720.94
577094.58
563582.61
550137.25
536716.44
523295.43
510208.19
496766.6
483057.54
469190.21
455138.18
440880.71
426402.78
411695.37
396755.84
381588.26
366203.68
350620.33
334863.54
318964.96
302961.71
1167651.2
1131659.4
1097318.1
1064244.8
1032554.3
1002261.5
973292.13
945496.35
919519.18
894326.8
870135.69
847273.08
825350.62
804403.83
784376.41
765197.71
746823.59
729205.5
712288.75
696019.03
680342.81
665207.88
650562.9
636357.09
622540.23
609064.26
595877.11
582932.27
570182.57
557581.85
545085.13
532648.53
520229.19
507785.06
495270.53
483034.01
470535.49
457682
444647.91
431411.66
417956.15
404269.51
390345.53
376184.06
361791.28
347179.95
332369.57
317386.24
302261.97
287034.56
1036167.8
1007680.5
980710.62
954188
928585.26
903998.05
880359.32
857641.22
836004.78
815118.98
795018.91
775803.02
757344.93
739620.96
722594.39
706223.3
690471.93
675303.43
660677.34
646551.17
632882.79
619630.74
606753.28
594208.59
581956.24
569951.67
558154.87
546524.77
535020.79
523603.04
512232.4
500870.59
489479.89
478021.69
466447.41
455033.06
443486.56
431510.86
419325.08
406921.6
394286.73
381411.62
368292.8
354932.48
341338.86
327526.33
313515.56
299333.42
285012.33
270590.59
910845.75
889300.3
868426.47
847928.19
827960.23
808597.7
789845.48
771711.95
754239.28
737325.42
720973.07
705215.71
690006.9
675319.68
661133.12
647423.22
634165.6
621334.61
608901.86
596833.84
585098.38
573663.86
562498.42
551565.62
540832.65
530265.01
519828.09
509487.3
499208.27
488956.94
478699.8
468403.99
458037.56
447570.54
436982.83
426319.64
415726.01
404660.54
393333.3
381775.08
369975.3
357928.01
345632.33
333092.74
320319.31
307327.93
294140.35
280784.09
267291.92
253702.26
792607.11
777018.63
761711.64
746503.33
731521.21
716837.28
702480.51
688473.16
674836.23
661546.08
648609.12
636055.78
623856.95
611989.18
600450.23
589229.21
578311.75
567682.37
557324.06
547207.8
537310.42
527611.07
518081.25
508695.51
499426.44
490246.01
481125.78
472037.12
462951.29
453839.67
444673.93
435426.27
426069.76
416579.51
406936.22
397131.1
387416.83
377267.28
366803.93
356098.45
345143.48
333935.83
322477.03
310773.66
298837.55
286685.88
274341.34
261831.97
249190.68
236455.71
682305.52
671740.6
661349.74
650683.86
640028.39
629446.32
618966.49
608617.38
598420.68
588380.5
578508.54
568874.86
559421.23
550124.86
541014.36
532086.12
523332.37
514746.07
506324.87
498034.81
489861.27
481794.18
473811.28
465892.36
458015.91
450159.51
442300.21
434414.67
426479.28
418470.34
410364.25
402137.77
393768.28
385234.25
376515.91
367593.99
358731.2
349489.55
339888.64
330037.79
319932.13
309570.92
298957.94
288101.68
277015.48
265717.69
254231.7
242585.87
230813.06
218950.98
580660.56
574366.65
567869.76
561098.89
554148.67
547084.24
539948.61
532776.15
525591.92
518408.11
511215.46
504218.46
497221.52
490215.62
483294.29
476443.28
469657.73
462933.36
456300.32
449687.77
443104.91
436556.03
430014.55
423467.81
416899.13
410290.75
403624.44
396881.55
390043.03
383089.57
376001.82
368760.64
361347.27
353743.32
345930.2
337886.86
329851.88
321503.69
312758.74
303758.72
294501.22
284987.81
275224.28
265220.81
254992.05
244557.28
233940.37
223169.75
212277.96
201301.93
488148.28
485239.72
481972.21
478361.04
474459.18
470322.59
465994.44
461511.18
456899.44
452180.33
447375.98
442550.14
437669.33
432725.46
427748.74
422745.69
417715.15
412642.36
407655.95
402549.95
397404.9
392250.5
387029.87
381747.82
376389.73
370941.54
365388.96
359717.46
353911.99
347957.08
341837.13
335536.68
329040.56
322333.87
315401.12
308221.73
300977.83
293502.02
285604.81
277445.63
269029.13
260358.97
251442.73
242292.04
232922.61
223354.37
213611.45
203722.07
193718.18
183635.63
405064.91
404744.34
404012.05
402885.75
401404.66
399622.27
397574.81
395299.57
392817.7
390152.69
387330.29
384380.36
381308.16
378115.77
374816.9
371420.85
367932.88
364357.96
360724.07
356977.17
353116.15
349241.33
345201.14
341066.64
336811.45
332425.26
327897.07
323215.96
318370.34
313348.06
308136.74
302724.13
297098.4
291248.44
285164.87
278844.79
272318.37
265690.89
258634.46
251300.01
243711.05
235873.32
227796.02
219491.93
210977.56
202273.21
193402.97
184394.58
175279.13
166091.12
331500.54
333063.21
334190.85
334923.05
335286.78
335318.6
335047.98
334517.86
333735.2
332721.71
331504.7
330103.02
328531.28
326795.13
324902.85
322865.09
320688.94
318381.12
315947.84
313376.37
310667.35
307838.78
304842.9
301760.63
298491.52
295060.69
291459.03
287679.01
283711.97
279548.48
275178.88
270593.62
265783.64
260740.73
255458.41
249933.7
244168.07
238315.6
232071
225538.04
218756.44
211733.78
204480.52
197010.31
189340.12
181490.34
173484.72
165350.25
157116.85
148817.43
267321.13
270148.87
272545.26
274581.54
276259.58
277610.64
278658.47
279428.62
279936.37
280198.27
280232.13
280051.83
279679.02
279113.78
278360.31
277433.2
276337.91
275081.84
273663.7
272083.02
270340.69
268438.09
266363.14
264120.7
261737.46
259164.55
256384.92
253410.19
250233.97
246849.01
243247.78
239422.91
235367.52
231075.57
226542.26
221764.58
216740.59
211619.28
206148.38
200386.45
194385.29
188153.63
181702.79
175046.91
168203.1
161191.51
154035.24
146760.28
139395.1
131970.75
212249.71
215802.98
218928.05
221797.47
224322.72
226553.09
228499.92
230181.09
231608.54
232794.09
233749.99
234487.51
235018.33
235348.07
235481.95
235427.17
235187.59
234777.87
234182.37
233410.47
232463.54
231337.93
230029.83
228538.62
226859.89
225017.28
222976.09
220706.6
218229.05
215537.71
212626.64
209490.15
206123.12
202521.13
198680.76
194599.81
190277.25
185844.89
181104.57
176077.13
170823.1
165351.82
159675.02
153806.95
147764.54
141567.4
135237.71
128800.15
122281.51
115710.73
165792.06
169563.58
173078.56
176370.03
179322.33
182059.98
184544.35
186794.38
188814.16
190610.55
192191.44
193564.08
194735.29
195709.98
196492.24
197086.2
197495.28
197723.67
197768.52
197630.37
197316.7
196815.75
196128.5
195254.64
194188.71
192928.93
191493.25
189849.69
187976.64
185891.48
183589.33
181065.83
178317.23
175340.42
172133.16
168694.16
165023.42
161233.69
157175.91
152840.97
148294.81
143546.95
138609.12
133495.4
128222.22
122808.34
117274.78
111644.62
105942.76
100195.84
127176.85
130953.69
134541.39
137858.92
141022.52
143918.41
146631.37
149164.84
151498.67
153637.32
155585.45
157346.18
158922.88
160318.23
161534.31
162572.92
163435.42
164122.75
164633.99
164968.62
165126.84
165103.83
164901.65
164517.17
163941.15
163176.62
162218.68
161081.33
159733.33
158166.66
156391.15
154403.6
152201.35
149782.38
147145.4
144289.83
141215.96
138017.72
134589.85
130900.52
127017.52
122950.13
118709.85
114310.27
109767.07
105097.92
100322.38
95461.778
90538.883
85577.877
95750.824
99265.871
102636.82
105849.95
108930.14
111780.11
114531.71
117074.04
119493.59
121753.84
123855.56
125796.8
127578.67
129201.55
130665.4
131969.92
133114.52
134098.27
134919.64
135576.99
136068.5
136391.28
136543.41
136521.07
136323.78
135947.53
135385.66
134638.5
133715.87
132589
131258.75
129730.3
128001.84
126072.22
123940.95
121607.98
119073.03
116410.53
113556.19
110461.65
107192.2
103756.9
100166.82
96434.862
92575.707
88605.702
84542.784
80406.294
76216.749
71995.749
70671.844
73775.984
76788.893
79703.098
82517.193
85221.286
87765.224
90219.405
92544.461
94734.772
96824.459
98780.165
100604.83
102296.8
103854.13
105274.72
106556.36
107696.69
108693.15
109543.1
110243.73
110791.98
111184.9
111419.21
111492.06
111399.2
111142.42
110712.54
110108.52
109341.65
108379.84
107235.76
105909.75
104401.32
102710.73
100838.6
98784.089
96597.222
94257.727
91704.636
88994.685
86138.3
83145.86
80029.362
76802.274
73479.449
70077.013
66612.213
63103.202
59568.945
51072.215
53693.747
56267.23
58784.96
61240.592
63627.081
65939.718
68132.275
70252.96
72306.559
74225.995
76068.57
77812.779
79451.579
80981.534
82399.192
83701.117
84883.88
85944.045
86878.169
87682.801
88354.459
88889.703
89285.1
89537.322
89642.925
89598.993
89405.233
89055.002
88556.225
87893.304
87062.829
86070.874
84917.377
83603.096
82129.767
80500.646
78724.649
76842.23
74773.771
72566.287
70231.893
67780.282
65222.375
62570.271
59837.173
57037.292
54185.705
51298.164
48390.998
36090.583
38216.006
40324.724
42409.234
44462.453
46477.273
48446.359
50359.641
52226.511
53998.224
55731.392
57363.687
58932.462
60431.429
61846.487
63173.319
64407.72
65545.593
66582.929
67515.799
68340.35
69052.803
69649.475
70126.791
70481.312
70709.746
70809.077
70776.513
70612.19
70312.153
69879.243
69298.593
68576.961
67715.735
66715.804
65578.936
64307.909
62906.603
61414.914
59769.63
58005.116
56133.22
54162.621
52102.979
49964.894
47759.836
45500.05
43198.431
40868.353
38523.58
24904.516
26562.02
28223.197
29881.532
31530.627
33164.163
34775.923
36360.023
37913.404
39429.718
40876.093
42294.521
43638.752
44931.322
46175.332
47353.117
48460.175
49492.152
50444.824
51314.092
52095.974
52786.61
53382.274
53879.396
54274.584
54564.656
54746.696
54818.079
54776.527
54622.51
54355.134
53967.62
53458.694
52832.271
52089.191
51231.065
50260.286
49180
48021.974
46739.949
45358.662
43888.803
42337.879
40714.195
39026.794
37285.391
35500.281
33682.228
31842.323
29991.895
16757.389
18001.672
19260.958
20530.031
21803.694
23076.769
24344.144
25600.897
26842.537
28064.128
29260.731
30406.359
31532.362
32603.865
33635.488
34632.65
35578.047
36467.445
37296.736
38061.944
38759.218
39384.84
39935.238
40407.008
40796.936
41102.036
41319.581
41447.149
41482.661
41424.446
41273.724
41028.208
40681.663
40238.826
39700.563
39068.311
38344.155
37530.85
36652.362
35675.971
34619.369
33491.669
32299.175
31048.822
29748.113
28405.054
27028.073
25625.92
24207.552
22782.053
10101.211
10977.544
11876.895
12795.625
13729.962
14676.031
15629.874
16587.497
17544.9
18498.107
19443.038
20375.543
21291.409
22170.688
23036.691
23862.438
24659.539
25430.692
26161.878
26849.365
27489.538
28078.893
28614.042
29091.733
29508.87
29862.541
30150.046
30368.931
30517.017
30592.448
30593.732
30519.858
30372.649
30146.444
29842.812
29463.489
29009.689
28483.179
27886.292
27236.538
26511.421
25723.529
24880.233
23986.67
23048.457
22071.635
21062.609
20028.077
18974.949
17910.254
16841.066
6386.2033
6990.0315
7615.4795
8260.191
8921.637
9597.1338
10283.866
10978.911
11679.252
12381.797
13083.36
13780.666
14470.347
15148.914
15801.491
16445.096
17059.49
17654.444
18228.644
18772.424
19282.705
19756.472
20190.802
20582.878
20930.022
21229.712
21479.612
21677.6
21821.792
21910.57
21942.602
21916.842
21834.475
21693.014
21491.505
21231.889
20915.181
20542.826
20116.722
19649.28
19125.475
18554.232
17941.206
17290.449
16606.363
15893.657
15157.291
14402.42
13634.328
12858.355
12079.839
3919.028
4319.105
4737.2072
5171.937
5621.7293
6084.861
6559.4666
7043.55
7534.9969
8031.5882
8531.0023
9030.8259
9528.5536
10021.553
10506.875
10972.693
11434.519
11874.918
12302.214
12712.573
13100.251
13462.788
13797.784
14102.924
14376
14614.934
14817.801
14982.849
15108.523
15193.482
15236.62
15237.063
15195.135
15110.592
14981.375
14808.993
14594.433
14338.816
14043.617
13717.356
13350.296
12948.744
12516.814
12057.589
11574.396
11070.777
10550.438
10017.207
9474.9859
8927.6873
8379.1982
2330.4882
2585.0692
2853.3736
3134.6547
3428.0266
3732.469
4046.8332
4369.8488
4700.1331
5036.1985
5376.462
5719.2607
6062.8786
6405.6198
6746.049
7074.8949
7397.8243
7716.241
8018.8839
8312.5266
8592.9142
8856.7469
9102.1553
9327.3315
9530.5502
9710.1866
9864.7334
9992.8189
10093.225
10164.903
10206.999
10218.874
10200.167
10151.508
10071.674
9960.7156
9819.8281
9649.8488
9451.8775
9231.5601
8982.7855
8709.987
8415.9947
8103.0609
7773.6059
7430.1877
7075.4695
6712.1842
6343.0975
5970.9669
5598.5108
1340.4712
1495.7988
1660.7926
1835.1035
2018.2795
2209.7659
2408.9078
2614.9525
2827.0543
3044.2776
3265.6046
3489.9411
3716.124
3942.9224
4169.0032
4392.7095
4609.302
4822.9948
5031.9896
5229.7891
5422.1584
5604.2981
5774.6494
5931.8756
6074.7039
6201.9343
6312.453
6405.2452
6479.4094
6534.1713
6568.8969
6583.1055
6576.4765
6549.3877
6501.5709
6432.3338
6342.7896
6233.5457
6105.398
5961.9238
5799.4261
5620.9885
5428.4432
5223.3661
5007.4406
4782.435
4550.1791
4312.5383
4071.3878
3828.5844
3585.9447
744.21663
834.88377
931.88583
1035.0884
1144.288
1259.2104
1379.5106
1504.7731
1634.5136
1768.1804
1905.1576
2044.7677
2186.2746
2328.8836
2471.7346
2613.8874
2754.3503
2890.0027
3024.5637
3152.8459
3276.8176
3395.6284
3507.2097
3610.652
3705.0781
3789.6574
3863.6171
3926.2529
3976.9393
4015.1399
4040.4161
4052.4356
4050.9785
4036.229
4008.1805
3966.3526
3911.3488
3843.6774
3763.9543
3674.209
3572.3687
3460.5267
3339.7928
3211.2151
3075.9067
2935.0296
2789.7784
2641.3627
2490.99
2339.8472
2189.0859
397.73253
448.20398
502.54185
560.71104
622.63375
688.18769
757.20501
829.47172
904.72769
982.66718
1062.9399
1145.1526
1228.8712
1313.6233
1398.9041
1484.192
1568.9986
1651.1926
1731.956
1811.1475
1886.1053
1958.6326
2027.1382
2090.8455
2149.1856
2201.6209
2247.6519
2286.8235
2318.7326
2343.0347
2359.4501
2367.7691
2367.857
2359.8048
2343.6395
2319.1487
2286.5861
2246.2715
2199.1274
2145.4071
2084.5442
2017.8096
1945.8204
1869.2323
1788.7386
1705.0592
1618.9288
1531.0859
1442.2623
1353.1716
1264.5005
203.7821
230.44275
259.29404
290.33686
323.54786
358.8779
396.25106
435.5638
476.68455
519.45371
563.68392
609.16071
655.64359
702.86733
750.54353
798.36138
845.98137
892.99514
938.40727
983.26854
1025.9809
1067.0377
1106.1141
1142.5069
1175.8805
1205.9152
1232.3134
1254.8046
1273.1503
1287.1482
1296.6359
1301.4941
1301.6497
1297.1529
1288.0288
1274.1956
1255.775
1232.9936
1206.4611
1176.0294
1141.7262
1104.1852
1063.7637
1020.8454
975.83333
929.14282
881.19465
832.4088
783.19796
733.96135
685.07927
99.423931
112.67859
127.07628
142.62523
159.32095
177.14529
196.06565
216.03446
236.98871
258.84983
281.52373
304.90107
328.85773
353.25547
377.94299
402.75749
427.52735
452.07801
475.81707
499.09208
521.7136
543.01858
563.45193
582.49668
599.95856
615.66238
629.44624
641.16414
650.68839
657.912
662.75071
665.14461
665.05957
662.52718
657.56498
650.14351
640.336
628.27407
614.27807
598.21275
580.22495
560.5951
539.51868
517.2027
493.86247
469.71807
444.99086
419.89995
394.65884
369.47214
344.53273
45.660272
51.779689
58.44085
65.649821
73.406612
81.704628
90.530246
99.862511
109.67286
119.92505
130.57518
141.57178
152.85604
164.3621
176.01754
187.74416
199.45903
211.0697
222.42084
233.38212
244.11911
254.21746
263.86529
272.86962
281.11244
288.5085
294.97925
300.45437
304.873
308.18502
310.35196
311.3478
311.15942
309.80599
307.29794
303.62574
298.83331
292.98527
286.23019
278.49571
269.89357
260.53873
250.52682
239.95821
228.93646
217.56669
205.95388
194.20109
182.40796
170.66911
159.0728
19.364545
21.934342
24.732805
27.762901
31.024972
34.516522
38.232021
42.16273
46.296631
50.618404
55.109463
59.748055
64.509322
69.36543
74.285718
79.236897
84.183303
89.086682
93.905299
98.540118
103.06719
107.33961
111.40162
115.1979
118.66768
121.77437
124.48431
126.76755
128.59847
129.9564
130.82595
131.19732
131.06641
130.44269
129.33153
127.73136
125.6629
123.154
120.26472
116.96657
113.31475
109.35358
105.12388
100.66829
96.030621
91.255188
86.38603
81.466204
76.537059
71.637559
66.803725
7.3707514
8.3252851