/*--------------------------------*- C++ -*----------------------------------*\
| =========                 |                                                 |
| \\      /  F ield         | OpenFOAM: The Open Source CFD Toolbox           |
|  \\    /   O peration     | Version:  2312                                  |
|   \\  /    A nd           | Website:  www.openfoam.com                      |
|    \\/     M anipulation  |                                                 |
\*---------------------------------------------------------------------------*/
FoamFile
{
    version     2.0;
    format      ascii;
    arch        "LSB;label=32;scalar=64";
    class       volScalarField;
    location    "0.06";
    object      T;
}
// * * * * * * * * * * * * * * * * * * * * * * * * * * * * * * * * * * * * * //

dimensions      [0 0 0 1 0 0 0];

internalField   nonuniform List<scalar> 
3250
(
564.94677
563.40099
561.91756
560.4941
559.12844
557.81853
556.56241
555.35823
554.20421
553.0986
552.03974
551.02599
550.05573
549.12736
548.2393
547.38994
546.57768
545.80089
545.05791
544.34704
543.66653
543.01458
542.3893
541.78875
541.21088
540.65358
540.11464
539.59178
539.08263
538.58469
538.09536
537.61197
537.13171
536.65176
536.16918
535.68098
535.18411
534.67545
534.15182
533.60996
533.04661
532.45847
531.84224
531.19457
530.51075
529.7873
529.02234
528.21266
527.35542
564.9005
563.35651
561.87469
560.45274
559.0885
557.77994
556.5251
555.32212
554.16924
553.06471
552.00687
550.99408
550.02473
549.09722
548.20997
547.36137
546.54984
545.77373
545.03139
544.32112
543.64118
542.98975
542.36496
541.76486
541.18742
540.6305
540.09192
539.56939
539.06053
538.56286
538.07378
537.5906
537.11054
536.63074
536.14829
535.6602
535.16342
534.65482
534.13121
533.58936
533.02599
532.43778
531.8214
531.17337
530.48948
529.76636
529.0015
528.19182
527.33423
564.80953
563.26904
561.79048
560.37158
559.01022
557.70438
556.45212
555.25158
554.101
552.99866
551.9429
550.93207
549.96457
549.03882
548.15322
547.3062
546.49614
545.72143
544.98041
544.27138
543.5926
542.94227
542.31851
541.71937
541.14282
540.58673
540.04892
539.52709
539.01889
538.52182
538.0333
537.55061
537.07099
536.59159
536.10949
535.6217
535.12517
534.61677
534.09334
533.55162
532.98832
532.40013
531.78368
531.13546
530.45158
529.72868
528.96394
528.15423
527.29639
564.67396
563.13868
561.665
560.25068
558.89366
557.59192
556.34353
555.14667
553.99957
552.90052
551.84787
550.84
549.8753
548.95219
548.0691
547.22444
546.41663
545.64403
544.905
544.19785
543.52085
542.87218
542.24998
541.65231
541.07712
540.52231
539.98567
539.46493
538.95774
538.46161
537.97394
537.49204
537.01313
536.53436
536.05281
535.56551
535.06941
534.56138
534.03825
533.49677
532.93366
532.34559
531.72917
531.08089
530.39707
529.67435
528.90972
528.10002
527.242
564.4939
562.96552
561.49833
560.09014
558.7389
557.44262
556.19941
555.00744
553.86498
552.77033
551.72184
550.71791
549.75695
548.83738
547.95764
547.11615
546.31132
545.54155
544.80519
544.10057
543.42593
542.7795
542.1594
541.56369
540.99034
540.43724
539.90218
539.38292
538.8771
538.38224
537.89574
537.41491
536.93696
536.45906
535.97829
535.49167
534.99617
534.48867
533.96598
533.42487
532.86205
532.27419
531.65789
531.00967
530.32596
529.60342
528.8389
528.02922
527.17109
564.28233
562.76204
561.30248
559.90149
558.55705
557.26721
556.03009
554.84389
553.70689
552.61742
551.57384
550.57455
549.61799
548.70259
547.8268
546.98904
546.18775
545.42132
544.68811
543.98646
543.31462
542.67083
542.05321
541.45983
540.88866
540.33758
539.8044
539.28688
538.78268
538.28934
537.80425
537.32469
536.84789
536.37103
535.89119
535.40541
534.91063
534.40377
533.88163
533.34098
532.77854
532.19097
531.57488
530.9268
530.24325
529.52088
528.75649
527.94684
527.08865
564.04567
562.53443
561.0834
559.69046
558.35363
557.07099
555.84069
554.66096
553.53008
552.4464
551.40831
550.41423
549.4626
548.55187
547.6805
546.84693
546.04959
545.2869
544.55723
543.85891
543.19022
542.54938
541.93455
541.34379
540.77506
540.22625
539.69519
539.17962
538.67726
538.18563
537.70211
537.22399
536.7485
536.27281
535.79403
535.30918
534.81525
534.30911
533.78761
533.2475
532.6855
532.09829
531.48246
530.8346
530.15124
529.42903
528.66477
527.85517
526.99697
563.76542
562.26487
560.82393
559.44052
558.11271
556.8386
555.61638
554.44429
553.32066
552.24385
551.21227
550.22435
549.27857
548.37337
547.50724
546.67863
545.88599
545.12773
544.40225
543.70788
543.04292
542.4056
541.79407
541.20641
540.64059
540.09449
539.56593
539.05269
538.5525
538.06291
537.58127
537.10487
536.63094
536.15665
535.67913
535.19541
534.70248
534.19723
533.67649
533.13704
532.57559
531.98882
531.37335
530.72576
530.04263
529.32064
528.55651
527.74699
526.88878
563.43842
561.95032
560.52114
559.14885
557.83155
556.56739
555.35458
554.19141
553.07624
552.00744
550.98345
550.00273
549.06376
548.16502
547.30501
546.48219
545.69502
544.94194
544.22135
543.5316
542.871
542.23778
541.63012
541.04609
540.48367
539.94073
539.41509
538.90457
538.40693
537.91973
537.4403
536.96591
536.4938
536.02116
535.54512
535.06274
534.57098
534.06677
533.54694
533.00827
532.44748
531.86125
531.24622
530.59898
529.91615
529.19438
528.43043
527.62099
526.76281
563.06135
561.58758
560.17193
558.81244
557.50724
556.25454
555.05259
553.8997
552.79426
551.73469
550.71945
549.74703
548.81592
547.92463
547.07166
546.25552
545.47467
544.72756
544.01261
543.32819
542.67261
542.04413
541.44093
540.8611
540.3026
539.7633
539.24104
538.73364
538.23896
537.75453
537.27766
536.8056
536.3356
535.86486
535.39054
534.90969
534.41931
533.91631
533.39754
532.85979
532.29978
531.7142
531.09969
530.45288
529.77039
529.04889
528.28513
527.47581
526.61766
562.63072
561.17327
559.77305
558.42815
557.13675
555.89712
554.70754
553.56638
552.47205
551.42301
550.41776
549.4548
548.53265
547.64986
546.80495
545.99642
545.22278
544.48249
543.77398
543.09564
542.4458
541.82273
541.22463
540.64959
540.09558
539.56044
539.04202
538.5382
538.04689
537.56565
537.09171
536.62231
536.15472
535.68617
535.21381
534.73473
534.24593
533.74432
533.22677
532.69007
532.13096
531.54614
530.93225
530.28594
529.60386
528.88268
528.11914
527.30994
526.45185
562.14285
560.70386
559.32107
557.99265
556.71686
555.492
554.31642
553.18852
552.10676
551.06964
550.07568
549.12343
548.21144
547.33826
546.50245
545.70255
544.93707
544.2045
543.50328
542.83183
542.18848
541.57154
540.97921
540.40962
539.86069
539.33027
538.81619
538.31639
537.82892
537.35132
536.88071
536.41433
535.94947
535.48339
535.01326
534.53618
534.04917
533.54915
533.03299
532.4975
531.93943
531.35547
530.7423
530.09658
529.41496
528.69413
527.93085
527.12181
526.26379
561.59392
560.17562
558.81239
557.50247
556.2442
555.03592
553.87605
552.76305
551.69541
550.67167
549.6904
548.75018
547.84958
546.98721
546.16164
545.37143
544.61512
543.89122
543.1982
542.53448
541.89844
541.28838
540.70256
540.13911
539.5959
539.07078
538.56152
538.06624
537.58313
537.10964
536.64279
536.1798
535.718
535.25469
534.78707
534.31226
533.82726
533.32903
532.81445
532.28033
531.72342
531.14045
530.52811
529.88305
529.20197
528.48155
527.71856
526.9097
526.05176
560.9799
559.58466
558.24322
556.95394
555.7152
554.52543
553.3831
552.28672
551.23483
550.22603
549.25893
548.33213
547.44427
546.59397
545.77982
545.00043
544.25436
543.54015
542.85628
542.20121
541.57331
540.97095
540.39241
539.83585
539.29902
538.77988
538.27587
537.78561
537.30744
536.83861
536.37596
535.91674
535.45836
534.99815
534.53333
534.06104
533.57831
533.08209
532.56927
532.03668
531.4811
530.89924
530.28782
529.64352
528.96304
528.24309
527.48042
526.67177
525.81393
560.29659
558.92689
557.60963
556.34322
555.12616
553.95692
552.83405
551.75611
550.72171
549.7295
548.77812
547.86623
546.99251
546.1556
545.35415
544.58677
543.85208
543.14862
542.47493
541.82945
541.21061
540.61679
540.04637
539.4975
538.96773
538.45547
537.95686
537.47214
536.99966
536.53609
536.07809
535.62304
535.16844
534.71167
534.24997
533.78048
533.30026
532.80628
532.29543
531.76455
531.21044
530.62983
530.01945
529.376
528.69619
527.97676
527.21446
526.40605
525.54832
559.5396
558.19807
556.90745
555.6663
554.47316
553.32659
552.22521
551.16764
550.15256
549.17866
548.24465
547.34924
546.49113
545.66903
544.8816
544.12751
543.40538
542.71382
542.05137
541.4165
540.80767
540.2233
539.6619
539.12157
538.59947
538.09572
537.60176
537.12309
536.65743
536.19979
535.74691
535.29643
534.84599
534.39301
533.93475
533.46837
532.99094
532.49943
531.99076
531.46178
530.9093
530.33008
529.72085
529.07834
528.39928
527.68043
526.91854
526.1104
525.2528
558.70437
557.39373
556.13239
554.91897
553.75212
552.63047
551.5527
550.51753
549.52369
548.56994
547.65504
546.77775
545.93682
545.13101
544.35901
543.61952
542.91123
542.23277
541.58269
540.9595
540.36168
539.78772
539.23635
538.70531
538.19134
537.6974
537.21026
536.73587
536.27714
535.82689
535.38
534.93446
534.4886
534.03979
533.58531
533.12235
532.64798
532.1592
531.65293
531.12604
530.57536
529.99767
529.38971
528.74825
528.07002
527.3518
526.59038
525.78253
524.92509
557.78611
556.50923
555.27991
554.09686
552.95878
551.8644
550.81249
549.80184
548.83126
547.89957
547.0056
546.14816
545.32607
544.53809
543.783
543.05952
542.36639
541.70229
541.06581
540.45542
539.86969
539.30721
538.76712
538.24522
537.7449
537.25498
536.77729
536.31117
535.85576
535.41286
534.97444
534.53453
534.09366
533.64941
533.19909
532.73988
532.26887
531.78307
531.27943
530.75484
530.20613
529.63011
529.02356
528.38324
527.70593
526.98841
526.2275
525.41998
524.5627
556.77985
555.53973
554.34533
553.19538
552.08867
551.02403
550.00033
549.01643
548.07122
547.16361
546.29247
545.4567
544.65516
543.88666
543.15001
542.44401
541.76744
541.11906
540.49744
539.90107
539.32861
538.77901
538.2496
537.74381
537.24887
536.76838
536.30023
535.84287
535.3949
534.95474
534.52661
534.0939
533.6584
533.21913
532.77333
532.31821
531.85087
531.36834
530.86757
530.34549
529.79893
529.22474
528.61972
527.98065
527.30433
526.58758
525.82724
525.0201
524.16301
556.92487
555.68018
554.4802
553.32377
552.20978
551.13715
550.10483
549.11178
548.15695
547.23933
546.35789
545.5116
544.69939
543.9202
543.17289
542.4563
541.7693
541.11076
540.47955
539.87414
539.29305
538.7351
538.19863
537.68711
537.18803
536.70415
536.23415
535.77607
535.32807
534.88827
534.45376
534.03284
533.60925
533.1798
532.74595
532.30509
531.85443
531.39108
530.91209
530.41445
529.89508
529.35087
528.77867
528.1753
527.53759
526.86235
526.14644
525.38672
524.58
523.72313
555.6805
554.48203
553.32551
552.21018
551.13512
550.09939
549.10207
548.14221
547.21889
546.33115
545.47808
544.65871
543.87205
543.11709
542.39276
541.69791
541.0315
540.39252
539.78008
539.19223
538.62769
538.08531
537.56848
537.06558
536.5791
536.10737
535.64882
535.20154
534.76359
534.33287
533.90567
533.49085
533.07696
532.65471
532.2267
531.79119
531.34536
530.88633
530.41119
529.91693
529.40051
528.85883
528.28878
527.6872
527.05095
526.37689
525.66189
524.90285
524.09661
523.24
554.32903
553.18005
552.07036
550.99935
549.96629
548.97038
548.01083
547.08682
546.1975
545.34205
544.51961
543.72932
542.97029
542.24152
541.54203
540.87065
540.22647
539.60864
539.0168
538.44771
537.90103
537.38062
536.87449
536.38612
535.91348
535.45492
535.00874
534.57308
534.14596
533.72531
533.30877
532.89652
532.49246
532.07953
531.65793
531.22822
530.7876
530.33325
529.86225
529.37164
528.8584
528.31945
527.75171
527.15206
526.51739
525.84458
525.13056
524.37227
523.56659
522.71031
552.86461
551.76864
550.70925
549.6859
548.698
547.74491
546.826
545.94057
545.08786
544.26716
543.47772
542.71876
541.98949
541.28895
540.61626
539.97011
539.34983
538.75472
538.18588
537.63626
537.11427
536.60661
536.11741
535.64489
535.18727
534.7429
534.31005
533.88686
533.47137
533.06154
532.65517
532.2501
531.85265
531.45039
531.03595
530.6125
530.1775
529.72818
529.26164
528.77496
528.26512
527.72911
527.16385
526.56626
525.93327
525.2618
524.54883
523.79136
522.98633
522.13053
552.35409
551.28111
550.24206
549.23656
548.26427
547.32477
546.4176
545.54228
544.69825
543.88483
543.10142
542.34743
541.6221
540.92482
540.2546
539.6108
538.99163
538.39696
537.82575
537.28337
536.75911
536.25218
535.764
535.29304
534.83768
534.39627
533.96715
533.54861
533.13879
532.73576
532.3375
531.94192
531.54711
531.15321
530.763
530.35688
529.94009
529.51112
529.06719
528.60544
528.12295
527.61676
527.08388
526.52126
525.92588
525.29467
524.62463
523.91277
523.15618
522.35193
521.49687
550.58144
549.57276
548.59449
547.64653
546.72876
545.84097
544.98288
544.15417
543.35445
542.58307
541.83955
541.12351
540.43416
539.77124
539.13343
538.52085
537.93028
537.36306
536.82381
536.30349
535.80015
535.3155
534.84822
534.39689
533.96001
533.53599
533.12322
532.71999
532.32447
531.93476
531.54886
531.1647
530.78021
530.39347
530.01262
529.61636
529.20671
528.7842
528.34603
527.88939
527.41139
526.90909
526.37954
525.81974
525.22668
524.59737
523.92882
523.21812
522.46245
521.6591
520.80541
548.67412
547.73364
546.82
545.93327
545.07354
544.24081
543.435
542.65598
541.90358
541.17704
540.47601
539.80058
539.14951
538.5235
537.92
537.34158
536.78076
536.2497
535.73407
535.23824
534.76026
534.29939
533.85446
533.42416
533.00706
532.60165
532.20635
531.81946
531.4392
531.06369
530.69096
530.31894
529.94541
529.56771
529.19516
528.8097
528.40779
527.99216
527.56014
527.10893
526.63569
526.13753
525.61152
525.0547
524.4641
523.83677
523.16978
522.46026
521.70548
520.903
546.62592
545.75764
544.91257
544.09079
543.29264
542.51836
541.76804
541.04181
540.33987
539.66101
539.00501
538.37306
537.76229
537.1763
536.60821
536.06859
535.54389
535.0392
534.55336
534.08549
533.63427
533.19868
532.77757
532.36971
531.97372
531.58814
531.21144
530.84195
530.47792
530.11753
529.75882
529.39974
529.03802
528.6708
528.30562
527.93174
527.53838
527.13007
526.70456
526.25912
525.79094
525.29715
524.77488
524.2212
523.63319
523.00794
522.34256
521.63422
520.88017
520.07762
544.43062
543.63861
542.86613
542.11302
541.37998
540.66754
539.97593
539.30549
538.65746
538.02912
537.42031
536.83547
536.26591
535.72488
535.20016
534.69203
534.20274
533.73154
533.2774
532.83944
532.4166
532.00784
531.61206
531.22805
530.8545
530.49
530.13305
529.78204
529.43526
529.0909
528.74707
528.40175
528.05281
527.69819
527.33836
526.97653
526.59318
526.19258
525.77397
525.33463
524.87177
524.3826
523.86427
523.31389
522.7286
522.10552
521.44181
520.73465
519.98126
519.17877
542.08199
541.3702
540.67461
539.99388
539.32941
538.68218
538.05244
537.44043
536.8505
536.27557
535.71473
535.18321
534.66245
534.1604
533.6762
533.20812
532.75646
532.32076
531.90024
531.49407
531.10132
530.72101
530.35207
529.99334
529.64357
529.30141
528.96538
528.63393
528.3054
527.97802
527.64994
527.31917
526.98365
526.64132
526.29047
525.93876
525.56635
525.17393
524.7626
524.32968
523.87244
523.38812
522.87391
522.327
521.74455
521.12372
520.46173
519.75578
519.0031
518.20085
539.57384
538.94576
538.33209
537.72727
537.13467
536.55604
535.99138
535.43907
534.91352
534.39528
533.8896
533.4047
532.93346
532.47763
532.03697
531.61074
531.19876
530.8006
530.41562
530.04309
529.68215
529.3319
528.99133
528.65933
528.3347
528.01613
527.70221
527.39142
527.08215
526.77269
526.46122
526.14579
525.82438
525.49481
525.15469
524.81248
524.45167
524.06789
523.66422
523.23805
522.7867
522.30746
521.79757
521.25427
520.67477
520.05629
519.39607
518.69138
517.93946
517.13758
536.90028
536.35753
535.83327
535.30721
534.78935
534.28282
533.78728
533.30316
532.83507
532.37675
531.92977
531.49732
531.07736
530.67016
530.27558
529.89329
529.52302
529.16441
528.8169
528.47984
528.15245
527.83389
527.52322
527.21938
526.92124
526.62752
526.33688
526.04785
525.75887
525.46826
525.17425
524.87495
524.56837
524.25233
523.92423
523.59086
523.24224
522.86778
522.47213
522.05301
521.60781
521.13387
520.62848
520.08893
519.51249
518.89644
518.23806
517.53468
516.78359
515.98217
534.05635
533.60792
533.16579
532.72404
532.28659
531.85583
531.43258
531.01777
530.61315
530.217
529.83
529.45362
529.08735
528.73114
528.385
528.04879
527.72229
527.40521
527.09708
526.7973
526.50516
526.21991
525.94066
525.66642
525.39609
525.12849
524.86229
524.5961
524.3284
524.05757
523.78188
523.4995
523.2085
522.90685
522.59272
522.26615
521.93029
521.56635
521.17905
520.76728
520.32849
519.86005
519.35934
518.82368
518.25041
517.63685
516.98038
516.27835
515.52816
514.72724
531.03536
530.68223
530.33001
529.97494
529.62038
529.26849
528.92045
528.5773
528.24011
527.90872
527.58375
527.26639
526.95632
526.65342
526.35796
526.06995
525.78924
525.51562
525.24877
524.98804
524.73283
524.48248
524.23614
523.9929
523.75171
523.51144
523.27084
523.02855
522.78311
522.53296
522.27642
522.01171
521.73696
521.45022
521.14959
520.83338
520.50851
520.15575
519.77714
519.37301
518.94086
518.47813
517.98225
517.4506
516.88059
516.26962
515.6151
514.91448
514.16521
513.36485
527.83174
527.57558
527.31977
527.05353
526.78438
526.51422
526.24417
525.97533
525.70866
525.4446
525.18382
524.92838
524.67698
524.42952
524.18687
523.94911
523.71616
523.48788
523.2642
523.04424
522.82757
522.61365
522.40168
522.1908
521.98003
521.76829
521.55438
521.33702
521.1148
520.8862
520.6496
520.40329
520.14543
519.87411
519.58732
519.28296
518.96876
518.62757
518.25795
517.86173
517.43643
516.97959
516.48868
515.96116
515.3945
514.78618
514.13367
513.4345
512.68621
511.88643
524.44106
524.28758
524.12516
523.95229
523.77201
523.58643
523.39703
523.20506
523.01162
522.81736
522.6223
522.43237
522.24194
522.0516
521.8638
521.67829
521.49495
521.31372
521.13522
520.95762
520.78096
520.605
520.42879
520.25158
520.07245
519.89038
519.70424
519.51278
519.31468
519.10846
518.89257
518.66534
518.42499
518.16964
517.89723
517.60552
517.30194
516.97269
516.61235
516.22427
515.80604
515.35524
514.86943
514.34615
513.78292
513.1773
512.52685
511.82918
511.0819
510.28275
520.85792
520.80859
520.74422
520.6664
520.57722
520.47863
520.37229
520.25956
520.1418
520.02002
519.89506
519.76912
519.64112
519.5112
519.38047
519.24914
519.1172
518.98422
518.85351
518.71945
518.58407
518.44763
518.30846
518.16616
518.01982
517.8685
517.71111
517.54648
517.37334
517.19028
516.99581
516.7883
516.56605
516.32722
516.0698
515.79149
515.49805
515.18109
514.8305
514.45078
514.03979
513.59519
513.1146
512.59563
512.03591
511.43305
510.78471
510.08857
509.34235
508.54388
517.07777
517.13456
517.1707
517.18999
517.19393
517.18441
517.16326
517.13173
517.09178
517.04451
516.99089
516.93214
516.86843
516.80029
516.72839
516.65304
516.57438
516.49251
516.40825
516.31984
516.22713
516.13228
516.03111
515.92488
515.8124
515.69281
515.56509
515.42813
515.28072
515.12153
514.94911
514.76192
514.5583
514.3365
514.09472
513.83132
513.54598
513.24181
512.90182
512.53066
512.12707
511.68879
511.21351
510.69894
510.14277
509.54273
508.89654
508.20199
507.45689
506.65915
513.09631
513.26046
513.39972
513.51769
513.61619
513.69738
513.76336
513.81439
513.85407
513.8831
513.90234
513.91294
513.91515
513.9102
513.89872
513.88089
513.85696
513.82705
513.7916
513.74997
513.70193
513.64777
513.58584
513.5175
513.43983
513.35284
513.25559
513.14705
513.02607
512.89137
512.74157
512.5752
512.39065
512.18627
511.96033
511.71115
511.4371
511.14411
510.81497
510.45254
510.05647
509.62459
509.1547
508.64459
508.09205
507.49487
506.85088
506.15798
505.41406
504.61714
508.90921
509.18315
509.42573
509.64389
509.8381
510.01111
510.16491
510.30103
510.42163
510.52804
510.62147
510.70322
510.77231
510.83185
510.88224
510.92323
510.95529
510.97826
510.99312
510.99935
510.9966
510.98491
510.96356
510.93228
510.89077
510.83748
510.77138
510.69188
510.5979
510.48823
510.36153
510.21639
510.05129
509.86462
509.65471
509.41983
509.15817
508.8761
508.55787
508.20424
507.81577
507.39036
506.92592
506.42032
505.87144
505.27718
504.63547
503.94428
503.20163
502.40566
504.51772
504.90139
505.2435
505.56396
505.85407
506.11964
506.36226
506.58397
506.78651
506.97136
507.13982
507.29301
507.4315
507.55674
507.66953
507.77025
507.85954
507.93566
508.00217
508.05726
508.10038
508.1322
508.15197
508.1593
508.15365
508.13443
508.10047
508.05052
507.98401
507.89978
507.79656
507.67299
507.52762
507.35889
507.16518
506.94479
506.69592
506.42482
506.11751
505.77273
505.3919
504.97302
504.51407
504.01303
503.46787
502.87659
502.23722
501.54785
500.8066
500.01172
499.92167
500.40466
500.85415
501.27656
501.65835
502.01709
502.34866
502.6563
502.9413
503.20515
503.44926
503.67484
503.88289
504.07449
504.25049
504.41148
504.5579
504.6897
504.80797
504.91274
505.00162
505.07783
505.1392
505.1856
505.21672
505.23178
505.22988
505.21015
505.17145
505.11296
505.03347
504.9317
504.80624
504.65561
504.47823
504.27246
504.03657
503.77645
503.48006
503.14414
502.77098
502.35865
501.90524
501.4088
500.86741
500.27919
499.64227
498.95484
498.21515
497.42157
495.10286
495.69772
496.25606
496.76818
497.25425
497.69914
498.11739
498.5112
498.87862
499.22146
499.54136
499.83957
500.11724
500.37541
500.61498
500.83661
501.0408
501.22791
501.39839
501.55235
501.68937
501.81045
501.91275
501.99834
502.06663
502.11631
502.14688
502.15714
502.14654
502.11394
502.05831
501.97843
501.87298
501.74052
501.57955
501.38846
501.16556
500.91635
500.63083
500.30377
499.93829
499.53254
499.08468
498.5929
498.05536
497.47029
496.83594
496.15063
495.41272
494.6207
490.0719
490.77204
491.42951
492.04529
492.62737
493.16034
493.67155
494.14247
494.59116
495.0123
495.40764
495.77812
496.12507
496.44959
496.75259
497.0348
497.2968
497.53901
497.7618
497.96533
498.14957
498.31465
498.45991
498.58589
498.68994
498.77411
498.83711
498.87774
498.89491
498.88818
498.85639
498.79839
498.7129
498.59858
498.454
498.27759
498.06763
497.82914
497.55432
497.23614
496.87834
496.47918
496.03692
495.54984
495.01624
494.43446
493.80287
493.1199
492.38405
491.59393
484.82715
485.62847
486.38383
487.09586
487.76825
488.40219
488.98953
489.54924
490.07629
490.56934
491.03971
491.48143
491.89678
492.28691
492.65273
492.99501
493.31435
493.61122
493.88597
494.13882
494.36984
494.57902
494.76615
494.93104
495.07298
495.19228
495.28619
495.35665
495.40191
495.42049
495.41237
495.37607
495.31039
495.21407
495.08575
494.92396
494.72685
494.49869
494.2343
493.92511
493.57496
493.18239
492.74575
492.26346
491.73392
491.1556
490.52699
489.84665
489.11322
488.32543
479.36846
480.26642
481.11589
481.91962
482.68039
483.40035
484.08204
484.71583
485.31921
485.89599
486.43024
486.94045
487.42276
487.87721
488.30473
488.70605
489.0818
489.43247
489.75841
490.05987
490.33696
490.58971
490.81797
491.02154
491.20003
491.35316
491.48028
491.57913
491.65157
491.69526
491.71032
491.6954
491.64921
491.57059
491.45829
491.31106
491.12763
490.9075
490.65383
490.35384
490.01135
489.62536
489.19439
488.71698
488.19165
487.61701
486.99168
486.31435
485.58378
484.79886
473.69658
474.68571
475.6243
476.51497
477.36019
478.16209
478.92242
479.64164
480.32721
480.96505
481.5789
482.14972
482.69347
483.2104
483.69791
484.15673
484.58746
484.99058
485.36647
485.71539
486.03748
486.33278
486.60122
486.84259
487.05661
487.24291
487.40095
487.53011
487.62816
487.69674
487.73399
487.73989
487.71269
487.6513
487.55457
487.42135
487.25041
487.04059
486.79635
486.50521
486.17024
485.79081
485.36556
484.89314
484.37223
483.80154
483.17985
482.50597
481.77882
480.9974
467.81313
468.88688
469.90853
470.88058
471.8053
472.6848
473.52096
474.31562
475.07175
475.79033
476.4602
477.10449
477.70551
478.27662
478.82188
479.33608
479.8198
480.27352
480.69762
481.09236
481.45791
481.79434
482.10159
482.3795
482.62783
482.8462
483.03415
483.19112
483.31644
483.40808
483.46696
483.49273
483.48385
483.43907
483.35735
483.23759
483.07865
482.87936
482.64416
482.36155
482.03398
481.66106
481.24158
480.7743
480.25804
479.69166
479.07404
478.40416
477.68106
476.90391
461.72057
462.87129
463.96896
465.01582
466.01401
466.96553
467.87226
468.73603
469.55878
470.34192
471.08669
471.78163
472.44981
473.07411
473.66668
474.23354
474.76769
475.26958
475.73959
476.17801
476.585
476.96065
477.30493
477.61771
477.89876
478.14776
478.36428
478.5478
478.69771
478.81332
478.89273
478.93703
478.94558
478.91662
478.84919
478.74228
478.59485
478.40579
478.17933
477.90494
477.58461
477.21817
476.80451
476.34254
475.83121
475.26951
474.65647
473.99122
473.27292
472.5009
454.14742
455.42223
456.64136
457.80692
458.921
459.98555
461.00242
461.97336
462.90003
463.78403
464.62671
465.42927
466.19274
466.90551
467.59079
468.23109
468.83931
469.42066
469.96766
470.4807
470.96006
471.40593
471.8184
472.19745
472.54297
472.85476
473.13252
473.37588
473.58435
473.7574
473.89437
473.9945
474.05603
474.08072
474.06659
474.01258
473.91777
473.7812
473.60188
473.38377
473.11723
472.80394
472.44389
472.0361
471.57961
471.07351
470.51691
469.90901
469.24906
468.53639
467.77046
447.58966
448.92286
450.20066
451.42498
452.59765
453.72042
454.79495
455.82282
456.80549
457.74434
458.64063
459.49544
460.3097
461.08419
461.80721
462.50219
463.15135
463.76911
464.35748
464.90999
465.42693
465.90851
466.35481
466.76582
467.14145
467.48151
467.78574
468.05377
468.2852
468.47953
468.63622
468.75471
468.83253
468.87195
468.87146
468.8298
468.74614
468.61962
468.44936
468.23906
467.97989
467.67336
467.31956
466.91763
466.46675
465.96615
465.41508
464.81289
464.15897
463.4528
462.69399
440.84808
442.22833
443.5541
444.82701
446.04864
447.2205
448.34402
449.42057
450.45144
451.43782
452.38081
453.2814
454.14046
454.95867
455.73621
456.45981
457.15823
457.80928
458.42958
459.0172
459.56764
460.08108
460.55758
460.99714
461.39966
461.76496
462.09279
462.38282
462.63469
462.84795
463.02213
463.15677
463.2494
463.30171
463.31331
463.28262
463.20889
463.09136
462.92926
462.72603
462.47359
462.17338
461.82554
461.42936
460.98414
460.48925
459.94411
459.34818
458.70101
458.00224
457.25162
433.93052
435.34563
436.70772
438.01811
439.27809
440.48891
441.65176
442.76779
443.83808
444.86363
445.84539
446.78427
447.68113
448.53698
449.35344
450.11426
450.83826
451.53275
452.17778
452.79235
453.37137
453.91203
454.41436
454.87832
455.3038
455.69063
456.03856
456.3473
456.61649
456.84572
457.03453
457.18236
457.28847
457.35145
457.37294
457.35142
457.28602
457.17607
457.02092
456.82377
456.57716
456.28262
455.94028
455.54957
455.10993
454.62087
454.08194
453.49277
452.85305
452.16257
451.42123
426.84538
428.28233
429.6682
431.00401
432.29074
433.52938
434.72087
435.8661
436.96595
438.02122
439.03268
440.00105
440.92698
441.81106
442.65365
443.45409
444.20156
444.91605
445.59588
446.22495
446.82615
447.38849
447.91137
448.39471
448.83838
449.24219
449.60593
449.92931
450.212
450.45362
450.65375
450.81193
450.92766
450.99907
451.02797
451.0134
450.95431
450.85015
450.70038
450.50797
450.26598
449.97618
449.63865
449.25294
448.81863
448.33538
447.80288
447.22091
446.58932
445.90802
445.17709
419.60009
421.04498
422.44117
423.78933
425.09017
426.34439
427.55266
428.71565
429.83399
430.90829
431.93913
432.92703
433.87246
434.77582
435.63735
436.45706
437.23486
437.95971
438.65668
439.30378
439.91605
440.49359
441.03071
441.52736
441.98342
442.39871
442.77302
443.10607
443.39756
443.64715
443.85446
444.01909
444.14064
444.21719
444.25057
444.24013
444.18479
444.08412
443.93788
443.74848
443.50961
443.22338
442.88975
442.5084
442.07908
441.60156
441.07569
440.5014
439.87867
439.20758
438.48835
412.19765
413.63561
415.02755
416.37385
417.67493
418.93119
420.14306
421.31098
422.43534
423.51656
424.555
425.55104
426.505
427.41717
428.28783
429.11736
429.90662
430.64213
431.3405
432.00522
432.61924
433.20228
433.74595
434.24861
434.71011
435.13026
435.50885
435.84562
436.14028
436.39254
436.60206
436.76849
436.89148
436.96925
437.00358
436.99395
436.9393
436.83914
436.69526
436.5065
436.26905
435.98511
435.65446
435.27691
434.85234
434.38065
433.86186
433.29601
432.68326
432.02382
431.31807
404.63005
406.04494
407.41675
408.74557
410.03153
411.27478
412.4755
413.6339
414.75016
415.82449
416.85711
417.84819
418.79793
419.70648
420.57397
421.40049
422.18591
422.92929
423.62126
424.28328
424.89687
425.47439
426.01584
426.51607
426.97496
427.39233
427.76798
428.10165
428.39309
428.64203
428.84817
429.01123
429.13091
429.20566
429.23713
429.22488
429.16801
429.06628
428.92165
428.73185
428.49485
428.21236
427.88426
427.5105
427.09108
426.62605
426.11555
425.55979
424.95905
424.31371
423.62427
396.86734
398.24147
399.57567
400.86975
402.12356
403.33704
404.51013
405.64281
406.73511
407.78704
408.79865
409.77
410.70113
411.5921
412.44294
413.2537
414.02444
414.7554
415.43521
416.07973
416.68854
417.24912
417.77813
418.26666
418.71428
419.12075
419.48585
419.80936
420.09102
420.3306
420.52786
420.68257
420.79451
420.8624
420.88772
420.8701
420.80882
420.70382
420.55706
420.36566
420.1291
419.84853
419.52397
419.15548
418.74318
418.28729
417.78805
417.24581
416.66101
416.03414
415.36585
388.84285
390.15696
391.43452
392.67506
393.87822
395.04371
396.17128
397.26074
398.31192
399.32471
400.29901
401.23477
402.13193
402.99047
403.81034
404.59152
405.33402
406.03757
406.69829
407.3149
407.90153
408.44063
408.94721
409.41557
409.84402
410.23233
410.58027
410.88761
411.15415
411.37968
411.56402
411.707
411.80848
411.86751
411.88534
411.86166
411.79598
411.68833
411.54059
411.34969
411.11616
410.84071
410.52347
410.16462
409.7644
409.32312
408.84117
408.31902
407.75721
407.15638
406.51726
380.43999
381.67416
382.87555
384.04343
385.17727
386.27657
387.34091
388.36991
389.36327
390.32074
391.24211
392.12726
392.97608
393.78848
394.5644
395.30376
396.00645
396.67232
397.30092
397.88499
398.43914
398.95015
399.42809
399.87071
400.27517
400.64124
400.96868
401.25727
401.50684
401.71721
401.88828
402.01994
402.11216
402.16424
402.17727
402.15103
402.08519
401.97985
401.8367
401.65292
401.42948
401.16688
400.86531
400.52504
400.14638
399.72975
399.27563
398.78459
398.25727
397.69441
397.0968
371.49702
372.63381
373.74226