/*--------------------------------*- C++ -*----------------------------------*\
| =========                 |                                                 |
| \\      /  F ield         | OpenFOAM: The Open Source CFD Toolbox           |
|  \\    /   O peration     | Version:  2312                                  |
|   \\  /    A nd           | Website:  www.openfoam.com                      |
|    \\/     M anipulation  |                                                 |
\*---------------------------------------------------------------------------*/
FoamFile
{
    version     2.0;
    format      ascii;
    arch        "LSB;label=32;scalar=64";
    class       volVectorField;
    location    "0.06";
    object      U;
}
// * * * * * * * * * * * * * * * * * * * * * * * * * * * * * * * * * * * * * //

dimensions      [0 1 -1 0 0 0 0];

internalField   nonuniform List<vector> 
3250
(
(3.8748145 0.0085612172 0)
(3.8206715 0.0084858125 0)
(3.7675632 0.0084188705 0)
(3.7154177 0.0083594867 0)
(3.6641686 0.0083067027 0)
(3.613755 0.0082599518 0)
(3.56412 0.0082184793 0)
(3.5152105 0.008181825 0)
(3.4669771 0.0081493738 0)
(3.4193734 0.008120697 0)
(3.372356 0.0080952868 0)
(3.3258843 0.008072749 0)
(3.27992 0.0080526543 0)
(3.2344273 0.0080346135 0)
(3.1893721 0.0080182656 0)
(3.1447226 0.0080032496 0)
(3.1004487 0.0079892999 0)
(3.0565219 0.0079760789 0)
(3.0129153 0.0079634242 0)
(2.9696034 0.0079510122 0)
(2.9265618 0.007938766 0)
(2.883768 0.0079263157 0)
(2.8412005 0.0079137253 0)
(2.7988393 0.0079007856 0)
(2.7566657 0.0078874493 0)
(2.7146613 0.0078731524 0)
(2.6728112 0.0078571689 0)
(2.6311036 0.0078400134 0)
(2.5895244 0.0078224653 0)
(2.548059 0.007804358 0)
(2.5066943 0.0077856566 0)
(2.4654194 0.0077658469 0)
(2.424226 0.0077448079 0)
(2.3831076 0.0077223032 0)
(2.3420594 0.0076983585 0)
(2.3010772 0.0076728747 0)
(2.2601583 0.007645855 0)
(2.2193004 0.0076172649 0)
(2.1785023 0.0075870589 0)
(2.1377637 0.0075552144 0)
(2.0970854 0.007521704 0)
(2.0564695 0.0074864093 0)
(2.0159194 0.0074492341 0)
(1.9754401 0.0074087914 0)
(1.9350332 0.0073628124 0)
(1.8947016 0.0073132724 0)
(1.8544533 0.0072617525 0)
(1.8143003 0.0072083105 0)
(1.7742527 0.0071543238 0)
(3.8737194 0.024410586 0)
(3.8196259 0.024162296 0)
(3.7665632 0.023937941 0)
(3.7144601 0.023734741 0)
(3.6632505 0.023550466 0)
(3.6128738 0.023383209 0)
(3.5632733 0.023231051 0)
(3.5143961 0.023092344 0)
(3.4661928 0.02296548 0)
(3.4186175 0.02284899 0)
(3.3716267 0.022741525 0)
(3.3251801 0.022641759 0)
(3.2792395 0.022548562 0)
(3.2337691 0.022460713 0)
(3.1887351 0.022377278 0)
(3.1441057 0.02229713 0)
(3.0998509 0.022219559 0)
(3.0559424 0.022143565 0)
(3.0123532 0.02206863 0)
(2.969058 0.021993826 0)
(2.9260325 0.021918739 0)
(2.8832542 0.021842423 0)
(2.8407017 0.021764614 0)
(2.798355 0.021684665 0)
(2.7561954 0.021602278 0)
(2.7142044 0.021516531 0)
(2.6723673 0.021425695 0)
(2.6306727 0.021330092 0)
(2.5891066 0.021231697 0)
(2.547654 0.021130239 0)
(2.5063017 0.021025796 0)
(2.4650388 0.020917241 0)
(2.4238572 0.020804462 0)
(2.3827504 0.020686956 0)
(2.3417134 0.020564862 0)
(2.3007424 0.020437901 0)
(2.2598345 0.020306238 0)
(2.2189873 0.020169653 0)
(2.1781998 0.020028289 0)
(2.1374716 0.019881972 0)
(2.0968035 0.019730861 0)
(2.0561975 0.019574756 0)
(2.0156569 0.01941364 0)
(1.975186 0.019246245 0)
(1.9347878 0.019070576 0)
(1.8944647 0.018888796 0)
(1.8542255 0.018701802 0)
(1.8140814 0.018511213 0)
(1.7740428 0.018316344 0)
(3.8715426 0.040234062 0)
(3.8175483 0.03981411 0)
(3.7645774 0.039433413 0)
(3.7125597 0.039087414 0)
(3.6614297 0.038772573 0)
(3.6111273 0.03848564 0)
(3.561596 0.038223494 0)
(3.5127836 0.037983382 0)
(3.4646411 0.037762612 0)
(3.4171226 0.03755881 0)
(3.3701852 0.037369622 0)
(3.3237888 0.037193015 0)
(3.2778953 0.037026917 0)
(3.2324694 0.036869561 0)
(3.1874774 0.036719111 0)
(3.1428878 0.036574074 0)
(3.0986706 0.036432881 0)
(3.054798 0.03629432 0)
(3.011243 0.036157042 0)
(2.9679804 0.036020039 0)
(2.9249862 0.035882058 0)
(2.8822379 0.035742043 0)
(2.8397143 0.035598894 0)
(2.7973955 0.035452128 0)
(2.7552628 0.03530063 0)
(2.7132975 0.035143651 0)
(2.6714851 0.034977813 0)
(2.6298153 0.034803854 0)
(2.588274 0.034624467 0)
(2.5468457 0.034439935 0)
(2.5055171 0.034249739 0)
(2.4642772 0.034052752 0)
(2.423118 0.03384826 0)
(2.3820333 0.033636036 0)
(2.3410181 0.033415805 0)
(2.3000685 0.033187634 0)
(2.2591817 0.032951334 0)
(2.2183554 0.032707027 0)
(2.1775884 0.032454537 0)
(2.1368804 0.032194017 0)
(2.0962323 0.031925365 0)
(2.0556457 0.031648643 0)
(2.0151241 0.031363602 0)
(1.9746713 0.031069369 0)
(1.9342905 0.030764579 0)
(1.8939854 0.030450293 0)
(1.8537641 0.030128892 0)
(1.8136375 0.029800398 0)
(1.7736164 0.02946557 0)
(3.8683207 0.056012226 0)
(3.8144768 0.05542286 0)
(3.7616455 0.054887748 0)
(3.7097578 0.054400838 0)
(3.658749 0.05395717 0)
(3.6085596 0.053552122 0)
(3.559134 0.053181457 0)
(3.5104204 0.052841219 0)
(3.4623701 0.05252779 0)
(3.4149381 0.052237723 0)
(3.3680817 0.051967901 0)
(3.3217612 0.05171531 0)
(3.275939 0.051477263 0)
(3.23058 0.051251096 0)
(3.185651 0.051034501 0)
(3.1411208 0.050825139 0)
(3.0969597 0.050621106 0)
(3.0531402 0.050420441 0)
(3.0096355 0.050221567 0)
(2.9664208 0.050022773 0)
(2.923472 0.049822604 0)
(2.8807671 0.049619262 0)
(2.8382851 0.049411432 0)
(2.7960063 0.04919813 0)
(2.7539119 0.048978208 0)
(2.711983 0.048750328 0)
(2.6702055 0.048510125 0)
(2.6285705 0.048257728 0)
(2.5870639 0.047997771 0)
(2.5456696 0.047730255 0)
(2.504374 0.047454875 0)
(2.4631662 0.047169584 0)
(2.4220385 0.046873839 0)
(2.3809846 0.046566975 0)
(2.3399998 0.046248996 0)
(2.2990804 0.045919655 0)
(2.2582233 0.045579072 0)
(2.2174264 0.045227077 0)
(2.1766886 0.044863799 0)
(2.1360094 0.044489128 0)
(2.0953896 0.044103221 0)
(2.0548311 0.043705935 0)
(2.0143369 0.043297213 0)
(1.9739107 0.042876276 0)
(1.9335562 0.042442237 0)
(1.8932774 0.04199631 0)
(1.8530823 0.041540048 0)
(1.8129816 0.041074375 0)
(1.7729862 0.040599352 0)
(3.8640981 0.071727987 0)
(3.8104587 0.07097269 0)
(3.7578179 0.070286361 0)
(3.7061079 0.069661457 0)
(3.655265 0.069091602 0)
(3.6052309 0.068570935 0)
(3.5559504 0.068093971 0)
(3.5073726 0.067655753 0)
(3.4594495 0.067251528 0)
(3.4121364 0.066877042 0)
(3.3653914 0.066528131 0)
(3.3191752 0.066201146 0)
(3.2734507 0.065892425 0)
(3.2281834 0.065598823 0)
(3.1833402 0.065317101 0)
(3.1388905 0.065044593 0)
(3.0948051 0.064778523 0)
(3.0510566 0.064516763 0)
(3.0076189 0.064256905 0)
(2.9644672 0.063997194 0)
(2.921578 0.063735311 0)
(2.8789292 0.063469364 0)
(2.8365006 0.063197142 0)
(2.7942724 0.062917987 0)
(2.7522264 0.062629999 0)
(2.7103427 0.062331795 0)
(2.6686079 0.062017486 0)
(2.6270153 0.061686856 0)
(2.5855508 0.061346216 0)
(2.5441974 0.060996191 0)
(2.5029411 0.060635714 0)
(2.4617711 0.060262546 0)
(2.4206803 0.059875547 0)
(2.3796626 0.059474367 0)
(2.3387135 0.059058598 0)
(2.2978293 0.058628372 0)
(2.2570072 0.058183461 0)
(2.2162449 0.057724041 0)
(2.1755415 0.057249937 0)
(2.1348964 0.056761347 0)
(2.0943106 0.056258169 0)
(2.0537858 0.055740526 0)
(2.0133248 0.055208188 0)
(1.9729313 0.054660784 0)
(1.9326093 0.054097765 0)
(1.8923632 0.053520013 0)
(1.8522009 0.052929482 0)
(1.8121327 0.052326391 0)
(1.7721697 0.051711726 0)
(3.8592054 0.086470441 0)
(3.8058088 0.085563087 0)
(3.7533947 0.084738073 0)
(3.7018967 0.083986499 0)
(3.6512525 0.08330087 0)
(3.6014043 0.082674003 0)
(3.552298 0.082099497 0)
(3.5038835 0.081571218 0)
(3.4561134 0.081083637 0)
(3.4089438 0.080631458 0)
(3.3623334 0.080209861 0)
(3.3162433 0.079814274 0)
(3.2706371 0.079440482 0)
(3.2254806 0.079084518 0)
(3.1807413 0.07874268 0)
(3.136389 0.078411556 0)
(3.092395 0.078088007 0)
(3.0487322 0.077769302 0)
(3.005375 0.077452742 0)
(2.9622989 0.077136058 0)
(2.9194805 0.076816639 0)
(2.8768984 0.076492014 0)
(2.8345326 0.076159586 0)
(2.7923641 0.075818494 0)
(2.7503744 0.075466946 0)
(2.7085431 0.075102721 0)
(2.6668572 0.074719009 0)
(2.6253128 0.074314195 0)
(2.5838961 0.07389755 0)
(2.5425887 0.073469702 0)
(2.5013762 0.073029316 0)
(2.4602479 0.072573272 0)
(2.4191974 0.072100439 0)
(2.3782191 0.071610277 0)
(2.3373086 0.071102515 0)
(2.2964624 0.070577158 0)
(2.2556778 0.07003411 0)
(2.2149527 0.069473413 0)
(2.1742861 0.068895025 0)
(2.1336776 0.068299042 0)
(2.0931281 0.067685484 0)
(2.0526393 0.067054426 0)
(2.0122141 0.066405784 0)
(1.971856 0.065739359 0)
(1.9315693 0.065054893 0)
(1.8913587 0.064353328 0)
(1.851232 0.06363616 0)
(1.8111994 0.062904069 0)
(1.7712718 0.062157778 0)
(3.8537673 0.10042553 0)
(3.8006351 0.099377489 0)
(3.7484678 0.098424237 0)
(3.6972005 0.097555683 0)
(3.6467723 0.096763168 0)
(3.5971265 0.09603842 0)
(3.5482103 0.095374 0)
(3.4999741 0.094762874 0)
(3.4523717 0.09419858 0)
(3.4053599 0.093675071 0)
(3.3588979 0.093186677 0)
(3.3129477 0.092728209 0)
(3.2674734 0.092294671 0)
(3.2224414 0.091881594 0)
(3.1778197 0.091484545 0)
(3.1335786 0.091099715 0)
(3.0896898 0.0907233 0)
(3.0461268 0.090352336 0)
(3.0028642 0.089983523 0)
(2.959878 0.089614448 0)
(2.917145 0.089241858 0)
(2.874644 0.088863047 0)
(2.8323556 0.088474665 0)
(2.7902611 0.088076112 0)
(2.7483421 0.087665501 0)
(2.7065773 0.087239594 0)
(2.6649539 0.086791353 0)
(2.6234714 0.086316718 0)
(2.5821166 0.08582825 0)
(2.5408689 0.085327361 0)
(2.4997134 0.084811671 0)
(2.4586398 0.084277581 0)
(2.417642 0.083723573 0)
(2.3767149 0.083149312 0)
(2.3358542 0.082554307 0)
(2.2950567 0.081938801 0)
(2.2543196 0.081302514 0)
(2.213641 0.080645699 0)
(2.1730199 0.079968154 0)
(2.1324559 0.07927016 0)
(2.0919501 0.078551607 0)
(2.051504 0.077812748 0)
(2.0111206 0.077053444 0)
(1.9708035 0.076273774 0)
(1.9305569 0.075473656 0)
(1.8903861 0.074653989 0)
(1.8502987 0.073816369 0)
(1.8103047 0.072961268 0)
(1.7704155 0.072089817 0)
(3.8473807 0.11467256 0)
(3.7945558 0.11348504 0)
(3.7426753 0.11240465 0)
(3.6916763 0.11142003 0)
(3.6414995 0.1105215 0)
(3.5920897 0.10969961 0)
(3.5433951 0.10894604 0)
(3.4953675 0.10825269 0)
(3.4479617 0.10761233 0)
(3.4011353 0.107018 0)
(3.3548485 0.10646335 0)
(3.3090641 0.10594238 0)
(3.2637469 0.10544952 0)
(3.2188638 0.10497958 0)
(3.1743836 0.10452759 0)
(3.130277 0.10408914 0)
(3.0865165 0.10365994 0)
(3.0430759 0.10323662 0)
(2.9999303 0.10281549 0)
(2.9570559 0.10239377 0)
(2.9144297 0.10196782 0)
(2.8720307 0.10153453 0)
(2.8298403 0.1010899 0)
(2.7878403 0.10063333 0)
(2.7460115 0.10016348 0)
(2.7043323 0.099674861 0)
(2.6627893 0.099162093 0)
(2.6213864 0.098616041 0)
(2.5801119 0.098054115 0)
(2.5389419 0.09747888 0)
(2.4978603 0.096886657 0)
(2.4568573 0.096273029 0)
(2.4159276 0.095636332 0)
(2.3750663 0.094976252 0)
(2.3342694 0.094292286 0)
(2.2935337 0.09358472 0)
(2.2528565 0.092853258 0)
(2.2122361 0.092098184 0)
(2.1716712 0.091319292 0)
(2.1311619 0.090516901 0)
(2.090709 0.089690919 0)
(2.0503144 0.088841669 0)
(2.0099808 0.087969084 0)
(1.969712 0.087073436 0)
(1.9295124 0.086154805 0)
(1.8893875 0.085214205 0)
(1.849345 0.084252968 0)
(1.8093949 0.08327189 0)
(1.7695486 0.082271961 0)
(3.8400028 0.12920494 0)
(3.7875347 0.12788007 0)
(3.7359877 0.12667439 0)
(3.6853011 0.12557541 0)
(3.6354174 0.12457234 0)
(3.5862831 0.12365466 0)
(3.5378478 0.12281306 0)
(3.4900647 0.12203853 0)
(3.4428895 0.12132296 0)
(3.3962813 0.12065858 0)
(3.350201 0.12003825 0)
(3.3046125 0.11945531 0)
(3.2594811 0.11890347 0)
(3.2147747 0.11837696 0)
(3.1704627 0.11787017 0)
(3.1265165 0.11737812 0)
(3.082909 0.11689605 0)
(3.0396147 0.11642019 0)
(2.996609 0.11594649 0)
(2.9538686 0.11547183 0)
(2.9113707 0.11499217 0)
(2.8690941 0.114504 0)
(2.8270211 0.11400252 0)
(2.7851345 0.11348724 0)
(2.743414 0.11295794 0)
(2.7018374 0.11240513 0)
(2.6603905 0.11182824 0)
(2.619082 0.11120908 0)
(2.5779034 0.11057165 0)
(2.5368258 0.10992099 0)
(2.4958318 0.10925105 0)
(2.454912 0.10855658 0)
(2.4140624 0.10783578 0)
(2.373278 0.10708833 0)
(2.3325554 0.10631377 0)
(2.2918913 0.1055124 0)
(2.2512833 0.10468393 0)
(2.2107295 0.10382866 0)
(2.1702291 0.10294639 0)
(2.1297819 0.10203748 0)
(2.089389 0.10110185 0)
(2.0490522 0.1001399 0)
(2.0087745 0.099151631 0)
(1.9685597 0.098137473 0)
(1.9284125 0.097097692 0)
(1.8883387 0.096033278 0)
(1.8483459 0.094945634 0)
(1.8084442 0.093835493 0)
(1.7686454 0.092704115 0)
(3.8315751 0.14400825 0)
(3.7795179 0.14254914 0)
(3.7283555 0.14122103 0)
(3.6780295 0.14001023 0)
(3.6284845 0.13890489 0)
(3.5796687 0.13789348 0)
(3.5315336 0.13696571 0)
(3.4840336 0.13611167 0)
(3.437126 0.13532237 0)
(3.3907709 0.13458926 0)
(3.3449305 0.13390444 0)
(3.2995694 0.13326055 0)
(3.2546542 0.13265065 0)
(3.2101534 0.13206833 0)
(3.166037 0.13150739 0)
(3.1222773 0.13096227 0)
(3.0788479 0.13042767 0)
(3.0357238 0.12989954 0)
(2.992881 0.12937347 0)
(2.9502964 0.12884598 0)
(2.9079473 0.12831265 0)
(2.8658128 0.12776974 0)
(2.8238759 0.12721143 0)
(2.7821209 0.12663739 0)
(2.7405252 0.12604906 0)
(2.6990674 0.12543011 0)
(2.657731 0.124791 0)
(2.6165297 0.12409753 0)
(2.5754617 0.12338246 0)
(2.5344906 0.12265566 0)
(2.4935966 0.12190708 0)
(2.4527716 0.12113075 0)
(2.4120128 0.12032468 0)
(2.3713158 0.11948863 0)
(2.3306773 0.11862211 0)
(2.2900941 0.11772547 0)
(2.2495639 0.11679839 0)
(2.2090851 0.11584121 0)
(2.1686568 0.1148537 0)
(2.1282791 0.11383627 0)
(2.0879533 0.11278887 0)
(2.0476811 0.11171195 0)
(2.0074658 0.11060563 0)
(1.9673114 0.10947046 0)
(1.9272226 0.10830684 0)
(1.8872056 0.10711588 0)
(1.8472682 0.10589884 0)
(1.8074205 0.10465669 0)
(1.7676746 0.10339063 0)
(3.8220224 0.15906649 0)
(3.7704339 0.15747765 0)
(3.7197104 0.15603102 0)
(3.6697963 0.15471198 0)
(3.6206382 0.15350763 0)
(3.5721866 0.15240542 0)
(3.5243946 0.15139415 0)
(3.4772184 0.150463 0)
(3.4306169 0.14960216 0)
(3.3845514 0.14880228 0)
(3.3389853 0.14805475 0)
(3.2938846 0.14735151 0)
(3.2492166 0.14668498 0)
(3.2049507 0.14604814 0)
(3.1610579 0.14543418 0)
(3.1175111 0.1448369 0)
(3.0742849 0.14425058 0)
(3.031355 0.14367078 0)
(2.9886978 0.143093 0)
(2.9462905 0.14251314 0)
(2.9041108 0.14192666 0)
(2.8621376 0.14132955 0)
(2.8203551 0.14071478 0)
(2.7787496 0.14008218 0)
(2.7372944 0.13943566 0)
(2.6959717 0.13874779 0)
(2.6547601 0.13805007 0)
(2.6136775 0.13728172 0)
(2.5727346 0.13648627 0)
(2.5318842 0.13568308 0)
(2.4911025 0.13485505 0)
(2.4503839 0.13399602 0)
(2.409727 0.13310379 0)
(2.3691279 0.13217805 0)
(2.3285834 0.13121842 0)
(2.2880908 0.13022515 0)
(2.2476478 0.12919802 0)
(2.2072529 0.12813727 0)
(2.1669054 0.12704279 0)
(2.1266056 0.12591491 0)
(2.0863548 0.1247537 0)
(2.0461552 0.12355962 0)
(2.0060099 0.12233292 0)
(1.9659232 0.12107424 0)
(1.9259002 0.11978416 0)
(1.8859471 0.11846378 0)
(1.8460721 0.11711444 0)
(1.8062853 0.11573716 0)
(1.7665991 0.1143333 0)
(3.8112537 0.17436127 0)
(3.7601944 0.17264831 0)
(3.7099666 0.17108844 0)
(3.6605176 0.16966592 0)
(3.6117968 0.16836686 0)
(3.5637567 0.16717783 0)
(3.5163525 0.16608664 0)
(3.4695424 0.16508169 0)
(3.4232867 0.1641523 0)
(3.3775483 0.16328841 0)
(3.3322922 0.16248064 0)
(3.2874854 0.16172033 0)
(3.2430963 0.16099922 0)
(3.1990955 0.16030975 0)
(3.1554547 0.15964443 0)
(3.1121478 0.15899647 0)
(3.0691504 0.15835961 0)
(3.026439 0.15772925 0)
(2.9839905 0.15710078 0)
(2.9417826 0.15646943 0)
(2.8997933 0.15583049 0)
(2.858001 0.15518016 0)
(2.8163915 0.15450973 0)
(2.7749542 0.15382006 0)
(2.7336547 0.15311631 0)
(2.6924848 0.15235447 0)
(2.6514138 0.15160432 0)
(2.6104602 0.15076127 0)
(2.5696579 0.14988227 0)
(2.528944 0.14900262 0)
(2.4882876 0.14809422 0)
(2.447688 0.14715188 0)
(2.4071449 0.14617269 0)
(2.3666552 0.14515642 0)
(2.3262161 0.14410262 0)
(2.2858249 0.14301157 0)
(2.2454796 0.141883 0)
(2.2051787 0.1407172 0)
(2.164922 0.13951403 0)
(2.1247097 0.13827389 0)
(2.0845434 0.13699684 0)
(2.0444254 0.13568346 0)
(2.0043592 0.13433405 0)
(1.9643491 0.13294939 0)
(1.9244005 0.13153016 0)
(1.88452 0.13007759 0)
(1.8447157 0.12859296 0)
(1.8049982 0.12707748 0)
(1.7653796 0.12553254 0)
(3.7991679 0.18987126 0)
(3.7487003 0.18804173 0)
(3.6990271 0.18637521 0)
(3.6500987 0.18485528 0)
(3.6018672 0.18346708 0)
(3.5542877 0.18219628 0)
(3.5073176 0.18102986 0)
(3.4609171 0.17995533 0)
(3.4150484 0.1789613 0)
(3.3696761 0.17803691 0)
(3.3247667 0.17717219 0)
(3.2802884 0.17635775 0)
(3.2362112 0.17558483 0)
(3.1925065 0.17484516 0)
(3.1491472 0.17413077 0)
(3.1061081 0.17343405 0)
(3.0633659 0.17274838 0)
(3.0208984 0.17206885 0)
(2.9786827 0.17139132 0)
(2.936697 0.17070954 0)
(2.8949201 0.17001927 0)
(2.8533298 0.16931713 0)
(2.8119132 0.16859263 0)
(2.7706636 0.16784811 0)
(2.7295342 0.16708856 0)
(2.6885376 0.16624449 0)
(2.6476258 0.16545061 0)
(2.60681 0.16453582 0)
(2.5661646 0.16356775 0)
(2.5256046 0.16261259 0)
(2.485088 0.16162267 0)
(2.4446212 0.16059645 0)
(2.4042053 0.15952982 0)
(2.3638379 0.15842227 0)
(2.3235167 0.15727349 0)
(2.283239 0.15608355 0)
(2.2430031 0.15485237 0)
(2.2028079 0.15358005 0)
(2.1626531 0.15226664 0)
(2.1225393 0.15091241 0)
(2.0824683 0.14951764 0)
(2.0424425 0.14808281 0)
(2.0024656 0.14660845 0)
(1.9625422 0.14509534 0)
(1.922678 0.14354438 0)
(1.8828797 0.14195676 0)
(1.8431558 0.14033391 0)
(1.8035168 0.13867712 0)
(1.7639754 0.13698792 0)
(3.785659 0.20557305 0)
(3.7358481 0.20363567 0)
(3.6867903 0.20187075 0)
(3.6384399 0.20026094 0)
(3.5907518 0.19879046 0)
(3.5436837 0.19744424 0)
(3.4971957 0.19620833 0)
(3.4512501 0.19506957 0)
(3.4058111 0.19401572 0)
(3.3608452 0.19303535 0)
(3.3163206 0.1921177 0)
(3.2722072 0.19125294 0)
(3.2284761 0.19043159 0)
(3.1851 0.18964497 0)
(3.1420528 0.18888432 0)
(3.0993105 0.18814144 0)
(3.0568515 0.18740904 0)
(3.0146545 0.18668231 0)
(2.9726971 0.18595776 0)
(2.9309578 0.18522723 0)
(2.8894169 0.18448683 0)
(2.8480507 0.18373474 0)
(2.8068486 0.182958 0)
(2.7658078 0.1821647 0)
(2.7248611 0.18134887 0)
(2.6840614 0.18041054 0)
(2.6433323 0.1795827 0)
(2.6026601 0.17860452 0)
(2.5621888 0.17753929 0)
(2.5218034 0.17650914 0)
(2.4814414 0.17543664 0)
(2.441123 0.17432656 0)
(2.4008488 0.17317215 0)
(2.3606179 0.17197297 0)
(2.3204283 0.17072843 0)
(2.2802776 0.16943879 0)
(2.2401642 0.1681038 0)
(2.2000874 0.16672374 0)
(2.1600469 0.16529852 0)
(2.1200438 0.1638286 0)
(2.0800798 0.16231417 0)
(2.0401579 0.16075591 0)
(2.0002818 0.15915432 0)
(1.9604564 0.1575104 0)
(1.9206875 0.15582506 0)
(1.8809823 0.15409967 0)
(1.8413492 0.15233564 0)
(1.8017993 0.15053447 0)
(1.7623451 0.14869777 0)
(3.7706217 0.22143949 0)
(3.7215341 0.21940532 0)
(3.673155 0.21755183 0)
(3.6254419 0.21586116 0)
(3.5783531 0.21431677 0)
(3.5318494 0.21290273 0)
(3.4858933 0.21160438 0)
(3.4404496 0.21040778 0)
(3.3954848 0.20930008 0)
(3.3509675 0.20826909 0)
(3.3068676 0.20730357 0)
(3.2631568 0.20639299 0)
(3.2198077 0.2055275 0)
(3.1767942 0.20469774 0)
(3.1340914 0.20389447 0)
(3.0916766 0.2031085 0)
(3.0495298 0.20233215 0)
(3.0076317 0.20156042 0)
(2.9659594 0.20079198 0)
(2.9244919 0.2000144 0)
(2.8832121 0.19922558 0)
(2.8420942 0.19842511 0)
(2.8011314 0.19760092 0)
(2.7603206 0.19677128 0)
(2.7195645 0.19588868 0)
(2.6789904 0.19487076 0)
(2.6384751 0.19398116 0)
(2.5979488 0.19294868 0)
(2.5576671 0.19179176 0)
(2.51748 0.19068685 0)
(2.4772895 0.18953042 0)
(2.4371362 0.18833738 0)
(2.3970196 0.18709557 0)
(2.3569404 0.18580447 0)
(2.3168971 0.18446382 0)
(2.2768878 0.18307364 0)
(2.2369112 0.18163398 0)
(2.1969664 0.1801449 0)
(2.1570538 0.17860659 0)
(2.1171744 0.17701931 0)
(2.0773305 0.17538353 0)
(2.037525 0.1736998 0)
(1.997762 0.17196891 0)
(1.9580466 0.17019178 0)
(1.918385 0.16836957 0)
(1.8787844 0.16650363 0)
(1.8392537 0.16459554 0)
(1.7998041 0.16264693 0)
(1.7604482 0.16065956 0)
(3.7539534 0.23744111 0)
(3.7056586 0.23532265 0)
(3.6580232 0.23339224 0)
(3.611009 0.2316315 0)
(3.5645777 0.23002304 0)
(3.518693 0.2285503 0)
(3.4733206 0.22719782 0)
(3.4284278 0.22595109 0)
(3.3839835 0.22479652 0)
(3.3399586 0.22372143 0)
(3.2963251 0.22271393 0)
(3.2530564 0.22176306 0)
(3.2101268 0.22085842 0)
(3.1675117 0.21999029 0)
(3.125187 0.21914863 0)
(3.0831317 0.21832346 0)
(3.0413278 0.21750635 0)
(2.9997588 0.21669254 0)
(2.9584 0.21588419 0)
(2.9172308 0.21506208 0)
(2.8762385 0.21422634 0)
(2.8353957 0.21338021 0)
(2.7947019 0.21251567 0)
(2.7541375 0.21166715 0)
(2.7135877 0.21069703 0)
(2.6732582 0.20965977 0)
(2.6329808 0.20861579 0)
(2.5926232 0.20753604 0)
(2.5525467 0.20632064 0)
(2.5125782 0.20513913 0)
(2.4725768 0.20389518 0)
(2.4326077 0.20262215 0)
(2.3926648 0.2012942 0)
(2.3527535 0.19991149 0)
(2.3128724 0.19847439 0)
(2.2730199 0.19698321 0)
(2.2331949 0.19543799 0)
(2.193397 0.19383894 0)
(2.1536265 0.1921862 0)
(2.113885 0.19048017 0)
(2.0741747 0.18872131 0)
(2.0344991 0.18691031 0)
(1.9948624 0.18504799 0)
(1.9552699 0.18313543 0)
(1.9157282 0.18117384 0)
(1.8762448 0.17916472 0)
(1.8368286 0.17710973 0)
(1.7974913 0.17501063 0)
(1.7582455 0.17286952 0)
(3.7355571 0.25354451 0)
(3.6881258 0.25135646 0)
(3.6413016 0.24936275 0)
(3.5950498 0.24754442 0)
(3.5493359 0.24588345 0)
(3.5041271 0.24436257 0)
(3.459392 0.24296574 0)
(3.4151009 0.24167781 0)
(3.3712254 0.24048466 0)
(3.3277385 0.23937303 0)
(3.2846148 0.23833054 0)
(3.2418295 0.2373458 0)
(3.1993587 0.23640798 0)
(3.1571791 0.23550699 0)
(3.1152679 0.23463211 0)
(3.0736056 0.23377232 0)
(3.0321766 0.23291845 0)
(2.9909687 0.2320659 0)
(2.9499531 0.23122357 0)
(2.9091094 0.23035976 0)
(2.868433 0.22948023 0)
(2.8278952 0.22859087 0)
(2.7875055 0.22771878 0)
(2.7471976 0.22681821 0)
(2.7068842 0.22573422 0)
(2.6667962 0.2247063 0)
(2.6267653 0.22350399 0)
(2.5866409 0.22236869 0)
(2.5467835 0.22115494 0)
(2.5070422 0.21987191 0)
(2.4672512 0.21852158 0)
(2.4274877 0.21717218 0)
(2.3877354 0.2157609 0)
(2.3480084 0.21428728 0)
(2.308306 0.21275374 0)
(2.2686265 0.21116116 0)
(2.228969 0.20950978 0)
(2.1893333 0.20779984 0)
(2.1497202 0.2060316 0)
(2.1101312 0.20420547 0)
(2.0705691 0.202322 0)
(2.0310375 0.20038196 0)
(1.991541 0.19838627 0)
(1.9520852 0.19633609 0)
(1.9126767 0.19423275 0)
(1.8733235 0.19207786 0)
(1.8340348 0.18987313 0)
(1.7948225 0.18762072 0)
(1.7556993 0.18532255 0)
(3.7153393 0.26971275 0)
(3.6688448 0.267472 0)
(3.6229009 0.26543063 0)
(3.577477 0.26356923 0)
(3.5325425 0.26186903 0)
(3.4880681 0.26031228 0)
(3.4440258 0.25888234 0)
(3.400389 0.25756359 0)
(3.3571321 0.2563414 0)
(3.3142308 0.25520203 0)
(3.2716618 0.25413264 0)
(3.2294028 0.25312151 0)
(3.1874316 0.25215742 0)
(3.1457264 0.25123008 0)
(3.1042655 0.25032801 0)
(3.0630309 0.24943915 0)
(3.0220101 0.24855327 0)
(2.9811976 0.24766621 0)
(2.9405565 0.24679814 0)
(2.9000663 0.24589798 0)
(2.8597349 0.24498475 0)
(2.819547 0.24407222 0)
(2.7794768 0.24320514 0)
(2.7394139 0.24212971 0)
(2.6993851 0.24099502 0)
(2.6595707 0.23993575 0)
(2.619795 0.23867543 0)
(2.5799614 0.23747751 0)
(2.5403324 0.23626998 0)
(2.5008016 0.2348918 0)
(2.4612551 0.23340608 0)
(2.4217291 0.23197837 0)
(2.382184 0.23048725 0)
(2.3426582 0.22892376 0)
(2.3031515 0.22729385 0)
(2.263662 0.22559964 0)
(2.2241886 0.22384164 0)
(2.1847315 0.22202011 0)
(2.1452915 0.22013541 0)
(2.1058707 0.21818799 0)
(2.066472 0.21617852 0)
(2.0270994 0.21410781 0)
(1.9877576 0.21197691 0)
(1.9484527 0.20978705 0)
(1.9091916 0.20753968 0)
(1.8699824 0.20523647 0)
(1.8308348 0.20287944 0)
(1.7917608 0.20047053 0)
(1.7527735 0.19801271 0)
(3.6932114 0.285905 0)
(3.647728 0.28363085 0)
(3.6027355 0.28155986 0)
(3.5582066 0.27967184 0)
(3.5141149 0.2779476 0)
(3.4704351 0.27636892 0)
(3.4271428 0.27491874 0)
(3.3842145 0.27358102 0)
(3.3416277 0.2723407 0)
(3.2993609 0.27118367 0)
(3.2573933 0.27009666 0)
(3.2157049 0.26906773 0)
(3.1742758 0.26808529 0)
(3.1330854 0.26713915 0)
(3.092113 0.26621693 0)
(3.0513422 0.26530561 0)
(3.0107641 0.26439348 0)
(2.9703842 0.26347656 0)
(2.9301509 0.26259579 0)
(2.890045 0.26166974 0)
(2.8500973 0.26073814 0)
(2.8102938 0.25983027 0)
(2.7705084 0.25882955 0)
(2.7307274 0.25763183 0)
(2.6910598 0.25650939 0)
(2.6515333 0.25538862 0)
(2.6120385 0.25410944 0)
(2.5725198 0.25285254 0)
(2.5331413 0.25159959 0)
(2.4938134 0.2501743 0)
(2.4545306 0.248548 0)
(2.4152827 0.24703451 0)
(2.3759648 0.24546412 0)
(2.3366567 0.24381146 0)
(2.2973636 0.24208522 0)
(2.2580818 0.24028929 0)
(2.21881 0.23842436 0)
(2.1795483 0.23649071 0)
(2.1402982 0.23448878 0)
(2.1010618 0.23241908 0)
(2.0618425 0.23028235 0)
(2.0226444 0.22807949 0)
(1.9834728 0.22581167 0)
(1.9443338 0.2234802 0)
(1.9052347 0.22108662 0)
(1.8661841 0.21863279 0)
(1.8271917 0.21612058 0)
(1.7882703 0.2135528 0)
(1.7494328 0.21093176 0)
(3.7139245 0.30458755 0)
(3.6690861 0.3020765 0)
(3.6246909 0.29979119 0)
(3.5807218 0.29771074 0)
(3.5371563 0.29581471 0)
(3.4939724 0.29408356 0)
(3.4511489 0.29249874 0)
(3.4086651 0.29104287 0)
(3.366501 0.2896996 0)
(3.3246373 0.28845354 0)
(3.2830552 0.28729031 0)
(3.2417371 0.28619624 0)
(3.2006652 0.2851593 0)
(3.1598219 0.28416753 0)
(3.1191881 0.28321122 0)
(3.0787438 0.28227702 0)
(3.0384741 0.28135124 0)
(2.9983741 0.28041916 0)
(2.9584684 0.27947856 0)
(2.91868 0.27860189 0)
(2.8789902 0.27765673 0)
(2.8394676 0.27671336 0)
(2.8000165 0.2757456 0)
(2.7605454 0.27458193 0)
(2.7211393 0.27341322 0)
(2.6818431 0.27226412 0)
(2.642628 0.27108179 0)
(2.6034408 0.26977678 0)
(2.564254 0.26845956 0)
(2.525159 0.26713164 0)
(2.4860385 0.26566564 0)
(2.4470287 0.26395652 0)
(2.4080977 0.26233936 0)
(2.3690299 0.26068179 0)
(2.3299576 0.2589391 0)
(2.2908966 0.2571165 0)
(2.2518412 0.25521888 0)
(2.2127891 0.2532469 0)
(2.1737408 0.25120084 0)
(2.1346979 0.24908108 0)
(2.095663 0.24688826 0)
(2.0566397 0.24462318 0)
(2.0176325 0.24228689 0)
(1.9786471 0.23988058 0)
(1.9396898 0.23740571 0)
(1.9007683 0.23486393 0)
(1.8618913 0.23225708 0)
(1.8230694 0.22958754 0)
(1.7843152 0.22685756 0)
(1.7456422 0.22407112 0)
(3.6864806 0.32067817 0)
(3.6428806 0.31818 0)
(3.5996503 0.31590753 0)
(3.5567777 0.31384006 0)
(3.5142451 0.31195673 0)
(3.472035 0.31023783 0)
(3.4301305 0.30866451 0)
(3.3885149 0.30721926 0)
(3.3471719 0.30588549 0)
(3.3060854 0.30464764 0)
(3.2652398 0.30349109 0)
(3.2246204 0.30240185 0)
(3.1842121 0.30136794 0)
(3.1439999 0.30037701 0)
(3.103966 0.29942029 0)
(3.0640908 0.29848352 0)
(3.0243604 0.29755266 0)
(2.9847752 0.29660976 0)
(2.9453899 0.2956555 0)
(2.9060832 0.29478555 0)
(2.8668373 0.29382342 0)
(2.8277437 0.29284312 0)
(2.7886641 0.29176666 0)
(2.7495827 0.2905835 0)
(2.7105874 0.28942643 0)
(2.6716677 0.28823404 0)
(2.6327963 0.28699314 0)
(2.5939449 0.28565442 0)
(2.555104 0.28427672 0)
(2.5163208 0.28285415 0)
(2.4774455 0.28130429 0)
(2.4387167 0.27964935 0)
(2.4001128 0.27789751 0)
(2.3613263 0.27612724 0)
(2.3225125 0.27429271 0)
(2.2837037 0.27237429 0)
(2.2448944 0.27037526 0)
(2.2060812 0.26829641 0)
(2.1672648 0.26613779 0)
(2.1284473 0.26389986 0)
(2.0896317 0.26158329 0)
(2.0508219 0.259189 0)
(2.0120229 0.25671811 0)
(1.9732404 0.25417195 0)
(1.9344813 0.25155207 0)
(1.8957534 0.24886019 0)
(1.8570662 0.2460984 0)
(1.8184301 0.24326874 0)
(1.7798589 0.24037451 0)
(1.7413661 0.23741948 0)
(3.6567943 0.33661917 0)
(3.6145126 0.33416298 0)
(3.5725248 0.33193044 0)
(3.5308223 0.3299007 0)
(3.4893926 0.3280531 0)
(3.4482229 0.32636772 0)
(3.407301 0.32482554 0)
(3.3666142 0.32340903 0)
(3.32615 0.32210155 0)
(3.285896 0.32088743 0)
(3.2458396 0.31975199 0)
(3.2059693 0.31868087 0)
(3.1662728 0.31766243 0)
(3.1267382 0.31668356 0)
(3.0873486 0.31573744 0)
(3.0480852 0.31480833 0)
(3.0089343 0.31388389 0)
(2.9699026 0.31294528 0)
(2.9310792 0.31199053 0)
(2.8922901 0.31110328 0)
(2.8535078 0.31012469 0)
(2.8148605 0.30909615 0)
(2.7762072 0.3079638 0)
(2.7375658 0.30679824 0)
(2.6989979 0.30562214 0)
(2.6604761 0.3043909 0)
(2.6219792 0.3030995 0)
(2.5834912 0.30172189 0)
(2.5450076 0.30028573 0)
(2.5065489 0.29877548 0)
(2.4680107 0.29713649 0)
(2.4295795 0.29554036 0)
(2.3912555 0.29367645 0)
(2.3527919 0.29178163 0)
(2.3142711 0.2898554 0)
(2.2757363 0.28784278 0)
(2.2371934 0.28574314 0)
(2.1986391 0.28355781 0)
(2.1600742 0.28128681 0)
(2.1215012 0.27893056 0)
(2.0829236 0.27648983 0)
(2.0443457 0.27396564 0)
(2.0057726 0.27135923 0)
(1.9672107 0.26867203 0)
(1.9286671 0.26590571 0)
(1.89015 0.26306215 0)
(1.8516689 0.26014332 0)
(1.8132355 0.25715176 0)
(1.7748636 0.25409047 0)
(1.7365671 0.25096438 0)
(3.6247863 0.35235106 0)
(3.5839029 0.34996984 0)
(3.5432341 0.34780651 0)
(3.5027753 0.34584191 0)
(3.4625186 0.34405537 0)
(3.4224563 0.34242695 0)
(3.3825809 0.34093749 0)
(3.3428841 0.33956972 0)
(3.3033573 0.33830701 0)
(3.2639916 0.3371338 0)
(3.2247778 0.33603546 0)
(3.185708 0.33499719 0)
(3.1467724 0.33400804 0)
(3.1079628 0.33305359 0)
(3.0692635 0.33213 0)
(3.0306561 0.33121906 0)
(2.9921287 0.33031349 0)
(2.953691 0.32939883 0)
(2.9154571 0.32846895 0)
(2.8772183 0.32750866 0)
(2.8389371 0.32652974 0)
(2.8007686 0.32547437 0)
(2.7625896 0.3243333 0)
(2.7244254 0.32317339 0)
(2.6863057 0.32197487 0)
(2.648208 0.32071002 0)
(2.6101159 0.31937605 0)
(2.572019 0.31795892 0)
(2.5339144 0.31646988 0)
(2.4958072 0.31489651 0)
(2.4576469 0.31320982 0)
(2.4195377 0.3115463 0)
(2.3814953 0.30962896 0)
(2.3433765 0.30762447 0)
(2.3051813 0.30560832 0)
(2.2669432 0.30350393 0)
(2.228688 0.30130494 0)
(2.1904134 0.29901384 0)
(2.1521204 0.29663085 0)
(2.1138118 0.2941564 0)
(2.0754917 0.29159136 0)
(2.0371648 0.28893684 0)
(1.9988366 0.2861942 0)
(1.9605138 0.283365 0)
(1.9222038 0.28045106 0)
(1.8839152 0.27745432 0)
(1.8456582 0.27437701 0)
(1.8074442 0.27122143 0)
(1.7692888 0.26799103 0)
(1.7312062 0.26469174 0)
(3.6299088 0.37030648 0)
(3.5903808 0.36781309 0)
(3.550974 0.36554092 0)
(3.5117002 0.36347891 0)
(3.4725579 0.36160923 0)
(3.433544 0.35991145 0)
(3.3946559 0.3583656 0)
(3.3558908 0.35695246 0)
(3.3172454 0.35565527 0)
(3.2787146 0.35445761 0)
(3.2402938 0.35334415 0)
(3.2019766 0.35230053 0)
(3.1637592 0.3513113 0)
(3.1256341 0.35036683 0)
(3.0875976 0.34945002 0)
(3.049635 0.34856182 0)
(3.0117296 0.34767871 0)
(2.9738739 0.34680217 0)
(2.936079 0.3459234 0)
(2.8984353 0.34502563 0)
(2.8607802 0.34400903 0)
(2.8230656 0.34302958 0)
(2.7854122 0.34196816 0)
(2.7477489 0.34084021 0)
(2.7100883 0.339677 0)
(2.6724438 0.33845808 0)
(2.6347996 0.33716569 0)