/*--------------------------------*- C++ -*----------------------------------*\
| =========                 |                                                 |
| \\      /  F ield         | OpenFOAM: The Open Source CFD Toolbox           |
|  \\    /   O peration     | Version:  2312                                  |
|   \\  /    A nd           | Website:  www.openfoam.com                      |
|    \\/     M anipulation  |                                                 |
\*---------------------------------------------------------------------------*/
FoamFile
{
    version     2.0;
    format      ascii;
    arch        "LSB;label=32;scalar=64";
    class       volScalarField;
    location    "0.02";
    object      H2O;
}
// * * * * * * * * * * * * * * * * * * * * * * * * * * * * * * * * * * * * * //

dimensions      [0 0 0 0 0 0 0];

internalField   nonuniform List<scalar> 
3224
(
1.1753603e-05
9.9315357e-06
8.3806894e-06
7.0627543e-06
5.9444704e-06
4.9970507e-06
4.1955921e-06
3.5185992e-06
2.9475583e-06
2.4665563e-06
2.0619424e-06
1.7220296e-06
1.4368309e-06
1.1978282e-06
9.977701e-07
8.3049441e-07
6.907743e-07
5.7418399e-07
4.769824e-07
3.9601251e-07
3.2861444e-07
2.7255059e-07
2.2594136e-07
1.8721006e-07
1.5503577e-07
1.2831314e-07
1.061182e-07
8.7679267e-08
7.2352323e-08
5.9600176e-08
4.8974854e-08
4.0102762e-08
3.2672193e-08
2.6422826e-08
2.1136897e-08
1.6631803e-08
1.2753881e-08
9.3731989e-09
6.3791753e-09
3.676908e-09
1.1842286e-09
1.175339e-05
9.9312297e-06
8.3805621e-06
7.06278e-06
5.9445831e-06
4.9972081e-06
4.19577e-06
3.5187833e-06
2.94774e-06
2.4667306e-06
2.0621064e-06
1.7221818e-06
1.4369707e-06
1.1979556e-06
9.9788537e-07
8.305982e-07
6.9086734e-07
5.7426707e-07
4.7705633e-07
3.9607811e-07
3.2867248e-07
2.7260182e-07
2.2598648e-07
1.872497e-07
1.5507053e-07
1.2834355e-07
1.0614475e-07
8.7702381e-08
7.2372396e-08
5.9617554e-08
4.8989839e-08
4.0115622e-08
3.268316e-08
2.6432099e-08
2.1144646e-08
1.663817e-08
1.2758982e-08
9.3771268e-09
6.3820011e-09
3.6786745e-09
1.1848544e-09
1.17505e-05
9.9288385e-06
8.3787048e-06
7.0613327e-06
5.943452e-06
4.9963223e-06
4.1950762e-06
3.5182412e-06
2.9473182e-06
2.4664042e-06
2.0618558e-06
1.7219912e-06
1.4368274e-06
1.1978496e-06
9.9780843e-07
8.3054384e-07
6.9083038e-07
5.7424337e-07
4.7704264e-07
3.9607184e-07
3.2867163e-07
2.7260481e-07
2.259921e-07
1.8725704e-07
1.5507887e-07
1.2835238e-07
1.0615367e-07
8.7711122e-08
7.2380761e-08
5.962541e-08
4.8997102e-08
4.0122238e-08
3.2689102e-08
2.6437356e-08
2.1149217e-08
1.6642059e-08
1.2762196e-08
9.3796707e-09
6.383879e-09
3.6798839e-09
1.1852848e-09
1.1745203e-05
9.924547e-06
8.375215e-06
7.058492e-06
5.9411433e-06
4.9944478e-06
4.1935562e-06
3.5170107e-06
2.9463243e-06
2.4656034e-06
2.0612124e-06
1.7214759e-06
1.4364162e-06
1.1975225e-06
9.975495e-07
8.3033976e-07
6.9067034e-07
5.7411859e-07
4.7694598e-07
3.9599753e-07
3.2861499e-07
2.7256209e-07
2.2596028e-07
1.8723372e-07
1.5506212e-07
1.2834068e-07
1.0614582e-07
8.7706164e-08
7.237795e-08
5.9624162e-08
4.8996962e-08
4.0122856e-08
3.2690205e-08
2.6438733e-08
2.1150707e-08
1.6643536e-08
1.2763562e-08
9.3808478e-09
6.3848086e-09
3.6805247e-09
1.1855239e-09
1.3871086e-05
1.1737664e-05
9.9183241e-06
8.3700632e-06
7.0542348e-06
5.937637e-06
4.991567e-06
4.1911942e-06
3.515078e-06
2.9447461e-06
2.4643174e-06
2.0601669e-06
1.7206278e-06
1.4357298e-06
1.1969685e-06
9.9710332e-07
8.299814e-07
6.903833e-07
5.7388932e-07
4.7676341e-07
3.9585261e-07
3.2850035e-07
2.7247175e-07
2.2588939e-07
1.8717833e-07
1.5501908e-07
1.2830743e-07
1.061203e-07
8.7686742e-08
7.2363308e-08
5.9613252e-08
4.8988949e-08
4.0117077e-08
3.2686135e-08
2.6435956e-08
2.1148894e-08
1.6642425e-08
1.2762947e-08
9.3805666e-09
6.3847347e-09
3.6805704e-09
1.1855665e-09
1.3860665e-05
1.1728312e-05
9.9105726e-06
8.3635961e-06
7.0488521e-06
5.9331743e-06
4.9878784e-06
4.188153e-06
3.5125761e-06
2.942692e-06
2.4626345e-06
2.0587908e-06
1.7195048e-06
1.4348151e-06
1.1962249e-06
9.9650002e-07
8.2949285e-07
6.8998845e-07
5.7357083e-07
4.7650702e-07
3.9564663e-07
3.2833522e-07
2.7233966e-07
2.2578397e-07
1.8709441e-07
1.5495245e-07
1.2825468e-07
1.0607868e-07
8.765402e-08
7.2337694e-08
5.9593304e-08
4.8973507e-08
4.0105211e-08
3.2677101e-08
2.642916e-08
2.1143859e-08
1.6638775e-08
1.276038e-08
9.3788431e-09
6.3836697e-09
3.6800322e-09
1.185417e-09
1.3848072e-05
1.1717529e-05
9.9016112e-06
8.3560909e-06
7.0425833e-06
5.9279597e-06
4.983555e-06
4.184578e-06
3.5096267e-06
2.9402639e-06
2.4606395e-06
2.0571547e-06
1.7181655e-06
1.4337207e-06
1.1953321e-06
9.9577298e-07
8.2890175e-07
6.8950863e-07
5.7318198e-07
4.7619238e-07
3.9539244e-07
3.281302e-07
2.7217456e-07
2.2565124e-07
1.8698789e-07
1.5486712e-07
1.2818647e-07
1.0602427e-07
8.7610738e-08
7.2303362e-08
5.9566167e-08
4.8952151e-08
4.0088496e-08
3.266411e-08
2.6419156e-08
2.1136255e-08
1.6633098e-08
1.2756254e-08
9.375971e-09
6.3818185e-09
3.6790288e-09
1.1851172e-09
1.383251e-05
1.1704484e-05
9.8906882e-06
8.3469166e-06
7.0349035e-06
5.9215571e-06
4.9782352e-06
4.1801699e-06
3.5059826e-06
2.9372577e-06
2.4581642e-06
2.0551204e-06
1.7164965e-06
1.4323536e-06
1.1942141e-06
9.9486007e-07
8.281574e-07
6.8890257e-07
5.7268918e-07
4.7579222e-07
3.9506792e-07
3.2786736e-07
2.7196195e-07
2.2547949e-07
1.8684933e-07
1.547555e-07
1.2809668e-07
1.0595217e-07
8.7552954e-08
7.2257162e-08
5.9529333e-08
4.892289e-08
4.0065359e-08
3.2645928e-08
2.6404989e-08
2.1125347e-08
1.6624843e-08
1.2750169e-08
9.3716726e-09
6.3790062e-09
3.6774736e-09
1.184642e-09
1.6302674e-05
1.3814091e-05
1.1688995e-05
9.8776418e-06
8.335938e-06
7.0257009e-06
5.9138739e-06
4.9718418e-06
4.1748643e-06
3.50159e-06
2.9336285e-06
2.4551716e-06
2.052657e-06
1.7144721e-06
1.4306926e-06
1.1928533e-06
9.937467e-07
8.2724772e-07
6.8816027e-07
5.7208419e-07
4.7529971e-07
3.9466744e-07
3.2754206e-07
2.71698e-07
2.2526554e-07
1.8667611e-07
1.5461541e-07
1.2798353e-07
1.0586091e-07
8.747947e-08
7.2198107e-08
5.9481992e-08
4.8885062e-08
4.0035261e-08
3.2622119e-08
2.6386306e-08
2.1110854e-08
1.6613791e-08
1.2741958e-08
9.3658256e-09
6.3751508e-09
3.6753219e-09
1.1839773e-09
1.6278365e-05
1.3792653e-05
1.1670842e-05
9.8623019e-06
8.3230161e-06
7.0148608e-06
5.9048153e-06
4.9642961e-06
4.1685957e-06
3.4963945e-06
2.9293313e-06
2.4516239e-06
2.0497332e-06
1.7120664e-06
1.4287161e-06
1.1912318e-06
9.9241816e-07
8.2616057e-07
6.8727169e-07
5.7135872e-07
4.7470803e-07
3.9418535e-07
3.2714965e-07
2.7137887e-07
2.2500626e-07
1.8646564e-07
1.5444474e-07
1.2784527e-07
1.0574905e-07
8.7389096e-08
7.2125222e-08
5.9423346e-08
4.8838014e-08
3.9997669e-08
3.259225e-08
2.6362759e-08
2.1092501e-08
1.6599724e-08
1.2731454e-08
9.3583094e-09
6.370171e-09
3.6725282e-09
1.1831091e-09
1.9153882e-05
1.6249531e-05
1.376786e-05
1.1649786e-05
9.8444877e-06
8.3080052e-06
7.0022639e-06
5.8942826e-06
4.9555164e-06
4.1612964e-06
3.4903397e-06
2.924319e-06
2.4474824e-06
2.0463169e-06
1.7092526e-06
1.4264021e-06
1.1893313e-06
9.9085929e-07
8.2488342e-07
6.8622651e-07
5.7050425e-07
4.7401014e-07
3.9361587e-07
3.2668535e-07
2.7100064e-07
2.2469839e-07
1.8621526e-07
1.5424128e-07
1.276801e-07
1.056151e-07
8.7280614e-08
7.2037509e-08
5.9352576e-08
4.8781076e-08
3.9952038e-08
3.2555879e-08
2.6333993e-08
2.1070004e-08
1.6582423e-08
1.271849e-08
9.3490029e-09
6.3639838e-09
3.6690457e-09
1.1820225e-09
1.9115063e-05
1.6216138e-05
1.3739359e-05
1.1625578e-05
9.8240082e-06
8.2907518e-06
6.9877845e-06
5.8821723e-06
4.9454171e-06
4.1528953e-06
3.4833667e-06
2.9185429e-06
2.4427063e-06
2.0423742e-06
1.706003e-06
1.4237274e-06
1.1871327e-06
9.890543e-07
8.2340322e-07
6.8501393e-07
5.6951187e-07
4.7319871e-07
3.9295295e-07
3.2614418e-07
2.7055921e-07
2.2433857e-07
1.8592218e-07
1.5400274e-07
1.2748613e-07
1.0545753e-07
8.7152757e-08
7.1933926e-08
5.9268829e-08
4.8713552e-08
3.9897802e-08
3.2512548e-08
2.6299639e-08
2.104307e-08
1.6561657e-08
1.2702892e-08
9.3377762e-09
6.3565026e-09
3.6648251e-09
1.1807019e-09
2.2449734e-05
1.9069882e-05
1.617785e-05
1.3706802e-05
1.1597959e-05
9.8006637e-06
8.2710948e-06
6.9712908e-06
5.8683758e-06
4.9339084e-06
4.1433181e-06
3.4754138e-06
2.9119517e-06
2.4372532e-06
2.0378701e-06
1.7022882e-06
1.4206679e-06
1.1846161e-06
9.8698664e-07
8.217063e-07
6.8362268e-07
5.6837228e-07
4.7226605e-07
3.9219026e-07
3.2552094e-07
2.7005027e-07
2.2392326e-07
1.8558349e-07
1.5372675e-07
1.272614e-07
1.052747e-07
8.7004197e-08
7.1813385e-08
5.9171215e-08
4.8634716e-08
3.9834368e-08
3.2461778e-08
2.6259312e-08
2.1011393e-08
1.6537188e-08
1.2684475e-08
9.3244954e-09
6.3476367e-09
3.659815e-09
1.1791307e-09
2.2389039e-05
1.901834e-05
1.6134284e-05
1.3669852e-05
1.1566668e-05
9.7742465e-06
8.2488657e-06
6.9526444e-06
5.8527793e-06
4.9208961e-06
4.1324867e-06
3.4664164e-06
2.9044918e-06
2.4310787e-06
2.0327676e-06
1.6980777e-06
1.4171982e-06
1.1817604e-06
9.8463901e-07
8.1977837e-07
6.8204094e-07
5.6707573e-07
4.7120414e-07
3.9132116e-07
3.2481015e-07
2.6946933e-07
2.2344875e-07
1.8519616e-07
1.5341078e-07
1.2700384e-07
1.0506494e-07
8.6833544e-08
7.1674747e-08
5.90588e-08
4.8543804e-08
3.9761116e-08
3.2403065e-08
2.6212607e-08
2.0974651e-08
1.6508763e-08
1.2663049e-08
9.3090217e-09
6.3372941e-09
3.653961e-09
1.1772917e-09
2.623974e-05
2.2319836e-05
1.8960046e-05
1.6085048e-05
1.362818e-05
1.1531441e-05
9.7445418e-06
8.2238887e-06
6.931701e-06
5.8352636e-06
4.9062819e-06
4.1203197e-06
3.456307e-06
2.8961072e-06
2.4241363e-06
2.0270282e-06
1.6933397e-06
1.413292e-06
1.1785438e-06
9.8199331e-07
8.1760447e-07
6.8025637e-07
5.6561203e-07
4.7000455e-07
3.9033874e-07
3.240061e-07
2.6881168e-07
2.2291116e-07
1.8475698e-07
1.5305222e-07
1.2671129e-07
1.0482646e-07
8.6639339e-08
7.1516815e-08
5.8930605e-08
4.8440016e-08
3.9677395e-08
3.2335881e-08
2.61591e-08
2.0932506e-08
1.6476118e-08
1.2638412e-08
9.2912074e-09
6.3253714e-09
3.6472057e-09
1.1751664e-09
2.6148226e-05
2.2242092e-05
1.8894546e-05
1.6029755e-05
1.358146e-05
1.1492007e-05
9.7113283e-06
8.195982e-06
6.9083106e-06
5.8157048e-06
4.8899631e-06
4.1067321e-06
3.445015e-06
2.8867395e-06
2.4163776e-06
2.0206118e-06
1.6880408e-06
1.4089216e-06
1.1749435e-06
9.7903067e-07
8.1516897e-07
6.7825607e-07
5.6397051e-07
4.6865849e-07
3.8923572e-07
3.2310282e-07
2.680724e-07
2.2230644e-07
1.8426261e-07
1.526483e-07
1.263815e-07
1.045574e-07
8.6420056e-08
7.1338336e-08
5.8785604e-08
4.8322515e-08
3.9582522e-08
3.2259675e-08
2.6098347e-08
2.0884606e-08
1.6438977e-08
1.2610353e-08
9.270898e-09
6.3117638e-09
3.6394886e-09
1.1727356e-09
3.0574599e-05
2.6045299e-05
2.2155267e-05
1.8821371e-05
1.5968018e-05
1.3529365e-05
1.1448095e-05
9.6743792e-06
8.1649575e-06
6.8823177e-06
5.7939742e-06
4.8718332e-06
4.0916357e-06
3.4324673e-06
2.8763278e-06
2.4077521e-06
2.0134766e-06
1.6821464e-06
1.4040583e-06
1.1709357e-06
9.7573139e-07
8.1245562e-07
6.7602657e-07
5.6214008e-07
4.6715679e-07
3.8800454e-07
3.2209405e-07
2.6724633e-07
2.2163035e-07
1.8370956e-07
1.5219617e-07
1.260121e-07
1.0425583e-07
8.6174098e-08
7.1138002e-08
5.8622726e-08
4.8190424e-08
3.9475784e-08
3.2173868e-08
2.6029882e-08
2.083058e-08
1.639705e-08
1.2578651e-08
9.2479316e-09
6.2963634e-09
3.6307497e-09
1.1699793e-09
3.0438799e-05
2.593062e-05
2.2058764e-05
1.8740051e-05
1.5899452e-05
1.3471568e-05
1.1399426e-05
9.6334627e-06
8.1306222e-06
6.8535618e-06
5.7699387e-06
4.8517818e-06
4.0749387e-06
3.4185877e-06
2.8648092e-06
2.3982076e-06
2.0055791e-06
1.6756204e-06
1.3986724e-06
1.1664957e-06
9.7207502e-07
8.0944747e-07
6.7355388e-07
5.6010915e-07
4.654899e-07
3.8663733e-07
3.2097329e-07
2.6632811e-07
2.2087847e-07
1.830942e-07
1.5169281e-07
1.2560062e-07
1.0391971e-07
8.5899799e-08
7.0914445e-08
5.8440849e-08
4.8042828e-08
3.9356435e-08
3.2077856e-08
2.595322e-08
2.0770041e-08
1.6350034e-08
1.2543074e-08
9.2221389e-09
6.2790545e-09
3.6209201e-09
1.1668758e-09
3.0289137e-05
2.5803776e-05
2.1952044e-05
1.8650132e-05
1.5823673e-05
1.340774e-05
1.1345722e-05
9.5883428e-06
8.0927786e-06
6.8218785e-06
5.7434613e-06
4.829695e-06
4.0565466e-06
3.4032979e-06
2.8521185e-06
2.3876898e-06
1.9968744e-06
1.6684256e-06
1.3927328e-06
1.1615979e-06
9.6804036e-07
8.0612698e-07
6.708235e-07
5.5786574e-07
4.636479e-07
3.8512588e-07
3.1973379e-07
2.6531217e-07
2.2004619e-07
1.8241272e-07
1.5113511e-07
1.2514449e-07
1.0354693e-07
8.5595423e-08
7.066624e-08
5.8238806e-08
4.7878772e-08
3.9223698e-08
3.1971009e-08
2.5867853e-08
2.0702585e-08
1.6297612e-08
1.2503381e-08
9.1933426e-09
6.2597169e-09
3.6099284e-09
1.1634027e-09
3.0124744e-05
2.5664421e-05
2.1834614e-05
1.8551167e-05
1.5740296e-05
1.3337549e-05
1.12867e-05
9.53878e-06
8.0512255e-06
6.7870992e-06
5.7144018e-06
4.8054561e-06
4.0363623e-06
3.3865169e-06
2.8381884e-06
2.3761429e-06
1.9873161e-06
1.6605236e-06
1.3862077e-06
1.1562158e-06
9.6360546e-07
8.0247599e-07
6.6782037e-07
5.553974e-07
4.6162052e-07
3.8346171e-07
3.1836854e-07
2.6419273e-07
2.1912876e-07
1.8166121e-07
1.5051983e-07
1.2464105e-07
1.0313529e-07
8.5259168e-08
7.0391907e-08
5.8015385e-08
4.7697266e-08
3.9076766e-08
3.1852671e-08
2.5773254e-08
2.0627792e-08
1.6239455e-08
1.2459319e-08
9.1613584e-09
6.2382253e-09
3.5977054e-09
1.1595368e-09
3.5095231e-05
2.994383e-05
2.5511828e-05
2.1705948e-05
1.8442708e-05
1.5648934e-05
1.3260663e-05
1.1222073e-05
9.484532e-06
8.0057586e-06
6.7490529e-06
5.682617e-06
4.7789455e-06
4.0142862e-06
3.368162e-06
2.8229499e-06
2.3635097e-06
1.9768566e-06
1.6518747e-06
1.3790643e-06
1.1503221e-06
9.5874774e-07
7.9847577e-07
6.6452902e-07
5.5269133e-07
4.5939715e-07
3.8163606e-07
3.168703e-07
2.6296381e-07
2.1812123e-07
1.8083559e-07
1.4984363e-07
1.2408754e-07
1.0268253e-07
8.4889163e-08
7.0089911e-08
5.7769327e-08
4.7497279e-08
3.8914798e-08
3.1722163e-08
2.5668875e-08
2.0545226e-08
1.617522e-08
1.2410628e-08
9.1259944e-09
6.2144494e-09
3.5841759e-09
1.1552558e-09
3.4863621e-05
2.9746774e-05
2.5345409e-05
2.1565521e-05
1.8324305e-05
1.5549199e-05
1.3176747e-05
1.1151555e-05
9.4253552e-06
7.9561718e-06
6.707566e-06
5.6479614e-06
4.7500418e-06
3.9902168e-06
3.3481484e-06
2.8063327e-06
2.3497315e-06
1.9654472e-06
1.6424384e-06
1.3712688e-06
1.1438889e-06
9.5344401e-07
7.9410711e-07
6.609335e-07
5.4973431e-07
4.5696688e-07
3.796399e-07
3.1523161e-07
2.6161924e-07
2.1701852e-07
1.7993167e-07
1.4910302e-07
1.234811e-07
1.0218629e-07
8.4483478e-08
6.9758665e-08
5.7499331e-08
4.7277748e-08
3.8736927e-08
3.1578779e-08
2.5554148e-08
2.0454434e-08
1.6104554e-08
1.2357036e-08
9.0870515e-09
6.188254e-09
3.5692616e-09
1.1505322e-09
4.7331882e-05
4.0504534e-05
3.4610907e-05
2.9532768e-05
2.516453e-05
2.1412802e-05
1.8195505e-05
1.5440701e-05
1.3085466e-05
1.107486e-05
9.3610051e-06
7.9022582e-06
6.6624641e-06
5.6102884e-06
4.7186219e-06
3.9640513e-06
3.3263904e-06
2.7882652e-06
2.3347486e-06
1.9530382e-06
1.6321733e-06
1.3627869e-06
1.1368877e-06
9.4767056e-07
7.8935032e-07
6.5701751e-07
5.4651285e-07
4.5431852e-07
3.7746397e-07
3.134448e-07
2.601527e-07
2.1581541e-07
1.7894513e-07
1.4829447e-07
1.2281879e-07
1.0164417e-07
8.4040122e-08
6.9396534e-08
5.7204055e-08
4.7037574e-08
3.8542258e-08
3.1421794e-08
2.5428489e-08
2.0354949e-08
1.6027089e-08
1.2298262e-08
9.044324e-09
6.1594989e-09
3.5528816e-09
1.1453399e-09
5.4791128e-05
4.6956958e-05
4.0182847e-05
3.4337452e-05
2.930109e-05
2.4968562e-05
2.1247263e-05
1.8055858e-05
1.5323055e-05
1.2986488e-05
1.0991702e-05
9.2912382e-06
7.843811e-06
6.6135723e-06
5.5694508e-06
4.6845623e-06
3.9356862e-06
3.3028012e-06
2.7686748e-06
2.3185006e-06
1.9395791e-06
1.6210376e-06
1.3535836e-06
1.1292894e-06
9.4140326e-07
7.8418539e-07
6.5276443e-07
5.4301316e-07
4.5144064e-07
3.7509882e-07
3.1150206e-07
2.5855772e-07
2.1450654e-07
1.7787155e-07
1.4741431e-07
1.2209762e-07
1.0105367e-07
8.3557055e-08
6.900184e-08
5.6882122e-08
4.6775629e-08
3.832987e-08
3.125046e-08
2.5291294e-08
2.024629e-08
1.5942449e-08
1.2234017e-08
8.9975998e-09
6.1280399e-09
3.5349528e-09
1.1396531e-09
5.4313657e-05
4.6550338e-05
3.9835957e-05
3.4042525e-05
2.9051004e-05
2.4756886e-05
2.1068382e-05
1.7904917e-05
1.5195874e-05
1.2879482e-05
1.0901799e-05
9.2158131e-06
7.7806247e-06
6.5607168e-06
5.5253018e-06
4.6477394e-06
3.9050177e-06
3.2772941e-06
2.747489e-06
2.3009267e-06
1.9250193e-06
1.6089889e-06
1.3436238e-06
1.1210646e-06
9.346177e-07
7.7859201e-07
6.481574e-07
5.3922126e-07
4.4832165e-07
3.7253483e-07
3.0939542e-07
2.568277e-07
2.1308646e-07
1.7670643e-07
1.4645884e-07
1.213145e-07
1.0041226e-07
8.303219e-08
6.8572867e-08
5.6532122e-08
4.649076e-08
3.8098821e-08
3.1064011e-08
2.5141946e-08
2.0127966e-08
1.5850245e-08
1.2164006e-08
8.9466609e-09
6.0937286e-09
3.5153895e-09
1.1334438e-09
5.3800338e-05
4.6112345e-05
3.9462752e-05
3.3725184e-05
2.8781765e-05
2.4528892e-05
2.0875643e-05
1.7742241e-05
1.5058783e-05
1.2764124e-05
1.0804872e-05
9.1344924e-06
7.7124973e-06
6.5037258e-06
5.4776963e-06
4.6080309e-06
3.8719428e-06
3.2497825e-06
2.7246352e-06
2.2819662e-06
1.9093079e-06
1.5959848e-06
1.332872e-06
1.112184e-06
9.2728934e-07
7.7254976e-07
6.4317944e-07
5.3512302e-07
4.4494983e-07
3.6976228e-07
3.0711683e-07
2.5495597e-07
2.1154966e-07
1.7544519e-07
1.4542426e-07
1.2046633e-07
9.9717378e-08
8.2463406e-08
6.8107868e-08
5.6152621e-08
4.6181789e-08
3.7848151e-08
3.0861666e-08
2.4979814e-08
1.9999472e-08
1.5750083e-08
1.2087925e-08
8.8912847e-09
6.0564131e-09
3.4941039e-09
1.1266838e-09
5.3249324e-05
4.5642084e-05
3.9062151e-05
3.3384524e-05
2.849265e-05
2.4283983e-05
2.0668543e-05
1.7567402e-05
1.4911413e-05
1.2640099e-05
1.0700652e-05
9.0470445e-06
7.6392312e-06
6.4424316e-06
5.4264919e-06
4.5653163e-06
3.8363601e-06
3.220181e-06
2.7000417e-06
2.261559e-06
1.8923947e-06
1.5819832e-06
1.3212931e-06
1.102618e-06
9.1939365e-07
7.6603821e-07
6.3781354e-07
5.3070432e-07
4.4131344e-07
3.6677141e-07
3.0465819e-07
2.5293582e-07
2.0989056e-07
1.7408324e-07
1.4430678e-07
1.1954994e-07
9.8966416e-08
8.1848557e-08
6.7605076e-08
5.5742166e-08
4.5847527e-08
3.7576885e-08
3.0642635e-08
2.480426e-08
1.9860297e-08
1.5641561e-08
1.2005465e-08
8.8312444e-09
6.0159391e-09
3.4710069e-09
1.1193441e-09
5.2659204e-05
4.5138486e-05
3.863317e-05
3.3019708e-05
2.8182968e-05
2.4021584e-05
2.0446596e-05
1.7379985e-05
1.475341e-05
1.2507103e-05
1.0588876e-05
8.9532461e-06
7.5606357e-06
6.3766715e-06
5.3715505e-06
4.5194787e-06
3.7981705e-06
3.1884061e-06
2.6736382e-06
2.2396461e-06
1.8742301e-06
1.5669425e-06
1.3088522e-06
1.0923377e-06
9.1090635e-07
7.5903712e-07
6.3204283e-07
5.2595108e-07
4.3740076e-07
3.635525e-07
3.0201141e-07
2.5076054e-07
2.081036e-07
1.7261595e-07
1.4310256e-07
1.1856218e-07
9.8156762e-08
8.1185487e-08
6.7062714e-08
5.5299294e-08
4.5486771e-08
3.7284043e-08
3.0406116e-08
2.4614638e-08
1.9709926e-08
1.5524272e-08
1.1916316e-08
8.7663106e-09
5.9721499e-09
3.4460077e-09
1.1113953e-09
5.202886e-05
4.4600551e-05
3.8174923e-05
3.262997e-05
2.7852077e-05
2.3741152e-05
2.0209341e-05
1.7179597e-05
1.4584437e-05
1.2364846e-05
1.0469299e-05
8.8528848e-06
7.4765288e-06
6.3062901e-06
5.3127397e-06
4.4704056e-06
3.7572789e-06
3.1543773e-06
2.6453566e-06
2.2161701e-06
1.8547658e-06
1.5508223e-06
1.2955155e-06
1.0813145e-06
9.0180366e-07
7.5152657e-07
6.2585068e-07
5.2084946e-07
4.3320026e-07
3.6009592e-07
2.991685e-07
2.4842348e-07
2.0618327e-07
1.7103876e-07
1.4180783e-07
1.1749991e-07
9.7285815e-08
8.0472046e-08
6.6479007e-08
5.4822544e-08
4.5098322e-08
3.696864e-08
3.0151312e-08
2.4410301e-08
1.954784e-08
1.5397809e-08
1.1820163e-08
8.6962527e-09
5.924888e-09
3.4190152e-09
1.1028077e-09
5.1357314e-05
4.4027385e-05
3.7686617e-05
3.2214621e-05
2.7499387e-05
2.3442187e-05
1.9956352e-05
1.6965873e-05
1.4404181e-05
1.221306e-05
1.0341687e-05
8.7457615e-06
7.3867399e-06
6.2311415e-06
5.2499348e-06
4.4179906e-06
3.7135949e-06
3.1180178e-06
2.6151322e-06
2.1910761e-06
1.8339556e-06
1.5335836e-06
1.2812501e-06
1.069521e-06
8.9206251e-07
7.4348727e-07
6.1922095e-07
5.1538594e-07
4.2870065e-07
3.5639229e-07
2.9612163e-07
2.4591812e-07
2.0412413e-07
1.6934714e-07
1.4041882e-07
1.1636002e-07
9.6351005e-08
7.9706107e-08
6.5852199e-08
5.4310469e-08
4.468099e-08
3.6629702e-08
2.9877425e-08
2.4190604e-08
1.9373525e-08
1.5261766e-08
1.1716696e-08
8.6208405e-09
5.8739961e-09
3.3899383e-09
1.0935519e-09
5.0643696e-05
4.3418208e-05
3.7167558e-05
3.1773053e-05
2.7124372e-05
2.3124238e-05
1.9687243e-05
1.6738483e-05
1.4212357e-05
1.20515e-05
1.020583e-05
8.6316944e-06
7.2911124e-06
6.151091e-06
5.1830205e-06
4.3621353e-06
3.6670342e-06
3.0792562e-06
2.5829041e-06
2.1643127e-06
1.811756e-06
1.5151896e-06
1.266025e-06
1.0569311e-06
8.816609e-07
7.3490074e-07
6.1213813e-07
5.0954755e-07
4.2389108e-07
3.5243252e-07
2.9286321e-07
2.4323813e-07
2.0192092e-07
1.6753673e-07
1.3893191e-07
1.1513949e-07
9.5349822e-08
7.8885592e-08
6.5180571e-08
5.3761648e-08
4.4233605e-08
3.6266271e-08
2.9583675e-08
2.3954915e-08
1.9186471e-08
1.5115742e-08
1.1605604e-08
8.5398462e-09
5.8193184e-09
3.3586864e-09
1.0835984e-09
4.9887256e-05
4.2772354e-05
3.6617157e-05
3.1304749e-05
2.6726583e-05
2.2786917e-05
1.9401679e-05
1.6497137e-05
1.4008716e-05
1.187995e-05
1.006154e-05
8.5105219e-06
7.1895069e-06
6.0660184e-06
5.1118932e-06
4.3027505e-06
3.6175206e-06
3.0380271e-06
2.5486167e-06
2.1358325e-06
1.7881266e-06
1.4956062e-06
1.2498114e-06
1.0435202e-06
8.7057824e-07
7.2574962e-07
6.0458764e-07
5.0332203e-07
4.1876126e-07
3.4820799e-07
2.8938604e-07
2.403775e-07
1.9956861e-07
1.6560332e-07
1.3734359e-07
1.138354e-07
9.4279848e-08
7.8008494e-08
6.446246e-08
5.3174708e-08
4.3755036e-08
3.5877416e-08
2.92693e-08
2.3702616e-08
1.8986184e-08
1.4959344e-08
1.1486588e-08
8.4530472e-09
5.7607024e-09
3.3251711e-09
1.0729184e-09
4.9087392e-05
4.2089295e-05
3.6034946e-05
3.0809296e-05
2.6305659e-05
2.2429908e-05
1.9099386e-05
1.6241597e-05
1.3793051e-05
1.1698228e-05
9.9086623e-06
8.3821073e-06
7.0818041e-06
5.9758201e-06
5.0364631e-06
4.2397587e-06
3.5649873e-06
2.994273e-06
2.5122204e-06
2.1055931e-06
1.7630313e-06
1.4748025e-06
1.232583e-06
1.0292663e-06
8.5879569e-07
7.1601799e-07
5.9655602e-07
4.9669805e-07
4.1330165e-07
3.4371068e-07
2.8568337e-07
2.3733058e-07
1.9706247e-07
1.6354296e-07
1.3565056e-07
1.1244501e-07
9.313879e-08
7.7072906e-08
6.3696285e-08
5.2548338e-08
4.32442e-08
3.5462247e-08
2.8933573e-08
2.3433115e-08
1.8772188e-08
1.4792198e-08
1.1359355e-08
8.3602285e-09
5.6980006e-09
3.2893065e-09
1.0614837e-09
4.8243683e-05
4.1368662e-05
3.5420595e-05
3.0286399e-05
2.5861336e-05
2.205298e-05
1.878016e-05
1.5971684e-05
1.3565202e-05
1.1506197e-05
9.7470723e-06
8.2463424e-06
6.967909e-06
5.8804127e-06
4.9566572e-06
4.1730961e-06
3.5093786e-06
2.9479457e-06
2.4736736e-06
2.0735586e-06
1.7364392e-06
1.4527519e-06
1.214317e-06
1.0141497e-06
8.4629664e-07
7.0569172e-07
5.8803128e-07
4.8966542e-07
4.0750366e-07
3.3893333e-07
2.817491e-07
2.3409221e-07
1.9439818e-07
1.6135202e-07
1.3384978e-07
1.1096576e-07
9.1924524e-08
7.6077059e-08
6.288057e-08
5.1881316e-08
4.2700085e-08
3.5019929e-08
2.8575807e-08
2.3145854e-08
1.8544033e-08
1.4613946e-08
1.1223632e-08
8.2611862e-09
5.6310729e-09
3.2510109e-09
1.0492678e-09
4.7355917e-05
4.0610263e-05
3.477393e-05
2.9735898e-05
2.5393467e-05
2.1655998e-05
1.8443877e-05
1.5687285e-05
1.332507e-05
1.1303765e-05
9.5766876e-06
8.1031525e-06
6.8477545e-06
5.7797361e-06
4.8724216e-06
4.1027148e-06
3.4506521e-06
2.8990077e-06
2.4329434e-06
2.0397001e-06
1.708325e-06
1.4294328e-06
1.1949946e-06
9.9815432e-07
8.3306715e-07
6.9475884e-07
5.7900318e-07
4.8221543e-07
4.0135983e-07
3.3386962e-07
2.7757786e-07
2.3065786e-07
1.9157191e-07
1.5902727e-07
1.3193854e-07
1.0939539e-07
9.063514e-08
7.5019352e-08
6.2013983e-08
5.1172529e-08
4.2121767e-08
3.4549698e-08
2.8195376e-08
2.2840322e-08
1.8301306e-08
1.442426e-08
1.1079163e-08
8.1557308e-09
5.5597888e-09
3.210208e-09
1.0362455e-09
4.6424125e-05
3.9814116e-05
3.4094953e-05
2.9157782e-05
2.4902034e-05
2.1238934e-05
1.8090508e-05
1.5388366e-05
1.3072618e-05
1.1090894e-05
9.3974715e-06
7.9525015e-06
6.7213056e-06
5.6737567e-06
4.7837251e-06
4.0285855e-06
3.3887808e-06
2.8474344e-06
2.3900076e-06
2.0039976e-06
1.6786711e-06
1.4048291e-06
1.1746018e-06
9.8126778e-07
8.1909643e-07
6.8320998e-07
5.694636e-07
4.7434105e-07
3.9486415e-07
3.2851438e-07
2.7316523e-07
2.2702376e-07
1.8858044e-07
1.5656599e-07
1.2991453e-07
1.0773194e-07
8.9268988e-08
7.3898399e-08
6.1095358e-08
5.0421004e-08
4.1508435e-08
3.4050882e-08
2.7791722e-08
2.2516062e-08
1.8043637e-08
1.4222846e-08
1.092572e-08
8.0436918e-09
5.4840305e-09
3.1668289e-09
1.0223942e-09
4.5448613e-05
3.8980474e-05
3.3383869e-05
2.8552215e-05
2.4387163e-05
2.0801888e-05
1.7720124e-05
1.5074982e-05
1.2807885e-05
1.086761e-05
9.2094394e-06
7.7943969e-06
6.5885638e-06
5.5624719e-06
4.6905615e-06
3.9507002e-06
3.3237555e-06
2.7932157e-06
2.3448557e-06
1.9664411e-06
1.6474675e-06
1.3789317e-06
1.15313e-06
9.6348232e-07
8.0437746e-07
6.7103883e-07
5.5940692e-07
4.6603732e-07
3.8801223e-07
3.2286379e-07
2.6850788e-07
2.2318703e-07
1.8542129e-07
1.5396604e-07
1.2777591e-07
1.0597384e-07
8.7824744e-08
7.2713077e-08
6.0123746e-08
4.962594e-08
4.0859416e-08
3.3522916e-08
2.736438e-08
2.2172689e-08
1.7770713e-08
1.4009452e-08
1.0763106e-08
7.9249223e-09
5.4036959e-09
3.1208134e-09
1.0076938e-09
4.4429993e-05
3.810985e-05
3.2641104e-05
2.7919548e-05
2.3849142e-05
2.0345094e-05
1.7332916e-05
1.4747285e-05
1.253099e-05
1.0634008e-05
9.0126651e-06
7.6288956e-06
6.4495721e-06
5.4459132e-06
4.5929537e-06
3.8690748e-06
3.2555865e-06
2.7363582e-06
2.2974914e-06
1.9270317e-06
1.6147141e-06
1.3517393e-06
1.1305773e-06
9.4479545e-07
7.8890753e-07
6.5824263e-07
5.4883043e-07
4.5730165e-07
3.8080167e-07
3.1691562e-07
2.636038e-07
2.1914586e-07
1.8209285e-07
1.51226e-07
1.2552145e-07
1.0412001e-07
8.6301462e-08
7.1462568e-08
5.9098447e-08
4.8786739e-08
4.0174202e-08
3.2965374e-08
2.6912989e-08
2.1809904e-08
1.7482288e-08
1.378388e-08
1.0591165e-08
7.7993038e-09
5.3187022e-09
3.0721123e-09
9.9212787e-10
4.3369221e-05
3.7203049e-05
3.1867336e-05
2.7260347e-05
2.3288442e-05
1.9868939e-05
1.6929204e-05
1.4405536e-05
1.2242148e-05
1.0390261e-05
8.8072882e-06
7.4561091e-06
6.3044194e-06
5.3241511e-06
4.490957e-06
3.7837523e-06
3.1843072e-06
2.6768871e-06
2.2479337e-06
1.8857837e-06
1.5804212e-06
1.3232593e-06
1.1069488e-06
9.2521066e-07
7.7268887e-07
6.4482268e-07
5.3773475e-07
4.481342e-07
3.7323229e-07
3.1066949e-07
2.5845247e-07
2.1489966e-07
1.7859451e-07
1.4834526e-07
1.2315055e-07
1.0216991e-07
8.4698648e-08
7.0146427e-08
5.801906e-08
4.7903046e-08
3.9452484e-08
3.2377984e-08
2.6437316e-08
2.142751e-08
1.7178195e-08
1.3545992e-08
1.0409787e-08
7.6667528e-09
5.22899e-09
3.0206899e-09
9.7568426e-10
4.2267623e-05
3.6261197e-05
3.1063511e-05
2.6575407e-05
2.2705728e-05
1.9373979e-05
1.6509448e-05
1.4050117e-05
1.1941673e-05
1.0136628e-05
8.5935202e-06
7.2762101e-06
6.1532456e-06
5.1972986e-06
4.3846624e-06
3.6948056e-06
3.1099756e-06
2.6148486e-06
2.196219e-06
1.8427258e-06
1.5446113e-06
1.2935091e-06
1.082258e-06
9.0473827e-07
7.5572934e-07
6.3078491e-07
5.2612434e-07
4.3853826e-07
3.653065e-07
3.0412714e-07
2.5305512e-07
2.1044929e-07
1.7492684e-07
1.453242e-07
1.2066345e-07
1.0012365e-07
8.3016331e-08
6.8764633e-08
5.6885533e-08
4.6974792e-08
3.8694179e-08
3.1760663e-08
2.5937281e-08
2.102543e-08
1.6858366e-08
1.3295727e-08
1.021892e-08
7.5272264e-09
5.1345274e-09
2.966526e-09
9.5835575e-10
4.1126935e-05
3.5285767e-05
3.0230877e-05
2.5865778e-05
2.2101881e-05
1.8860953e-05
1.6074265e-05
1.368154e-05
1.1629991e-05
9.8734609e-06
8.371652e-06
7.0894377e-06
5.9962471e-06
5.0655163e-06
4.2742007e-06
3.6023408e-06
3.0326777e-06
2.5503121e-06
2.1424032e-06
1.7979026e-06
1.5073199e-06
1.2625172e-06
1.0565274e-06
8.8339621e-07
7.3804311e-07
6.1614047e-07
5.1400794e-07
4.2852066e-07
3.5702964e-07
2.9729272e-07
2.4741497e-07
2.0579721e-07
1.7109174e-07
1.4216425e-07
1.1806123e-07
9.7982053e-08
8.1255143e-08
6.7317657e-08
5.5698216e-08
4.6002233e-08
3.7899476e-08
3.1113545e-08
2.5412976e-08
2.0603725e-08
1.6522839e-08
1.303311e-08
1.0018576e-08
7.3807299e-09
5.0353151e-09
2.9096192e-09
9.4014108e-10
3.9949335e-05
3.427861e-05
2.9371e-05
2.5132782e-05
2.1478014e-05
1.8330793e-05
1.5624437e-05
1.330046e-05
1.1307648e-05
9.6012138e-06
8.1420602e-06
6.8961037e-06
5.833681e-06
4.9290159e-06
4.1597456e-06
3.5065004e-06
2.9525298e-06
2.4833724e-06
2.0865633e-06
1.7513766e-06
1.4685978e-06
1.2303244e-06
1.02979e-06
8.6121089e-07
7.1965134e-07
6.0090632e-07
5.013991e-07
4.1809222e-07
3.484103e-07
2.9017305e-07
2.4153744e-07
2.0094775e-07
1.6709262e-07
1.3886811e-07
1.1534603e-07
9.5746807e-08
7.9416401e-08
6.5806536e-08
5.4457921e-08
4.4986001e-08
3.7068865e-08
3.0437011e-08
2.4864694e-08
2.0162621e-08
1.6171784e-08
1.2758263e-08
9.8088445e-09
7.2273239e-09
4.9313911e-09
2.8499897e-09
9.210459e-10
3.8737481e-05
3.3241982e-05
2.848579e-05
2.4378034e-05
2.0835489e-05
1.7784647e-05
1.5160927e-05
1.2907685e-05
1.0975318e-05
9.3204505e-06
7.9052143e-06
6.6965983e-06
5.665871e-06
4.788065e-06
4.0415182e-06
3.4074664e-06
2.8696815e-06
2.414152e-06
2.0287996e-06
1.7032298e-06
1.4285117e-06
1.196985e-06
1.0020899e-06
8.3821807e-07
7.0058299e-07
5.8510586e-07
4.8831669e-07
4.0726816e-07
3.3946076e-07
2.8277801e-07
2.3543045e-07
1.9590724e-07
1.6293458e-07
1.3543988e-07
1.1252111e-07
9.3420523e-08
7.7502197e-08
6.4232937e-08
5.3165977e-08
4.3927157e-08
3.6203189e-08
2.9731725e-08
2.4292958e-08
1.9702524e-08
1.5805515e-08
1.2471427e-08
9.5899014e-09
7.0671329e-09
4.8228369e-09
2.7876822e-09
9.010838e-10
3.7494558e-05
3.2178568e-05
2.7577521e-05
2.3603456e-05
2.0175928e-05
1.7223883e-05
1.4684888e-05
1.2504183e-05
1.0633815e-05
9.0318513e-06
7.6616829e-06
6.4913955e-06
5.4932114e-06
4.6429911e-06
3.9197898e-06
3.305463e-06
2.7843179e-06
2.3428035e-06
1.9692375e-06
1.653565e-06
1.3871458e-06
1.162568e-06
9.7348329e-07
8.1446367e-07
6.8087546e-07
5.687695e-07
4.7478546e-07
3.9606855e-07
3.3019727e-07
2.7512077e-07
2.2910467e-07
1.9068432e-07
1.5862458e-07
1.3188518e-07
1.0959104e-07
9.1006873e-08
7.5515488e-08
6.2599242e-08
5.18243e-08
4.2827237e-08
3.5303678e-08
2.899867e-08
2.3698548e-08
1.9224049e-08
1.5424511e-08
1.2172968e-08
9.3620216e-09
6.9003539e-09
4.7097828e-09
2.7227698e-09
8.8027745e-10
3.622439e-05
3.1091508e-05
2.6648845e-05