/*--------------------------------*- C++ -*----------------------------------*\
| =========                 |                                                 |
| \\      /  F ield         | OpenFOAM: The Open Source CFD Toolbox           |
|  \\    /   O peration     | Version:  2312                                  |
|   \\  /    A nd           | Website:  www.openfoam.com                      |
|    \\/     M anipulation  |                                                 |
\*---------------------------------------------------------------------------*/
FoamFile
{
    version     2.0;
    format      ascii;
    arch        "LSB;label=32;scalar=64";
    class       volScalarField;
    location    "0.02";
    object      N2;
}
// * * * * * * * * * * * * * * * * * * * * * * * * * * * * * * * * * * * * * //

dimensions      [0 0 0 0 0 0 0];

internalField   nonuniform List<scalar> 
3224
(
0.76999575
0.7699964
0.76999696
0.76999744
0.76999784
0.76999819
0.76999848
0.76999872
0.76999893
0.7699991
0.76999925
0.76999937
0.76999948
0.76999957
0.76999964
0.7699997
0.76999975
0.76999979
0.76999983
0.76999986
0.76999988
0.7699999
0.76999992
0.76999993
0.76999994
0.76999995
0.76999996
0.76999997
0.76999997
0.76999998
0.76999998
0.76999999
0.76999999
0.76999999
0.76999999
0.76999999
0.77
0.77
0.77
0.77
0.77
0.76999575
0.7699964
0.76999696
0.76999744
0.76999784
0.76999819
0.76999848
0.76999872
0.76999893
0.7699991
0.76999925
0.76999937
0.76999948
0.76999957
0.76999964
0.7699997
0.76999975
0.76999979
0.76999983
0.76999986
0.76999988
0.7699999
0.76999992
0.76999993
0.76999994
0.76999995
0.76999996
0.76999997
0.76999997
0.76999998
0.76999998
0.76999999
0.76999999
0.76999999
0.76999999
0.76999999
0.77
0.77
0.77
0.77
0.77
0.76999575
0.7699964
0.76999696
0.76999744
0.76999784
0.76999819
0.76999848
0.76999872
0.76999893
0.7699991
0.76999925
0.76999937
0.76999948
0.76999957
0.76999964
0.7699997
0.76999975
0.76999979
0.76999983
0.76999986
0.76999988
0.7699999
0.76999992
0.76999993
0.76999994
0.76999995
0.76999996
0.76999997
0.76999997
0.76999998
0.76999998
0.76999999
0.76999999
0.76999999
0.76999999
0.76999999
0.77
0.77
0.77
0.77
0.77
0.76999575
0.76999641
0.76999697
0.76999744
0.76999785
0.76999819
0.76999848
0.76999872
0.76999893
0.7699991
0.76999925
0.76999938
0.76999948
0.76999957
0.76999964
0.7699997
0.76999975
0.76999979
0.76999983
0.76999986
0.76999988
0.7699999
0.76999992
0.76999993
0.76999994
0.76999995
0.76999996
0.76999997
0.76999997
0.76999998
0.76999998
0.76999999
0.76999999
0.76999999
0.76999999
0.76999999
0.77
0.77
0.77
0.77
0.77
0.76999498
0.76999575
0.76999641
0.76999697
0.76999744
0.76999785
0.76999819
0.76999848
0.76999872
0.76999893
0.76999911
0.76999925
0.76999938
0.76999948
0.76999957
0.76999964
0.7699997
0.76999975
0.76999979
0.76999983
0.76999986
0.76999988
0.7699999
0.76999992
0.76999993
0.76999994
0.76999995
0.76999996
0.76999997
0.76999997
0.76999998
0.76999998
0.76999999
0.76999999
0.76999999
0.76999999
0.76999999
0.77
0.77
0.77
0.77
0.77
0.76999499
0.76999576
0.76999641
0.76999697
0.76999745
0.76999785
0.76999819
0.76999848
0.76999873
0.76999893
0.76999911
0.76999925
0.76999938
0.76999948
0.76999957
0.76999964
0.7699997
0.76999975
0.76999979
0.76999983
0.76999986
0.76999988
0.7699999
0.76999992
0.76999993
0.76999994
0.76999995
0.76999996
0.76999997
0.76999997
0.76999998
0.76999998
0.76999999
0.76999999
0.76999999
0.76999999
0.76999999
0.77
0.77
0.77
0.77
0.77
0.76999499
0.76999576
0.76999642
0.76999697
0.76999745
0.76999785
0.76999819
0.76999848
0.76999873
0.76999893
0.76999911
0.76999925
0.76999938
0.76999948
0.76999957
0.76999964
0.7699997
0.76999975
0.76999979
0.76999983
0.76999986
0.76999988
0.7699999
0.76999992
0.76999993
0.76999994
0.76999995
0.76999996
0.76999997
0.76999997
0.76999998
0.76999998
0.76999999
0.76999999
0.76999999
0.76999999
0.76999999
0.77
0.77
0.77
0.77
0.77
0.769995
0.76999577
0.76999642
0.76999698
0.76999745
0.76999785
0.7699982
0.76999848
0.76999873
0.76999893
0.76999911
0.76999925
0.76999938
0.76999948
0.76999957
0.76999964
0.7699997
0.76999975
0.76999979
0.76999983
0.76999986
0.76999988
0.7699999
0.76999992
0.76999993
0.76999994
0.76999995
0.76999996
0.76999997
0.76999997
0.76999998
0.76999998
0.76999999
0.76999999
0.76999999
0.76999999
0.76999999
0.77
0.77
0.77
0.77
0.77
0.76999411
0.76999501
0.76999577
0.76999643
0.76999698
0.76999746
0.76999786
0.7699982
0.76999849
0.76999873
0.76999894
0.76999911
0.76999926
0.76999938
0.76999948
0.76999957
0.76999964
0.7699997
0.76999975
0.76999979
0.76999983
0.76999986
0.76999988
0.7699999
0.76999992
0.76999993
0.76999994
0.76999995
0.76999996
0.76999997
0.76999997
0.76999998
0.76999998
0.76999999
0.76999999
0.76999999
0.76999999
0.76999999
0.77
0.77
0.77
0.77
0.77
0.76999412
0.76999501
0.76999578
0.76999643
0.76999699
0.76999746
0.76999786
0.7699982
0.76999849
0.76999873
0.76999894
0.76999911
0.76999926
0.76999938
0.76999948
0.76999957
0.76999964
0.7699997
0.76999975
0.76999979
0.76999983
0.76999986
0.76999988
0.7699999
0.76999992
0.76999993
0.76999994
0.76999995
0.76999996
0.76999997
0.76999997
0.76999998
0.76999998
0.76999999
0.76999999
0.76999999
0.76999999
0.76999999
0.77
0.77
0.77
0.77
0.77
0.76999309
0.76999413
0.76999502
0.76999579
0.76999644
0.76999699
0.76999746
0.76999786
0.7699982
0.76999849
0.76999873
0.76999894
0.76999911
0.76999926
0.76999938
0.76999948
0.76999957
0.76999964
0.7699997
0.76999975
0.76999979
0.76999983
0.76999986
0.76999988
0.7699999
0.76999992
0.76999993
0.76999995
0.76999995
0.76999996
0.76999997
0.76999997
0.76999998
0.76999998
0.76999999
0.76999999
0.76999999
0.76999999
0.76999999
0.77
0.77
0.77
0.77
0.77
0.7699931
0.76999414
0.76999504
0.7699958
0.76999645
0.769997
0.76999747
0.76999787
0.76999821
0.7699985
0.76999874
0.76999894
0.76999911
0.76999926
0.76999938
0.76999948
0.76999957
0.76999964
0.7699997
0.76999975
0.76999979
0.76999983
0.76999986
0.76999988
0.7699999
0.76999992
0.76999993
0.76999995
0.76999995
0.76999996
0.76999997
0.76999997
0.76999998
0.76999998
0.76999999
0.76999999
0.76999999
0.76999999
0.76999999
0.77
0.77
0.77
0.77
0.77
0.76999191
0.76999312
0.76999416
0.76999505
0.76999581
0.76999646
0.76999701
0.76999748
0.76999788
0.76999821
0.7699985
0.76999874
0.76999894
0.76999912
0.76999926
0.76999938
0.76999949
0.76999957
0.76999964
0.7699997
0.76999975
0.76999979
0.76999983
0.76999986
0.76999988
0.7699999
0.76999992
0.76999993
0.76999995
0.76999995
0.76999996
0.76999997
0.76999997
0.76999998
0.76999998
0.76999999
0.76999999
0.76999999
0.76999999
0.76999999
0.77
0.77
0.77
0.77
0.77
0.76999193
0.76999314
0.76999418
0.76999506
0.76999582
0.76999647
0.76999702
0.76999748
0.76999788
0.76999822
0.7699985
0.76999874
0.76999895
0.76999912
0.76999926
0.76999938
0.76999949
0.76999957
0.76999964
0.7699997
0.76999975
0.7699998
0.76999983
0.76999986
0.76999988
0.7699999
0.76999992
0.76999993
0.76999995
0.76999995
0.76999996
0.76999997
0.76999997
0.76999998
0.76999998
0.76999999
0.76999999
0.76999999
0.76999999
0.76999999
0.77
0.77
0.77
0.77
0.77
0.76999055
0.76999196
0.76999316
0.7699942
0.76999508
0.76999583
0.76999648
0.76999703
0.76999749
0.76999789
0.76999822
0.76999851
0.76999875
0.76999895
0.76999912
0.76999927
0.76999939
0.76999949
0.76999957
0.76999964
0.7699997
0.76999975
0.7699998
0.76999983
0.76999986
0.76999988
0.7699999
0.76999992
0.76999993
0.76999995
0.76999996
0.76999996
0.76999997
0.76999997
0.76999998
0.76999998
0.76999999
0.76999999
0.76999999
0.76999999
0.76999999
0.77
0.77
0.77
0.77
0.77
0.76999059
0.76999199
0.76999319
0.76999422
0.7699951
0.76999585
0.76999649
0.76999704
0.7699975
0.7699979
0.76999823
0.76999851
0.76999875
0.76999895
0.76999912
0.76999927
0.76999939
0.76999949
0.76999957
0.76999965
0.76999971
0.76999976
0.7699998
0.76999983
0.76999986
0.76999988
0.7699999
0.76999992
0.76999993
0.76999995
0.76999996
0.76999996
0.76999997
0.76999997
0.76999998
0.76999998
0.76999999
0.76999999
0.76999999
0.76999999
0.76999999
0.77
0.77
0.77
0.77
0.77
0.769989
0.76999063
0.76999202
0.76999322
0.76999424
0.76999512
0.76999587
0.76999651
0.76999705
0.76999751
0.7699979
0.76999824
0.76999852
0.76999876
0.76999896
0.76999913
0.76999927
0.76999939
0.76999949
0.76999958
0.76999965
0.76999971
0.76999976
0.7699998
0.76999983
0.76999986
0.76999988
0.7699999
0.76999992
0.76999993
0.76999995
0.76999996
0.76999996
0.76999997
0.76999998
0.76999998
0.76999998
0.76999999
0.76999999
0.76999999
0.76999999
0.76999999
0.77
0.77
0.77
0.77
0.77
0.76998906
0.76999067
0.76999206
0.76999325
0.76999427
0.76999514
0.76999589
0.76999652
0.76999706
0.76999752
0.76999791
0.76999825
0.76999853
0.76999876
0.76999896
0.76999913
0.76999927
0.76999939
0.76999949
0.76999958
0.76999965
0.76999971
0.76999976
0.7699998
0.76999983
0.76999986
0.76999988
0.7699999
0.76999992
0.76999993
0.76999995
0.76999996
0.76999996
0.76999997
0.76999998
0.76999998
0.76999998
0.76999999
0.76999999
0.76999999
0.76999999
0.76999999
0.77
0.77
0.77
0.77
0.77
0.76998911
0.76999072
0.7699921
0.76999328
0.7699943
0.76999517
0.76999591
0.76999654
0.76999708
0.76999754
0.76999792
0.76999825
0.76999853
0.76999877
0.76999897
0.76999914
0.76999928
0.7699994
0.7699995
0.76999958
0.76999965
0.76999971
0.76999976
0.7699998
0.76999983
0.76999986
0.76999989
0.76999991
0.76999992
0.76999994
0.76999995
0.76999996
0.76999996
0.76999997
0.76999998
0.76999998
0.76999998
0.76999999
0.76999999
0.76999999
0.76999999
0.76999999
0.77
0.77
0.77
0.77
0.77
0.76998917
0.76999077
0.76999214
0.76999332
0.76999433
0.76999519
0.76999593
0.76999656
0.76999709
0.76999755
0.76999794
0.76999826
0.76999854
0.76999878
0.76999897
0.76999914
0.76999928
0.7699994
0.7699995
0.76999958
0.76999965
0.76999971
0.76999976
0.7699998
0.76999983
0.76999986
0.76999989
0.76999991
0.76999992
0.76999994
0.76999995
0.76999996
0.76999996
0.76999997
0.76999998
0.76999998
0.76999998
0.76999999
0.76999999
0.76999999
0.76999999
0.76999999
0.77
0.77
0.77
0.77
0.77
0.7699874
0.76998924
0.76999083
0.76999219
0.76999336
0.76999436
0.76999522
0.76999595
0.76999658
0.76999711
0.76999756
0.76999795
0.76999827
0.76999855
0.76999878
0.76999898
0.76999915
0.76999929
0.7699994
0.7699995
0.76999958
0.76999965
0.76999971
0.76999976
0.7699998
0.76999983
0.76999986
0.76999989
0.76999991
0.76999992
0.76999994
0.76999995
0.76999996
0.76999996
0.76999997
0.76999998
0.76999998
0.76999998
0.76999999
0.76999999
0.76999999
0.76999999
0.76999999
0.77
0.77
0.77
0.77
0.77
0.76998749
0.76998932
0.76999089
0.76999225
0.76999341
0.7699944
0.76999525
0.76999598
0.7699966
0.76999713
0.76999758
0.76999796
0.76999828
0.76999856
0.76999879
0.76999899
0.76999915
0.76999929
0.76999941
0.7699995
0.76999959
0.76999966
0.76999971
0.76999976
0.7699998
0.76999984
0.76999986
0.76999989
0.76999991
0.76999992
0.76999994
0.76999995
0.76999996
0.76999996
0.76999997
0.76999998
0.76999998
0.76999998
0.76999999
0.76999999
0.76999999
0.76999999
0.76999999
0.77
0.77
0.77
0.77
0.77
0.76998304
0.76998548
0.76998758
0.7699894
0.76999096
0.7699923
0.76999346
0.76999444
0.76999529
0.76999601
0.76999663
0.76999715
0.7699976
0.76999798
0.7699983
0.76999857
0.7699988
0.76999899
0.76999916
0.76999929
0.76999941
0.76999951
0.76999959
0.76999966
0.76999972
0.76999976
0.7699998
0.76999984
0.76999986
0.76999989
0.76999991
0.76999992
0.76999994
0.76999995
0.76999996
0.76999996
0.76999997
0.76999998
0.76999998
0.76999998
0.76999999
0.76999999
0.76999999
0.76999999
0.76999999
0.77
0.77
0.77
0.77
0.77
0.7699804
0.76998319
0.7699856
0.76998769
0.76998949
0.76999104
0.76999237
0.76999351
0.76999449
0.76999533
0.76999604
0.76999665
0.76999717
0.76999762
0.76999799
0.76999831
0.76999858
0.76999881
0.769999
0.76999916
0.7699993
0.76999941
0.76999951
0.76999959
0.76999966
0.76999972
0.76999977
0.7699998
0.76999984
0.76999987
0.76999989
0.76999991
0.76999992
0.76999994
0.76999995
0.76999996
0.76999996
0.76999997
0.76999998
0.76999998
0.76999998
0.76999999
0.76999999
0.76999999
0.76999999
0.76999999
0.77
0.77
0.77
0.77
0.77
0.76998057
0.76998334
0.76998573
0.7699878
0.76998958
0.76999112
0.76999243
0.76999357
0.76999454
0.76999537
0.76999608
0.76999668
0.7699972
0.76999764
0.76999801
0.76999832
0.76999859
0.76999882
0.76999901
0.76999917
0.76999931
0.76999942
0.76999952
0.7699996
0.76999966
0.76999972
0.76999977
0.76999981
0.76999984
0.76999987
0.76999989
0.76999991
0.76999992
0.76999994
0.76999995
0.76999996
0.76999996
0.76999997
0.76999998
0.76999998
0.76999998
0.76999999
0.76999999
0.76999999
0.76999999
0.76999999
0.77
0.77
0.77
0.77
0.77
0.76998077
0.7699835
0.76998587
0.76998792
0.76998968
0.7699912
0.76999251
0.76999363
0.76999459
0.76999541
0.76999611
0.76999671
0.76999722
0.76999766
0.76999803
0.76999834
0.7699986
0.76999883
0.76999902
0.76999918
0.76999931
0.76999942
0.76999952
0.7699996
0.76999967
0.76999972
0.76999977
0.76999981
0.76999984
0.76999987
0.76999989
0.76999991
0.76999992
0.76999994
0.76999995
0.76999996
0.76999996
0.76999997
0.76999998
0.76999998
0.76999998
0.76999999
0.76999999
0.76999999
0.76999999
0.76999999
0.77
0.77
0.77
0.77
0.77
0.76998097
0.76998368
0.76998602
0.76998805
0.76998979
0.76999129
0.76999259
0.76999369
0.76999464
0.76999546
0.76999615
0.76999675
0.76999725
0.76999768
0.76999805
0.76999836
0.76999862
0.76999884
0.76999903
0.76999918
0.76999932
0.76999943
0.76999952
0.7699996
0.76999967
0.76999972
0.76999977
0.76999981
0.76999984
0.76999987
0.76999989
0.76999991
0.76999993
0.76999994
0.76999995
0.76999996
0.76999997
0.76999997
0.76999998
0.76999998
0.76999998
0.76999999
0.76999999
0.76999999
0.76999999
0.76999999
0.77
0.77
0.77
0.77
0.77
0.76998119
0.76998387
0.76998618
0.76998818
0.76998991
0.76999139
0.76999267
0.76999377
0.7699947
0.76999551
0.7699962
0.76999678
0.76999728
0.76999771
0.76999807
0.76999837
0.76999863
0.76999885
0.76999904
0.76999919
0.76999933
0.76999944
0.76999953
0.76999961
0.76999967
0.76999973
0.76999977
0.76999981
0.76999984
0.76999987
0.76999989
0.76999991
0.76999993
0.76999994
0.76999995
0.76999996
0.76999997
0.76999997
0.76999998
0.76999998
0.76999998
0.76999999
0.76999999
0.76999999
0.76999999
0.76999999
0.77
0.77
0.77
0.77
0.77
0.76998143
0.76998407
0.76998635
0.76998833
0.76999003
0.7699915
0.76999276
0.76999384
0.76999477
0.76999556
0.76999624
0.76999682
0.76999731
0.76999773
0.76999809
0.76999839
0.76999865
0.76999886
0.76999905
0.7699992
0.76999933
0.76999944
0.76999953
0.76999961
0.76999968
0.76999973
0.76999978
0.76999981
0.76999985
0.76999987
0.76999989
0.76999991
0.76999993
0.76999994
0.76999995
0.76999996
0.76999997
0.76999997
0.76999998
0.76999998
0.76999998
0.76999999
0.76999999
0.76999999
0.76999999
0.76999999
0.77
0.77
0.77
0.77
0.77
0.76998168
0.76998428
0.76998654
0.76998848
0.76999016
0.76999161
0.76999285
0.76999392
0.76999484
0.76999562
0.76999629
0.76999686
0.76999735
0.76999776
0.76999811
0.76999841
0.76999866
0.76999888
0.76999906
0.76999921
0.76999934
0.76999945
0.76999954
0.76999962
0.76999968
0.76999973
0.76999978
0.76999982
0.76999985
0.76999987
0.76999989
0.76999991
0.76999993
0.76999994
0.76999995
0.76999996
0.76999997
0.76999997
0.76999998
0.76999998
0.76999998
0.76999999
0.76999999
0.76999999
0.76999999
0.76999999
0.77
0.77
0.77
0.77
0.77
0.76998194
0.76998451
0.76998673
0.76998865
0.7699903
0.76999173
0.76999295
0.76999401
0.76999491
0.76999568
0.76999634
0.7699969
0.76999738
0.76999779
0.76999814
0.76999843
0.76999868
0.76999889
0.76999907
0.76999922
0.76999935
0.76999946
0.76999955
0.76999962
0.76999968
0.76999974
0.76999978
0.76999982
0.76999985
0.76999987
0.7699999
0.76999991
0.76999993
0.76999994
0.76999995
0.76999996
0.76999997
0.76999997
0.76999998
0.76999998
0.76999998
0.76999999
0.76999999
0.76999999
0.76999999
0.76999999
0.77
0.77
0.77
0.77
0.77
0.76998222
0.76998475
0.76998693
0.76998882
0.76999045
0.76999186
0.76999306
0.7699941
0.76999499
0.76999575
0.76999639
0.76999695
0.76999742
0.76999782
0.76999817
0.76999846
0.7699987
0.76999891
0.76999908
0.76999923
0.76999936
0.76999946
0.76999955
0.76999963
0.76999969
0.76999974
0.76999978
0.76999982
0.76999985
0.76999988
0.7699999
0.76999991
0.76999993
0.76999994
0.76999995
0.76999996
0.76999997
0.76999997
0.76999998
0.76999998
0.76999999
0.76999999
0.76999999
0.76999999
0.76999999
0.76999999
0.77
0.77
0.77
0.77
0.77
0.76998252
0.769985
0.76998715
0.76998901
0.76999061
0.76999199
0.76999317
0.76999419
0.76999507
0.76999581
0.76999645
0.769997
0.76999746
0.76999786
0.76999819
0.76999848
0.76999872
0.76999893
0.7699991
0.76999924
0.76999937
0.76999947
0.76999956
0.76999963
0.76999969
0.76999974
0.76999979
0.76999982
0.76999985
0.76999988
0.7699999
0.76999992
0.76999993
0.76999994
0.76999995
0.76999996
0.76999997
0.76999997
0.76999998
0.76999998
0.76999999
0.76999999
0.76999999
0.76999999
0.76999999
0.77
0.77
0.77
0.77
0.77
0.77
0.76998283
0.76998527
0.76998738
0.7699892
0.76999077
0.76999213
0.76999329
0.76999429
0.76999515
0.76999589
0.76999651
0.76999705
0.76999751
0.76999789
0.76999822
0.7699985
0.76999874
0.76999894
0.76999911
0.76999926
0.76999938
0.76999948
0.76999957
0.76999964
0.7699997
0.76999975
0.76999979
0.76999983
0.76999986
0.76999988
0.7699999
0.76999992
0.76999993
0.76999994
0.76999995
0.76999996
0.76999997
0.76999997
0.76999998
0.76999998
0.76999999
0.76999999
0.76999999
0.76999999
0.76999999
0.77
0.77
0.77
0.77
0.77
0.77
0.76998316
0.76998555
0.76998762
0.76998941
0.76999095
0.76999228
0.76999342
0.7699944
0.76999524
0.76999596
0.76999658
0.7699971
0.76999755
0.76999793
0.76999826
0.76999853
0.76999876
0.76999896
0.76999913
0.76999927
0.76999939
0.76999949
0.76999957
0.76999964
0.7699997
0.76999975
0.76999979
0.76999983
0.76999986
0.76999988
0.7699999
0.76999992
0.76999993
0.76999994
0.76999995
0.76999996
0.76999997
0.76999997
0.76999998
0.76999998
0.76999999
0.76999999
0.76999999
0.76999999
0.76999999
0.77
0.77
0.77
0.77
0.77
0.77
0.7699835
0.76998584
0.76998787
0.76998962
0.76999113
0.76999243
0.76999355
0.76999451
0.76999534
0.76999604
0.76999664
0.76999716
0.7699976
0.76999797
0.76999829
0.76999856
0.76999879
0.76999898
0.76999915
0.76999928
0.7699994
0.7699995
0.76999958
0.76999965
0.76999971
0.76999976
0.7699998
0.76999983
0.76999986
0.76999988
0.7699999
0.76999992
0.76999993
0.76999995
0.76999995
0.76999996
0.76999997
0.76999997
0.76999998
0.76999998
0.76999999
0.76999999
0.76999999
0.76999999
0.76999999
0.77
0.77
0.77
0.77
0.77
0.77
0.76998386
0.76998615
0.76998813
0.76998984
0.76999132
0.76999259
0.76999369
0.76999463
0.76999543
0.76999612
0.76999671
0.76999722
0.76999765
0.76999801
0.76999832
0.76999859
0.76999881
0.769999
0.76999916
0.7699993
0.76999941
0.76999951
0.76999959
0.76999966
0.76999971
0.76999976
0.7699998
0.76999983
0.76999986
0.76999989
0.76999991
0.76999992
0.76999993
0.76999995
0.76999996
0.76999996
0.76999997
0.76999997
0.76999998
0.76999998
0.76999999
0.76999999
0.76999999
0.76999999
0.76999999
0.77
0.77
0.77
0.77
0.77
0.77
0.76998423
0.76998647
0.76998841
0.76999008
0.76999152
0.76999276
0.76999383
0.76999475
0.76999554
0.76999621
0.76999679
0.76999728
0.7699977
0.76999806
0.76999836
0.76999862
0.76999884
0.76999902
0.76999918
0.76999931
0.76999942
0.76999952
0.7699996
0.76999966
0.76999972
0.76999977
0.76999981
0.76999984
0.76999987
0.76999989
0.76999991
0.76999992
0.76999994
0.76999995
0.76999996
0.76999996
0.76999997
0.76999998
0.76999998
0.76999998
0.76999999
0.76999999
0.76999999
0.76999999
0.76999999
0.77
0.77
0.77
0.77
0.77
0.77
0.76998462
0.7699868
0.76998869
0.76999032
0.76999173
0.76999294
0.76999398
0.76999488
0.76999564
0.7699963
0.76999686
0.76999735
0.76999775
0.7699981
0.7699984
0.76999865
0.76999887
0.76999905
0.7699992
0.76999933
0.76999944
0.76999953
0.76999961
0.76999967
0.76999973
0.76999977
0.76999981
0.76999984
0.76999987
0.76999989
0.76999991
0.76999992
0.76999994
0.76999995
0.76999996
0.76999996
0.76999997
0.76999998
0.76999998
0.76999998
0.76999999
0.76999999
0.76999999
0.76999999
0.76999999
0.77
0.77
0.77
0.77
0.77
0.77
0.76998503
0.76998715
0.76998899
0.76999057
0.76999194
0.76999312
0.76999414
0.76999501
0.76999576
0.7699964
0.76999694
0.76999741
0.76999781
0.76999815
0.76999844
0.76999869
0.76999889
0.76999907
0.76999922
0.76999934
0.76999945
0.76999954
0.76999962
0.76999968
0.76999973
0.76999978
0.76999981
0.76999985
0.76999987
0.76999989
0.76999991
0.76999993
0.76999994
0.76999995
0.76999996
0.76999997
0.76999997
0.76999998
0.76999998
0.76999998
0.76999999
0.76999999
0.76999999
0.76999999
0.76999999
0.77
0.77
0.77
0.77
0.77
0.77
0.76998545
0.76998751
0.76998929
0.76999084
0.76999217
0.76999331
0.7699943
0.76999515
0.76999587
0.76999649
0.76999703
0.76999748
0.76999787
0.7699982
0.76999848
0.76999872
0.76999892
0.76999909
0.76999924
0.76999936
0.76999946
0.76999955
0.76999963
0.76999969
0.76999974
0.76999978
0.76999982
0.76999985
0.76999987
0.7699999
0.76999991
0.76999993
0.76999994
0.76999995
0.76999996
0.76999997
0.76999997
0.76999998
0.76999998
0.76999998
0.76999999
0.76999999
0.76999999
0.76999999
0.76999999
0.77
0.77
0.77
0.77
0.77
0.77
0.76998588
0.76998788
0.76998961
0.76999111
0.7699924
0.76999351
0.76999446
0.76999529
0.76999599
0.7699966
0.76999711
0.76999755
0.76999793
0.76999825
0.76999852
0.76999876
0.76999895
0.76999912
0.76999926
0.76999938
0.76999948
0.76999956
0.76999964
0.7699997
0.76999975
0.76999979
0.76999982
0.76999985
0.76999988
0.7699999
0.76999992
0.76999993
0.76999994
0.76999995
0.76999996
0.76999997
0.76999997
0.76999998
0.76999998
0.76999998
0.76999999
0.76999999
0.76999999
0.76999999
0.76999999
0.77
0.77
0.77
0.77
0.77
0.77
0.76998632
0.76998826
0.76998993
0.76999138
0.76999263
0.76999371
0.76999464
0.76999543
0.76999612
0.7699967
0.7699972
0.76999763
0.76999799
0.7699983
0.76999857
0.76999879
0.76999898
0.76999915
0.76999928
0.7699994
0.76999949
0.76999958
0.76999965
0.7699997
0.76999975
0.76999979
0.76999983
0.76999986
0.76999988
0.7699999
0.76999992
0.76999993
0.76999994
0.76999995
0.76999996
0.76999997
0.76999997
0.76999998
0.76999998
0.76999999
0.76999999
0.76999999
0.76999999
0.76999999
0.76999999
0.77
0.77
0.77
0.77
0.77
0.77
0.76998677
0.76998865
0.76999027
0.76999167
0.76999288
0.76999392
0.76999481
0.76999558
0.76999624
0.76999681
0.76999729
0.7699977
0.76999806
0.76999836
0.76999861
0.76999883
0.76999902
0.76999917
0.7699993
0.76999942
0.76999951
0.76999959
0.76999966
0.76999971
0.76999976
0.7699998
0.76999983
0.76999986
0.76999988
0.7699999
0.76999992
0.76999993
0.76999995
0.76999995
0.76999996
0.76999997
0.76999997
0.76999998
0.76999998
0.76999999
0.76999999
0.76999999
0.76999999
0.76999999
0.76999999
0.77
0.77
0.77
0.77
0.77
0.77
0.76998724
0.76998904
0.76999061
0.76999196
0.76999312
0.76999413
0.76999499
0.76999573
0.76999637
0.76999692
0.76999738
0.76999778
0.76999812
0.76999841
0.76999866
0.76999887
0.76999905
0.7699992
0.76999933
0.76999943
0.76999953
0.7699996
0.76999967
0.76999972
0.76999977
0.76999981
0.76999984
0.76999987
0.76999989
0.76999991
0.76999992
0.76999994
0.76999995
0.76999996
0.76999996
0.76999997
0.76999998
0.76999998
0.76999998
0.76999999
0.76999999
0.76999999
0.76999999
0.76999999
0.77
0.77
0.77
0.77
0.77
0.77
0.77
0.76998771
0.76998945
0.76999095
0.76999225
0.76999338
0.76999434
0.76999517
0.76999589
0.7699965
0.76999703
0.76999748
0.76999786
0.76999819
0.76999847
0.76999871
0.76999891
0.76999908
0.76999923
0.76999935
0.76999945
0.76999954
0.76999962
0.76999968
0.76999973
0.76999978
0.76999981
0.76999984
0.76999987
0.76999989
0.76999991
0.76999993
0.76999994
0.76999995
0.76999996
0.76999996
0.76999997
0.76999998
0.76999998
0.76999998
0.76999999
0.76999999
0.76999999
0.76999999
0.76999999
0.77
0.77
0.77
0.77
0.77
0.77
0.77
0.76998819
0.76998986
0.7699913
0.76999255
0.76999363
0.76999456
0.76999536
0.76999605
0.76999664
0.76999714
0.76999757
0.76999794
0.76999826
0.76999853
0.76999876
0.76999895
0.76999912
0.76999926
0.76999937
0.76999947
0.76999956
0.76999963
0.76999969
0.76999974
0.76999978
0.76999982
0.76999985
0.76999987
0.7699999
0.76999991
0.76999993
0.76999994
0.76999995
0.76999996
0.76999997
0.76999997
0.76999998
0.76999998
0.76999998
0.76999999
0.76999999
0.76999999
0.76999999
0.76999999
0.77
0.77
0.77
0.77
0.77
0.77
0.77
0.76998682
0.76998867
0.76999027
0.76999166
0.76999286
0.76999389
0.76999478
0.76999555
0.76999621
0.76999677
0.76999726
0.76999767
0.76999803
0.76999833
0.76999859
0.76999881
0.76999899
0.76999915
0.76999928
0.7699994
0.76999949
0.76999958
0.76999964
0.7699997
0.76999975
0.76999979
0.76999983
0.76999986
0.76999988
0.7699999
0.76999992
0.76999993
0.76999994
0.76999995
0.76999996
0.76999997
0.76999997
0.76999998
0.76999998
0.76999998
0.76999999
0.76999999
0.76999999
0.76999999
0.76999999
0.77
0.77
0.77
0.77
0.77
0.77
0.77
0.76998534
0.76998738
0.76998915
0.76999069
0.76999201
0.76999316
0.76999415
0.769995
0.76999574
0.76999637
0.76999691
0.76999737
0.76999777
0.76999811
0.7699984
0.76999864
0.76999885
0.76999903
0.76999919
0.76999931
0.76999942
0.76999952
0.76999959
0.76999966
0.76999971
0.76999976
0.7699998
0.76999983
0.76999986
0.76999988
0.7699999
0.76999992
0.76999993
0.76999994
0.76999995
0.76999996
0.76999997
0.76999997
0.76999998
0.76999998
0.76999999
0.76999999
0.76999999
0.76999999
0.76999999
0.76999999
0.77
0.77
0.77
0.77
0.77
0.77
0.77
0.76998376
0.769986
0.76998795
0.76998964
0.7699911
0.76999237
0.76999346
0.76999441
0.76999522
0.76999592
0.76999653
0.76999704
0.76999749
0.76999787
0.76999819
0.76999847
0.7699987
0.7699989
0.76999908
0.76999922
0.76999934
0.76999945
0.76999954
0.76999961
0.76999967
0.76999973
0.76999977
0.76999981
0.76999984
0.76999987
0.76999989
0.76999991
0.76999992
0.76999994
0.76999995
0.76999996
0.76999996
0.76999997
0.76999997
0.76999998
0.76999998
0.76999999
0.76999999
0.76999999
0.76999999
0.76999999
0.76999999
0.77
0.77
0.77
0.77
0.77
0.77
0.77
0.76998451
0.76998665
0.76998851
0.76999012
0.76999152
0.76999272
0.76999377
0.76999467
0.76999544
0.76999611
0.76999669
0.76999718
0.7699976
0.76999796
0.76999827
0.76999854
0.76999876
0.76999895
0.76999912
0.76999926
0.76999937
0.76999947
0.76999956
0.76999963
0.76999969
0.76999974
0.76999978
0.76999982
0.76999985
0.76999987
0.76999989
0.76999991
0.76999993
0.76999994
0.76999995
0.76999996
0.76999996
0.76999997
0.76999998
0.76999998
0.76999998
0.76999999
0.76999999
0.76999999
0.76999999
0.76999999
0.77
0.77
0.77
0.77
0.77
0.77
0.77
0.77
0.76998526
0.7699873
0.76998906
0.7699906
0.76999192
0.76999307
0.76999407
0.76999492
0.76999566
0.7699963
0.76999684
0.76999731
0.76999772
0.76999806
0.76999835
0.76999861
0.76999882
0.769999
0.76999916
0.76999929
0.7699994
0.7699995
0.76999958
0.76999964
0.7699997
0.76999975
0.76999979
0.76999983
0.76999985
0.76999988
0.7699999
0.76999992
0.76999993
0.76999994
0.76999995
0.76999996
0.76999997
0.76999997
0.76999998
0.76999998
0.76999998
0.76999999
0.76999999
0.76999999
0.76999999
0.76999999
0.77
0.77
0.77
0.77
0.77
0.77
0.77
0.77
0.769986
0.76998793
0.76998961
0.76999107
0.76999233
0.76999342
0.76999436
0.76999518
0.76999588
0.76999648
0.769997
0.76999745
0.76999783
0.76999816
0.76999843
0.76999867
0.76999888
0.76999905
0.7699992
0.76999932
0.76999943
0.76999952
0.7699996
0.76999966
0.76999972
0.76999976
0.7699998
0.76999983
0.76999986
0.76999988
0.7699999
0.76999992
0.76999993
0.76999994
0.76999995
0.76999996
0.76999997
0.76999997
0.76999998
0.76999998
0.76999999
0.76999999
0.76999999
0.76999999
0.76999999
0.76999999
0.77
0.77
0.77
0.77
0.77
0.77
0.77
0.77
0.76998672
0.76998855
0.76999014
0.76999152
0.76999272
0.76999375
0.76999465
0.76999542
0.76999609
0.76999666
0.76999715
0.76999758
0.76999794
0.76999825
0.76999851
0.76999874
0.76999893
0.7699991
0.76999924
0.76999936
0.76999946
0.76999954
0.76999962
0.76999968
0.76999973
0.76999977
0.76999981
0.76999984
0.76999987
0.76999989
0.76999991
0.76999992
0.76999994
0.76999995
0.76999996
0.76999996
0.76999997
0.76999997
0.76999998
0.76999998
0.76999999
0.76999999
0.76999999
0.76999999
0.76999999
0.76999999
0.77
0.77
0.77
0.77
0.77
0.77
0.77
0.77
0.76998741
0.76998915
0.76999066
0.76999196
0.7699931
0.76999408
0.76999493
0.76999566
0.76999629
0.76999683
0.7699973
0.7699977
0.76999804
0.76999834
0.76999859
0.76999881
0.76999899
0.76999914
0.76999928
0.76999939
0.76999949
0.76999957
0.76999964
0.76999969
0.76999974
0.76999979
0.76999982
0.76999985
0.76999987
0.76999989
0.76999991
0.76999993
0.76999994
0.76999995
0.76999996
0.76999997
0.76999997
0.76999998
0.76999998
0.76999998
0.76999999
0.76999999
0.76999999
0.76999999
0.76999999
0.77
0.77
0.77
0.77
0.77
0.77
0.77
0.77
0.77
0.76998807
0.76998972
0.76999115
0.76999239
0.76999346
0.76999439
0.7699952
0.76999589
0.76999649
0.769997
0.76999744
0.76999782
0.76999815
0.76999843
0.76999866
0.76999887
0.76999904
0.76999919
0.76999931
0.76999942
0.76999951
0.76999959
0.76999965
0.76999971
0.76999976
0.7699998
0.76999983
0.76999986
0.76999988
0.7699999
0.76999992
0.76999993
0.76999994
0.76999995
0.76999996
0.76999997
0.76999997
0.76999998
0.76999998
0.76999998
0.76999999
0.76999999
0.76999999
0.76999999
0.76999999
0.77
0.77
0.77
0.77
0.77
0.77
0.77
0.77
0.77
0.7699887
0.76999026
0.76999162
0.76999279
0.76999381
0.76999469
0.76999545
0.76999611
0.76999667
0.76999716
0.76999758
0.76999794
0.76999824
0.76999851
0.76999873
0.76999893
0.76999909
0.76999923
0.76999935
0.76999945
0.76999954
0.76999961
0.76999967
0.76999972
0.76999977
0.76999981
0.76999984
0.76999986
0.76999989
0.76999991
0.76999992
0.76999993
0.76999995
0.76999995
0.76999996
0.76999997
0.76999997
0.76999998
0.76999998
0.76999999
0.76999999
0.76999999
0.76999999
0.76999999
0.76999999
0.77
0.77
0.77
0.77
0.77
0.77
0.77
0.77
0.77
0.76998759
0.76998929
0.76999077
0.76999205
0.76999317
0.76999413
0.76999497
0.76999569
0.76999631
0.76999684
0.76999731
0.7699977
0.76999804
0.76999833
0.76999859
0.7699988
0.76999898
0.76999914
0.76999927
0.76999938
0.76999948
0.76999956
0.76999963
0.76999969
0.76999974
0.76999978
0.76999982
0.76999985
0.76999987
0.76999989
0.76999991
0.76999992
0.76999994
0.76999995
0.76999996
0.76999996
0.76999997
0.76999998
0.76999998
0.76999998
0.76999999
0.76999999
0.76999999
0.76999999
0.76999999
0.76999999
0.77
0.77
0.77
0.77
0.77
0.77
0.77
0.77
0.77
0.76998822
0.76998984
0.76999124
0.76999246
0.76999351
0.76999443
0.76999522
0.7699959
0.7699965
0.769997
0.76999744
0.76999782
0.76999814