/*--------------------------------*- C++ -*----------------------------------*\
| =========                 |                                                 |
| \\      /  F ield         | OpenFOAM: The Open Source CFD Toolbox           |
|  \\    /   O peration     | Version:  2312                                  |
|   \\  /    A nd           | Website:  www.openfoam.com                      |
|    \\/     M anipulation  |                                                 |
\*---------------------------------------------------------------------------*/
FoamFile
{
    version     2.0;
    format      ascii;
    arch        "LSB;label=32;scalar=64";
    class       volScalarField;
    location    "0.02";
    object      nut;
}
// * * * * * * * * * * * * * * * * * * * * * * * * * * * * * * * * * * * * * //

dimensions      [0 2 -1 0 0 0 0];

internalField   nonuniform List<scalar> 
3224
(
0.029185092
0.029258364
0.02933556
0.029417164
0.029503668
0.029595572
0.029693375
0.029797575
0.029908662
0.030027114
0.030153392
0.030287936
0.030431161
0.030583455
0.030745173
0.030916641
0.031098148
0.03128995
0.031492266
0.031705282
0.031929148
0.032163981
0.032409868
0.032666864
0.032934995
0.033214263
0.033504644
0.033806092
0.034118541
0.034441907
0.034776089
0.035120973
0.035476432
0.035842326
0.036218507
0.036604821
0.037001106
0.037407197
0.03782293
0.038248143
0.038682584
0.029184237
0.029257547
0.029334786
0.029416433
0.02950298
0.029594926
0.029692772
0.029797014
0.029908145
0.03002664
0.030152962
0.03028755
0.030430818
0.030583155
0.030744918
0.030916429
0.03109798
0.031289825
0.031492184
0.031705243
0.031929152
0.032164028
0.032409957
0.032666994
0.032935167
0.033214476
0.033504897
0.033806385
0.034118874
0.034442279
0.0347765
0.035121422
0.035476918
0.035842848
0.036219066
0.036605416
0.037001735
0.037407858
0.037823619
0.03824885
0.038683353
0.029182715
0.029256076
0.029333368
0.029415067
0.029501665
0.029593663
0.02969156
0.029795855
0.029907038
0.030025585
0.030151958
0.030286597
0.030429917
0.030582305
0.030744118
0.030915679
0.03109728
0.031289174
0.031491582
0.031704689
0.031928646
0.032163569
0.032409545
0.032666629
0.032934848
0.033214203
0.033504669
0.033806202
0.034118735
0.034442184
0.034776448
0.035121413
0.035476951
0.035842924
0.036219183
0.036605572
0.03700193
0.037408089
0.037823878
0.038249125
0.038683688
0.029180527
0.029253952
0.029331305
0.029413064
0.029499724
0.029591783
0.029689742
0.029794098
0.029905342
0.03002395
0.030150383
0.030285082
0.030428461
0.030580907
0.030742778
0.030914396
0.031096052
0.031288002
0.031490465
0.031703626
0.031927635
0.032162611
0.032408639
0.032665774
0.032934044
0.033213448
0.033503965
0.033805547
0.034118129
0.034441626
0.034775938
0.035120951
0.035476536
0.035842555
0.036218859
0.036605293
0.037001693
0.037407892
0.037823713
0.038248973
0.038683587
0.029107654
0.029177682
0.029251174
0.029328595
0.029410425
0.029497156
0.029589286
0.029687315
0.029791742
0.029903055
0.030021732
0.030148234
0.030283
0.030426446
0.030578958
0.030740892
0.030912574
0.031094293
0.031286303
0.031488826
0.031702046
0.031926114
0.032161147
0.032407231
0.032664422
0.032932747
0.033212206
0.033502776
0.033804412
0.034117047
0.034440597
0.034774961
0.035120026
0.035475662
0.035841731
0.036218085
0.036604567
0.037001014
0.037407255
0.037823112
0.038248389
0.038683049
0.029104294
0.029174375
0.029247938
0.029325432
0.029407336
0.029494142
0.029586347
0.029684452
0.029788953
0.02990034
0.030019091
0.030145665
0.030280502
0.030424017
0.030576597
0.030738599
0.030910346
0.031092128
0.031284202
0.031486786
0.031700066
0.031924193
0.032159284
0.032405426
0.032662673
0.032931053
0.033210568
0.033501193
0.033802882
0.034115571
0.034439174
0.034773592
0.035118709
0.035474397
0.035840518
0.036216923
0.036603454
0.036999948
0.037406234
0.037822128
0.038247425
0.038682126
0.029100547
0.0291707
0.029244336
0.029321906
0.029403889
0.029490773
0.029583058
0.029681241
0.029785821
0.029897285
0.030016112
0.030142761
0.030277672
0.030421259
0.030573909
0.03073598
0.030907794
0.031089642
0.03128178
0.031484426
0.031697768
0.031921955
0.032157105
0.032403304
0.032660608
0.032929045
0.033208615
0.033499295
0.033801039
0.034113782
0.034437439
0.03477191
0.03511708
0.035472821
0.035838994
0.03621545
0.036602031
0.036998573
0.037404904
0.037820839
0.038246164
0.0386809
0.029096127
0.029166367
0.029240086
0.029317742
0.029399812
0.029486786
0.029579159
0.029677431
0.029782098
0.029893649
0.03001256
0.030139293
0.030274285
0.030417952
0.030570681
0.030732827
0.030904715
0.031086636
0.031278843
0.031481559
0.031694967
0.031919219
0.032154433
0.032400695
0.032658061
0.032926559
0.033206189
0.033496928
0.033798732
0.034111534
0.034435249
0.034769779
0.035115007
0.035470805
0.035837035
0.036213547
0.036600182
0.036996777
0.037403158
0.037819138
0.0382445
0.038679273
0.029023706
0.029090997
0.029161328
0.029235141
0.029312893
0.029395061
0.029482133
0.029574605
0.029672976
0.02977774
0.029889387
0.030008394
0.030135219
0.030270302
0.030414057
0.030566871
0.030729101
0.03090107
0.031083069
0.031275354
0.031478144
0.031691625
0.031915948
0.032151232
0.032397562
0.032654995
0.032923558
0.033203254
0.033494058
0.033795926
0.034108791
0.03443257
0.034767163
0.035112453
0.035468314
0.035834606
0.036211179
0.036597874
0.036994527
0.037400962
0.037816993
0.0382424
0.038677216
0.02901773
0.029085104
0.029155534
0.02922945
0.029307309
0.029389586
0.029476769
0.029569351
0.02966783
0.029772703
0.029884457
0.030003567
0.030130494
0.030265677
0.030409529
0.030562438
0.030724759
0.030896817
0.031078903
0.031271271
0.031474142
0.031687702
0.031912102
0.032147461
0.032393865
0.032651371
0.032920006
0.033199771
0.033490646
0.033792582
0.034105517
0.034429365
0.034764026
0.035109385
0.035465313
0.035831673
0.036208312
0.036595073
0.036991789
0.037398285
0.037814373
0.038239834
0.038674697
0.028946135
0.029010917
0.029078391
0.02914893
0.029222961
0.029300939
0.029383337
0.029470641
0.029563345
0.029661945
0.029766937
0.029878808
0.029998034
0.030125074
0.030260366
0.030404324
0.030557336
0.030719758
0.030891913
0.031074092
0.031266551
0.03146951
0.031683156
0.03190764
0.03214308
0.032389564
0.032647148
0.03291586
0.033195702
0.033486652
0.033788664
0.034101673
0.034425595
0.03476033
0.035105763
0.035461766
0.035828199
0.036204911
0.036591743
0.036988529
0.037395093
0.037811244
0.038236767
0.038671685
0.028938312
0.02900321
0.029070799
0.02914146
0.029215619
0.029293728
0.02937626
0.029463698
0.029556536
0.029655269
0.029760393
0.029872393
0.029991745
0.030118907
0.030254319
0.030398394
0.030551519
0.03071405
0.03088631
0.031068592
0.031261149
0.031464205
0.031677943
0.031902518
0.032138046
0.032384616
0.032642285
0.03291108
0.033191005
0.033482036
0.033784129
0.034097219
0.034421222
0.034756037
0.035101551
0.035457634
0.035824146
0.036200938
0.036587848
0.036984711
0.037391349
0.037807572
0.038233165
0.038668146
0.028866823
0.028929519
0.028994548
0.029062266
0.029133064
0.029207364
0.029285619
0.029368298
0.029455883
0.029548868
0.029647748
0.029753015
0.029865157
0.029984647
0.030111944
0.030247487
0.030391689
0.030544937
0.030707586
0.030879962
0.031062354
0.031255019
0.031458178
0.031672017
0.031896689
0.032132313
0.032378976
0.032636736
0.032905621
0.033185635
0.033476754
0.033778935
0.034092112
0.034416202
0.034751105
0.035096706
0.035452876
0.035819475
0.036196353
0.03658335
0.036980297
0.037387018
0.037803321
0.038228993
0.038664046
0.028856847
0.028919692
0.028984866
0.02905273
0.02912368
0.029198137
0.029276551
0.029359391
0.029447139
0.029540285
0.029639324
0.029744749
0.029857045
0.029976686
0.03010413
0.030239816
0.030384156
0.030537537
0.030700315
0.030872815
0.031055328
0.031248109
0.03145138
0.031665328
0.031890105
0.032125832
0.032372596
0.032630455
0.032899437
0.033179547
0.033470761
0.033773037
0.034086308
0.034410493
0.03474549
0.035091186
0.035447451
0.035814145
0.036191118
0.036578208
0.036975248
0.03738206
0.037798453
0.038224214
0.038659348
0.028784747
0.028845758
0.028908763
0.028974097
0.029042125
0.029113243
0.029187872
0.029266462
0.029349478
0.029437402
0.029530725
0.029629938
0.029735534
0.029847998
0.029967804
0.030095408
0.030231249
0.030375739
0.030529265
0.030692183
0.030864818
0.03104746
0.031240367
0.031443759
0.031657824
0.031882716
0.032118554
0.032365426
0.032623391
0.032892479
0.033172692
0.033464009
0.033766387
0.034079761
0.034404047
0.034739147
0.035084946
0.035441314
0.035808111
0.036185187
0.036572381
0.036969524
0.037376436
0.037792928
0.03821879
0.038654016
0.028772296
0.028833482
0.028896662
0.028962173
0.029030382
0.029101684
0.029176503
0.029255283
0.029338493
0.02942661
0.029520124
0.029619527
0.02972531
0.029837956
0.02995794
0.030085718
0.030221727
0.03036638
0.030520063
0.030683132
0.030855913
0.031038696
0.031231738
0.031435261
0.031649453
0.031874468
0.032110425
0.032357414
0.032615494
0.032884695
0.03316502
0.033456448
0.033758936
0.034072421
0.034396818
0.034732029
0.035077939
0.03543442
0.03580133
0.036178519
0.036565826
0.03696308
0.037370105
0.037786708
0.03821268
0.038648011
0.028698896
0.02875857
0.028819944
0.028883315
0.028949021
0.029017429
0.029088934
0.029163958
0.029242947
0.029326366
0.029414693
0.029508416
0.029608024
0.02971401
0.029826855
0.029947032
0.030074997
0.030211188
0.030356017
0.03050987
0.030673103
0.030846041
0.031028976
0.031222164
0.031425828
0.031640157
0.031865304
0.03210139
0.032348506
0.032606709
0.032876032
0.033156477
0.033448026
0.033750634
0.034064238
0.034388755
0.034724087
0.035070118
0.03542672
0.035793753
0.036171066
0.036558496
0.036955875
0.037363023
0.037779749
0.038205846
0.038641294
0.028683617
0.028743489
0.028805066
0.028868646
0.028934565
0.02900319
0.029074916
0.029150165
0.029229381
0.029313028
0.029401582
0.02949553
0.029595362
0.029701566
0.029814626
0.029935012
0.03006318
0.030199568
0.030344587
0.030498623
0.030662032
0.03083514
0.031018238
0.031211584
0.031415401
0.031629877
0.031855166
0.032091392
0.032338643
0.03259698
0.032866434
0.03314701
0.033438688
0.033741425
0.034055158
0.034379806
0.034715268
0.035061431
0.035418166
0.035785333
0.036162781
0.036550347
0.036947862
0.037355146
0.037772009
0.038198244
0.038633824
0.028666882
0.02872697
0.028788769
0.028852575
0.028918726
0.028987587
0.029059554
0.029135047
0.029214509
0.029298402
0.029387202
0.029481394
0.029581467
0.029687908
0.029801199
0.029921811
0.030050199
0.030186798
0.030332022
0.030486255
0.030649855
0.030823146
0.03100642
0.031199936
0.031403916
0.03161855
0.031843994
0.032080369
0.032327767
0.032586248
0.032855844
0.03313656
0.033428377
0.033731254
0.034045128
0.034369916
0.03470552
0.035051826
0.035408706
0.035776019
0.036153614
0.036541329
0.036938994
0.037346429
0.037763443
0.038189832
0.038625561
0.028648607
0.028708931
0.028770968
0.02883502
0.028901422
0.028970539
0.029042767
0.029118523
0.029198251
0.02928241
0.029371476
0.029465932
0.029566264
0.029672961
0.029786501
0.029907356
0.03003598
0.030172808
0.030318252
0.030472698
0.030636503
0.030809991
0.030993454
0.031187152
0.031391309
0.031606114
0.031831723
0.032068259
0.032315815
0.03257445
0.032844199
0.033125067
0.033417036
0.033720064
0.034034089
0.03435903
0.034694788
0.03504125
0.035398287
0.035765759
0.036143516
0.036531394
0.036929224
0.037336825
0.037754007
0.038180566
0.038616461
0.028569589
0.02862871
0.028689284
0.028751578
0.028815894
0.028882567
0.028951962
0.02902447
0.029100512
0.029180526
0.029264973
0.029354324
0.029449063
0.029549676
0.029656646
0.029770456
0.029891572
0.03002045
0.030157523
0.030303205
0.030457879
0.030621904
0.030795603
0.030979271
0.031173165
0.031377511
0.031592499
0.031818286
0.032054996
0.032302722
0.032561524
0.032831438
0.03311247
0.033404602
0.033707793
0.034021982
0.034347089
0.034683014
0.035029645
0.035386854
0.0357545
0.036132433
0.03652049
0.0369185
0.037326285
0.037743652
0.0381704
0.038606481
0.028547725
0.028607099
0.028667938
0.028730508
0.028795109
0.028862074
0.028931766
0.029004578
0.029080926
0.029161248
0.029246004
0.029335663
0.029430707
0.029531619
0.029638885
0.029752983
0.02987438
0.03000353
0.030140867
0.030286803
0.030441723
0.030605984
0.030779911
0.030963797
0.031157902
0.031362452
0.031577637
0.031803616
0.032040512
0.032288421
0.032547403
0.032817495
0.033098704
0.033391012
0.03369438
0.034008747
0.034334033
0.03467014
0.035016954
0.03537435
0.035742186
0.036120311
0.036508564
0.036906774
0.037314761
0.037732333
0.03815929
0.038595578
0.0284083
0.028465643
0.028524036
0.02858368
0.028644802
0.028707666
0.028772572
0.02883985
0.028909863
0.028983
0.029059676
0.02914033
0.029225416
0.029315405
0.029410776
0.029512011
0.029619593
0.029733999
0.029855698
0.02998514
0.03012276
0.030268969
0.030424152
0.030588666
0.030762836
0.030946957
0.031141289
0.031346057
0.031561454
0.031787639
0.032024737
0.032272842
0.032532019
0.032802303
0.033083702
0.033376201
0.033679761
0.03399432
0.0343198
0.034656104
0.035003119
0.035360718
0.035728761
0.036107097
0.036495565
0.036893993
0.037302202
0.03772
0.03814719
0.038583708
0.02832549
0.028382158
0.028439757
0.028498423
0.028558354
0.028619778
0.028682957
0.028748189
0.028815802
0.028886158
0.028959643
0.029036671
0.029117679
0.02920312
0.029293462
0.029389182
0.029490762
0.029598683
0.02971342
0.02983544
0.029965195
0.030103118
0.030249619
0.030405084
0.030569869
0.030744301
0.030928674
0.031123249
0.031328252
0.031543877
0.031770283
0.032007597
0.032255914
0.0325153
0.032785791
0.033067397
0.033360102
0.033663869
0.033978637
0.034304328
0.034640846
0.034988079
0.035345899
0.035714168
0.036092735
0.036481437
0.036880105
0.037288558
0.037706606
0.038134051
0.038570825
0.028297049
0.028353965
0.028411832
0.028470787
0.028531024
0.028592769
0.028656283
0.028721862
0.028789833
0.028860554
0.028934411
0.029011816
0.029093202
0.029179022
0.029269741
0.029365835
0.029467783
0.029576065
0.029691156
0.029813521
0.02994361
0.030081856
0.03022867
0.030384437
0.030549512
0.030724224
0.030908867
0.031103702
0.031308957
0.031524826
0.03175147
0.031989017
0.032237563
0.032497174
0.032767889
0.033049717
0.033342645
0.033646636
0.033961631
0.034287551
0.034624302
0.034971771
0.035329833
0.035698348
0.036077166
0.036466126
0.036865057
0.037273778
0.037692101
0.038119828
0.038556886
0.028266433
0.028323614
0.028381765
0.028441026
0.028501587
0.028563673
0.028627544
0.028693493
0.028761844
0.028832954
0.028907207
0.028985013
0.029066803
0.029153026
0.029244147
0.029340639
0.02944298
0.029551648
0.029667116
0.029789848
0.029920294
0.030058886
0.030206034
0.030362123
0.030527509
0.030702521
0.030887453
0.031082567
0.031288092
0.031504224
0.031731123
0.03196892
0.032217712
0.032477567
0.032748522
0.033030591
0.033323761
0.033627994
0.033943234
0.034269403
0.034606406
0.034954133
0.035312458
0.035681242
0.036060335
0.036449576
0.036848795
0.037257811
0.037676437
0.038104474
0.038541846
0.02823354
0.028291001
0.028349453
0.028409037
0.028469941
0.028532389
0.028596637
0.028662978
0.028731733
0.028803257
0.028877931
0.028956163
0.029038381
0.029125034
0.029216583
0.029313499
0.029416258
0.029525336
0.029641206
0.02976433
0.029895156
0.030034117
0.030181621
0.030338054
0.030503773
0.030679105
0.030864346
0.031059759
0.031265574
0.031481987
0.031709162
0.031947228
0.032196284
0.032456401
0.032727617
0.033009946
0.033303376
0.033607872
0.033923378
0.034249817
0.034587095
0.034935101
0.035293712
0.035662789
0.036042183
0.036431731
0.036831266
0.037240606
0.037659563
0.038087943
0.03852566
0.028198268
0.028256023
0.028314792
0.028374717
0.028435983
0.028498812
0.02856346
0.028630215
0.028699398
0.02877136
0.028846481
0.028925164
0.029007838
0.029094946
0.029186949
0.029284315
0.029387518
0.029497033
0.02961333
0.029736871
0.029868102
0.030007456
0.03015534
0.03031214
0.030478213
0.030653887
0.030839459
0.031035192
0.031241317
0.031458033
0.031685502
0.031923858
0.0321732
0.032433599
0.032705096
0.032987706
0.033281418
0.033586199
0.033901993
0.034228724
0.034566301
0.034914612
0.035273535
0.035642931
0.036022652
0.036412537
0.036812417
0.037222111
0.037641433
0.038070188
0.038508287
0.028160513
0.028218576
0.028277679
0.028337961
0.028399609
0.02846284
0.028527909
0.028595101
0.028664735
0.02873716
0.028812753
0.028891914
0.028975069
0.029062661
0.029155144
0.029252987
0.029356662
0.02946664
0.029583391
0.029707374
0.029839036
0.029978807
0.030127096
0.030284287
0.030450738
0.030626778
0.030812703
0.031008778
0.031215237
0.031432276
0.031660063
0.031898729
0.032148379
0.032409082
0.032680882
0.032963795
0.033257813
0.033562902
0.033879008
0.034206058
0.034543958
0.034892601
0.035251863
0.035621608
0.036001686
0.036391938
0.036792195
0.037202278
0.037621999
0.038051166
0.038489683
0.028120175
0.028178559
0.02823801
0.028298667
0.028360714
0.028424367
0.028489878
0.028557531
0.028627641
0.028700554
0.028776643
0.02885631
0.028939973
0.029028075
0.029121067
0.029219415
0.029323588
0.029434057
0.029551289
0.029675741
0.029807861
0.029948076
0.030096794
0.030254402
0.030421256
0.030597685
0.030783988
0.03098043
0.031187244
0.031404631
0.031632758
0.031871759
0.032121739
0.03238277
0.032654897
0.032938139
0.033232486
0.033537909
0.033854354
0.034181749
0.034520001
0.034869005
0.035228636
0.03559876
0.035979227
0.03636988
0.036770549
0.037181057
0.037601215
0.038030832
0.03846981
0.028077152
0.028135869
0.028195683
0.028256732
0.028319196
0.028383291
0.028449266
0.028517401
0.02858801
0.028661436
0.028738049
0.028818247
0.028902446
0.028991085
0.029084615
0.029183496
0.029288196
0.029399184
0.029516924
0.029641874
0.029774478
0.029915164
0.030064339
0.03022239
0.030389673
0.030566517
0.030753223
0.030950056
0.031157251
0.031375011
0.031603503
0.031842864
0.032093199
0.032354583
0.032627064
0.03291066
0.033205365
0.033511149
0.033827961
0.03415573
0.034494365
0.03484376
0.035203793
0.035574329
0.035955221
0.036346311
0.03674743
0.037158401
0.037579037
0.038009147
0.038448629
0.028031347
0.028090409
0.0281506
0.028212055
0.028274954
0.02833951
0.028405969
0.028474609
0.028545741
0.028619704
0.028696867
0.028777623
0.028862386
0.02895159
0.029045684
0.029145127
0.029250383
0.029361919
0.029480197
0.029605673
0.029738789
0.029879974
0.030029635
0.030188155
0.030355894
0.030533181
0.030720316
0.030917568
0.031125171
0.031343329
0.031572212
0.03181196
0.032062678
0.032324443
0.032597305
0.032881283
0.033176375
0.03348255
0.03379976
0.034127935
0.034466985
0.034816805
0.035177275
0.03554826
0.035929614
0.03632118
0.036722789
0.037134265
0.037555423
0.037986072
0.038426105
0.027982665
0.028042083
0.028102663
0.02816454
0.02822789
0.028292925
0.028359888
0.028429055
0.028500733
0.028575259
0.028652996
0.028734336
0.02881969
0.028909488
0.029004176
0.029104209
0.02921005
0.029322163
0.029441008
0.029567038
0.029700697
0.02984241
0.029992584
0.030151604
0.030319827
0.030497585
0.030685178
0.030882875
0.031090914
0.031309499
0.031538803
0.031778965
0.032030095
0.032292271
0.032565543
0.032849935
0.033145444
0.033452043
0.033769684
0.034098298
0.034437798
0.03478808
0.035149025
0.035520498
0.035902355
0.036294439
0.036696582
0.037108609
0.037530335
0.037961572
0.038402207
0.02793102
0.027990803
0.028051783
0.028114095
0.028177912
0.028243443
0.02831093
0.028380644
0.02845289
0.028528001
0.028606339
0.028688289
0.02877426
0.02886468
0.02895999
0.029060643
0.029167098
0.029279818
0.029399259
0.029525875
0.029660106
0.029802377
0.029953094
0.030112642
0.03028138
0.030459638
0.030647718
0.030845891
0.031054396
0.031273438
0.031503192
0.031743799
0.031995371
0.032257989
0.032531705
0.032816543
0.033112503
0.03341956
0.033737667
0.034066758
0.034406747
0.03475753
0.035118989
0.035490993
0.035873396
0.036266043
0.036668768
0.037081394
0.03750374
0.037935616
0.038376907
0.027876329
0.027936484
0.027997875
0.028060634
0.028124932
0.028190976
0.028259003
0.028329284
0.02840212
0.028477839
0.028556801
0.028639387
0.028726002
0.028817071
0.028913031
0.029014333
0.029121432
0.029234788
0.029354856
0.029482088
0.029616921
0.029759781
0.029911072
0.03007118
0.030240463
0.030419252
0.030607851
0.030806531
0.031015532
0.031235063
0.031465299
0.031706384
0.031958432
0.032221525
0.032495718
0.032781037
0.033077484
0.033385037
0.033703649
0.034033256
0.034373774
0.0347251
0.035087118
0.035459698
0.035842694
0.036235953
0.036639309
0.037052587
0.037475605
0.037908177
0.038350182
0.02781852
0.027879054
0.027940864
0.028004079
0.02806887
0.028135441
0.028204026
0.028274893
0.028348337
0.028424687
0.028504295
0.028587542
0.028674827
0.028766572
0.02886321
0.028965189
0.029072961
0.029186983
0.029307709
0.029435587
0.029571054
0.029714534
0.029866431
0.03002713
0.03019699
0.030376343
0.030565492
0.030764712
0.030974243
0.031194295
0.031425047
0.031666645
0.031919203
0.032182808
0.032457515
0.032743353
0.033040327
0.033348414
0.033667572
0.033997738
0.034338828
0.034690743
0.035053367
0.03542657
0.03581021
0.036204132
0.036608173
0.037022159
0.037445908
0.037879235
0.038322016
0.027757532
0.027818449
0.027880683
0.027944364
0.028009659
0.028076768
0.028145926
0.028217393
0.028291466
0.028368465
0.028448743
0.028532673
0.028620653
0.028713099
0.028810443
0.028913127
0.029021601
0.02913632
0.029257733
0.029386288
0.02952242
0.029666552
0.029819087
0.02998041
0.03015088
0.03033083
0.030520564
0.030720357
0.030930453
0.031151063
0.031382367
0.031624513
0.03187762
0.032141773
0.032417033
0.032703431
0.033000972
0.033309637
0.033629385
0.033960155
0.034301864
0.034654416
0.035017696
0.035391574
0.035775911
0.036170553
0.036575336
0.036990089
0.03741463
0.037848775
0.038292397
0.027693316
0.027754618
0.027817281
0.027881432
0.027947238
0.028014898
0.028084639
0.028156723
0.028231439
0.028309107
0.028390074
0.028474709
0.028563407
0.02865658
0.028754655
0.028858071
0.028967276
0.02908272
0.029204852
0.029334115
0.029470944
0.02961576
0.029768966
0.029930946
0.03010206
0.030282641
0.030472995
0.030673398
0.030884094
0.031105298
0.031337192
0.031579926
0.03183362
0.032098363
0.032374218
0.032661218
0.03295937
0.033268658
0.033589042
0.033920464
0.034262843
0.034616084
0.034980072
0.035354682
0.035739772
0.036135192
0.03654078
0.036956363
0.037381761
0.037816791
0.038261325
0.027625841
0.027687525
0.027750618
0.027815243
0.027881567
0.027949783
0.028020118
0.02809283
0.028168204
0.028246557
0.02832823
0.028413591
0.028503029
0.028596951
0.028695782
0.028799958
0.028909921
0.029026119
0.029148998
0.029279
0.029416557
0.02956209
0.029716
0.029878672
0.030050465
0.030231713
0.030422723
0.030623772
0.030835107
0.031056944
0.031289466
0.031532828
0.031787151
0.032052528
0.032329021
0.032616668
0.032915478
0.033225437
0.033546508
0.033878633
0.034221735
0.034575718
0.034940472
0.035315872
0.035701777
0.036098038
0.036504494
0.036920973
0.037347298
0.037783286
0.038228804
0.027555091
0.027617155
0.027680675
0.027745775
0.027812617
0.027881395
0.027952332
0.028025681
0.028101725
0.028180775
0.028263171
0.028349275
0.028439471
0.028534165
0.028633775
0.028738734
0.028849482
0.028966461
0.029090117
0.029220888
0.029359205
0.029505487
0.029660135
0.029823533
0.02999604
0.030177991
0.030369694
0.030571428
0.030783441
0.031005951
0.031239144
0.031483177
0.031738172
0.032004226
0.032281405
0.032569747
0.032869264
0.033179945
0.033501755
0.033834638
0.034178518
0.034533303
0.034898883
0.035275134
0.035661918
0.036059086
0.036466479
0.036883926
0.03731125
0.03774827
0.038194851
0.027481074
0.02754351
0.027607452
0.027673024
0.027740385
0.027809726
0.027881267
0.027955259
0.028031981
0.028111741
0.028194872
0.028281733
0.028372706
0.02846819
0.028568601
0.028674366
0.028785922
0.02890371
0.02902817
0.02915974
0.029298848
0.029445911
0.02960133
0.029765488
0.029938745
0.030121436
0.030313871
0.030516328
0.03072906
0.030952285
0.031186192
0.031430939
0.031686654
0.031953433
0.032231345
0.032520432
0.032820708
0.033132165
0.033454769
0.033788467
0.034133185
0.034488833
0.034855302
0.035232469
0.0356202
0.036018345
0.036426747
0.036845236
0.037273637
0.037711768
0.038159494
0.027403822
0.02746662
0.027530976
0.027597012
0.027664888
0.02773479
0.027806936
0.027881573
0.027958978
0.028039453
0.02812333
0.028210962
0.028302725
0.028399016
0.028500245
0.028606837
0.028719225
0.028837846
0.028963137
0.029095533
0.029235461
0.029383337
0.02953956
0.029704513
0.029878556
0.030062025
0.03025523
0.030458452
0.030671944
0.030895927
0.031130592
0.0313761
0.031632581
0.031900134
0.032178831
0.032468715
0.032769805
0.033082094
0.03340555
0.033740123
0.034085742
0.034442316
0.03480974
0.035187893
0.035576641
0.035975836
0.036385323
0.036804932
0.03723449
0.037673816
0.038122771
0.027323396
0.027386541
0.027451298
0.027517789
0.02758617
0.027656627
0.027729375
0.027804657
0.027882745
0.027963941
0.028048568
0.028136978
0.028229543
0.028326654
0.028428719
0.028536156
0.028649396
0.028768872
0.028895018
0.029028268
0.029169045
0.029317764
0.029474824
0.029640605
0.02981547
0.029999754
0.030193768
0.030397796
0.03061209
0.030836875
0.031072344
0.031318661
0.031575957
0.031844335
0.032123869
0.032414607
0.032716567
0.033029746
0.033354115
0.033689626
0.034036209
0.034393778
0.034762226
0.035141436
0.035531275
0.035931597
0.036342247
0.036763058
0.037193856
0.037634463
0.038084737
0.027239889
0.027303363
0.027368505
0.027435436
0.02750431
0.027575312
0.027648653
0.027724574
0.027803344
0.027885258
0.027970639
0.028059833
0.028153207
0.028251148
0.02835406
0.028462357
0.028576467
0.028696818
0.028823842
0.02895797
0.029099623
0.029249214
0.029407141
0.029573785
0.029749507
0.029934643
0.030129506
0.03033438
0.030549519
0.030775152
0.031011472
0.031258645
0.031516807
0.031786063
0.032066489
0.032358136
0.032661025
0.032975154
0.0333005
0.033637014
0.033984629
0.03434326
0.034712805
0.035093147
0.035484153
0.035885681
0.036297576
0.036719672
0.037151798
0.037593775
0.038045461
0.027153429
0.027217211
0.027282717
0.027350069
0.02741942
0.027490952
0.027564875
0.027641425
0.027720868
0.027803497
0.027889629
0.027979607
0.028073793
0.028172571
0.028276339
0.028385509
0.028500502
0.028621745
0.028749667
0.028884695
0.029027249
0.02917774
0.029336564
0.029504103
0.029680716
0.029866741
0.030062491
0.030268251
0.03048428
0.030710804
0.030948023
0.031196103
0.031455182
0.031725369
0.032006743
0.032299356
0.032603234
0.032918377
0.033244763
0.033582346
0.033931063
0.034290829
0.034661545
0.035043094
0.035435347
0.035838162
0.036251386
0.036674855
0.037108397
0.037551837
0.038005029
0.027064187
0.02712825
0.027194096
0.027261847
0.027331654
0.027403697
0.027478184
0.027555348
0.027635453
0.027718787
0.027805665
0.027896422
0.02799142
0.028091036
0.028195665
0.028305714
0.028421602
0.028543752
0.028672588
0.028808536
0.028952012
0.029103427
0.029263177
0.02943164
0.029609177
0.029796127
0.029992802
0.03019949
0.03041645
0.030643911
0.030882075
0.031131111
0.03139116
0.031662332
0.031944711
0.03223835
0.032543277
0.032859497
0.033186989
0.03352571
0.033875599
0.034236573
0.034608534
0.034991369
0.035384949
0.035789135
0.036203773
0.036628703
0.037063754
0.03750875
0.037963546
0.02697238
0.027036694
0.02710285
0.027170972
0.02724121
0.027313741
0.02738877
0.02746653
0.02754728
0.027631305
0.027718915
0.027810444
0.027906248
0.028006699
0.028112189
0.028223122
0.028339912
0.028462977
0.02859274
0.028729624
0.028874042
0.029026404
0.029187103
0.029356519
0.029535012
0.029722919
0.029920556
0.030128211
0.030346143
0.030574587
0.030813743
0.031063784
0.031324854
0.031597066
0.031880506
0.032175229
0.032481269
0.032798629
0.033127293
0.033467221
0.033818353
0.034180608
0.034553892
0.034938091
0.03533308
0.03573872
0.03615486
0.03658134
0.037017991
0.037464639
0.037921137
0.026815532
0.026878266
0.026942801
0.027009237
0.0270777
0.027148338
0.027221328
0.027296874
0.027375206
0.027456579
0.027541275
0.027629602
0.027721889
0.027818487
0.027919767
0.028026114
0.028137929
0.028255622
0.028379608
0.028510308
0.028648139
0.028793516
0.028946843
0.029108514
0.029278908
0.029458384
0.029647281
0.029845914
0.030054572
0.030273518
0.030502986
0.03074318
0.030994275
0.031256417
0.031529722
0.031814278
0.032110146
0.032417357
0.032735922
0.033065825
0.033407027
0.033759473
0.034123083
0.034497765
0.034883407
0.035279886
0.035687063
0.036104792
0.036532911
0.036971254
0.037419649
0.037877947
0.02665824
0.026719314
0.026782172
0.02684689
0.026913571
0.026982339
0.027053344
0.027126762
0.027202794
0.027281668
0.027363638
0.027448982
0.027538003
0.027631029
0.027728406
0.027830501
0.027937696
0.028050387
0.02816898
0.028293889
0.028425529
0.028564316
0.028710661
0.028864969
0.029027631
0.029199024
0.029379509
0.029569423
0.029769084
0.029978781
0.030198778
0.030429311
0.030670586
0.030922782
0.031186045
0.031460495
0.031746223
0.03204329
0.032351734
0.032671565
0.03300277
0.033345315
0.033699144
0.034064181
0.034440335
0.034827498
0.035225546
0.035634344
0.036053745
0.036483592
0.036923718
0.037373953
0.037834147
0.026501122
0.026560437
0.026621537
0.026684479
0.026749342
0.026816228
0.026885264
0.026956599
0.027030408
0.027106891
0.027186274
0.027268808
0.02735477
0.02744446
0.027538201
0.027636336
0.027739228
0.027847256
0.027960811
0.028080297
0.028206124
0.028338703
0.028478449
0.02862577
0.028781069
0.028944735
0.029117146
0.02929866
0.029489617
0.029690333
0.0299011
0.030122182
0.030353818
0.030596215
0.030849554
0.031113985
0.031389629
0.03167658
0.031974902
0.032284635
0.032605791
0.032938362
0.033282313
0.033637592
0.034004126
0.034381824
0.03477058
0.035170274
0.035580772
0.036001928
0.036433586
0.036875582
0.037327747
0.037789931
0.026402323
0.026461567
0.026522651
0.026585636
0.026650602
0.026717652
0.026786915
0.026858539
0.026932698
0.027009594
0.027089448
0.027172512
0.027259058
0.027349385
0.027443811
0.027542677
0.027646343
0.027755183
0.027869587
0.027989952
0.028116687
0.0282502
0.028390902
0.028539201
0.028695495
0.028860175
0.029033615
0.029216176
0.029408196
0.029609991
0.029821854
0.030044052
0.030276824
0.03052038
0.030774902
0.031040542
0.031317426
0.031605647
0.031905274
0.032216348
0.032538886
0.032872879
0.033218297
0.033575088