/*--------------------------------*- C++ -*----------------------------------*\
| =========                 |                                                 |
| \\      /  F ield         | OpenFOAM: The Open Source CFD Toolbox           |
|  \\    /   O peration     | Version:  2312                                  |
|   \\  /    A nd           | Website:  www.openfoam.com                      |
|    \\/     M anipulation  |                                                 |
\*---------------------------------------------------------------------------*/
FoamFile
{
    version     2.0;
    format      ascii;
    arch        "LSB;label=32;scalar=64";
    class       volScalarField;
    location    "0.02";
    object      O2;
}
// * * * * * * * * * * * * * * * * * * * * * * * * * * * * * * * * * * * * * //

dimensions      [0 0 0 0 0 0 0];

internalField   nonuniform List<scalar> 
3224
(
0.22997814
0.22998153
0.22998442
0.22998687
0.22998895
0.22999071
0.2299922
0.22999346
0.22999452
0.22999542
0.22999617
0.2299968
0.22999733
0.22999777
0.22999815
0.22999846
0.22999872
0.22999893
0.22999911
0.22999926
0.22999939
0.22999949
0.22999958
0.22999965
0.22999971
0.22999976
0.2299998
0.22999984
0.22999986
0.22999989
0.22999991
0.22999992
0.22999994
0.22999995
0.22999996
0.22999997
0.22999998
0.22999998
0.22999999
0.22999999
0.23
0.22997814
0.22998153
0.22998442
0.22998687
0.22998895
0.22999071
0.2299922
0.22999346
0.22999452
0.22999542
0.22999617
0.2299968
0.22999733
0.22999777
0.22999815
0.22999846
0.22999872
0.22999893
0.22999911
0.22999926
0.22999939
0.22999949
0.22999958
0.22999965
0.22999971
0.22999976
0.2299998
0.22999984
0.22999986
0.22999989
0.22999991
0.22999992
0.22999994
0.22999995
0.22999996
0.22999997
0.22999998
0.22999998
0.22999999
0.22999999
0.23
0.22997815
0.22998154
0.22998442
0.22998687
0.22998895
0.22999071
0.2299922
0.22999346
0.22999452
0.22999542
0.22999617
0.2299968
0.22999733
0.22999777
0.22999815
0.22999846
0.22999872
0.22999893
0.22999911
0.22999926
0.22999939
0.22999949
0.22999958
0.22999965
0.22999971
0.22999976
0.2299998
0.22999984
0.22999986
0.22999989
0.22999991
0.22999992
0.22999994
0.22999995
0.22999996
0.22999997
0.22999998
0.22999998
0.22999999
0.22999999
0.23
0.22997816
0.22998155
0.22998443
0.22998688
0.22998896
0.22999072
0.22999221
0.22999346
0.22999452
0.22999542
0.22999617
0.2299968
0.22999733
0.22999777
0.22999815
0.22999846
0.22999872
0.22999893
0.22999911
0.22999926
0.22999939
0.22999949
0.22999958
0.22999965
0.22999971
0.22999976
0.2299998
0.22999984
0.22999986
0.22999989
0.22999991
0.22999992
0.22999994
0.22999995
0.22999996
0.22999997
0.22999998
0.22999998
0.22999999
0.22999999
0.23
0.2299742
0.22997817
0.22998156
0.22998444
0.22998689
0.22998896
0.22999072
0.22999221
0.22999347
0.22999453
0.22999542
0.22999617
0.2299968
0.22999733
0.22999778
0.22999815
0.22999846
0.22999872
0.22999893
0.22999911
0.22999926
0.22999939
0.22999949
0.22999958
0.22999965
0.22999971
0.22999976
0.2299998
0.22999984
0.22999986
0.22999989
0.22999991
0.22999992
0.22999994
0.22999995
0.22999996
0.22999997
0.22999998
0.22999998
0.22999999
0.22999999
0.23
0.22997422
0.22997819
0.22998157
0.22998445
0.2299869
0.22998897
0.22999073
0.22999222
0.22999347
0.22999453
0.22999542
0.22999617
0.2299968
0.22999733
0.22999778
0.22999815
0.22999846
0.22999872
0.22999893
0.22999911
0.22999926
0.22999939
0.22999949
0.22999958
0.22999965
0.22999971
0.22999976
0.2299998
0.22999984
0.22999986
0.22999989
0.22999991
0.22999992
0.22999994
0.22999995
0.22999996
0.22999997
0.22999998
0.22999998
0.22999999
0.22999999
0.23
0.22997424
0.22997821
0.22998159
0.22998446
0.22998691
0.22998898
0.22999074
0.22999222
0.22999348
0.22999454
0.22999543
0.22999618
0.22999681
0.22999734
0.22999778
0.22999815
0.22999846
0.22999872
0.22999893
0.22999911
0.22999926
0.22999939
0.22999949
0.22999958
0.22999965
0.22999971
0.22999976
0.2299998
0.22999984
0.22999986
0.22999989
0.22999991
0.22999992
0.22999994
0.22999995
0.22999996
0.22999997
0.22999998
0.22999998
0.22999999
0.22999999
0.23
0.22997427
0.22997823
0.22998161
0.22998448
0.22998692
0.22998899
0.22999075
0.22999223
0.22999348
0.22999454
0.22999543
0.22999618
0.22999681
0.22999734
0.22999778
0.22999815
0.22999846
0.22999872
0.22999893
0.22999911
0.22999926
0.22999939
0.22999949
0.22999958
0.22999965
0.22999971
0.22999976
0.2299998
0.22999984
0.22999986
0.22999989
0.22999991
0.22999992
0.22999994
0.22999995
0.22999996
0.22999997
0.22999998
0.22999998
0.22999999
0.22999999
0.23
0.22996967
0.22997431
0.22997826
0.22998163
0.2299845
0.22998694
0.22998901
0.22999076
0.22999224
0.22999349
0.22999455
0.22999544
0.22999618
0.22999681
0.22999734
0.22999778
0.22999815
0.22999846
0.22999872
0.22999894
0.22999912
0.22999927
0.22999939
0.22999949
0.22999958
0.22999965
0.22999971
0.22999976
0.2299998
0.22999984
0.22999986
0.22999989
0.22999991
0.22999992
0.22999994
0.22999995
0.22999996
0.22999997
0.22999998
0.22999998
0.22999999
0.22999999
0.23
0.22996972
0.22997434
0.22997829
0.22998166
0.22998452
0.22998696
0.22998902
0.22999077
0.22999225
0.2299935
0.22999455
0.22999544
0.22999619
0.22999682
0.22999734
0.22999779
0.22999815
0.22999846
0.22999872
0.22999894
0.22999912
0.22999927
0.22999939
0.22999949
0.22999958
0.22999965
0.22999971
0.22999976
0.2299998
0.22999984
0.22999987
0.22999989
0.22999991
0.22999993
0.22999994
0.22999995
0.22999996
0.22999997
0.22999998
0.22999998
0.22999999
0.22999999
0.23
0.22996436
0.22996977
0.22997439
0.22997833
0.22998169
0.22998455
0.22998698
0.22998904
0.22999079
0.22999226
0.22999351
0.22999456
0.22999545
0.2299962
0.22999682
0.22999735
0.22999779
0.22999816
0.22999847
0.22999872
0.22999894
0.22999912
0.22999927
0.22999939
0.2299995
0.22999958
0.22999965
0.22999971
0.22999976
0.2299998
0.22999984
0.22999987
0.22999989
0.22999991
0.22999993
0.22999994
0.22999995
0.22999996
0.22999997
0.22999998
0.22999998
0.22999999
0.22999999
0.23
0.22996443
0.22996983
0.22997444
0.22997838
0.22998173
0.22998458
0.22998701
0.22998906
0.22999081
0.22999228
0.22999352
0.22999457
0.22999546
0.2299962
0.22999683
0.22999735
0.22999779
0.22999816
0.22999847
0.22999873
0.22999894
0.22999912
0.22999927
0.22999939
0.2299995
0.22999958
0.22999965
0.22999971
0.22999976
0.2299998
0.22999984
0.22999987
0.22999989
0.22999991
0.22999993
0.22999994
0.22999995
0.22999996
0.22999997
0.22999998
0.22999998
0.22999999
0.22999999
0.23
0.22995822
0.22996452
0.2299699
0.2299745
0.22997843
0.22998177
0.22998462
0.22998704
0.22998909
0.22999083
0.2299923
0.22999354
0.22999459
0.22999547
0.22999621
0.22999684
0.22999736
0.2299978
0.22999816
0.22999847
0.22999873
0.22999894
0.22999912
0.22999927
0.22999939
0.2299995
0.22999958
0.22999965
0.22999971
0.22999976
0.2299998
0.22999984
0.22999987
0.22999989
0.22999991
0.22999993
0.22999994
0.22999995
0.22999996
0.22999997
0.22999998
0.22999998
0.22999999
0.22999999
0.23
0.22995833
0.22996461
0.22996998
0.22997457
0.22997848
0.22998182
0.22998466
0.22998707
0.22998912
0.22999085
0.22999232
0.22999356
0.2299946
0.22999548
0.22999622
0.22999684
0.22999737
0.2299978
0.22999817
0.22999848
0.22999873
0.22999894
0.22999912
0.22999927
0.2299994
0.2299995
0.22999958
0.22999965
0.22999971
0.22999976
0.2299998
0.22999984
0.22999987
0.22999989
0.22999991
0.22999993
0.22999994
0.22999995
0.22999996
0.22999997
0.22999998
0.22999998
0.22999999
0.22999999
0.23
0.22995116
0.22995846
0.22996472
0.22997007
0.22997464
0.22997855
0.22998187
0.2299847
0.22998711
0.22998915
0.22999088
0.22999234
0.22999357
0.22999462
0.22999549
0.22999623
0.22999685
0.22999737
0.22999781
0.22999817
0.22999848
0.22999873
0.22999895
0.22999913
0.22999927
0.2299994
0.2299995
0.22999958
0.22999966
0.22999971
0.22999976
0.2299998
0.22999984
0.22999987
0.22999989
0.22999991
0.22999993
0.22999994
0.22999995
0.22999996
0.22999997
0.22999998
0.22999998
0.22999999
0.22999999
0.23
0.22995132
0.2299586
0.22996484
0.22997017
0.22997473
0.22997862
0.22998193
0.22998476
0.22998715
0.22998918
0.22999091
0.22999236
0.22999359
0.22999463
0.22999551
0.22999624
0.22999686
0.22999738
0.22999782
0.22999818
0.22999848
0.22999874
0.22999895
0.22999913
0.22999928
0.2299994
0.2299995
0.22999959
0.22999966
0.22999972
0.22999976
0.2299998
0.22999984
0.22999987
0.22999989
0.22999991
0.22999993
0.22999994
0.22999995
0.22999996
0.22999997
0.22999998
0.22999998
0.22999999
0.22999999
0.23
0.22994307
0.22995151
0.22995876
0.22996497
0.22997028
0.22997483
0.2299787
0.229982
0.22998481
0.2299872
0.22998922
0.22999094
0.22999239
0.22999362
0.22999465
0.22999552
0.22999626
0.22999687
0.22999739
0.22999782
0.22999819
0.22999849
0.22999874
0.22999895
0.22999913
0.22999928
0.2299994
0.2299995
0.22999959
0.22999966
0.22999972
0.22999976
0.22999981
0.22999984
0.22999987
0.22999989
0.22999991
0.22999993
0.22999994
0.22999995
0.22999996
0.22999997
0.22999998
0.22999998
0.22999999
0.22999999
0.23
0.22994332
0.22995172
0.22995894
0.22996512
0.22997041
0.22997493
0.22997879
0.22998208
0.22998487
0.22998725
0.22998927
0.22999098
0.22999242
0.22999364
0.22999467
0.22999554
0.22999627
0.22999688
0.2299974
0.22999783
0.22999819
0.22999849
0.22999875
0.22999896
0.22999913
0.22999928
0.2299994
0.2299995
0.22999959
0.22999966
0.22999972
0.22999977
0.22999981
0.22999984
0.22999987
0.22999989
0.22999991
0.22999993
0.22999994
0.22999995
0.22999996
0.22999997
0.22999998
0.22999998
0.22999999
0.22999999
0.23
0.2299436
0.22995196
0.22995913
0.22996528
0.22997055
0.22997505
0.22997889
0.22998216
0.22998494
0.22998731
0.22998932
0.22999102
0.22999246
0.22999367
0.2299947
0.22999556
0.22999629
0.2299969
0.22999741
0.22999784
0.2299982
0.2299985
0.22999875
0.22999896
0.22999914
0.22999928
0.2299994
0.22999951
0.22999959
0.22999966
0.22999972
0.22999977
0.22999981
0.22999984
0.22999987
0.22999989
0.22999991
0.22999993
0.22999994
0.22999995
0.22999996
0.22999997
0.22999998
0.22999998
0.22999999
0.22999999
0.23
0.2299439
0.22995221
0.22995935
0.22996547
0.2299707
0.22997518
0.229979
0.22998225
0.22998502
0.22998737
0.22998937
0.22999106
0.22999249
0.2299937
0.22999472
0.22999558
0.2299963
0.22999691
0.22999742
0.22999785
0.22999821
0.22999851
0.22999876
0.22999897
0.22999914
0.22999929
0.22999941
0.22999951
0.22999959
0.22999966
0.22999972
0.22999977
0.22999981
0.22999984
0.22999987
0.22999989
0.22999991
0.22999993
0.22999994
0.22999995
0.22999996
0.22999997
0.22999998
0.22999998
0.22999999
0.22999999
0.23
0.22993463
0.22994423
0.22995249
0.22995959
0.22996567
0.22997087
0.22997532
0.22997912
0.22998235
0.2299851
0.22998744
0.22998943
0.22999111
0.22999253
0.22999373
0.22999475
0.2299956
0.22999632
0.22999693
0.22999743
0.22999786
0.22999822
0.22999851
0.22999876
0.22999897
0.22999914
0.22999929
0.22999941
0.22999951
0.22999959
0.22999966
0.22999972
0.22999977
0.22999981
0.22999984
0.22999987
0.22999989
0.22999991
0.22999993
0.22999994
0.22999995
0.22999996
0.22999997
0.22999998
0.22999998
0.22999999
0.22999999
0.23
0.22993506
0.2299446
0.2299528
0.22995984
0.22996588
0.22997105
0.22997547
0.22997924
0.22998246
0.22998519
0.22998752
0.22998949
0.22999116
0.22999258
0.22999377
0.22999478
0.22999563
0.22999634
0.22999694
0.22999745
0.22999787
0.22999823
0.22999852
0.22999877
0.22999898
0.22999915
0.22999929
0.22999941
0.22999951
0.2299996
0.22999966
0.22999972
0.22999977
0.22999981
0.22999984
0.22999987
0.22999989
0.22999991
0.22999993
0.22999994
0.22999995
0.22999996
0.22999997
0.22999998
0.22999998
0.22999999
0.22999999
0.23
0.2299118
0.22992454
0.22993552
0.22994499
0.22995313
0.22996013
0.22996612
0.22997125
0.22997564
0.22997939
0.22998258
0.22998529
0.2299876
0.22998956
0.22999122
0.22999262
0.22999381
0.22999481
0.22999566
0.22999637
0.22999696
0.22999746
0.22999788
0.22999824
0.22999853
0.22999878
0.22999898
0.22999915
0.2299993
0.22999942
0.22999951
0.2299996
0.22999967
0.22999972
0.22999977
0.22999981
0.22999984
0.22999987
0.22999989
0.22999991
0.22999993
0.22999994
0.22999995
0.22999996
0.22999997
0.22999998
0.22999998
0.22999999
0.22999999
0.23
0.22989788
0.22991249
0.22992513
0.22993603
0.22994542
0.22995349
0.22996043
0.22996638
0.22997147
0.22997582
0.22997954
0.22998271
0.2299854
0.22998769
0.22998964
0.22999128
0.22999268
0.22999385
0.22999485
0.22999569
0.22999639
0.22999698
0.22999748
0.2299979
0.22999825
0.22999854
0.22999878
0.22999899
0.22999916
0.2299993
0.22999942
0.22999952
0.2299996
0.22999967
0.22999972
0.22999977
0.22999981
0.22999984
0.22999987
0.22999989
0.22999991
0.22999993
0.22999994
0.22999995
0.22999996
0.22999997
0.22999998
0.22999998
0.22999999
0.22999999
0.23
0.22989876
0.22991324
0.22992577
0.22993657
0.22994588
0.22995388
0.22996076
0.22996666
0.2299717
0.22997602
0.2299797
0.22998284
0.22998552
0.22998779
0.22998972
0.22999135
0.22999273
0.2299939
0.22999489
0.22999572
0.22999642
0.22999701
0.2299975
0.22999791
0.22999826
0.22999855
0.22999879
0.229999
0.22999916
0.22999931
0.22999942
0.22999952
0.2299996
0.22999967
0.22999973
0.22999977
0.22999981
0.22999984
0.22999987
0.22999989
0.22999991
0.22999993
0.22999994
0.22999995
0.22999996
0.22999997
0.22999998
0.22999998
0.22999999
0.22999999
0.23
0.22989971
0.22991405
0.22992646
0.22993716
0.22994637
0.2299543
0.22996111
0.22996695
0.22997196
0.22997623
0.22997988
0.22998299
0.22998564
0.22998789
0.2299898
0.22999142
0.22999279
0.22999395
0.22999493
0.22999575
0.22999645
0.22999703
0.22999752
0.22999793
0.22999827
0.22999856
0.2299988
0.229999
0.22999917
0.22999931
0.22999943
0.22999952
0.22999961
0.22999967
0.22999973
0.22999977
0.22999981
0.22999985
0.22999987
0.22999989
0.22999991
0.22999993
0.22999994
0.22999995
0.22999996
0.22999997
0.22999998
0.22999998
0.22999999
0.22999999
0.23
0.22990073
0.22991492
0.2299272
0.22993779
0.22994691
0.22995476
0.2299615
0.22996728
0.22997223
0.22997646
0.22998007
0.22998315
0.22998578
0.22998801
0.2299899
0.2299915
0.22999286
0.22999401
0.22999497
0.22999579
0.22999648
0.22999706
0.22999754
0.22999795
0.22999829
0.22999857
0.22999881
0.22999901
0.22999918
0.22999932
0.22999943
0.22999953
0.22999961
0.22999967
0.22999973
0.22999978
0.22999981
0.22999985
0.22999987
0.2299999
0.22999991
0.22999993
0.22999994
0.22999995
0.22999996
0.22999997
0.22999998
0.22999998
0.22999999
0.22999999
0.23
0.22990182
0.22991585
0.22992799
0.22993846
0.22994748
0.22995524
0.22996191
0.22996762
0.22997252
0.2299767
0.22998028
0.22998333
0.22998592
0.22998813
0.22999
0.22999159
0.22999293
0.22999406
0.22999502
0.22999583
0.22999651
0.22999708
0.22999756
0.22999797
0.2299983
0.22999859
0.22999882
0.22999902
0.22999918
0.22999932
0.22999944
0.22999953
0.22999961
0.22999968
0.22999973
0.22999978
0.22999982
0.22999985
0.22999987
0.2299999
0.22999991
0.22999993
0.22999994
0.22999995
0.22999996
0.22999997
0.22999998
0.22999998
0.22999999
0.22999999
0.23
0.22990298
0.22991684
0.22992883
0.22993918
0.22994809
0.22995576
0.22996234
0.22996799
0.22997283
0.22997697
0.2299805
0.22998351
0.22998608
0.22998826
0.22999011
0.22999168
0.229993
0.22999413
0.22999508
0.22999587
0.22999655
0.22999711
0.22999759
0.22999799
0.22999832
0.2299986
0.22999883
0.22999903
0.22999919
0.22999933
0.22999944
0.22999954
0.22999962
0.22999968
0.22999973
0.22999978
0.22999982
0.22999985
0.22999988
0.2299999
0.22999992
0.22999993
0.22999994
0.22999995
0.22999996
0.22999997
0.22999998
0.22999998
0.22999999
0.22999999
0.23
0.22990422
0.2299179
0.22992974
0.22993994
0.22994874
0.22995631
0.22996281
0.22996839
0.22997316
0.22997725
0.22998073
0.22998371
0.22998624
0.2299884
0.22999022
0.22999177
0.22999308
0.22999419
0.22999513
0.22999592
0.22999659
0.22999714
0.22999761
0.22999801
0.22999834
0.22999861
0.22999885
0.22999904
0.2299992
0.22999934
0.22999945
0.22999954
0.22999962
0.22999968
0.22999974
0.22999978
0.22999982
0.22999985
0.22999988
0.2299999
0.22999992
0.22999993
0.22999994
0.22999995
0.22999996
0.22999997
0.22999998
0.22999998
0.22999999
0.22999999
0.23
0.22990554
0.22991903
0.22993069
0.22994076
0.22994943
0.2299569
0.22996331
0.22996881
0.22997352
0.22997754
0.22998099
0.22998392
0.22998642
0.22998854
0.22999035
0.22999188
0.22999317
0.22999427
0.22999519
0.22999597
0.22999663
0.22999718
0.22999764
0.22999803
0.22999836
0.22999863
0.22999886
0.22999905
0.22999921
0.22999934
0.22999945
0.22999955
0.22999962
0.22999969
0.22999974
0.22999978
0.22999982
0.22999985
0.22999988
0.2299999
0.22999992
0.22999993
0.22999994
0.22999995
0.22999996
0.22999997
0.22999998
0.22999998
0.22999999
0.22999999
0.23
0.22990694
0.22992022
0.22993171
0.22994163
0.22995017
0.22995752
0.22996383
0.22996925
0.22997389
0.22997786
0.22998125
0.22998414
0.22998661
0.2299887
0.22999048
0.22999198
0.22999326
0.22999434
0.22999525
0.22999602
0.22999667
0.22999721
0.22999767
0.22999806
0.22999838
0.22999865
0.22999887
0.22999906
0.22999922
0.22999935
0.22999946
0.22999955
0.22999963
0.22999969
0.22999974
0.22999979
0.22999982
0.22999985
0.22999988
0.2299999
0.22999992
0.22999993
0.22999994
0.22999996
0.22999996
0.22999997
0.22999998
0.22999998
0.22999999
0.22999999
0.23
0.22990842
0.22992149
0.22993279
0.22994254
0.22995095
0.22995818
0.22996439
0.22996972
0.22997429
0.2299782
0.22998153
0.22998438
0.2299868
0.22998887
0.22999062
0.2299921
0.22999336
0.22999442
0.22999532
0.22999608
0.22999672
0.22999725
0.2299977
0.22999808
0.2299984
0.22999867
0.22999889
0.22999907
0.22999923
0.22999936
0.22999947
0.22999956
0.22999963
0.22999969
0.22999975
0.22999979
0.22999983
0.22999986
0.22999988
0.2299999
0.22999992
0.22999993
0.22999995
0.22999996
0.22999996
0.22999997
0.22999998
0.22999998
0.22999999
0.22999999
0.23
0.22990998
0.22992282
0.22993392
0.22994351
0.22995177
0.22995887
0.22996498
0.22997022
0.22997471
0.22997855
0.22998183
0.22998463
0.22998701
0.22998904
0.22999076
0.22999222
0.22999346
0.22999451
0.22999539
0.22999614
0.22999676
0.22999729
0.22999774
0.22999811
0.22999842
0.22999868
0.2299989
0.22999909
0.22999924
0.22999937
0.22999947
0.22999956
0.22999964
0.2299997
0.22999975
0.22999979
0.22999983
0.22999986
0.22999988
0.2299999
0.22999992
0.22999993
0.22999995
0.22999996
0.22999997
0.22999997
0.22999998
0.22999998
0.22999999
0.22999999
0.23
0.22991162
0.22992422
0.22993512
0.22994452
0.22995263
0.22995961
0.2299656
0.22997075
0.22997515
0.22997892
0.22998215
0.22998489
0.22998723
0.22998923
0.22999092
0.22999235
0.22999357
0.2299946
0.22999547
0.2299962
0.22999682
0.22999734
0.22999777
0.22999814
0.22999845
0.2299987
0.22999892
0.2299991
0.22999925
0.22999938
0.22999948
0.22999957
0.22999964
0.2299997
0.22999975
0.2299998
0.22999983
0.22999986
0.22999988
0.2299999
0.22999992
0.22999993
0.22999995
0.22999996
0.22999997
0.22999997
0.22999998
0.22999998
0.22999999
0.22999999
0.23
0.22991335
0.22992569
0.22993637
0.22994559
0.22995354
0.22996038
0.22996625
0.2299713
0.22997562
0.22997932
0.22998248
0.22998517
0.22998747
0.22998942
0.22999108
0.22999249
0.22999368
0.22999469
0.22999554
0.22999626
0.22999687
0.22999738
0.22999781
0.22999817
0.22999847
0.22999873
0.22999894
0.22999911
0.22999926
0.22999939
0.22999949
0.22999958
0.22999965
0.22999971
0.22999976
0.2299998
0.22999983
0.22999986
0.22999989
0.22999991
0.22999992
0.22999994
0.22999995
0.22999996
0.22999997
0.22999997
0.22999998
0.22999998
0.22999999
0.22999999
0.23
0.22991515
0.22992724
0.22993769
0.22994671
0.22995449
0.22996118
0.22996694
0.22997188
0.22997611
0.22997973
0.22998282
0.22998546
0.22998771
0.22998963
0.22999125
0.22999263
0.2299938
0.22999479
0.22999563
0.22999633
0.22999693
0.22999743
0.22999785
0.2299982
0.2299985
0.22999875
0.22999896
0.22999913
0.22999928
0.2299994
0.2299995
0.22999958
0.22999965
0.22999971
0.22999976
0.2299998
0.22999984
0.22999986
0.22999989
0.22999991
0.22999992
0.22999994
0.22999995
0.22999996
0.22999997
0.22999997
0.22999998
0.22999998
0.22999999
0.22999999
0.23
0.22991704
0.22992885
0.22993906
0.22994788
0.22995549
0.22996203
0.22996765
0.22997248
0.22997662
0.22998016
0.22998319
0.22998577
0.22998797
0.22998984
0.22999143
0.22999278
0.22999393
0.2299949
0.22999571
0.22999641
0.22999699
0.22999748
0.22999789
0.22999824
0.22999853
0.22999877
0.22999898
0.22999915
0.22999929
0.22999941
0.22999951
0.22999959
0.22999966
0.22999972
0.22999976
0.2299998
0.22999984
0.22999987
0.22999989
0.22999991
0.22999992
0.22999994
0.22999995
0.22999996
0.22999997
0.22999997
0.22999998
0.22999999
0.22999999
0.22999999
0.23
0.229919
0.22993053
0.2299405
0.2299491
0.22995652
0.22996291
0.2299684
0.22997311
0.22997715
0.22998061
0.22998357
0.22998609
0.22998824
0.22999007
0.22999162
0.22999294
0.22999406
0.22999501
0.22999581
0.22999648
0.22999705
0.22999753
0.22999793
0.22999827
0.22999856
0.2299988
0.229999
0.22999916
0.2299993
0.22999942
0.22999952
0.2299996
0.22999967
0.22999972
0.22999977
0.22999981
0.22999984
0.22999987
0.22999989
0.22999991
0.22999993
0.22999994
0.22999995
0.22999996
0.22999997
0.22999997
0.22999998
0.22999999
0.22999999
0.22999999
0.23
0.22992104
0.22993227
0.22994198
0.22995037
0.2299576
0.22996382
0.22996918
0.22997377
0.22997771
0.22998108
0.22998396
0.22998642
0.22998852
0.2299903
0.22999182
0.2299931
0.2299942
0.22999512
0.2299959
0.22999656
0.22999712
0.22999759
0.22999798
0.22999831
0.22999859
0.22999882
0.22999902
0.22999918
0.22999932
0.22999943
0.22999953
0.22999961
0.22999967
0.22999973
0.22999977
0.22999981
0.22999984
0.22999987
0.22999989
0.22999991
0.22999993
0.22999994
0.22999995
0.22999996
0.22999997
0.22999997
0.22999998
0.22999999
0.22999999
0.22999999
0.23
0.22992316
0.22993408
0.22994352
0.22995168
0.22995872
0.22996477
0.22996998
0.22997445
0.22997828
0.22998156
0.22998437
0.22998676
0.22998881
0.22999054
0.22999202
0.22999328
0.22999434
0.22999524
0.229996
0.22999664
0.22999719
0.22999764
0.22999803
0.22999835
0.22999862
0.22999885
0.22999904
0.2299992
0.22999933
0.22999944
0.22999954
0.22999961
0.22999968
0.22999973
0.22999978
0.22999982
0.22999985
0.22999987
0.2299999
0.22999991
0.22999993
0.22999994
0.22999995
0.22999996
0.22999997
0.22999998
0.22999998
0.22999999
0.22999999
0.22999999
0.23
0.22992534
0.22993594
0.22994512
0.22995304
0.22995987
0.22996575
0.22997081
0.22997516
0.22997888
0.22998207
0.22998479
0.22998712
0.22998911
0.2299908
0.22999223
0.22999345
0.22999449
0.22999536
0.2299961
0.22999673
0.22999726
0.2299977
0.22999808
0.22999839
0.22999866
0.22999888
0.22999906
0.22999922
0.22999935
0.22999946
0.22999955
0.22999962
0.22999969
0.22999974
0.22999978
0.22999982
0.22999985
0.22999988
0.2299999
0.22999992
0.22999993
0.22999994
0.22999995
0.22999996
0.22999997
0.22999998
0.22999998
0.22999999
0.22999999
0.22999999
0.23
0.22992758
0.22993786
0.22994676
0.22995444
0.22996106
0.22996677
0.22997167
0.22997588
0.22997949
0.22998259
0.22998523
0.22998749
0.22998942
0.22999106
0.22999245
0.22999364
0.22999464
0.22999549
0.22999621
0.22999682
0.22999733
0.22999776
0.22999813
0.22999843
0.22999869
0.22999891
0.22999909
0.22999924
0.22999936
0.22999947
0.22999956
0.22999963
0.22999969
0.22999975
0.22999979
0.22999982
0.22999985
0.22999988
0.2299999
0.22999992
0.22999993
0.22999994
0.22999995
0.22999996
0.22999997
0.22999998
0.22999998
0.22999999
0.22999999
0.22999999
0.23
0.22992989
0.22993983
0.22994844
0.22995587
0.22996228
0.2299678
0.22997255
0.22997663
0.22998013
0.22998312
0.22998568
0.22998787
0.22998973
0.22999132
0.22999268
0.22999382
0.2299948
0.22999562
0.22999632
0.22999691
0.22999741
0.22999783
0.22999818
0.22999848
0.22999873
0.22999894
0.22999911
0.22999926
0.22999938
0.22999948
0.22999957
0.22999964
0.2299997
0.22999975
0.22999979
0.22999983
0.22999986
0.22999988
0.2299999
0.22999992
0.22999993
0.22999995
0.22999996
0.22999996
0.22999997
0.22999998
0.22999998
0.22999999
0.22999999
0.22999999
0.23
0.22993224
0.22994184
0.22995016
0.22995734
0.22996353
0.22996886
0.22997345
0.22997739
0.22998077
0.22998367
0.22998614
0.22998826
0.22999006
0.2299916
0.22999291
0.22999402
0.22999496
0.22999576
0.22999643
0.229997
0.22999749
0.22999789
0.22999823
0.22999852
0.22999876
0.22999897
0.22999914
0.22999928
0.2299994
0.2299995
0.22999958
0.22999965
0.22999971
0.22999976
0.2299998
0.22999983
0.22999986
0.22999989
0.2299999
0.22999992
0.22999994
0.22999995
0.22999996
0.22999996
0.22999997
0.22999998
0.22999998
0.22999999
0.22999999
0.22999999
0.23
0.22993464
0.2299439
0.22995191
0.22995883
0.2299648
0.22996995
0.22997437
0.22997817
0.22998143
0.22998423
0.22998661
0.22998866
0.2299904
0.22999188
0.22999314
0.22999421
0.22999512
0.2299959
0.22999655
0.2299971
0.22999757
0.22999796
0.22999829
0.22999857
0.2299988
0.229999
0.22999916
0.2299993
0.22999942
0.22999951
0.2299996
0.22999966
0.22999972
0.22999977
0.22999981
0.22999984
0.22999987
0.22999989
0.22999991
0.22999992
0.22999994
0.22999995
0.22999996
0.22999997
0.22999997
0.22999998
0.22999998
0.22999999
0.22999999
0.23
0.23
0.22993706
0.22994598
0.22995369
0.22996035
0.2299661
0.22997105
0.22997531
0.22997896
0.2299821
0.22998479
0.22998709
0.22998906
0.22999074
0.22999217
0.22999338
0.22999442
0.22999529
0.22999604
0.22999667
0.2299972
0.22999765
0.22999803
0.22999835
0.22999862
0.22999884
0.22999903
0.22999919
0.22999932
0.22999944
0.22999953
0.22999961
0.22999967
0.22999973
0.22999977
0.22999981
0.22999984
0.22999987
0.22999989
0.22999991
0.22999993
0.22999994
0.22999995
0.22999996
0.22999997
0.22999997
0.22999998
0.22999998
0.22999999
0.22999999
0.23
0.23
0.22992964
0.22993952
0.22994808
0.22995549
0.22996189
0.22996741
0.22997216
0.22997625
0.22997977
0.22998278
0.22998537
0.22998758
0.22998947
0.22999108
0.22999246
0.22999363
0.22999462
0.22999546
0.22999618
0.22999679
0.2299973
0.22999773
0.2299981
0.2299984
0.22999866
0.22999888
0.22999906
0.22999922
0.22999935
0.22999945
0.22999955
0.22999962
0.22999968
0.22999974
0.22999978
0.22999982
0.22999985
0.22999987
0.2299999
0.22999991
0.22999993
0.22999994
0.22999995
0.22999996
0.22999997
0.22999997
0.22999998
0.22999998
0.22999999
0.22999999
0.23
0.23
0.2299216
0.22993252
0.22994199
0.2299502
0.2299573
0.22996343
0.22996872
0.22997328
0.2299772
0.22998057
0.22998347
0.22998595
0.22998807
0.22998988
0.22999143
0.22999275
0.22999387
0.22999483
0.22999564
0.22999633
0.22999691
0.2299974
0.22999782
0.22999817
0.22999846
0.22999871
0.22999892
0.2299991
0.22999925
0.22999937
0.22999947
0.22999956
0.22999963
0.22999969
0.22999975
0.22999979
0.22999982
0.22999985
0.22999988
0.2299999
0.22999992
0.22999993
0.22999994
0.22999995
0.22999996
0.22999997
0.22999997
0.22999998
0.22999998
0.22999999
0.22999999
0.23
0.23
0.22991295
0.22992497
0.22993541
0.22994447
0.22995232
0.22995911
0.22996498
0.22997004
0.2299744
0.22997816
0.22998138
0.22998415
0.22998653
0.22998856
0.2299903
0.22999178
0.22999304
0.22999412
0.22999503
0.22999581
0.22999647
0.22999703
0.2299975
0.2299979
0.22999824
0.22999852
0.22999876
0.22999896
0.22999913
0.22999927
0.22999939
0.22999949
0.22999958
0.22999965
0.22999971
0.22999975
0.2299998
0.22999983
0.22999986
0.22999988
0.2299999
0.22999992
0.22999993
0.22999994
0.22999995
0.22999996
0.22999997
0.22999998
0.22999998
0.22999999
0.22999999
0.22999999
0.23
0.23
0.22991685
0.22992832
0.22993829
0.22994694
0.22995443
0.22996092
0.22996652
0.22997136
0.22997552
0.22997911
0.22998219
0.22998484
0.22998711
0.22998905
0.22999071
0.22999213
0.22999334
0.22999437
0.22999524
0.22999599
0.22999662
0.22999715
0.2299976
0.22999799
0.22999831
0.22999858
0.22999881
0.229999
0.22999917
0.2299993
0.22999942
0.22999951
0.22999959
0.22999966
0.22999972
0.22999976
0.2299998
0.22999984
0.22999986
0.22999989
0.22999991
0.22999992
0.22999994
0.22999995
0.22999996
0.22999996
0.22999997
0.22999998
0.22999998
0.22999999
0.22999999
0.22999999
0.23
0.23
0.2299207
0.22993163
0.22994114
0.22994938
0.22995652
0.22996271
0.22996805
0.22997266
0.22997663
0.22998005
0.22998299
0.22998552
0.22998768
0.22998954
0.22999112
0.22999248
0.22999363
0.22999461
0.22999545
0.22999616
0.22999676
0.22999727
0.22999771
0.22999807
0.22999838
0.22999864
0.22999886
0.22999905
0.2299992
0.22999933
0.22999944
0.22999953
0.22999961
0.22999967
0.22999973
0.22999977
0.22999981
0.22999984
0.22999987
0.22999989
0.22999991
0.22999992
0.22999994
0.22999995
0.22999996
0.22999997
0.22999997
0.22999998
0.22999998
0.22999999
0.22999999
0.22999999
0.23
0.23
0.22992449
0.22993489
0.22994394
0.22995178
0.22995858
0.22996447
0.22996955
0.22997394
0.22997773
0.22998098
0.22998378
0.22998619
0.22998825
0.22999002
0.22999153
0.22999282
0.22999392
0.22999486
0.22999565
0.22999633
0.22999691
0.22999739
0.22999781
0.22999816
0.22999845
0.2299987
0.22999891
0.22999909
0.22999923
0.22999936
0.22999946
0.22999955
0.22999963
0.22999969
0.22999974
0.22999978
0.22999982
0.22999985
0.22999987
0.22999989
0.22999991
0.22999993
0.22999994
0.22999995
0.22999996
0.22999997
0.22999997
0.22999998
0.22999998
0.22999999
0.22999999
0.22999999
0.23
0.23
0.22992819
0.22993808
0.22994667
0.22995413
0.22996059
0.22996619
0.22997102
0.22997519
0.22997879
0.22998189
0.22998456
0.22998684
0.22998881
0.22999049
0.22999193
0.22999315
0.2299942
0.22999509
0.22999585
0.2299965
0.22999705
0.22999751
0.22999791
0.22999824
0.22999852
0.22999876
0.22999896
0.22999913
0.22999927
0.22999939
0.22999949
0.22999957
0.22999964
0.2299997
0.22999975
0.22999979
0.22999983
0.22999985
0.22999988
0.2299999
0.22999992
0.22999993
0.22999994
0.22999995
0.22999996
0.22999997
0.22999997
0.22999998
0.22999998
0.22999999
0.22999999
0.22999999
0.23
0.23
0.22993177
0.22994116
0.22994932
0.2299564
0.22996254
0.22996785
0.22997245
0.22997641
0.22997983
0.22998277
0.22998531
0.22998748
0.22998935
0.22999094
0.22999231
0.22999348
0.22999448
0.22999533
0.22999605
0.22999666
0.22999719
0.22999763
0.229998
0.22999832
0.22999859
0.22999881
0.229999
0.22999917
0.2299993
0.22999941
0.22999951
0.22999959
0.22999966
0.22999971
0.22999976
0.2299998
0.22999983
0.22999986
0.22999988
0.2299999
0.22999992
0.22999993
0.22999994
0.22999995
0.22999996
0.22999997
0.22999997
0.22999998
0.22999998
0.22999999
0.22999999
0.22999999
0.23
0.23
0.22993521
0.22994412
0.22995186
0.22995858
0.22996441
0.22996945
0.22997381
0.22997758
0.22998083
0.22998362
0.22998603
0.22998809
0.22998987
0.22999138
0.22999268
0.22999379
0.22999474
0.22999555
0.22999624
0.22999682
0.22999732
0.22999774
0.2299981
0.2299984
0.22999865
0.22999887
0.22999905