/*--------------------------------*- C++ -*----------------------------------*\
| =========                 |                                                 |
| \\      /  F ield         | OpenFOAM: The Open Source CFD Toolbox           |
|  \\    /   O peration     | Version:  2312                                  |
|   \\  /    A nd           | Website:  www.openfoam.com                      |
|    \\/     M anipulation  |                                                 |
\*---------------------------------------------------------------------------*/
FoamFile
{
    version     2.0;
    format      ascii;
    arch        "LSB;label=32;scalar=64";
    class       volScalarField;
    location    "0.02";
    object      omega;
}
// * * * * * * * * * * * * * * * * * * * * * * * * * * * * * * * * * * * * * //

dimensions      [0 0 -1 0 0 0 0];

internalField   nonuniform List<scalar> 
3224
(
301.16665
300.74143
300.27339
299.76489
299.21875
298.63821
298.02683
297.38846
296.72718
296.04723
295.35297
294.64881
293.93914
293.22831
292.52056
291.81994
291.13033
290.45536
289.79835
289.16237
288.55014
287.96404
287.40611
286.87806
286.38125
285.91672
285.48517
285.08704
284.72247
284.39133
284.09329
283.82778
283.59407
283.39124
283.21826
283.07395
282.95707
282.86624
282.80001
282.75685
282.73583
301.15855
300.73358
300.26554
299.75704
299.21096
298.63051
298.01924
297.38099
296.71984
296.04003
295.34591
294.64188
293.93236
293.22167
292.51405
291.81356
291.12408
290.44922
289.79233
289.15646
288.54432
287.95831
287.40046
286.87248
286.37574
285.91126
285.47976
285.08167
284.71712
284.386
284.08797
283.82246
283.58874
283.3859
283.2129
283.06857
282.95166
282.8608
282.79457
282.75146
282.73017
301.14948
300.72484
300.25701
299.74878
299.203
298.62286
298.01192
297.37401
296.71319
296.03372
295.33993
294.63623
293.92701
293.21663
292.5093
291.80909
291.11987
290.44525
289.78859
289.15293
288.54099
287.95515
287.39746
286.86962
286.373
285.90862
285.47722
285.07919
284.7147
284.38363
284.08562
283.82013
283.58641
283.38357
283.21055
283.0662
282.94926
282.85839
282.79218
282.74917
282.72764
301.13923
300.71503
300.24771
299.74
299.19476
298.61517
298.00478
297.36741
296.70715
296.02821
295.33494
294.63175
293.92303
293.21311
292.50623
291.80644
291.11762
290.44338
289.78707
289.15173
288.54007
287.9545
287.39705
286.86942
286.37298
285.90876
285.47749
285.07958
284.71517
284.38417
284.08621
283.82076
283.58706
283.38421
283.21119
283.06683
282.94987
282.85899
282.79281
282.74996
282.72827
301.50661
301.12767
300.70423
300.2377
299.73077
299.18631
298.60749
297.99787
297.36127
296.70175
296.02355
295.331
294.6285
293.92045
293.21117
292.5049
291.80569
291.11741
290.44367
289.78782
289.1529
288.54164
287.95642
287.39928
286.87194
286.37574
285.91174
285.48064
285.08288
284.71861
284.3877
284.08982
283.82441
283.59074
283.38792
283.2149
283.07053
282.95357
282.86268
282.79653
282.75384
282.73207
301.49299
301.11565
300.69318
300.22765
299.7217
299.17819
298.60032
297.99163
297.35596
296.69735
296.02003
295.32834
294.62667
293.91941
293.21089
292.50534
291.80681
291.11917
290.44602
289.79073
289.15632
288.54551
287.96071
287.40395
286.87693
286.38103
285.91727
285.4864
285.08882
284.72469
284.3939
284.09611
283.83077
283.59715
283.39436
283.22135
283.07699
282.96002
282.86914
282.80302
282.76046
282.73865
301.47925
301.10327
300.68192
300.21755
299.71272
299.17032
298.59353
297.98591
297.35128
296.6937
296.01738
295.32666
294.62593
293.91957
293.21191
292.50717
291.80941
291.12248
290.45001
289.79533
289.16149
288.55121
287.96687
287.41053
286.88388
286.38831
285.92484
285.49421
285.09683
284.73287
284.40222
284.10454
283.83928
283.60572
283.40297
283.22998
283.08563
282.96867
282.87779
282.8117
282.76924
282.74744
301.46419
301.08958
300.66964
300.20666
299.7032
299.16212
298.58664
297.9803
297.34693
296.69057
296.01545
295.32589
294.62627
293.92098
293.21434
292.51057
291.81372
291.12765
290.45598
289.80204
289.16887
288.5592
287.97542
287.41958
286.89338
286.3982
285.93507
285.50472
285.1076
284.74384
284.41336
284.11581
283.85065
283.61717
283.41446
283.24151
283.09718
282.98023
282.88937
282.8233
282.7809
282.75913
301.77376
301.44744
301.07451
300.65627
300.19496
299.69311
299.15359
298.57965
297.97482
297.34292
296.68801
296.01429
295.32609
294.62778
293.92375
293.21831
292.51567
291.81989
291.13482
290.46408
289.811
289.17862
288.56967
287.98655
287.43129
286.90561
286.41088
285.94815
285.51815
285.12131
284.7578
284.42752
284.13013
283.86509
283.6317
283.42906
283.25615
283.11184
282.99491
282.90407
282.83803
282.79567
282.77393
301.75247
301.42887
301.05801
300.64176
300.18238
299.68239
299.14471
298.57255
297.96947
297.33929
296.68605
296.01395
295.32733
294.63054
293.92796
293.2239
292.52258
291.82803
291.14412
290.47445
289.82237
289.19091
288.58279
288.00042
287.44584
286.92076
286.42656
285.96429
285.53469
285.13819
284.77496
284.44491
284.14771
283.88282
283.64954
283.44698
283.27412
283.12986
283.01295
282.92213
282.85611
282.81377
282.79207
302.00048
301.72942
301.40848
301.04
300.62604
300.16887
299.67103
299.13543
298.56533
297.96426
297.33604
296.68472
296.01449
295.32967
294.63462
293.9337
293.23123
292.53141
291.83828
291.15569
290.48726
289.83631
289.2059
288.59873
288.01722
287.46341
286.93903
286.44544
285.9837
285.55455
285.15845
284.79554
284.46576
284.16877
283.90406
283.67091
283.46844
283.29566
283.15144
283.03457
282.94377
282.87778
282.83544
282.81377
301.97243
301.70431
301.3862
301.02042
300.60905
300.15437
299.65896
299.12574
298.55797
297.95919
297.33321
296.68407
296.01596
295.33319
294.64011
293.94108
293.24041
292.54229
291.85077
291.16968
290.50264
289.85299
289.22376
288.61768
288.03715
287.48422
286.96061
286.46771
286.00658
285.57796
285.18229
284.81977
284.49029
284.19356
283.92905
283.69605
283.4937
283.321
283.17684
283.06
282.96923
282.90326
282.86093
282.83928
302.15603
301.94223
301.67704
301.36199
300.99918
300.59069
300.13881
299.64614
299.1156
298.55046
297.95425
297.3308
296.68412
296.0184
295.33793
294.64708
293.95018
293.25154
292.55534
291.86562
291.18623
290.52077
289.87257
289.24467
288.63981
288.06039
287.50845
286.98573
286.49361
286.03315
285.60512
285.20997
284.84786
284.51874
284.2223
283.95802
283.72519
283.52298
283.35038
283.20629
283.0895
282.99876
282.93281
282.89047
282.86885
302.12024
301.90951
301.64749
301.33575
300.9762
300.5709
300.12213
299.63251
299.10497
298.54277
297.94945
297.32882
296.6849
296.02185
295.34398
294.65561
293.96109
293.26472
292.57067
291.88298
291.20548
290.54178
289.89521
289.26882
288.66533
288.08713
287.53631
287.01458
286.52334
286.06365
285.63628
285.2417
284.88008
284.55136
284.25524
283.99122
283.7586
283.55655
283.38406
283.24005
283.12331
283.03261
282.96668
282.92434
282.90274
302.23757
302.08166
301.87411
301.61553
301.30736
300.95137
300.54957
300.10424
299.61801
299.0938
298.53488
297.94477
297.32729
296.68643
296.02637
295.35137
294.66578
293.97392
293.28007
292.58842
291.90298
291.2276
290.56586
289.92111
289.29638
288.69441
288.1176
287.56801
287.04739
286.55713
286.0983
285.67168
285.27773
284.91665
284.58838
284.29264
284.02891
283.79653
283.59465
283.4223
283.27838
283.16171
283.07105
283.00515
282.9628
282.94121
302.19229
302.03989
301.83585
301.58101
301.27669
300.92457
300.52659
300.08506
299.60256
299.08204
298.52674
297.9402
297.32621
296.68875
296.03199
295.36019
294.67767
293.98875
293.2977
292.6087
291.92576
291.25272
290.59316
289.95042
289.32755
288.72727
288.15199
287.60378
287.08439
286.59521
286.13734
285.71155
285.31831
284.95784
284.63008
284.33475
284.07136
283.83925
283.63757
283.46537
283.32156
283.20497
283.11436
283.04847
283.00612
282.98454
302.24141
302.14351
301.99473
301.79453
301.54374
301.24359
300.89566
300.50187
300.06448
299.58609
299.06963
298.51833
297.93572
297.32557
296.69186
296.03874
295.37047
294.69134
294.00567
293.31771
292.63164
291.95146
291.281
290.62385
289.98333
289.36251
288.76409
288.19051
287.64383
287.1258
286.63783
286.18102
285.75615
285.36371
285.00391
284.67671
284.38185
284.11884
283.88702
283.68558
283.51355
283.36987
283.25336
283.1628
283.09695
283.05458
283.03302
302.18501
302.09086
301.94596
301.74994
301.50354
301.20788
300.8645
300.47526
300.0424
299.56851
299.05649
298.50958
297.93128
297.32536
296.69578
296.04667
295.38227
294.70687
294.02476
293.34021
292.65736
291.98022
291.3126
290.65809
290.02003
289.40145
288.8051
288.23338
287.68838
287.17185
286.68522
286.22958
285.80573
285.41417
285.05512
284.72855
284.43421
284.17162
283.94015
283.73897
283.56714
283.4236
283.30719
283.21669
283.15087
283.10849
283.08695
302.12392
302.034
301.89333
301.70185
301.46018
301.16938
300.83091
300.44662
300.01869
299.54971
299.04256
298.50044
297.92687
297.32557
296.70051
296.05579
295.39563
294.72431
294.04612
293.3653
292.68598
292.01216
291.34766
290.69605
290.06068
289.44457
288.85048
288.28081
287.73766
287.22279
286.73763
286.28328
285.86056
285.46997
285.11175
284.78588
284.49211
284.23
283.9989
283.79802
283.62641
283.48303
283.36674
283.27631
283.21053
283.16815
283.14662
302.05788
301.97257
301.83656
301.64999
301.41344
301.12788
300.79473
300.41579
299.99323
299.52958
299.02772
298.49084
297.92242
297.32618
296.70605
296.06612
295.41059
294.74374
294.06982
293.39307
292.71761
292.04743
291.38633
290.7379
290.10547
289.49207
288.90045
288.33303
287.79191
287.27885
286.7953
286.34238
285.92089
285.53137
285.17407
284.84897
284.55585
284.29427
284.06359
283.86304
283.69169
283.54849
283.43232
283.34198
283.27624
283.23386
283.21234
302.01805
301.98691
301.90629
301.77533
301.59409
301.36305
301.08315
300.75575
300.3826
299.96585
299.50799
299.01189
298.4807
297.91788
297.32714
296.71237
296.07766
295.42719
294.76519
294.09593
293.42362
292.75236
292.08614
291.42876
290.7838
290.15457
289.54413
288.95521
288.39025
287.85135
287.34028
286.8585
286.40713
285.98701
285.59867
285.24237
284.91813
284.62572
284.36472
284.13452
283.93433
283.76326
283.62028
283.50426
283.41401
283.34831
283.30594
283.28444
301.93618
301.91024
301.83479
301.70933
301.53384
301.30875
301.03495
300.71375
300.34686
299.93639
299.4848
298.99493
298.46992
297.91318
297.3284
296.71946
296.09042
295.44543
294.78872
294.12452
293.45702
292.79034
292.12843
291.4751
290.8339
290.20817
289.60094
289.01497
288.45269
287.91621
287.40731
286.92746
286.4778
286.05917
285.67212
285.31694
284.99364
284.70202
284.44166
284.21198
284.01221
283.84146
283.69871
283.58285
283.49271
283.42708
283.38471
283.36323
301.74781
301.82077
301.84814
301.82751
301.75771
301.63821
301.46892
301.25025
300.98302
300.66849
300.30835
299.90465
299.45985
298.97672
298.45838
297.90822
297.3299
296.72728
296.10437
295.46533
294.81434
294.15562
293.49336
292.83163
292.17441
291.52546
290.88836
290.26642
289.6627
289.07993
288.52056
287.98672
287.48019
287.00244
286.55465
286.13765
285.75202
285.39805
285.07579
284.78503
284.52539
284.29629
284.09698
283.92659
283.7841
283.66843
283.57842
283.51285
283.4705
283.44904
301.51783
301.64113
301.72021
301.75313
301.73831
301.67465
301.56158
301.39899
301.18721
300.92705
300.61971
300.26683
299.87044
299.43294
298.95709
298.44595
297.9029
297.33156
296.73576
296.1195
295.48687
294.84208
294.18929
293.53269
292.87634
292.22418
291.57998
290.94732
290.32949
289.72956
289.15028
288.59408
288.0631
287.55914
287.0837
286.63793
286.22272
285.83864
285.48601
285.16487
284.87507
284.61623
284.38777
284.18897
284.01897
283.87678
283.76132
283.67145
283.60596
283.56364
283.5422
301.39779
301.52652
301.61166
301.65068
301.6422
301.5852
301.47907
301.32367
301.11931
300.86674
300.56713
300.22206
299.83352
299.40388
298.93586
298.43248
297.8971
297.33328
296.74484
296.13573
295.51005
294.87193
294.22556
293.57506
292.92451
292.27783
291.63877
291.01091
290.39754
289.80172
289.2262
288.67344
288.14557
287.64441
287.17146
286.72791
286.31464
285.93226
285.58108
285.26119
284.97244
284.71446
284.48671
284.28848
284.11892
283.97707
283.86185
283.77214
283.70675
283.66446
283.64304
301.26849
301.4032
301.4947
301.54032
301.53872
301.48889
301.39024
301.24258
301.04618
300.80175
300.51042
300.17374
299.79363
299.37244
298.91283
298.41781
297.89066
297.33494
296.75442
296.15302
295.5348
294.90389
294.26442
293.62052
292.97622
292.33544
291.70194
291.07925
290.4707
289.87932
289.30788
288.75884
288.23435
287.73622
287.26598
286.82484
286.41369
286.03314
285.68356
285.36504
285.07743
284.82041
284.59344
284.39584
284.22677
284.08529
283.97034
283.88081
283.81553
283.77328
283.7519
301.12949
301.27059
301.36887
301.42158
301.42739
301.38528
301.29465
301.15528
300.96742
300.73172
300.44926
300.12156
299.7505
299.33836
298.88778
298.40172
297.88342
297.3364
296.76438
296.17127
295.56108
294.93791
294.30587
293.66906
293.03149
292.39708
291.76955
291.15246
290.5491
289.96252
289.39549
288.85047
288.32962
287.83478
287.36749
286.92895
286.5201
286.14157
285.79372
285.47669
285.19034
284.93437
284.70826
284.51136
284.34283
284.20177
284.08712
283.9978
283.93265
283.89045
283.8691
300.9802
301.12812
301.23362
301.29393
301.30768
301.27386
301.19182
301.06134
300.88261
300.65624
300.38328
300.06519
299.70381
299.30137
298.86046
298.38399
297.87517
297.33748
296.77459
296.19037
295.58879
294.97393
294.34987
293.72068
293.09036
292.46279
291.84169
291.23061
290.63285
290.05144
289.48916
288.94849
288.43158
287.9403
287.47619
287.04048
286.63413
286.25778
285.91184
285.59642
285.31145
285.05663
284.83148
284.63533
284.46742
284.32681
284.21251
284.12342
284.05842
284.01628
283.99497
300.82001
300.97519
301.08839
301.15683
301.17908
301.15411
301.08126
300.96027
300.79129
300.5749
300.31209
300.00426
299.65322
299.26114
298.83057
298.36437
297.8657
297.33799
296.78487
296.21017
295.61783
295.01188
294.39637
293.77535
293.1528
292.53258
291.9184
291.31379
290.72204
290.1462
289.58904
289.05305
288.5404
288.05296
287.59229
287.15965
286.75601
286.38204
286.03815
285.72451
285.44104
285.18749
284.96337
284.76807
284.60083
284.46074
284.34682
284.258
284.19315
284.1511
284.12984
300.64826
300.81117
300.93259
301.00967
301.041
301.02548
300.96244
300.85157
300.693
300.48724
300.23524
299.93837
299.59836
299.21735
298.79781
298.34258
297.85475
297.3377
296.79503
296.23051
295.64804
295.05163
294.44528
293.83302
293.2188
292.60645
291.99969
291.40202
290.81673
290.24688
289.69523
289.16428
288.65622
288.17293
287.71598
287.28667
286.88596
286.51456
286.17291
285.8612
285.57938
285.3272
285.10423
284.90986
284.74335
284.60384
284.49034
284.40182
284.33717
284.29521
284.274
300.46427
300.63542
300.76556
300.85186
300.89284
300.8874
300.8348
300.73471
300.58721
300.39277
300.1523
299.86708
299.53882
299.1696
298.76183
298.31828
297.84201
297.33634
296.80482
296.25117
295.67926
295.09304
294.49649
293.89359
293.28828
292.68438
292.08556
291.49533
290.91698
290.35355
289.80783
289.28231
288.77918
288.30036
287.84743
287.4217
287.02416
286.65556
286.31634
286.00673
285.7267
285.47603
285.25431
285.06096
284.89527
284.75639
284.64337
284.55519
284.49075
284.4489
284.42775
300.26734
300.44724
300.58666
300.68275
300.73399
300.73924
300.69774
300.60911
300.47338
300.29098
300.06275
299.78994
299.47418
299.11749
298.72224
298.29114
297.82718
297.33363
296.81399
296.27193
295.71127
295.13592
294.54983
293.95694
293.36115
292.76627
292.17596
291.5937
291.02279
290.46625
289.92688
289.40719
288.90938
288.43536
287.98677
287.5649
287.17081
286.80522
286.46864
286.16131
285.88323
285.6342
285.41386
285.22164
285.05685
284.91867
284.80617
284.71836
284.65417
284.61246
284.59138
300.05676
300.24594
300.3952
300.50167
300.56379
300.58039
300.55066
300.47419
300.35095
300.18131
299.96608
299.70643
299.40394
299.06057
298.67862
298.26074
297.80987
297.32922
296.82222
296.29251
295.74383
295.18007
294.60512
294.02291
293.43729
292.85204
292.27081
291.69708
291.13412
290.58497
290.05242
289.53898
289.04687
288.57804
288.1341
287.71641
287.32602
286.96371
286.62999
286.32513
286.04917
285.80194
285.58309
285.3921
285.2283
285.0909
284.97899
284.89161
284.82769
284.78612
284.76513
299.83181
300.03081
300.19048
300.30793
300.38157
300.41018
300.39292
300.32932
300.2193
300.06319
299.86172
299.61602
299.3276
298.99835
298.63051
298.22667
297.78969
297.32274
296.82917
296.31257
295.77665
295.22521
294.66213
294.09128
293.5165
292.94153
292.37001
291.80538
291.25092
290.70968
290.18442
289.67769
289.19171
288.72843
288.28951
287.87632
287.48993
287.13114
286.80052
286.49834
286.22468
285.97941
285.76221
285.57256
285.40985
285.2733
285.16205
285.07513
285.01153
284.97013
284.94923
299.59175
299.80113
299.97178
300.10083
300.18663
300.22793
300.22384
300.17384
300.07781
299.936
299.7491
299.51815
299.24462
298.93032
298.57742
298.18845
297.7662
297.31376
296.83445
296.33177
295.80938
295.27105
294.72058
294.16183
293.59858
293.03456
292.47337
291.91846
291.37308
290.84028
290.32283
289.82328
289.34386
288.88655
288.45302
288.04467
287.66259
287.30762
286.98033
286.68106
286.40991
286.16677
285.95135
285.76318
285.60166
285.46606
285.35552
285.26912
285.20587
285.16467
285.14387
299.33584
299.55615
299.73838
299.87965
299.97827
300.03295
300.04275
300.0071
299.92582
299.79911
299.62757
299.41221
299.15441
298.8559
298.51881
298.14556
297.7389
297.30184
296.83762
296.34969
295.84166
295.31722
294.78015
294.23424
293.68325
293.13088
292.5807
292.03614
291.50045
290.97665
290.46755
289.97567
289.50328
289.05237
288.62463
288.22147
287.84403
287.49317
287.1695
286.87337
286.60493
286.3641
286.15063
285.96407
285.80386
285.66929
285.55955
285.47373
285.41087
285.3699
285.34921
299.06336
299.29516
299.48956
299.64367
299.75578
299.82453
299.84895
299.8284
299.76265
299.65184
299.49651
299.29758
299.05636
298.77452
298.4541
298.09746
297.70726
297.28645
296.8382
296.36588
295.87304
295.36333
294.84046
294.30818
293.77021
293.2302
292.69172
292.15818
291.6328
291.11861
290.61841
290.13473
289.66986
289.2258
288.80426
288.40668
288.03423
287.6878
287.36802
287.07529
286.80979
286.57147
286.36011
286.17531
286.01653
285.8831
285.77423
285.68905
285.62663
285.58591
285.56535
298.7736
299.01742
299.22459
299.39217
299.51843
299.60196
299.64172
299.63704
299.58762
299.49352
299.35523
299.17359
298.94983
298.68555
298.3827
298.04356
297.67073
297.26706
296.83566
296.37984
295.90306
295.40892
294.90108
294.38323
293.85906
293.33218
292.80612
292.28428
291.76987
291.26591
290.77519
290.30027
289.84343
289.40669
288.99179
288.6002
288.23311
287.89143
287.57585
287.28679
287.02446
286.78886
286.5798
286.39692
286.2397
286.10751
285.99961
285.91514
285.85319
285.81276
285.79235
298.46585
298.72226
298.94277
299.12445
299.26552
299.36452
299.42037
299.43232
299.40002
299.32346
299.20306
299.03957
298.83415
298.58832
298.30395
297.98323
297.62868
297.24308
296.82944
296.39101
295.93119
295.4535
294.96154
294.45895
293.94938
293.4364
292.92352
292.41409
291.91133
291.41824
290.93762
290.47203
290.02375
289.59484
289.18704
288.80186
288.44051
288.10395
287.79288
287.50777
287.24888
287.01622
286.80965
286.62884
286.47333
286.3425
286.23565
286.15196
286.09055
286.05044
286.03019
298.13948
298.409
298.64343
298.83983
298.99636
299.11153
299.18419
299.21355
299.19916
299.14097
299.03929
298.89483
298.70864
298.48217
298.21719
297.91583
297.58049
297.21387
296.81893
296.39881
295.95685
295.49649
295.02129
294.53482
294.04068
293.54241
293.04346
292.5472
292.05679
291.57524
291.10535
290.64968
290.21053
289.78995
289.38975
289.01141
288.65621
288.32514
288.01892
287.73807
287.48287
287.25339
287.04952
286.87097
286.71731
286.58797
286.48227
286.39944
286.33862
286.29887
286.27879
297.79388
298.07704
298.32596
298.53768
298.71032
298.84234
298.93254
298.98004
298.98436
298.94535
298.86325
298.73868
298.57262
298.36641
298.12175
297.84066
297.52547
297.17879
296.80347
296.4026
295.97942
295.53731
295.07975
294.61027
294.13241
293.64966
293.16545
292.6831
292.20577
291.73646
291.27796
290.83282
290.40337
289.99169
289.59956
289.22855
288.87993
288.55472
288.25371
287.97743
287.72621
287.50015
287.2992
287.12309
286.97145
286.84373
286.73929
286.6574
286.59723
286.55788
286.538
297.42855
297.72585
297.98979
298.21742
298.4068
298.55634
298.66477
298.73117
298.75497
298.73594
298.67426
298.57045
298.4254
298.24036
298.01693
297.75705
297.46295
297.13714
296.7824
296.40171
295.99824
295.57529
295.13629
294.68468
294.22396
293.75757
293.2889
292.82124
292.35775
291.90138
291.45494
291.02097
290.60183
290.19959
289.81607
289.45286
289.11126
288.79233
288.49689
288.22551
287.97857
287.7562
287.55839
287.38493
287.23546
287.1095
287.00644
286.92557
286.86612
286.82721
286.80754
297.04307
297.35498
297.63447
297.87857
298.08529
298.25299
298.38035
298.46636
298.51039
298.51214
298.47169
298.38948
298.26631
298.10333
297.90205
297.6643
297.39221
297.08822
296.75499
296.39542
296.0126
295.60975
295.1902
294.75736
294.31465
293.86547
293.41317
292.961
292.51209
292.0694
291.63571
291.21358
290.80535
290.41313
290.03876
289.68385
289.34973
289.03749
288.74801
288.48188
288.23952
288.02112
287.82669
287.65608
287.50897
287.38491
287.28334
287.2036
287.14493
287.1065
287.08707
296.63715
296.96412
297.25964
297.52075
297.74539
297.93186
298.07878
298.1851
298.25009
298.27338
298.25495
298.19517
298.09472
297.95468
297.77643
297.56172
297.31258
297.03133
296.72055
296.38304
296.02179
295.63995
295.24078
294.8276
294.40378
293.97266
293.53756
293.10168
292.66812
292.23984
291.8196
291.40997
291.01329
290.63168
290.26701
289.92091
289.59474
289.28964
289.0065
288.74598
288.50852
288.29437
288.10358
287.93604
287.79147
287.66947
287.56952
287.49099
287.43318
287.39527
287.3761
296.21062
296.55309
296.86512
297.14372
297.38681
297.59263
297.75974
297.88701
297.97364
298.01919
298.02355
297.98698
297.91008
297.79381
297.63947
297.44868
297.22337
296.96577
296.67835
296.36381
296.02506
295.66515
295.28725
294.89462
294.49056
294.07836
293.66128
293.2425
292.82508
292.41195
292.00588
291.60941
291.22492
290.85453
290.50012
290.16335
289.84562
289.54809
289.27171
289.01716
288.78493
288.57532
288.38843
288.22417
288.08233
287.96255
287.86435
287.78714
287.73025
287.69292
287.67404
295.7634
296.12193
296.45089
296.74744
297.00946
297.23515
297.423
297.57182
297.68075
297.74923
297.77709
297.76447
297.71189
297.6202
297.49058
297.32456
297.12396
296.89089
296.62771
296.33704
296.02167
295.68458
295.32884
294.95764
294.5742
294.18176
293.78353
293.38263
292.98212
292.58489
292.19369
291.81107
291.43941
291.08083
290.73725
290.41034
290.10153
289.81204
289.54281
289.29461
289.06796
288.86319
288.68045
288.51971
288.3808
288.2634
288.16708
288.09129
288.03541
287.99871
287.98014
295.29548
295.67087
296.01718
296.33208
296.61345
296.85947
297.06857
297.23949
297.37128
297.46331
297.51532
297.52735
297.4998
297.43343
297.32932
297.18886
297.01378
296.80607
296.56798
296.30203
296.01091
295.69748
295.36476
295.01583
294.65385
294.282
293.90342
293.5212
293.13835
292.75774
292.38211
292.01402
291.65582
291.30966
290.97746
290.66094
290.36156
290.08054
289.8189
289.57742
289.35668
289.15705
288.97874
288.82175
288.68597
288.57112
288.47682
288.40256
288.34776
288.31174
288.29351
294.39191
294.80897
295.20076
295.56458
295.89809
296.19916
296.46589
296.69666
296.89014
297.0453
297.16144
297.23817
297.27546
297.27361
297.23324
297.15534
297.04118
296.89237
296.71079
296.49859
296.25815
295.99208
295.70314
295.39424
295.0684
294.72868
294.3782
294.02004
293.65725
293.29279
292.92953
292.57016
292.21724
291.87312
291.53997
291.21972
290.91411
290.62463
290.35254
290.09889
289.86451
289.65002
289.45584
289.28222
289.12922
288.99677
288.88464
288.79249
288.71987
288.66624
288.63095
288.61307
293.41847
293.8719
294.30422
294.71243
295.09391
295.44624
295.76726
296.055
296.30778
296.52421
296.70317
296.84386
296.94582
297.0089
297.0333
297.01954
296.96847
296.88126
296.7594
296.60465
296.41905
296.20486
295.96458
295.70088
295.41656
295.11455
294.79784
294.46946
294.13246
293.78982
293.44446
293.0992
292.75675
292.41962
292.09019
291.77062
291.46286
291.16866
290.88955
290.62683
290.38157
290.15466
289.94675
289.75832
289.58965
289.44087
289.31195
289.20271
289.11285
289.04198
288.98959
288.95509
288.9376
292.38342
292.86733
293.33484
293.7824
294.20711
294.60634
294.97764
295.31877
295.62773
295.90278
296.14244
296.34551
296.51112
296.6387
296.72801
296.77912
296.79246
296.76875
296.70905
296.61472
296.48741
296.32903
296.14174
295.92791
295.6901
295.43104
295.15354
294.86052
294.55493
294.23975
293.91791
293.59229
293.26568
292.94074
292.62001
292.30582
292.00036
291.7056
291.4233
291.155
290.90206
290.66558
290.44649
290.24548
290.06308
289.89963
289.7553
289.6301
289.5239
289.43647
289.36745
289.31639
289.28272
289.26565
291.80432
292.30102
292.7825
293.24529
293.68652
294.10353
294.49383
294.85516
295.18545
295.48289
295.74595
295.97335
296.16412
296.3176
296.43344
296.51162
296.55243
296.55649
296.52474
296.45841
296.35902
296.22838
296.06851
295.88169
295.67035
295.43711
295.18471
294.91596
294.63376
294.34099
294.04053
293.73523
293.42782
293.12095
292.81713
292.51871
292.22785
291.94655
291.67658
291.41953
291.17675
290.94941
290.73846
290.54466
290.36856
290.21057
290.07089
289.94959
289.8466
289.76173
289.69466
289.64499
289.61221
289.59557
291.21264
291.72196
292.21731
292.69524
293.1529
293.58761
293.99687
294.37836
294.72997
295.04983
295.33634
295.58815
295.80419
295.98371
296.12625
296.2317
296.30022
296.33232
296.32881
296.2908
296.2197
296.11717
295.98513
295.82573
295.6413
295.43434
295.20751
294.96352
294.70517
294.4353
294.15672
293.87221
293.58448
293.29615
293.00971
292.72749
292.45166
292.18422
291.92698
291.68152
291.44926
291.23137
291.02887
290.84253
290.67299
290.52067
290.38584
290.26861
290.16897
290.08677
290.02175
289.97355
289.94171
289.92553
290.61162
291.13333
291.64234
292.13522
292.60913
293.06136
293.4894
293.89089
294.26368
294.60586
294.91572
295.19186
295.43312
295.63867
295.80794
295.94069
296.037
296.09724
296.12211
296.11259
296.06995
295.99576
295.89179
295.76008
295.60284
295.42248
295.22153
295.00263
294.7685
294.52188
294.26554
294.0022
293.73452
293.4651
293.19639
292.93072
292.67027
292.41703
292.17283
291.93928
291.71781
291.50965
291.31583
291.1372
290.97442
290.82796
290.69814
290.58513
290.48897
290.40954
290.34665
290.29998
290.26912
290.25342
290.00517
290.539
291.06136
291.5689
292.05874
292.5282
292.97473
293.39593
293.78963
294.15383
294.4868
294.78704
295.05332
295.28469
295.48052
295.64044
295.76442
295.85272
295.9059
295.92484
295.91068
295.86484
295.789
295.68506
295.55512
295.40149
295.22658
295.03294
294.82321
294.60005
294.36617
294.12422
293.87683
293.62655
293.37581
293.12694
292.88211
292.64331
292.41237
292.19095
291.98049
291.78226
291.59732
291.42657
291.2707
291.13025
291.00558
290.89692
290.80433
290.72776
290.66707
290.62198
290.59212
290.57692
289.39804
289.94359
290.47892
291.0007
291.50607
291.99233
292.4569
292.89738
293.31153
293.69734
294.05298
294.3769
294.66778
294.9246
295.14661
295.33336
295.48468
295.60073
295.68195
295.7291
295.74318
295.72551
295.67763
295.60132
295.49859
295.37159
295.22267
295.05427
294.86893
294.66926
294.45786
294.23736
294.01033
293.77927
293.54662
293.31465
293.08554
292.86129
292.64375
292.43458
292.23525
292.04706
291.87112
291.70836
291.55952
291.42517
291.30574
291.20149
291.11254
291.0389
290.98046
290.93698
290.90817
290.89348
288.79571
289.3526
289.90042
290.43593
290.95628
291.45876
291.9408
292.39995
292.83395
293.24073
293.61842
293.9654
294.28027
294.56192
294.80952
295.02249
295.20059
295.34384
295.45258
295.52742
295.56928
295.57932
295.55898
295.50992
295.43402
295.33335
295.21012
295.06669
294.90552
294.72912
294.54004
294.34083
294.13404
293.92211
293.70745
293.49233
293.27891
293.06919
292.86503
292.6681
292.47991
292.30179
292.13487
291.98012
291.83834
291.71013
291.59597
291.49617
291.4109
291.34021
291.28403
291.2422
291.21444
291.20027
288.2043
288.7724
289.33221
289.88082
290.41547
290.93346
291.4322
291.90925
292.3623
292.78923
293.18814
293.55732
293.89532
294.20095
294.47326
294.71162
294.91564
295.08527
295.22071
295.32246
295.39133
295.42835
295.43484
295.41235
295.36264
295.28767
295.18956
295.07057
294.93306
294.77947
294.61228
294.43399
294.24708
294.05396
293.85701
293.65849
293.46053
293.26514
293.07419
292.88936
292.71219
292.54402
292.38603
292.23923
292.10444
291.98233
291.87341
291.77803
291.69642
291.62867
291.57476
291.53457
291.50787
291.49422
287.05067
287.6326
288.21077
288.78173
289.34265
289.89076
290.42337
290.9379
291.43186
291.90295
292.349
292.76804
293.15834
293.51835
293.84682
294.14272
294.4053
294.63411
294.82896
294.98997
295.11752
295.21229
295.27522
295.3075
295.31057
295.28607
295.23588
295.16199
295.06659
294.95193
294.8204
294.67439
294.51635
294.34869
294.17382
293.99405
293.81164
293.6287
293.44725
293.26915
293.0961
292.92966
292.7712
292.62193
292.48289
292.35493
292.23878
292.13499
292.04394
291.96592
291.90106
291.84938
291.81079
291.78513
291.77199
286.49895
287.08893
287.67625
288.25747
288.82974
289.39032
289.9365
290.46569
290.97541
291.4633
291.92718
292.36504
292.77508
293.15571
293.50558
293.8236
294.10894
294.36104
294.57963
294.76472
294.91659
295.0358
295.12319
295.17984
295.20708
295.20646
295.17973
295.12881
295.05578
294.96283
294.85224
294.72637
294.58759
294.43828
294.28078
294.11739
293.95034
293.78174
293.6136
293.44778
293.286
293.12982
292.98065
292.83973
292.70812
292.58672
292.47629
292.37741
292.29053
292.21595
292.15387
292.10433
292.06731
292.04264
292.03001
285.98562
286.58289
287.17849
287.76899
288.35155
288.92344
289.48196
290.0245
290.54858
291.05181
291.53199
291.98706
292.41518
292.8147
293.18421
293.52254
293.8288
294.10234
294.3428
294.55008
294.72438
294.86616
294.97615
295.05533
295.10494
295.12642
295.12143
295.09181
295.03954
294.96674
294.87563
294.76848
294.64762
294.51537
294.37405
294.22593
294.0732
293.91798
293.76225
293.60789
293.45663
293.31005
293.16956
293.03644
292.91178
292.79652
292.69144
292.59717