/*--------------------------------*- C++ -*----------------------------------*\
| =========                 |                                                 |
| \\      /  F ield         | OpenFOAM: The Open Source CFD Toolbox           |
|  \\    /   O peration     | Version:  2312                                  |
|   \\  /    A nd           | Website:  www.openfoam.com                      |
|    \\/     M anipulation  |                                                 |
\*---------------------------------------------------------------------------*/
FoamFile
{
    version     2.0;
    format      ascii;
    arch        "LSB;label=32;scalar=64";
    class       surfaceScalarField;
    location    "0.02";
    object      phi;
}
// * * * * * * * * * * * * * * * * * * * * * * * * * * * * * * * * * * * * * //

dimensions      [1 0 -1 0 0 0 0];

oriented        oriented;

internalField   nonuniform List<scalar> 
6327
(
-1.9784466e-08
3.867167e-10
-2.1266276e-08
4.0761132e-10
-2.2776029e-08
4.2874126e-10
-2.4311962e-08
4.500988e-10
-2.5872142e-08
4.7165313e-10
-2.7454452e-08
4.9333854e-10
-2.9056601e-08
5.1507898e-10
-3.0676141e-08
5.3679633e-10
-3.2310475e-08
5.5841327e-10
-3.3956876e-08
5.7985494e-10
-3.5612508e-08
6.0105033e-10
-3.7274439e-08
6.2193308e-10
-3.8939669e-08
6.4244224e-10
-4.0605149e-08
6.6252307e-10
-4.2267805e-08
6.8212778e-10
-4.3924565e-08
7.0121605e-10
-4.5572383e-08
7.1975582e-10
-4.7208264e-08
7.3772369e-10
-4.8829291e-08
7.5510539e-10
-5.0432647e-08
7.7189591e-10
-5.201564e-08
7.8809963e-10
-5.3575724e-08
8.0372989e-10
-5.5110518e-08
8.1880864e-10
-5.6617826e-08
8.3336728e-10
-5.809565e-08
8.4744355e-10
-5.9542202e-08
8.6108072e-10
-6.095592e-08
8.7432877e-10
-6.233547e-08
8.8724137e-10
-6.3679753e-08
8.9987465e-10
-6.4987908e-08
9.1228546e-10
-6.625931e-08
9.245295e-10
-6.7493568e-08
9.3665982e-10
-6.8690516e-08
9.4872313e-10
-6.9850204e-08
9.6075726e-10
-7.0972884e-08
9.7278725e-10
-7.2058989e-08
9.8482143e-10
-7.310911e-08
9.9684479e-10
-7.4123962e-08
1.0088113e-09
-7.5104362e-08
1.0206454e-09
-7.6051135e-08
1.0322024e-09
1.0434569e-09
-1.9780761e-08
7.0230169e-10
-2.1262313e-08
7.4355309e-10
-2.2771811e-08
7.8498037e-10
-2.4307475e-08
8.2662762e-10
-2.5867371e-08
8.6839753e-10
-2.7449387e-08
9.1016758e-10
-2.9051235e-08
9.5180719e-10
-3.0670466e-08
9.931859e-10
-3.2304485e-08
1.0341772e-09
-3.3950568e-08
1.0746609e-09
-3.5605876e-08
1.1145243e-09
-3.7267483e-08
1.1536644e-09
-3.8932387e-08
1.1919883e-09
-4.059754e-08
1.2294148e-09
-4.2259871e-08
1.2658751e-09
-4.3916308e-08
1.3013139e-09
-4.5563806e-08
1.3356899e-09
-4.7199371e-08
1.3689763e-09
-4.8820087e-08
1.4011616e-09
-5.0423138e-08
1.4322491e-09
-5.2005832e-08
1.462257e-09
-5.3565624e-08
1.4912179e-09
-5.5100134e-08
1.5191777e-09
-5.6607165e-08
1.546196e-09
-5.8084718e-08
1.5723429e-09
-5.9531008e-08
1.5976978e-09
-6.0944471e-08
1.6223488e-09
-6.2323773e-08
1.64639e-09
-6.3667813e-08
1.6699193e-09
-6.4975731e-08
1.6930356e-09
-6.6246901e-08
1.7158359e-09
-6.7480929e-08
1.7384122e-09
-6.867765e-08
1.7608467e-09
-6.9837111e-08
1.7832073e-09
-7.0959564e-08
1.8055405e-09
-7.204544e-08
1.8278652e-09
-7.3095332e-08
1.8501601e-09
-7.4109953e-08
1.8723485e-09
-7.5090123e-08
1.894312e-09
-7.603666e-08
1.9157607e-09
1.9368468e-09
-1.9772989e-08
1.0175208e-09
-2.1253979e-08
1.0789908e-09
-2.2762881e-08
1.1406677e-09
-2.4297919e-08
1.2025657e-09
-2.5857169e-08
1.2645189e-09
-2.743852e-08
1.3263453e-09
-2.9039688e-08
1.3878586e-09
-3.0658226e-08
1.448876e-09
-3.2291542e-08
1.5092218e-09
-3.3936914e-08
1.5687302e-09
-3.5591506e-08
1.6272475e-09
-3.7252393e-08
1.6846335e-09
-3.8916576e-08
1.7407639e-09
-4.0581011e-08
1.7955306e-09
-4.2242627e-08
1.8488442e-09
-4.3898356e-08
1.9006339e-09
-4.5545155e-08
1.9508492e-09
-4.7180032e-08
1.9994601e-09
-4.8800071e-08
2.0464574e-09
-5.040246e-08
2.0918526e-09
-5.1984508e-08
2.1356776e-09
-5.3543669e-08
2.1779837e-09
-5.5077566e-08
2.2188409e-09
-5.6584001e-08
2.2583364e-09
-5.8060977e-08
2.2965726e-09
-5.9506708e-08
2.3336643e-09
-6.0919628e-08
2.3697376e-09
-6.2298403e-08
2.4049267e-09
-6.3641933e-08
2.4393707e-09
-6.4949352e-08
2.4732102e-09
-6.6220035e-08
2.5065829e-09
-6.7453586e-08
2.5396195e-09
-6.8649836e-08
2.5724378e-09
-6.9808831e-08
2.6051354e-09
-7.0930818e-08
2.637781e-09
-7.2016229e-08
2.6704033e-09
-7.3065654e-08
2.7029767e-09
-7.407981e-08
2.7353962e-09
-7.5059516e-08
2.7674981e-09
-7.6005582e-08
2.7988416e-09
2.8297954e-09
-1.9761192e-08
1.3325816e-09
-2.1241297e-08
1.4139854e-09
-2.2749255e-08
1.4958425e-09
-2.4283313e-08
1.5779424e-09
-2.5841552e-08
1.6600359e-09
-2.7421866e-08
1.7418791e-09
-2.9021976e-08
1.82323e-09
-3.0639437e-08
1.9038531e-09
-3.2271662e-08
1.9835237e-09
-3.3915931e-08
2.0620308e-09
-3.5569413e-08
2.1391792e-09
-3.7229185e-08
2.2147922e-09
-3.8892254e-08
2.2887135e-09
-4.0555578e-08
2.3608087e-09
-4.221609e-08
2.4309672e-09
-4.3870726e-08
2.499103e-09
-4.5516446e-08
2.5651563e-09
-4.7150261e-08
2.6290934e-09
-4.8769258e-08
2.6909074e-09
-5.0370627e-08
2.7506177e-09
-5.1951679e-08
2.8082696e-09
-5.3509872e-08
2.863933e-09
-5.5042826e-08
2.9177012e-09
-5.6548347e-08
2.9696889e-09
-5.8024438e-08
3.0200302e-09
-5.946931e-08
3.0688747e-09
-6.08814e-08
3.1163862e-09
-6.2259371e-08
3.1627385e-09
-6.360212e-08
3.2081113e-09
-6.4908781e-08
3.2526863e-09
-6.6178724e-08
3.2966414e-09
-6.741155e-08
3.3401458e-09
-6.8607087e-08
3.383352e-09
-6.9765376e-08
3.4263873e-09
-7.0886661e-08
3.4693427e-09
-7.197137e-08
3.512258e-09
-7.3020093e-08
3.5551049e-09
-7.4033548e-08
3.5977533e-09
-7.5012556e-08
3.6399939e-09
-7.5957901e-08
3.6812064e-09
3.7220935e-09
-1.8296093e-08
1.546226e-09
-1.9745428e-08
1.6470815e-09
-2.1224286e-08
1.7484508e-09
-2.2730948e-08
1.850443e-09
-2.426367e-08
1.952689e-09
-2.5820537e-08
2.0548691e-09
-2.7399446e-08
2.1566787e-09
-2.8998122e-08
2.25782e-09
-3.0614125e-08
2.3580057e-09
-3.2244872e-08
2.4569621e-09
-3.3887648e-08
2.554433e-09
-3.5539628e-08
2.6501822e-09
-3.7197894e-08
2.7439962e-09
-3.8859457e-08
2.8356869e-09
-4.052128e-08
2.9250934e-09
-4.2180302e-08
3.012084e-09
-4.3833463e-08
3.0965575e-09
-4.5477726e-08
3.1784444e-09
-4.7110108e-08
3.2577073e-09
-4.87277e-08
3.3343413e-09
-5.0327693e-08
3.4083733e-09
-5.1907403e-08
3.4798616e-09
-5.3464289e-08
3.5488943e-09
-5.4995975e-08
3.6155874e-09
-5.6500265e-08
3.680083e-09
-5.7975163e-08
3.7425457e-09
-5.9418882e-08
3.8031598e-09
-6.0829855e-08
3.862126e-09
-6.2206745e-08
3.9196567e-09
-6.3548447e-08
3.9759717e-09
-6.485409e-08
4.0312932e-09
-6.6123042e-08
4.0858388e-09
-6.7354898e-08
4.1398152e-09
-6.8549481e-08
4.1934094e-09
-6.9706827e-08
4.2467781e-09
-7.0827175e-08
4.3000345e-09
-7.1910949e-08
4.3532308e-09
-7.2958735e-08
4.4063373e-09
-7.3971256e-08
4.4592057e-09
-7.494933e-08
4.5115757e-09
-7.5893773e-08
4.5626814e-09
4.613408e-09
-1.6184675e-08
1.8064255e-09
-1.7466682e-08
1.9249431e-09
-1.8774765e-08
2.0440361e-09
-2.0107424e-08
2.1638112e-09
-2.1463118e-08
2.2838397e-09
-2.2840151e-08
2.4037503e-09
-2.4236668e-08
2.5231863e-09
-2.5650656e-08
2.6418019e-09
-2.7079962e-08
2.7592641e-09
-2.8522301e-08
2.8752562e-09
-2.9975278e-08
2.9894823e-09
-3.1436394e-08
3.1016698e-09
-3.2903071e-08
3.2115729e-09
-3.4372669e-08
3.3189753e-09
-3.5842505e-08
3.4236925e-09
-3.7309872e-08
3.5255741e-09
-3.8772065e-08
3.6245053e-09
-4.0226403e-08
3.7204079e-09
-4.1670245e-08
3.813241e-09
-4.3101023e-08
3.9030011e-09
-4.4516251e-08
3.9897215e-09
-4.5913557e-08
4.0734717e-09
-4.7290692e-08
4.1543553e-09
-4.8645554e-08
4.2325081e-09
-4.9976202e-08
4.3080954e-09
-5.1280868e-08
4.3813089e-09
-5.2557969e-08
4.4523624e-09
-5.3806117e-08
4.5214887e-09
-5.5024126e-08
4.5889339e-09
-5.6211015e-08
4.6549527e-09
-5.7366011e-08
4.719802e-09
-5.8488548e-08
4.7837338e-09
-5.9578264e-08
4.8469878e-09
-6.0634996e-08
4.9097807e-09
-6.1658772e-08
4.9722951e-09
-6.2649796e-08
5.0346636e-09
-6.3608439e-08
5.0969511e-09
-6.4535214e-08
5.1591239e-09
-6.5430774e-08
5.2210388e-09
-6.6295787e-08
5.2823204e-09
-6.7131439e-08
5.3425908e-09
5.400799e-09
-1.6614207e-08
2.0732559e-09
-1.7930126e-08
2.2098437e-09
-1.9272742e-08
2.3471126e-09
-2.0640557e-08
2.4850976e-09
-2.2031994e-08
2.6233332e-09
-2.3445316e-08
2.7613986e-09
-2.4878617e-08
2.8988859e-09
-2.6329837e-08
3.0354007e-09
-2.7796767e-08
3.1705636e-09
-2.9277067e-08
3.3040146e-09
-3.076828e-08
3.4354168e-09
-3.2267847e-08
3.5644605e-09
-3.3773125e-08
3.6908668e-09
-3.5281407e-08
3.8143904e-09
-3.6789942e-08
3.9348227e-09
-3.8295957e-08
4.051994e-09
-3.9796678e-08
4.1657752e-09
-4.1289354e-08
4.276079e-09
-4.277128e-08
4.3828606e-09
-4.4239818e-08
4.4861177e-09
-4.5692421e-08
4.5858898e-09
-4.7126652e-08
4.6822572e-09
-4.8540207e-08
4.7753389e-09
-4.9930926e-08
4.8652903e-09
-5.1296816e-08
4.9523002e-09
-5.2636061e-08
5.0365871e-09
-5.3947034e-08
5.1183946e-09
-5.5228309e-08
5.1979876e-09
-5.6478663e-08
5.2756459e-09
-5.7697087e-08
5.3516591e-09
-5.8882781e-08
5.4263191e-09
-6.0035159e-08
5.4999126e-09
-6.1153845e-08
5.572712e-09
-6.2238664e-08
5.6449642e-09
-6.3289637e-08
5.7168777e-09
-6.4306969e-08
5.7886051e-09
-6.5291032e-08
5.8602247e-09
-6.6242349e-08
5.9317007e-09
-6.7161588e-08
6.002895e-09
-6.8049443e-08
6.073327e-09
-6.8907059e-08
6.142938e-09
6.2090054e-09
-1.7051292e-08
2.3469803e-09
-1.8401652e-08
2.5018196e-09
-1.9779321e-08
2.6576595e-09
-2.1182811e-08
2.8142664e-09
-2.261051e-08
2.9711247e-09
-2.4060639e-08
3.127763e-09
-2.5531247e-08
3.2837221e-09
-2.7020222e-08
3.4385584e-09
-2.8525303e-08
3.5918454e-09
-3.0044094e-08
3.7431785e-09
-3.1574077e-08
3.8921797e-09
-3.3112632e-08
4.0385013e-09
-3.4657052e-08
4.1818302e-09
-3.6204564e-08
4.3218918e-09
-3.7752349e-08
4.4584525e-09
-3.9297567e-08
4.5913228e-09
-4.0837375e-08
4.7203585e-09
-4.2368953e-08
4.845463e-09
-4.388953e-08
4.9665868e-09
-4.5396401e-08
5.0837284e-09
-4.6886954e-08
5.196933e-09
-4.8358692e-08
5.3062915e-09
-4.9809248e-08
5.4119379e-09
-5.1236408e-08
5.5140471e-09
-5.2638125e-08
5.6128311e-09
-5.4012534e-08
5.7085348e-09
-5.5357964e-08
5.8014318e-09
-5.6672946e-08
5.8918186e-09
-5.7956224e-08
5.980009e-09
-5.9206755e-08
6.0663271e-09
-6.0423714e-08
6.1510999e-09
-6.1606493e-08
6.2346486e-09
-6.2754697e-08
6.3172782e-09
-6.3868139e-08
6.3992657e-09
-6.4946833e-08
6.4808457e-09
-6.599098e-08
6.562191e-09
-6.7000954e-08
6.6433934e-09
-6.7977285e-08
6.7244176e-09
-6.8920648e-08
6.8051261e-09
-6.983177e-08
6.8849552e-09
-7.0711697e-08
6.9640309e-09
7.0384645e-09
-1.6139857e-08
2.4551038e-09
-1.7495811e-08
2.6272952e-09
-1.8881092e-08
2.8008345e-09
-2.0294318e-08
2.9756432e-09
-2.1733988e-08
3.1512734e-09
-2.3198457e-08
3.3271618e-09
-2.4685903e-08
3.5027848e-09
-2.6194328e-08
3.6776313e-09
-2.7721572e-08
3.8512078e-09
-2.9265321e-08
4.02304e-09
-3.0823121e-08
4.1926785e-09
-3.2392397e-08
4.3597028e-09
-3.3970466e-08
4.5237268e-09
-3.5554557e-08
4.6844028e-09
-3.7141833e-08
4.8414258e-09
-3.8729407e-08
4.9945368e-09
-4.0314371e-08
5.1435255e-09
-4.1893813e-08
5.2882324e-09
-4.3464847e-08
5.4285503e-09
-4.5024631e-08
5.5644249e-09
-4.6570397e-08
5.6958547e-09
-4.8099466e-08
5.8228902e-09
-4.9609278e-08
5.9456321e-09
-5.1097407e-08
6.0642293e-09
-5.2561581e-08
6.1788755e-09
-5.3999699e-08
6.2898054e-09
-5.5409846e-08
6.3972904e-09
-5.6790305e-08
6.5016332e-09
-5.8139566e-08
6.6031619e-09
-5.9456335e-08
6.7022236e-09
-6.0739534e-08
6.799177e-09
-6.1988313e-08
6.8943837e-09
-6.3202038e-08
6.9881989e-09
-6.4380297e-08
7.0809602e-09
-6.5522887e-08
7.1729743e-09
-6.6629812e-08
7.2645015e-09
-6.7701267e-08
7.3557352e-09
-6.8737626e-08
7.4467804e-09
-6.9739424e-08
7.5376041e-09
-7.070734e-08
7.6280652e-09
-7.1642128e-08
7.7175365e-09
-7.2544769e-08
7.8062324e-09
7.889474e-09
-1.6556853e-08
2.7232289e-09
-1.7947546e-08
2.9141436e-09
-1.9368224e-08
3.1068586e-09
-2.0817494e-08
3.3010249e-09
-2.2293837e-08
3.496072e-09
-2.3795569e-08
3.6913897e-09
-2.5320826e-08
3.8864017e-09
-2.6867566e-08
4.0805449e-09
-2.8433577e-08
4.2732756e-09
-3.0016493e-08
4.4640713e-09
-3.1613806e-08
4.6524367e-09
-3.3222881e-08
4.8379088e-09
-3.4840974e-08
5.0200621e-09
-3.6465251e-08
5.1985138e-09
-3.8092808e-08
5.3729278e-09
-3.9720694e-08
5.5430188e-09
-4.134593e-08
5.708555e-09
-4.2965539e-08
5.8693609e-09
-4.4576565e-08
6.0253182e-09
-4.6176099e-08
6.1763667e-09
-4.7761305e-08
6.3225045e-09
-4.932944e-08
6.4637863e-09
-5.087788e-08
6.6003225e-09
-5.2404138e-08
6.7322757e-09
-5.3905884e-08
6.8598579e-09
-5.5380963e-08
6.9833262e-09
-5.6827408e-08
7.1029775e-09
-5.8243455e-08
7.2191432e-09
-5.9627551e-08
7.3321825e-09
-6.0978362e-08
7.4424753e-09
-6.2294779e-08
7.550414e-09
-6.3575918e-08
7.6563943e-09
-6.4821122e-08
7.7608051e-09
-6.6029955e-08
7.8640157e-09
-6.7202202e-08
7.9663623e-09
-6.8337851e-08
8.0681306e-09
-6.9437091e-08
8.1695339e-09
-7.0500293e-08
8.2706905e-09
-7.1527992e-08
8.3715708e-09
-7.2520869e-08
8.4720247e-09
-7.3479705e-08
8.5713848e-09
-7.4405426e-08
8.6698665e-09
8.7623208e-09
-1.5586441e-08
2.7891539e-09
-1.6980348e-08
2.9973533e-09
-1.8406241e-08
3.2075562e-09
-1.9862784e-08
3.4198697e-09
-2.1348577e-08
3.6337715e-09
-2.2862071e-08
3.8486184e-09
-2.4401547e-08
4.0637543e-09
-2.5965097e-08
4.2785506e-09
-2.7550632e-08
4.4923926e-09
-2.9155894e-08
4.7046856e-09
-3.0778463e-08
4.9148587e-09
-3.2415776e-08
5.1223704e-09
-3.406514e-08
5.3267144e-09
-3.5723751e-08
5.5274255e-09
-3.7388711e-08
5.7240848e-09
-3.9057051e-08
5.9163245e-09
-4.0725754e-08
6.1038322e-09
-4.2391774e-08
6.2863543e-09
-4.4052065e-08
6.4636978e-09
-4.5703603e-08
6.6357327e-09
-4.7343412e-08
6.8023924e-09
-4.8968587e-08
6.9636732e-09
-5.0576321e-08
7.1196337e-09
-5.2163926e-08
7.2703926e-09
-5.3728852e-08
7.4161258e-09
-5.5268712e-08
7.5570628e-09
-5.6781295e-08
7.6934819e-09
-5.8264582e-08
7.825705e-09
-5.971676e-08
7.9540912e-09
-6.1136231e-08
8.07903e-09
-6.2521622e-08
8.2009333e-09
-6.3871787e-08
8.3202265e-09
-6.518581e-08
8.4373387e-09
-6.6463007e-08
8.5526911e-09
-6.770292e-08
8.6666846e-09
-6.8905312e-08
8.7796837e-09
-7.0070161e-08
8.8919988e-09
-7.1197643e-08
9.0038629e-09
-7.2288123e-08
9.115407e-09
-7.3342136e-08
9.2266056e-09
-7.4360362e-08
9.337296e-09
-7.5343604e-08
9.4467892e-09
-7.6292752e-08
9.5552403e-09
9.6572799e-09
-1.5981106e-08
3.0503016e-09
-1.7410043e-08
3.2776302e-09
-1.8871597e-08
3.5075749e-09
-2.036447e-08
3.7398579e-09
-2.1887251e-08
3.9738565e-09
-2.3438363e-08
4.2088724e-09
-2.5016047e-08
4.4442035e-09
-2.6618354e-08
4.6791692e-09
-2.8243151e-08
4.9131031e-09
-2.9888129e-08
5.1453595e-09
-3.1550818e-08
5.3753188e-09
-3.3228601e-08
5.6023927e-09
-3.4918726e-08
5.8260313e-09
-3.6618329e-08
6.0457288e-09
-3.8324451e-08
6.2610299e-09
-4.0034058e-08
6.4715343e-09
-4.1744065e-08
6.6769019e-09
-4.3451361e-08
6.8768559e-09
-4.5152831e-08
7.0711857e-09
-4.6845382e-08
7.2597483e-09
-4.8525971e-08
7.4424695e-09
-5.0191626e-08
7.6193433e-09
-5.1839474e-08
7.7904309e-09
-5.3466761e-08
7.9558584e-09
-5.5070878e-08
8.115814e-09
-5.6649376e-08
8.2705434e-09
-5.8199987e-08
8.4203454e-09
-5.9720641e-08
8.5655655e-09
-6.1209473e-08
8.7065898e-09
-6.2664841e-08
8.8438369e-09
-6.4085329e-08
8.9777494e-09
-6.5469752e-08
9.1087849e-09
-6.6817163e-08
9.2374046e-09
-6.8126848e-08
9.3640614e-09
-6.9398323e-08
9.4891861e-09
-7.0631331e-08
9.6131709e-09
-7.1825831e-08
9.7363501e-09
-7.2981989e-08
9.8589754e-09
-7.4100161e-08
9.9811899e-09
-7.5180877e-08
1.0102973e-08
-7.6224815e-08
1.0224146e-08
-7.7232799e-08
1.0344016e-08
-7.8205695e-08
1.0462634e-08
1.0574602e-08
-1.4951187e-08
3.0736637e-09
-1.6381224e-08
3.3172296e-09
-1.7845618e-08
3.5641861e-09
-1.9343281e-08
3.814233e-09
-2.0872936e-08
4.0668232e-09
-2.2433158e-08
4.3212612e-09
-2.4022338e-08
4.5767998e-09
-2.5638679e-08
4.8326895e-09
-2.728019e-08
5.0881979e-09
-2.8944695e-08
5.3426067e-09
-3.0629837e-08
5.5952194e-09
-3.2333096e-08
5.8453669e-09
-3.4051798e-08
6.0924142e-09
-3.5783138e-08
6.3357672e-09
-3.752419e-08
6.5748791e-09
-3.9271932e-08
6.8092574e-09
-4.1023268e-08
7.0384687e-09
-4.2775047e-08
7.2621444e-09
-4.452409e-08
7.4799838e-09
-4.6267215e-08
7.6917574e-09
-4.8001261e-08
7.8973084e-09
-4.9723115e-08
8.0965541e-09
-5.142974e-08
8.2894847e-09
-5.3118195e-08
8.4761631e-09
-5.4785663e-08
8.6567217e-09
-5.642947e-08
8.8313594e-09
-5.8047108e-08
9.0003372e-09
-5.9636252e-08
9.1639728e-09
-6.1194775e-08
9.3226345e-09
-6.2720764e-08
9.4767336e-09
-6.4212529e-08
9.6267165e-09
-6.5668608e-08
9.7730557e-09
-6.708778e-08
9.9162391e-09
-6.8469061e-08
1.0056759e-08
-6.9811704e-08
1.0195098e-08
-7.11152e-08
1.0331717e-08
-7.2379268e-08
1.0467033e-08
-7.3603849e-08
1.0601404e-08
-7.4789092e-08
1.0735099e-08
-7.5935342e-08
1.0868274e-08
-7.7043124e-08
1.100091e-08
-7.8113113e-08
1.1132816e-08
-7.9146147e-08
1.1263305e-08
-8.0143086e-08
1.13923e-08
1.1514519e-08
-1.5321178e-08
3.3271483e-09
-1.678643e-08
3.5901222e-09
-1.8286707e-08
3.8571156e-09
-1.9820917e-08
4.1275686e-09
-2.1387795e-08
4.4007761e-09
-2.2985893e-08
4.6759768e-09
-2.4613572e-08
4.9523745e-09
-2.6269e-08
5.2291712e-09
-2.7950145e-08
5.5055822e-09
-2.9654786e-08
5.7808372e-09
-3.138052e-08
6.054189e-09
-3.3124777e-08
6.324919e-09
-3.488483e-08
6.5923449e-09
-3.6657815e-08
6.855828e-09
-3.844075e-08
7.1147802e-09
-4.0230551e-08
7.368671e-09
-4.2024057e-08
7.6170335e-09
-4.3818053e-08
7.8594695e-09
-4.5609293e-08
8.0956536e-09
-4.7394526e-08
8.3253364e-09
-4.9170524e-08
8.5483463e-09
-5.0934107e-08
8.7645906e-09
-5.2682169e-08
8.9740549e-09
-5.4411702e-08
9.1768021e-09
-5.6119825e-08
9.3729696e-09
-5.7803799e-08
9.5627656e-09
-5.9461057e-08
9.746465e-09
-6.1089213e-08
9.9244029e-09
-6.2686086e-08
1.0096969e-08
-6.424971e-08
1.0264597e-08
-6.5778346e-08
1.0427762e-08
-6.7270488e-08
1.0586963e-08
-6.8724873e-08
1.0742717e-08
-7.0140478e-08
1.0895545e-08
-7.1516526e-08
1.104596e-08
-7.2852475e-08
1.1194448e-08
-7.4148021e-08
1.1341453e-08
-7.5403081e-08
1.1487353e-08
-7.6617789e-08
1.1632435e-08
-7.7792476e-08
1.1776864e-08
-7.8927659e-08
1.1920628e-08
-8.002401e-08
1.2063519e-08
-8.1082376e-08
1.2204869e-08
-8.2103623e-08
1.2344465e-08
1.2477239e-08
-1.4231272e-08
3.3084045e-09
-1.5695468e-08
3.5863205e-09
-1.7196334e-08
3.8691464e-09
-1.8732905e-08
4.1564972e-09
-2.0304087e-08
4.4476296e-09
-2.1908609e-08
4.7417408e-09
-2.3545001e-08
5.0380069e-09
-2.5211594e-08
5.3355817e-09
-2.6906519e-08
5.6336168e-09
-2.8627706e-08
5.9312751e-09
-3.037289e-08
6.2277347e-09
-3.2139623e-08
6.5221971e-09
-3.3925285e-08
6.8138942e-09
-3.5727095e-08
7.1020963e-09
-3.7542136e-08
7.3861196e-09
-3.9367366e-08
7.6653344e-09
-4.119964e-08
7.9391716e-09
-4.3035734e-08
8.20713e-09
-4.4872368e-08
8.4687811e-09
-4.670623e-08
8.7237738e-09
-4.8534001e-08
8.9718377e-09
-5.0352386e-08
9.2127852e-09
-5.2158136e-08
9.4465123e-09
-5.3948076e-08
9.6729987e-09
-5.5719134e-08
9.8923057e-09
-5.746836e-08
1.0104574e-08
-5.9192954e-08
1.031002e-08
-6.0890283e-08
1.050893e-08
-6.2557906e-08
1.0701656e-08
-6.4193582e-08
1.0888605e-08
-6.5795293e-08
1.1070235e-08
-6.7361247e-08
1.1247044e-08
-6.8889895e-08
1.1419558e-08
-7.0379928e-08
1.158832e-08
-7.1830285e-08
1.175388e-08
-7.3240152e-08
1.1916777e-08
-7.4608958e-08
1.2077523e-08
-7.5936368e-08
1.2236584e-08
-7.7222278e-08
1.239436e-08
-7.84668e-08
1.2551152e-08
-7.9670252e-08
1.2707136e-08
-8.083314e-08
1.2862305e-08
-8.1956131e-08
1.3016439e-08
-8.3040083e-08
1.3168893e-08
-8.4085874e-08
1.331932e-08
1.3462943e-08
-1.4574082e-08
3.5540135e-09
-1.6073618e-08
3.8514339e-09
-1.7610495e-08
4.1544548e-09
-1.9183761e-08
4.4624205e-09
-2.0792322e-08
4.7744801e-09
-2.2434891e-08
5.0897581e-09
-2.4109975e-08
5.4073708e-09
-2.5815875e-08
5.7264203e-09
-2.7550687e-08
6.0460068e-09
-2.9312302e-08
6.3652406e-09
-3.1098415e-08
6.6832481e-09
-3.290653e-08
6.9991794e-09
-3.473398e-08
7.3122171e-09
-3.6577932e-08
7.6215837e-09
-3.8435414e-08
7.9265502e-09
-4.0303325e-08
8.2264446e-09
-4.2178462e-08
8.5206591e-09
-4.4057536e-08
8.808657e-09
-4.5937204e-08
9.0899789e-09
-4.7814087e-08
9.364247e-09
-4.96848e-08
9.6311688e-09
-5.1545979e-08
9.8905393e-09
-5.3394307e-08
1.0142242e-08
-5.5226542e-08
1.0386249e-08
-5.7039542e-08
1.0622618e-08
-5.8830293e-08
1.0851492e-08
-6.0595929e-08
1.1073093e-08
-6.2333756e-08
1.1287718e-08
-6.4041269e-08
1.1495731e-08
-6.5716172e-08
1.1697559e-08
-6.735639e-08
1.1893679e-08
-6.8960082e-08
1.208461e-08
-7.0525646e-08
1.2270902e-08
-7.2051732e-08
1.2453126e-08
-7.3537235e-08
1.2631855e-08
-7.4981305e-08
1.2807653e-08
-7.6383337e-08
1.2981055e-08
-7.7742966e-08
1.3152551e-08
-7.9060061e-08
1.3322557e-08
-8.0334714e-08
1.3491389e-08
-8.1567225e-08
1.3659233e-08
-8.2758087e-08
1.3826088e-08
-8.3907966e-08
1.3991725e-08
-8.5017726e-08
1.415553e-08
-8.6088262e-08
1.4317029e-08
1.4471785e-08
-1.3423548e-08
3.4948632e-09
-1.491992e-08
3.8054104e-09
-1.645516e-08
4.1227232e-09
-1.8028428e-08
4.4461952e-09
-1.9638778e-08
4.7749953e-09
-2.1285105e-08
5.1082052e-09
-2.2966102e-08
5.4448895e-09
-2.4680253e-08
5.784107e-09
-2.6425831e-08
6.124907e-09
-2.8200896e-08
6.4663375e-09
-3.0003303e-08
6.8074565e-09
-3.1830705e-08
7.1473383e-09
-3.3680562e-08
7.4850822e-09
-3.5550158e-08
7.8198209e-09
-3.7436611e-08
8.1507292e-09
-3.9336892e-08
8.4770328e-09
-4.1247846e-08
8.7980169e-09
-4.3166208e-08
9.1130342e-09
-4.5088628e-08
9.4215124e-09
-4.7011698e-08
9.72296e-09
-4.8931974e-08
1.0016971e-08
-5.0846004e-08
1.0303231e-08
-5.2750356e-08
1.0581515e-08
-5.4641644e-08
1.0851692e-08
-5.6516558e-08
1.1113726e-08
-5.8371889e-08
1.1367669e-08
-6.0204556e-08
1.1613665e-08
-6.2011627e-08
1.1851938e-08
-6.3790344e-08
1.2082794e-08
-6.5538141e-08
1.2306609e-08
-6.7252662e-08
1.2523824e-08
-6.8931776e-08
1.2734935e-08
-7.0573588e-08
1.294048e-08
-7.2176448e-08
1.3141031e-08
-7.3738955e-08
1.3337182e-08
-7.5259965e-08
1.3529528e-08
-7.6738586e-08
1.3718657e-08
-7.8174177e-08
1.3905126e-08
-7.9566342e-08
1.4089442e-08
-8.0914922e-08
1.4272039e-08
-8.2219984e-08
1.4453249e-08
-8.3481811e-08
1.4633263e-08
-8.4700883e-08
1.4812089e-08
-8.5877862e-08
1.4989494e-08
-8.7013617e-08
1.5164898e-08
-8.8109068e-08
1.5337717e-08
1.5503886e-08
-1.3736512e-08
3.7326017e-09
-1.5268262e-08
4.0629244e-09
-1.6839574e-08
4.4004265e-09
-1.8449603e-08
4.7445384e-09
-2.0097405e-08
5.0943592e-09
-2.1781862e-08
5.4489166e-09
-2.3501646e-08
5.8072214e-09
-2.5255217e-08
6.1682772e-09
-2.7040818e-08
6.5310798e-09
-2.8856478e-08
6.894625e-09
-3.0700015e-08
7.2579184e-09
-3.256904e-08
7.6199823e-09
-3.4460972e-08
7.9798653e-09
-3.6373046e-08
8.3366504e-09
-3.830233e-08
8.6894646e-09
-4.0245743e-08
9.0374879e-09
-4.2200071e-08
9.3799627e-09
-4.4161992e-08
9.7162016e-09
-4.6128094e-08
1.0045596e-08
-4.8094906e-08
1.0367621e-08
-5.0058916e-08
1.0681843e-08
-5.2016607e-08
1.0987921e-08
-5.3964479e-08
1.1285611e-08
-5.5899078e-08
1.1574767e-08
-5.7817025e-08
1.185534e-08
-5.9715043e-08
1.2127378e-08
-6.1589983e-08
1.2391018e-08
-6.3438848e-08
1.2646491e-08
-6.5258814e-08
1.2894105e-08
-6.7047252e-08
1.3134248e-08
-6.8801748e-08
1.3367371e-08
-7.052011e-08
1.3593986e-08
-7.220039e-08
1.3814649e-08
-7.3840884e-08
1.4029951e-08
-7.5440146e-08
1.4240505e-08
-7.6996984e-08
1.4446929e-08
-7.8510464e-08
1.4649829e-08
-7.9979909e-08
1.4849781e-08
-8.1404888e-08
1.5047312e-08
-8.2785212e-08
1.5242869e-08
-8.4120924e-08
1.5436796e-08
-8.5412285e-08
1.5629296e-08
-8.6659763e-08
1.5820383e-08
-8.7864016e-08
1.6009825e-08
-8.9025917e-08
1.6197082e-08
-9.0146414e-08
1.6381476e-08
1.6559334e-08
-1.4051036e-08
3.9767762e-09
-1.5618553e-08
4.3269536e-09
-1.7226292e-08
4.6847957e-09
-1.8873436e-08
5.0496891e-09
-2.0559038e-08
5.4206834e-09
-2.2281964e-08
5.7967572e-09
-2.4040867e-08
6.1768699e-09
-2.5834184e-08
6.5599708e-09
-2.766013e-08
6.9450027e-09
-2.95167e-08
7.3309092e-09
-3.1401677e-08
7.7166435e-09
-3.3312633e-08
8.1011766e-09
-3.5246944e-08
8.4835062e-09
-3.7201799e-08
8.8626659e-09
-3.9174216e-08
9.2377348e-09
-4.1161062e-08
9.6078472e-09
-4.3159067e-08
9.9722022e-09
-4.516485e-08
1.0330072e-08
-4.7174938e-08
1.0680811e-08
-4.9185797e-08
1.102386e-08
-5.1193851e-08
1.1358756e-08
-5.3195515e-08
1.1685131e-08
-5.5187221e-08
1.2002721e-08
-5.7165447e-08
1.2311362e-08
-5.9126746e-08
1.2610991e-08
-6.1067771e-08
1.2901647e-08
-6.2985307e-08
1.3183464e-08
-6.4876287e-08
1.3456671e-08
-6.6737823e-08
1.3721579e-08
-6.8567223e-08
1.3978583e-08
-7.036201e-08
1.4228145e-08
-7.2119934e-08
1.4470787e-08
-7.3838988e-08
1.4707082e-08
-7.5517418e-08
1.4937637e-08
-7.7153724e-08
1.5163081e-08
-7.8746669e-08
1.538405e-08
-8.0295276e-08
1.5601169e-08
-8.1798826e-08
1.581503e-08
-8.3256854e-08
1.6026175e-08
-8.4669139e-08
1.6235066e-08
-8.6035698e-08
1.6442058e-08
-8.735677e-08
1.6647364e-08
-8.8632809e-08
1.6851005e-08
-8.9864471e-08
1.705276e-08
-9.1052631e-08
1.7252126e-08
-9.2198264e-08
1.7448356e-08
1.7638178e-08
-1.4366554e-08
4.2280496e-09
-1.5970201e-08
4.5978815e-09
-1.7614704e-08
4.9761146e-09
-1.9299291e-08
5.3618898e-09
-2.1023013e-08
5.7541777e-09
-2.2784722e-08
6.151907e-09
-2.4583051e-08
6.5539857e-09
-2.6416413e-08
6.9593101e-09
-2.8282995e-08
7.3667705e-09
-3.0180761e-08
7.7752585e-09
-3.210746e-08
8.1836757e-09
-3.4060624e-08
8.5909418e-09
-3.6037588e-08
8.9960041e-09
-3.8035495e-08
9.3978469e-09
-4.0051316e-08
9.7955016e-09
-4.2081864e-08
1.0188057e-08
-4.4123815e-08
1.0574668e-08
-4.6173729e-08
1.0954566e-08
-4.8228076e-08
1.1327067e-08
-5.0283254e-08
1.1691579e-08
-5.2335626e-08
1.2047607e-08
-5.4381538e-08
1.2394755e-08
-5.6417356e-08
1.2732736e-08
-5.8439489e-08
1.3061367e-08
-6.044442e-08
1.3380569e-08
-6.2428735e-08
1.3690371e-08
-6.4389148e-08
1.39909e-08
-6.6322525e-08
1.4282379e-08
-6.8225913e-08
1.4565124e-08
-7.0096554e-08
1.483953e-08
-7.1931907e-08
1.5106067e-08
-7.3729662e-08
1.5365269e-08
-7.5487755e-08
1.5617717e-08
-7.7204375e-08
1.5864033e-08
-7.8877972e-08
1.610486e-08
-8.0507258e-08
1.634085e-08
-8.2091212e-08
1.6572642e-08
-8.3629074e-08
1.6800844e-08
-8.512034e-08
1.7026009e-08
-8.6564758e-08
1.7248612e-08
-8.7962315e-08
1.746902e-08
-8.931323e-08
1.7687455e-08
-9.0617942e-08
1.790395e-08
-9.1877103e-08
1.8118297e-08
-9.3091592e-08
1.8330034e-08
-9.4262413e-08
1.8538368e-08
1.8740427e-08
-1.3084627e-08
4.1065617e-09
-1.4682525e-08
4.4863807e-09
-1.6322575e-08
4.876015e-09
-1.8004147e-08
5.2747025e-09
-1.9726476e-08
5.6814269e-09
-2.148861e-08
6.0950965e-09
-2.3289386e-08
6.5145886e-09
-2.5127417e-08
6.9387601e-09
-2.7001092e-08
7.3664556e-09
-2.8908572e-08
7.7965139e-09
-3.0847791e-08
8.2277754e-09
-3.2816461e-08
8.6590903e-09
-3.4812079e-08
9.0893278e-09
-3.6831937e-08
9.5173849e-09
-3.8873135e-08
9.9421972e-09
-4.0932596e-08
1.0362748e-08
-4.3007081e-08
1.0778081e-08
-4.5093212e-08
1.1187307e-08
-4.7187493e-08
1.1589616e-08
-4.9286331e-08
1.1984286e-08
-5.1386065e-08
1.2370689e-08
-5.348299e-08
1.2748296e-08
-5.5573389e-08
1.3116686e-08
-5.7653558e-08
1.3475544e-08
-5.9719837e-08
1.3824666e-08
-6.1768641e-08
1.4163957e-08
-6.3796486e-08
1.4493431e-08
-6.5800017e-08
1.4813206e-08
-6.7776031e-08
1.5123501e-08
-6.9721508e-08
1.5424626e-08
-7.1633623e-08
1.5716979e-08
-7.3509771e-08
1.6001034e-08
-7.5347582e-08
1.627733e-08
-7.714493e-08
1.6546458e-08
-7.8899949e-08
1.6809049e-08
-8.0611033e-08
1.7065759e-08
-8.2276846e-08
1.7317251e-08
-8.3896319e-08
1.7564175e-08
-8.5468649e-08
1.7807152e-08
-8.6993293e-08
1.8046746e-08
-8.8469966e-08
1.8283445e-08
-8.9898625e-08
1.8517624e-08
-9.1279467e-08
1.8749516e-08
-9.2612917e-08
1.8979168e-08
-9.3899622e-08
1.9206392e-08
-9.5140465e-08
1.9430768e-08
-9.6336478e-08
1.9651477e-08
1.9866048e-08
-1.3364348e-08
4.3533039e-09
-1.4998272e-08
4.7522317e-09
-1.6674988e-08
5.1617544e-09
-1.8393898e-08
5.5809276e-09
-2.0154238e-08
6.0086396e-09
-2.1955046e-08
6.4437456e-09
-2.3795142e-08
6.8850736e-09
-2.5673119e-08
7.3314311e-09
-2.7587345e-08
7.7816125e-09
-2.9535951e-08
8.2344061e-09
-3.1516844e-08
8.6886019e-09
-3.3527701e-08
9.1429997e-09
-3.5565984e-08
9.5964185e-09
-3.7628943e-08
1.0047706e-08
-3.9713636e-08
1.0495749e-08
-4.1816936e-08
1.0939484e-08
-4.3935557e-08
1.1377908e-08
-4.6066066e-08
1.1810088e-08
-4.8204909e-08
1.2235173e-08
-5.0348435e-08
1.2652402e-08
-5.249292e-08
1.3061109e-08
-5.4634595e-08
1.3460733e-08
-5.6769676e-08
1.3850822e-08
-5.8894392e-08
1.4231034e-08
-6.1005015e-08
1.4601142e-08
-6.3097889e-08
1.4961032e-08
-6.516946e-08
1.5310701e-08
-6.7216302e-08
1.5650256e-08
-6.9235147e-08
1.5979905e-08
-7.1222902e-08
1.6299955e-08
-7.3176676e-08
1.6610801e-08
-7.5093801e-08
1.6912917e-08
-7.6971841e-08
1.7206844e-08
-7.880861e-08
1.7493181e-08
-8.0602183e-08
1.7772564e-08
-8.2350901e-08
1.8045658e-08
-8.4053374e-08
1.8313133e-08
-8.5708485e-08
1.8575652e-08
-8.7315386e-08
1.8833842e-08
-8.8873497e-08
1.9088279e-08
-9.0382493e-08
1.9339458e-08
-9.1842306e-08
1.9587766e-08
-9.3253109e-08
1.9833447e-08
-9.4615311e-08
2.0076564e-08
-9.5929557e-08
2.0316954e-08
-9.7196731e-08
2.0554243e-08
-9.8417893e-08
2.0787604e-08
2.1014958e-08
-1.0434435e-08
3.8087079e-09
-1.2016646e-08
4.2018388e-09
-1.3642894e-08
4.6079645e-09
-1.5313058e-08
5.0261298e-09
-1.7026683e-08
5.4555746e-09
-1.8783174e-08
5.895227e-09
-2.0581763e-08
6.343929e-09
-2.2421473e-08
6.8004896e-09
-2.4301108e-08
7.2636901e-09
-2.6219243e-08
7.7322906e-09
-2.817422e-08
8.2050371e-09
-3.0164147e-08
8.6806687e-09
-3.21869e-08
9.1579261e-09
-3.4240125e-08
9.6355595e-09
-3.6321246e-08
1.0112339e-08
-3.8427475e-08
1.0587063e-08
-4.0555827e-08
1.105857e-08
-4.270313e-08
1.1525749e-08
-4.4866045e-08
1.1987553e-08
-4.7041088e-08
1.2443004e-08
-4.9224649e-08
1.2891209e-08
-5.1413017e-08
1.3331366e-08
-5.3602406e-08
1.3762774e-08
-5.5788983e-08
1.4184835e-08
-5.7968899e-08
1.4597067e-08
-6.0138314e-08
1.4999098e-08
-6.2293431e-08
1.5390677e-08
-6.4430524e-08
1.5771666e-08
-6.6545969e-08
1.6142046e-08
-6.863627e-08
1.6501907e-08
-7.0698087e-08
1.6851446e-08
-7.2728259e-08
1.7190961e-08
-7.4723827e-08
1.7520842e-08
-7.6682056e-08
1.7841559e-08
-7.8600444e-08
1.8153655e-08
-8.0476746e-08
1.8457728e-08
-8.2308975e-08
1.875442e-08
-8.4095416e-08
1.9044399e-08
-8.5834625e-08
1.9328342e-08
-8.7525437e-08
1.9606916e-08
-8.9166958e-08
1.9880759e-08
-9.0758565e-08
2.0150452e-08
-9.22999e-08
2.0416499e-08
-9.3790864e-08
2.0679296e-08
-9.5231606e-08
2.0939101e-08
-9.6622523e-08
2.1195995e-08
-9.7964254e-08
2.1449846e-08
-9.9257685e-08
2.1700324e-08
-1.005039e-07