/*--------------------------------*- C++ -*----------------------------------*\
| =========                 |                                                 |
| \\      /  F ield         | OpenFOAM: The Open Source CFD Toolbox           |
|  \\    /   O peration     | Version:  2312                                  |
|   \\  /    A nd           | Website:  www.openfoam.com                      |
|    \\/     M anipulation  |                                                 |
\*---------------------------------------------------------------------------*/
FoamFile
{
    version     2.0;
    format      ascii;
    arch        "LSB;label=32;scalar=64";
    class       volScalarField;
    location    "0.02";
    object      Qdot;
}
// * * * * * * * * * * * * * * * * * * * * * * * * * * * * * * * * * * * * * //

dimensions      [1 -1 -3 0 0 0 0];

internalField   nonuniform List<scalar> 
3224
(
0.089374095
0.053786575
0.031794175
0.018461499
0.010531524
0.005903426
0.0032524636
0.001761758
0.00093855816
0.00049196937
0.00025385448
0.00012901327
6.46175e-05
3.1916029e-05
1.5556935e-05
7.489751e-06
3.5639868e-06
1.6774098e-06
7.8161e-07
3.6081231e-07
1.6572042e-07
7.5353855e-08
3.377518e-08
1.5407555e-08
6.9065944e-09
2.6059287e-09
9.7102907e-10
6.8573223e-10
3.7447142e-10
-2.7315533e-10
1.2266365e-10
3.4044304e-11
-4.8126456e-10
8.1891517e-11
4.8052318e-12
7.8179317e-11
4.4981818e-12
1.4901313e-10
-4.973978e-10
-4.972773e-10
2.5395412e-13
0.089599285
0.053918818
0.031871456
0.018505922
0.010556573
0.0059172952
0.0032600079
0.0017657947
0.00094068225
0.00049307022
0.00025441564
0.00012929511
6.4757012e-05
3.1984266e-05
1.5590413e-05
7.504914e-06
3.5713668e-06
1.6811994e-06
7.8320946e-07
3.6203327e-07
1.6605969e-07
7.5132403e-08
3.3735643e-08
1.5437301e-08
6.9378991e-09
2.6253798e-09
1.485469e-09
2.0721934e-10
3.0115924e-10
-3.5457878e-10
-3.6761649e-10
1.0730394e-10
-4.8126635e-10
7.2820393e-11
-4.16271e-10
-8.6059938e-14
-4.9391098e-10
1.465125e-10
-4.961475e-10
1.4715111e-10
-3.7662993e-16
0.090146066
0.054238592
0.032055693
0.01861022
0.010614616
0.0059490597
0.0032771106
0.0017748559
0.00094540968
0.00049549859
0.00025564491
0.00012990945
6.5059244e-05
3.2131294e-05
1.5660778e-05
7.5383069e-06
3.5865931e-06
1.6884313e-06
7.870897e-07
3.6313427e-07
1.6678607e-07
7.5963964e-08
3.4326209e-08
1.4973129e-08
6.5176479e-09
2.6812333e-09
9.1702369e-10
1.8699319e-10
-1.2408345e-10
1.4192344e-10
-4.5904041e-10
9.9157259e-11
-4.0800624e-10
-4.8978401e-10
-4.1627175e-10
-4.9849555e-10
-4.9641176e-10
1.465124e-10
1.2442908e-12
-3.5125802e-10
-9.9656428e-10
0.091015371
0.054745996
0.032346629
0.018774234
0.01070556
0.0059986715
0.0033037437
0.001788929
0.00095273149
0.00049925278
0.00025754094
0.00013085352
6.5523354e-05
3.2356092e-05
1.5768339e-05
7.5898612e-06
3.6109908e-06
1.6992455e-06
7.9214545e-07
3.6546541e-07
1.6771097e-07
7.5930261e-08
3.4524255e-08
1.5575369e-08
7.0447344e-09
2.7320775e-09
1.4109475e-09
1.9038815e-10
3.7417859e-10
1.5186082e-10
-4.3092556e-10
-3.9112608e-10
-4.8127567e-10
8.1886715e-11
-4.9860732e-10
-4.1616159e-10
2.4632062e-12
-4.984247e-10
1.4753916e-10
6.2313407e-13
-9.9681861e-10
0.15062744
0.092206625
0.055439313
0.032743263
0.018997404
0.010829101
0.0060659653
0.0033398195
0.001807969
0.00096262731
0.00050431831
0.00026009783
0.0001321256
6.614717e-05
3.2658822e-05
1.5913906e-05
7.6583734e-06
3.6424122e-06
1.7140433e-06
7.989767e-07
3.6908558e-07
1.6867132e-07
7.6949673e-08
3.4395641e-08
1.5742062e-08
6.5404448e-09
3.2281963e-09
9.8479223e-10
7.046285e-10
-1.9769034e-10
-3.6477585e-10
-4.2282521e-10
-3.9114284e-10
-4.0801905e-10
7.281286e-11
7.3064355e-11
3.9816785e-12
1.9969359e-12
-1.5677221e-14
1.2442202e-12
1.4652591e-10
3.1219671e-13
0.15304439
0.093628671
0.056265956
0.033215597
0.019262884
0.010975924
0.0061458725
0.0033826238
0.0018305442
0.00097435214
0.00051031802
0.00026312415
0.00013363089
6.6886318e-05
3.3017204e-05
1.6085079e-05
7.7395038e-06
3.6809509e-06
1.7314957e-06
8.0707981e-07
3.7280773e-07
1.7076366e-07
7.7711093e-08
3.5160087e-08
1.544757e-08
7.1785772e-09
3.278058e-09
9.1033849e-10
7.0410424e-10
3.7375149e-10
1.4353411e-10
-3.4960606e-10
-4.6442658e-10
-4.8129186e-10
7.2809094e-11
-4.9861042e-10
-4.2523337e-10
1.9966064e-12
-4.9842493e-10
1.2441496e-12
-4.979025e-10
3.1219671e-13
0.15576037
0.095230665
0.057196588
0.033747005
0.019561405
0.011140938
0.0062356416
0.0034306922
0.0018558861
0.00098751126
0.00051704976
0.00026651831
0.0001353178
6.7714576e-05
3.3417555e-05
1.6276937e-05
7.8301305e-06
3.7233131e-06
1.751362e-06
8.1626173e-07
3.7635247e-07
1.7219737e-07
7.8045782e-08
3.5634033e-08
1.5504001e-08
7.3168681e-09
2.812909e-09
1.0185514e-09
6.5025817e-10
-1.2491637e-10
2.1668396e-10
6.7350224e-11
9.7221748e-11
1.7107647e-11
7.687396e-11
-4.2534824e-10
7.8176163e-11
-3.498849e-10
-4.9842508e-10
1.4753902e-10
-3.5188324e-10
3.1219083e-13
0.15898562
0.097135002
0.058301902
0.034377857
0.019915652
0.011336691
0.0063421024
0.003487686
0.0018859281
0.0010031075
0.00052502643
0.00027053987
0.00013731807
6.8695398e-05
3.3893247e-05
1.6503975e-05
7.9376892e-06
3.7737843e-06
1.7752438e-06
8.2672355e-07
3.8134228e-07
1.7495808e-07
7.9540627e-08
3.6028307e-08
1.6275085e-08
7.3487777e-09
3.2914618e-09
1.5153813e-09
2.4069418e-10
3.7318617e-10
2.1654913e-10
-3.478519e-10
-3.912112e-10
-4.0804918e-10
7.2799678e-11
-4.253505e-10
-4.9442993e-10
-4.9391263e-10
-4.9592463e-10
1.4652165e-10
-4.9790256e-10
-3.9428445e-16
0.26191132
0.16275429
0.099358609
0.059591671
0.03511374
0.020328784
0.011564938
0.0064662129
0.0035541214
0.0019209426
0.0010212843
0.00053432434
0.00027522772
0.00013964866
6.9838841e-05
3.4447031e-05
1.6768596e-05
8.0631117e-06
3.8320526e-06
1.8018164e-06
8.3886003e-07
3.8691591e-07
1.7697816e-07
8.0772688e-08
3.6520851e-08
1.6471449e-08
6.9460339e-09
3.3598484e-09
1.4928339e-09
7.3829091e-10
2.9956478e-10
2.0638897e-10
-4.311877e-10
-3.993801e-10
1.7082413e-11
7.2793746e-11
3.861204e-12
7.317273e-11
-4.959477e-10
2.0182626e-12
-3.5087026e-10
1.4652582e-10
1.4684012e-10
0.26917323
0.16709567
0.10191765
0.061075373
0.035960103
0.020803874
0.01182739
0.0066089157
0.0036305035
0.0019612011
0.001042184
0.00054501392
0.00028061801
0.00014232945
7.1153511e-05
3.5083642e-05
1.7074129e-05
8.2073122e-06
3.9002164e-06
1.8332307e-06
8.5383306e-07
3.9348361e-07
1.7982246e-07
8.2067744e-08
3.6546991e-08
1.6737122e-08
7.5786761e-09
3.4476016e-09
1.0692921e-09
1.656819e-10
3.8869276e-10
1.3294328e-10
-4.1312718e-10
3.3868041e-11
-4.0807827e-10
-4.1655187e-10
7.3052867e-11
7.3171506e-11
-3.5192101e-10
-4.9592505e-10
2.2611666e-12
-4.977861e-10
-8.5003637e-10
0.43966269
0.27742274
0.17203426
0.1048273
0.062761981
0.036922121
0.021343859
0.012125685
0.0067711104
0.0037173246
0.0020069644
0.0010659433
0.00055716965
0.00028674769
0.00014537796
7.2649896e-05
3.5809155e-05
1.7420504e-05
8.3717143e-06
3.976527e-06
1.8692293e-06
8.7016941e-07
4.0091702e-07
1.8385365e-07
8.3169833e-08
3.735542e-08
1.6573484e-08
7.6381063e-09
3.4051229e-09
1.0498896e-09
2.0089413e-10
-1.7972284e-10
1.4273811e-10
-4.3135963e-10
-3.9131759e-10
-4.8136022e-10
7.7780231e-11
-4.2129035e-10
7.3169999e-11
1.9941583e-12
2.0177447e-12
1.2437494e-12
5.0647234e-13
1.4709443e-10
0.45491852
0.28670675
0.17759273
0.10810154
0.064659796
0.038004595
0.021951472
0.012461357
0.0069536424
0.0038150444
0.00205848
0.001092696
0.00057085877
0.00029365312
0.00014881303
7.4336624e-05
3.6626589e-05
1.7812324e-05
8.5569588e-06
4.0637981e-06
1.9090498e-06
8.8854932e-07
4.0983975e-07
1.8756931e-07
8.5177054e-08
3.8620745e-08
1.6904572e-08
7.3440169e-09
3.078872e-09
1.5255472e-09
1.9968326e-10
-2.0026197e-10
2.1390254e-10
-3.5006084e-10
-4.6462732e-10
-4.8138037e-10
-4.1656863e-10
-4.9862756e-10
-4.2524081e-10
4.4940388e-12
-4.9592562e-10
2.2609312e-12
-4.9841133e-10
3.121614e-13
0.73697553
0.47192042
0.29706023
0.18379151
0.11175287
0.066776217
0.039211822
0.022629164
0.012835786
0.0071572822
0.0039240837
0.0021159772
0.0011225611
0.00058614529
0.00030136686
0.00015265216
7.6221337e-05
3.7540553e-05
1.8250121e-05
8.7642963e-06
4.1604991e-06
1.9545548e-06
9.0883678e-07
4.1891979e-07
1.9145549e-07
8.7247582e-08
3.9444018e-08
1.723105e-08
7.9384887e-09
3.6265733e-09
1.6682862e-09
2.9159003e-10
2.975468e-10
2.1550172e-10
7.6831503e-11
-3.9141476e-10
1.7005957e-11
-4.1657861e-10
-4.1629755e-10
-4.2524279e-10
-4.9845111e-10
-4.9842663e-10
-4.9614833e-10
5.0638995e-13
-4.2370867e-16
0.76739129
0.49073332
0.30851266
0.19064806
0.11579182
0.0691175
0.040547447
0.023379034
0.013250167
0.0073826943
0.0040448136
0.002179657
0.0011556499
0.00060308884
0.00030991931
0.00015690982
7.8314164e-05
3.8555569e-05
1.8736916e-05
8.9944421e-06
4.2690852e-06
2.0047492e-06
9.3243372e-07
4.2990436e-07
1.9623671e-07
8.933755e-08
4.0409933e-08
1.8125067e-08
7.672671e-09
3.6180602e-09
1.6648351e-09
7.3148888e-10
4.0642072e-10
1.6822105e-10
-4.1356991e-10
1.0693635e-10
-4.8549778e-10
-4.0751945e-10
-2.2767279e-13
8.9706585e-12
-4.9845205e-10
-4.9639241e-10
-4.9614847e-10
-4.9790277e-10
2.5389527e-13
1.2330346
0.80078694
0.51139501
0.32108671
0.19817597
0.12022654
0.071688466
0.042014304
0.024202733
0.013705447
0.0076304264
0.00417754
0.0022496898
0.0011920544
0.00062173829
0.00031933822
0.00016160188
8.0620016e-05
3.9674853e-05
1.9273318e-05
9.249132e-06
4.3886712e-06
2.0603206e-06
9.5785244e-07
4.4151853e-07
2.0147739e-07
9.1867058e-08
4.1505177e-08
1.8734701e-08
7.7981979e-09
3.7914907e-09
1.1781662e-09
7.2979555e-10
4.0567386e-10
1.5788877e-10
7.6555434e-11
-4.6480095e-10
-4.1319432e-10
1.7613272e-11
-2.3322808e-13
-4.9444208e-10
-4.959525e-10
-4.9389215e-10
-4.9614863e-10
-4.9841147e-10
-9.9681867e-10
1.2910834
0.83723081
0.53392954
0.33479681
0.20638374
0.1250621
0.074492164
0.043614225
0.025101355
0.014202278
0.0079008584
0.0043224835
0.0023262058
0.0012318488
0.000642135
0.00032964585
0.00016674013
8.3147474e-05
4.0902283e-05
1.9862853e-05
9.528731e-06
4.5197059e-06
2.1214089e-06
9.8607258e-07
4.5425744e-07
2.077402e-07
9.3881525e-08
4.2596244e-08
1.8662253e-08
8.6784835e-09
3.3553508e-09
1.2139344e-09
3.3905891e-10
-1.6682668e-10
-3.4902407e-10
7.452972e-11
1.0680076e-10
-4.8148847e-10
-4.0754581e-10
7.302462e-11
-4.2525004e-10
2.4555324e-12
-1.8784418e-14
-4.9614882e-10
-4.9790289e-10
1.4684006e-10
2.0568303
1.3539881
0.87673198
0.55834349
0.34964703
0.21527368
0.1302999
0.077529507
0.045347828
0.026075327
0.014740953
0.0081941827
0.004479772
0.0024092792
0.0012750786
0.00066430644
0.00034085687
0.0001723331
8.5900499e-05
4.2241381e-05
2.0505604e-05
9.8344912e-06
4.6631932e-06
2.1875561e-06
1.0169631e-06
4.6790037e-07
2.136946e-07
9.6807475e-08
4.4000807e-08
1.9793442e-08
8.8716647e-09
3.9320435e-09
1.7402257e-09
7.9842123e-10
3.6695248e-10
-2.6802432e-10
1.4948006e-10
-3.9168688e-10
-4.0825934e-10
-4.8082513e-10
-4.9865515e-10
7.3156252e-11
2.4542613e-12
-1.9302284e-14
2.2601308e-12
-4.9790296e-10
-4.6490256e-16
2.1631609
1.4217504
0.91926805
0.58462337
0.36562891
0.22484058
0.13593689
0.080798835
0.047214293
0.027124279
0.015321327
0.0085103643
0.0046494074
0.0024989314
0.0013217623
0.00068826636
0.00035298351
0.00017838604
8.8883858e-05
4.3692388e-05
2.1202927e-05
1.0165837e-05
4.8191525e-06
2.2604866e-06
1.0498491e-06
4.8324476e-07
2.2109216e-07
9.9965758e-08
4.4822523e-08
2.0460495e-08
9.1691023e-09
4.0693307e-09
1.3455393e-09
7.9615618e-10
4.3921499e-10
-2.584647e-10
-4.1425067e-10
-3.9177332e-10
-4.8156153e-10
1.3497843e-11
8.8169935e-12
7.8154225e-11
-4.9642225e-10
-3.4940041e-10
-4.9614922e-10
-4.9778652e-10
1.4652745e-10
2.2771199
1.4942959
0.96478133
0.61273176
0.38271908
0.23507023
0.14196477
0.084295498
0.049211099
0.028246902
0.015942751
0.0088490954
0.0048312579
0.0025951055
0.0013718812
0.00071401275
0.00036602415
0.00018490318
9.2097045e-05
4.5257465e-05
2.1956159e-05
1.0523818e-05
4.9877834e-06
2.3387242e-06
1.086664e-06
5.0055561e-07
2.28661e-07
1.0373385e-07
4.6952252e-08
2.0550628e-08
8.9318168e-09
4.2181095e-09
1.9679041e-09
4.048158e-10
-2.400788e-11
2.6760391e-10
7.3941612e-11
-4.5699399e-10
8.506829e-11
8.5811193e-11
8.2072676e-11
-4.2525974e-10
-4.9291442e-14
-4.9842959e-10
-4.9739977e-10
-2.6364095e-15
1.4652744e-10
2.3984576
1.5714864
1.0131699
0.64260261
0.40087658
0.24593801
0.14836917
0.088011332
0.051333755
0.029440799
0.016603988
0.0092097584
0.0050250221
0.0026976627
0.0014253753
0.00074151711
0.00037996973
0.00019187864
9.5541475e-05
4.6937245e-05
2.2766083e-05
1.0909286e-05
5.1695786e-06
2.424014e-06
1.1259775e-06
5.1797796e-07
2.3639956e-07
1.0706813e-07
4.8571561e-08
2.1851227e-08
9.2637495e-09
4.4390473e-09
1.499686e-09
8.6354463e-10
-2.520255e-11
-3.0459796e-10
-3.5143761e-10
-4.6523577e-10
8.5022342e-11
-4.8088096e-10
8.7998569e-12
-4.2526369e-10
-4.9392482e-10
-4.9592971e-10
1.465197e-10
5.0591916e-13
1.4652743e-10
3.8013642
2.5266992
1.653062
1.0642742
0.67413599
0.42004012
0.25740724
0.15512867
0.091934165
0.053575515
0.030702332
0.017303121
0.0095913737
0.005230215
0.0028063707
0.0014821343
0.00077073321
0.00039480021
0.00019930649
9.9213465e-05
4.8729211e-05
2.3630549e-05
1.1322213e-05
5.3641687e-06
2.5146908e-06
1.1674306e-06
5.3729508e-07
2.457367e-07
1.1108332e-07
5.0330393e-08
2.2148688e-08
9.5931377e-09
4.054612e-09
2.0070663e-09
8.9689782e-10
4.719087e-10
1.832335e-10
1.667216e-10
-3.8208244e-10
-4.1343668e-10
-4.1170822e-10
-4.1635508e-10
-4.2526783e-10
-3.4943337e-10
-4.984311e-10
1.0087311e-12
-4.9778678e-10
1.4678173e-10
4.0106267
2.6614548
1.7386779
1.1178718
0.70719333
0.44012522
0.26942754
0.16221391
0.096047273
0.055927074
0.03202644
0.018037467
0.0099925497
0.005446134
0.0029208842
0.0015419935
0.0008015826
0.00041048123
0.00020716999
0.00010310571
5.063215e-05
2.4550024e-05
1.1760898e-05
5.571786e-06
2.6117477e-06
1.2130772e-06
5.5850707e-07
2.550814e-07
1.1529539e-07
5.2328216e-08
2.3549765e-08
9.992466e-09
4.7346439e-09
2.1087702e-09
1.0032728e-09
5.067846e-10
-3.1579969e-10
-3.9708973e-10
4.1075784e-11
1.6655314e-11
-4.0766313e-10
8.2043393e-11
7.3136668e-11
4.4804331e-12
-3.5190396e-10
1.2414661e-12
1.1308658e-12
-5.531752e-16
9.2035113
6.2855066
4.2287922
2.8019581
1.8278654
1.1736686
0.74159269
0.46102142
0.2819332
0.16958662
0.10032883
0.058376261
0.033406484
0.018803485
0.010411438
0.0056718375
0.0030407324
0.0016047239
0.00083395676
0.00042696158
0.00021544757
0.0001072105
5.2642209e-05
2.5523043e-05
1.2226899e-05
5.7921369e-06
2.7155459e-06
1.2611533e-06
5.8054364e-07
2.6524496e-07
1.1990819e-07
5.3813363e-08
2.4471631e-08
1.0887513e-08
4.4566452e-09
1.7684993e-09
9.6287127e-10
5.0526603e-10
2.1007872e-10
1.5614301e-10
-3.7419959e-10
-4.677412e-10
-4.1269057e-10
-4.1637721e-10
-4.2527753e-10
4.4782675e-12
-3.4940423e-10
-4.9716803e-10
1.1307481e-12
1.4683995e-10
14.063333
9.7279605
6.6318592
4.4547065
2.9472806
1.9200304
1.2312921
0.77710423
0.48258956
0.2948416
0.17719871
0.10475143
0.060907765
0.034834089
0.019596686
0.010845691
0.0059061172
0.0031653087
0.001670029
0.00086771463
0.0004441737
0.00022410839
0.00011151307
5.4752854e-05
2.6545705e-05
1.271746e-05
6.0243465e-06
2.8243291e-06
1.3117912e-06
6.0412269e-07
2.7607354e-07
1.2479141e-07
5.6002323e-08
2.5361714e-08
1.0965108e-08
4.5825347e-09
2.3674915e-09
5.3334771e-10
4.4036927e-10
-2.9092143e-10
1.6582277e-10
-4.4760724e-10
9.8866967e-11
-4.1271882e-10
-4.1638973e-10
7.3126028e-11
-5.9225056e-14
1.5103845e-10
-4.9740142e-10
5.0544838e-13
3.1197897e-13
14.869305
10.267471
6.9879236
4.6866058
3.0962741
2.0144414
1.290284
0.81344605
0.50465934
0.30805177
0.18499145
0.10928156
0.063502843
0.036298976
0.020411547
0.011292393
0.0061474718
0.0032938555
0.0017375322
0.00090267305
0.0004620343
0.00023311282
0.00011599442
5.6956775e-05
2.7616587e-05
1.3231327e-05
6.2689638e-06
2.9398935e-06
1.3656456e-06
6.2838353e-07
2.8692438e-07
1.3008147e-07
5.8395977e-08
2.6497416e-08
1.1371801e-08
5.3683635e-09
2.3579457e-09
6.3895174e-10
4.7489566e-10
-2.817004e-10
-3.3479849e-10
-3.7449807e-10
1.0786851e-10
-4.1274952e-10
-4.1640329e-10
-4.9855289e-10
4.4733713e-12
-4.9640027e-10
-4.9716883e-10
-4.9727863e-10
1.4709422e-10
15.692639
10.817385
7.3503498
4.9223278
3.2475524
2.1102186
1.3500948
0.8502807
0.52702722
0.32144315
0.19289477
0.11387924
0.066139104
0.037788846
0.021241443
0.011748047
0.006394088
0.0034254514
0.001806775
0.00093860876
0.00048043321
0.00024241051
0.00012063326
5.9242076e-05
2.8729794e-05
1.3767365e-05
6.5242075e-06
3.0597603e-06
1.4212357e-06
6.5454716e-07
2.9947403e-07
1.3594701e-07
6.0849321e-08
2.7127992e-08
1.2388087e-08
4.9970111e-09
2.4573545e-09
1.1694297e-09
5.6442155e-10
-2.0927368e-10
9.9976328e-11
-4.4792851e-10
-4.6794778e-10
-4.8604625e-10
8.1991324e-11
-4.2029406e-10
-4.9847371e-10
2.007717e-12
1.487851e-10
-4.9727879e-10
1.4652728e-10
16.524499
11.37191
7.7152345
5.1593255
3.3994796
2.2063263
1.4100791
0.88721263
0.549455
0.3348748
0.20082672
0.11849769
0.068790325
0.039289271
0.02207858
0.012208521
0.0066438171
0.003559
0.001877208
0.00097525092
0.00049924262
0.00025194001
0.00012539955
6.1597554e-05
2.987941e-05
1.4323455e-05
6.7897347e-06
3.1853053e-06
1.480777e-06
6.8225643e-07
3.1159891e-07
1.411853e-07
6.4079429e-08
2.889458e-08
1.2456637e-08
5.318135e-09
2.1673034e-09
1.1279597e-09
5.886957e-10
-2.0016639e-10
-3.8069184e-10
-3.7484269e-10
2.9449608e-11
-4.8608165e-10
8.1975694e-11
7.5141419e-11
-3.5194878e-10
-2.8153087e-14
-3.4962453e-10
1.4765812e-10
2.5364222e-13
17.354777
11.92426
8.0780652
5.3946529
3.5501646
2.3015691
1.4694934
0.92378713
0.57166912
0.34818495
0.20869327
0.12308319
0.071426382
0.040783646
0.022913972
0.012669041
0.0068941686
0.0036932244
0.0019481918
0.0010122846
0.00051830808
0.00026162836
0.00013026079
6.400759e-05
3.1060178e-05
1.4894454e-05
7.0640324e-06
3.3158847e-06
1.5417853e-06
7.1080665e-07
3.2524181e-07
1.4726027e-07
6.6797586e-08
3.0011145e-08
1.3446009e-08
5.5314605e-09
2.1722499e-09
7.7061391e-10
5.4958111e-10
2.4030154e-10
1.2729347e-10
-3.7503326e-10
-4.6811237e-10
1.7290877e-11
-4.1645018e-10
7.7634708e-11
-7.0806426e-14
-2.9471292e-14
-4.9615299e-10
-4.9841295e-10
2.5360691e-13
18.171894
12.466662
8.4336993
5.6249616
3.6974621
2.3945942
1.5274979
0.95949113
0.59336126
0.36119131
0.21638847
0.1275752
0.074013244
0.042253186
0.023737429
0.013124173
0.0071422995
0.0038266662
0.002018987
0.0010493438
0.00053745203
0.0002713903
0.00013517696
6.6452661e-05
3.2261667e-05
1.5478648e-05
7.3450733e-06
3.4489422e-06
1.6042904e-06
7.3979382e-07
3.3841355e-07
1.5410646e-07
6.9650076e-08
3.1373805e-08
1.3545454e-08
6.2951984e-09
2.363144e-09
1.2632827e-09
1.3217797e-10
2.4929057e-10
1.2497549e-10
4.9908507e-11
-3.9994081e-10
1.7250201e-11
-4.1646826e-10
4.3628304e-12
1.9604028e-12
1.4649705e-10
-1.2052158e-14
-4.9778796e-10
-9.9681898e-10
18.962763
12.990374
8.7763806
5.8465167
3.8389851
2.483899
1.5831613
0.99375638
0.61419005
0.37369212
0.22379496
0.13190659
0.076513156
0.04367701
0.024537596
0.013567853
0.0073850234
0.0039576772
0.0020887591
0.0010860112
0.00055647126
0.00028112901
0.00014010082
6.8912009e-05
3.347575e-05
1.6071497e-05
7.6308857e-06
3.5855152e-06
1.6695277e-06
7.7056163e-07
3.5291739e-07
1.6011297e-07
7.2138672e-08
3.2737302e-08
1.42666e-08
6.114159e-09
2.4964731e-09
8.8911101e-10
1.1094745e-10
2.6635848e-10
1.1635501e-10
-4.3871388e-10
9.837151e-11
-4.1293971e-10
-4.1648766e-10
7.7618419e-11
4.4572703e-12
-4.9640691e-10
-4.9842173e-10
1.4714888e-10
2.535363e-13
19.712898
13.485767
9.0997945
6.0552339
3.9721295
2.5678476
1.6354711
1.0259654
0.63378471
0.38546815
0.23078517
0.13600429
0.078884948
0.045032301
0.025302039
0.013993418
0.0076188283
0.0040844406
0.0021565839
0.0011218247
0.00057513706
0.00029073245
0.0001449801
7.136026e-05
3.4689588e-05
1.6666864e-05
7.9190734e-06
3.7246504e-06
1.7353906e-06
8.0163835e-07
3.6746178e-07
1.6677716e-07
7.5261323e-08
3.4202537e-08
1.4770015e-08
6.8585478e-09
2.5722569e-09
1.3612347e-09
1.9983722e-10
-1.4177789e-10
-2.8115588e-10
-4.3894325e-10
-3.9513916e-10
-4.1298566e-10
8.1901121e-11
7.5108558e-11
-4.9849084e-10
-4.9390797e-10
-4.9740509e-10
-4.9841356e-10
2.5348922e-13
20.406631
13.942469
9.3971623
6.2467416
4.0941145
2.6446954
1.6833483
1.0554606
0.65175041
0.39628583
0.23722303
0.13979026
0.081084563
0.046294578
0.026017376
0.014393668
0.0078399087
0.0042049759
0.0022214466
0.0011562757
0.00059319699
0.00030007934
0.00014975622
7.3770165e-05
3.5891493e-05
1.7258995e-05
8.2083172e-06
3.8635085e-06
1.8019888e-06
8.3246336e-07
3.8222999e-07
1.7365153e-07
7.8409143e-08
3.5091175e-08
1.6004354e-08
6.6583032e-09
2.6919506e-09
1.5012268e-09
2.0533695e-10
-1.2482786e-10
-3.6495983e-10
5.9223692e-11
9.8159844e-11
-4.0803317e-10
-4.89794e-10
2.30102e-12
-4.9646048e-10
-3.5191705e-10
1.0033171e-12
-4.9790513e-10
-8.5029118e-10
21.027433
14.349576
9.6613797
6.4164696
4.2020382
2.7126246
1.7256695
1.0815575
0.66767583
0.40590162
0.24296646
0.14318284
0.083065787
0.047438093
0.026669484
0.014760984
0.0080442165
0.0043171681
0.0022822607
0.0011888116
0.00061037909
0.00030903494
0.00015436482
7.6112267e-05
3.7067695e-05
1.78422e-05
8.4939737e-06
4.0022052e-06
1.8680119e-06
8.6426681e-07
3.9719996e-07
1.8111857e-07
8.1669196e-08
3.6693773e-08
1.6260702e-08
7.0087578e-09
2.8932418e-09
1.4944493e-09
1.5559537e-10
-1.811998e-10
-3.655244e-10
-4.3130201e-10
-4.6862722e-10
-4.0808496e-10
8.1855926e-11
-4.208197e-10
-4.984996e-10
-4.9391164e-10
1.2355342e-12
-4.896189e-15
-9.1803544e-16
21.558346
14.695937
9.8852011
6.559767
4.2929518
2.7697893
1.7612944
1.1035608
0.6811429
0.41406761
0.24787052
0.14609854
0.084781215
0.048436342
0.027243773
0.015087455
0.008227531
0.004418801
0.0023378808
0.001218852
0.00062638996
0.00031745652
0.0001587362
7.8352245e-05
3.8201e-05
1.8408658e-05
8.7736711e-06
4.1389781e-06
1.93456e-06
8.960192e-07
4.1178555e-07
1.8837208e-07
8.4950648e-08
3.8147822e-08
1.7378341e-08
7.8028249e-09
3.5592515e-09
1.560712e-09
6.9742273e-10
-1.9064058e-10
2.2369831e-10
-3.5830544e-10
-3.9141533e-10
-4.1220895e-10
-4.8984164e-10
-4.2536585e-10
-4.9396908e-10
-3.96403e-14
-3.5064635e-10
-3.5137771e-10
-9.9656488e-10
21.982524
14.970506
10.061468
6.6720468
4.3639507
2.8143721
1.7890998
1.1207852
0.69173886
0.42053847
0.25179138
0.1484542
0.086183469
0.049262717
0.02772552
0.015365057
0.0083855487
0.0045076006
0.002387125
0.0012457924
0.0006409264
0.00032519159
0.00016279639
8.0455462e-05
3.9275159e-05
1.8951042e-05
9.0438278e-06
4.2720261e-06
1.9995011e-06
9.2728351e-07
4.2668378e-07
1.949082e-07
8.8840991e-08
4.024365e-08
1.7631983e-08
7.6726582e-09
3.1548038e-09
1.1446465e-09
7.3073524e-10
3.326935e-10
-3.4859094e-10
-3.5858603e-10
1.0686686e-10
-4.1319827e-10
-4.8986725e-10
-4.2334293e-10
1.9344154e-12
-4.9845092e-10
-4.9615788e-10
-4.9778942e-10
-1.0357323e-15
22.28388
15.16277
10.183379
6.7489572
4.412281
2.8446497
1.8080197
1.1325792
0.69907027
0.42507962
0.25459099
0.15016964
0.087226616
0.049891277
0.028100285
0.015585877
0.0085139918
0.0045812923
0.0024288015
0.0012690163
0.00065367489
0.00033208581
0.00016646937
8.2382993e-05
4.0273678e-05
1.9460328e-05
9.3010039e-06
4.4002698e-06
2.0618212e-06
9.5775192e-07
4.4124168e-07
2.0191577e-07
9.2161605e-08
4.1196175e-08
1.8897324e-08
8.4499781e-09
3.3749884e-09
1.1942679e-09
3.3881146e-10
-6.7572633e-11
2.3058102e-10
-4.3214189e-10
-4.6493955e-10
-4.8559081e-10
-4.8989456e-10
-4.2085416e-10
-1.0564469e-13
-4.4065701e-14
-4.9740905e-10
5.0290612e-13
-1.0945807e-15
22.447819
15.263212
10.244793
6.7865735
4.4354592
2.8590667
1.8170902
1.1383516
0.70277884
0.42747638
0.25614227
0.15117061
0.087867827
0.050297651
0.028354397
0.015742349
0.0086087398
0.0046376644
0.0024617406
0.0012879173
0.00066432563
0.00033798167
0.0001696771
8.4099363e-05
4.1176741e-05
1.992854e-05
9.5395913e-06
4.5203642e-06
2.1221273e-06
9.8766938e-07
4.5562678e-07
2.0881569e-07
9.5412434e-08
4.2834238e-08
1.9644078e-08
8.299041e-09
4.0238384e-09
1.7584418e-09
2.8869251e-10
-5.9011837e-11
-2.5848843e-10
-4.1430415e-10
1.1066489e-10
-4.1739063e-10
-4.166594e-10
-4.1633173e-10
1.4641683e-10
-4.9845554e-10
-4.9842729e-10
1.4714702e-10
-1.1416595e-15
22.46201
15.263824
10.240552
6.7816017
4.4313994
2.8563137
1.8154966
1.1376006
0.70255833
0.42754387
0.25633484
0.15139196
0.088069145
0.05046001
0.028475466
0.015827543
0.0086659742
0.0046746435
0.0024848353
0.0013019108
0.00067257552
0.00034272508
0.00017234158
8.5563911e-05
4.1965946e-05
2.0346221e-05
9.7567502e-06
4.6314296e-06
2.1780866e-06
1.0150955e-06
4.6930052e-07
2.1595104e-07
9.8629954e-08
4.4818708e-08
1.9876558e-08
9.1648971e-09
4.1171837e-09
1.9336635e-09
4.1504959e-10
3.827971e-10
1.6597652e-10
-3.4635443e-10
3.3187847e-11
-4.1745654e-10
8.1720151e-11
-4.1634548e-10
-3.4949768e-10
-4.9845817e-10
-4.9842823e-10
6.1875575e-13
-1.2122776e-15
22.317186
15.158616
10.166807
6.7315841
4.3985415
2.8354066
1.8026222
1.1299423
0.69817177
0.4251371
0.25508085
0.15078104
0.087799365
0.050360099
0.028452964
0.015835472
0.0086823366
0.0046903768
0.0024970791
0.0013104601
0.00067814222
0.00034616936
0.00017438826
8.6741425e-05
4.262356e-05
2.0704172e-05
9.9485445e-06
4.7318329e-06
2.2295526e-06
1.0414814e-06
4.8281974e-07
2.2217963e-07
1.0171998e-07
4.6260128e-08
2.1054365e-08
9.087447e-09
4.3570645e-09
1.9260318e-09
9.5464521e-10
-2.5709871e-11
1.8342144e-10
-4.1994004e-10
3.3039831e-11
1.6691282e-11
8.1689267e-11
-4.1635923e-10
-4.9649767e-10
-4.9846071e-10
-4.9741206e-10
-4.9779078e-10
-9.9681951e-10
22.007878
14.944092
10.021325
6.6350927
4.3359725
2.7957611
1.7780936
1.1151387
0.68946804
0.4201607
0.25232063
0.1493009
0.08703589
0.049984276
0.028278775
0.015761387
0.0086550961
0.0046833182
0.002497612
0.001313095
0.00068077351
0.00034818177
0.00017575001
8.7594851e-05
4.3131916e-05
2.099533e-05
1.0109336e-05
4.8179039e-06
2.2752315e-06
1.0645841e-06
4.9465597e-07
2.2823468e-07
1.0413963e-07
4.7702932e-08
2.1253399e-08
9.3098663e-09
4.4505529e-09
1.5846719e-09
4.7112596e-10
4.2419302e-10
-2.3243074e-10
7.9071975e-11
-4.6552182e-10
-4.0852429e-10
-4.1675224e-10
8.203539e-11
1.4639838e-10
-4.9619573e-10
9.9592571e-13
-4.9790762e-10
1.467809e-10
21.533056
14.619658
9.8037466
6.4918943
4.2435293
2.7372576
1.7418207
1.0931218
0.6763965
0.41257773
0.24802789
0.14693334
0.085766444
0.049324493
0.027947756
0.015602081
0.0085823043
0.0046523146
0.002485766
0.001309437
0.00068025984
0.00034864881
0.00017636419
8.8095106e-05
4.3474794e-05
2.12097e-05
1.0235519e-05
4.8896935e-06
2.3137677e-06
1.0853985e-06
5.0494993e-07
2.3328112e-07
1.0742936e-07
4.8601582e-08
2.1917076e-08
1.021438e-08
4.1561555e-09
2.0836675e-09
5.2230522e-10
-1.0617383e-11
-2.2500945e-10
-3.3826998e-10
5.0872303e-11
-4.0859623e-10
-4.9004935e-10
-4.163886e-10
-4.9401022e-10
-4.9846655e-10
2.2451127e-12
-4.9790805e-10
-1.4359016e-15
20.896579
14.187923
9.5157776
6.3030706
4.1218757
2.6602889
1.6940266
1.0640122
0.65901841
0.40241661
0.24221391
0.14368136
0.083990546
0.048379129
0.027458208
0.015356163
0.0084629487
0.0045966813
0.0024611043
0.0012992209
0.00067644418
0.00034748283
0.00017618377
8.8213544e-05
4.3638238e-05
2.1341918e-05
1.0324913e-05
4.944689e-06
2.3454404e-06
1.1034956e-06
5.1498254e-07
2.3811934e-07
1.0995199e-07
4.9878347e-08
2.306245e-08
1.0532162e-08
4.7287484e-09
2.2046412e-09
9.7052231e-10
2.4140635e-11
-2.9899353e-10
-3.2860641e-10
-4.5176457e-10
9.3808263e-11
-4.1681928e-10
8.7409143e-12
-4.9401719e-10
1.4646768e-10
9.9366593e-13
1.125899e-12
5.6537403e-13
20.107427
13.654833
9.161281
6.0710788
3.9725413
2.5657859
1.6352645
1.0281303
0.63751399
0.38977558
0.23493034
0.13957095
0.081720562
0.047153635
0.026812254
0.015024272
0.0082970754
0.0045162788
0.002423466
0.001282315
0.00066923713
0.00034462274
0.00017517153
8.7930774e-05
4.3611657e-05
2.1383839e-05
1.0372863e-05
4.9803858e-06
2.368666e-06
1.117367e-06
5.2278087e-07
2.4293737e-07
1.121372e-07
5.1542446e-08
2.3624667e-08
1.0758248e-08
4.4553624e-09
1.7271641e-09
1.0036601e-09
-3.2489676e-11
-2.8156971e-10
-4.0221085e-10
-4.5285709e-10
8.9663363e-11
8.6090043e-11
8.1988688e-11
-4.9402453e-10
-6.3462142e-14
-4.9616645e-10
-3.5138091e-10
1.5468894e-13
19.179646
13.029638
8.7462516
5.7997381
3.7979159
2.4552162
1.5664179
0.98599701
0.61218382
0.374824
0.2262702
0.13465185
0.078982262
0.045660904
0.026016082
0.014609225
0.0080858812
0.004411562
0.0023729899
0.0012587381
0.00065861879
0.0003400467
0.00017331025
8.7234179e-05
4.3385556e-05
2.1332843e-05
1.037723e-05
4.9964336e-06
2.3837167e-06
1.1272198e-06
5.2846066e-07
2.4645515e-07
1.1413378e-07
5.2608285e-08
2.3713351e-08
1.0598103e-08
5.0862668e-09
1.7934908e-09
5.3034673e-10
4.644438e-10
2.8125466e-10
1.0399845e-10
1.1958687e-10
-3.9975061e-10
-4.1235485e-10
8.7085241e-12
-3.4750394e-10
9.5063596e-13
1.4650167e-10
-4.9841797e-10
-1.6948347e-15
18.132023
12.324638
8.2786615
5.4941353
3.6011932
2.3305514
1.4886828
0.93832464
0.58344391
0.35780001
0.21636693
0.12899712
0.075814717
0.043921291
0.025079998
0.014116074
0.0078317552
0.0042836117
0.0023101359
0.001228673
0.00064465205
0.00033377116
0.00017059943
8.6119961e-05
4.2958211e-05
2.118595e-05
1.033641e-05
4.9917249e-06
2.3880576e-06
1.1325447e-06
5.3285485e-07
2.4868028e-07
1.1530225e-07
5.3468669e-08
2.412467e-08
1.1254246e-08
5.219663e-09
1.9415649e-09
6.4511132e-10
5.6442004e-10
-2.0971207e-10
1.7285726e-10
-3.7898269e-10
-3.9982745e-10
8.8519494e-11
-4.942524e-10
4.3698922e-12
-4.9722866e-10
-3.5190877e-10
-4.9779337e-10
2.8166305e-13
16.987549
11.55475
7.7681724
5.160447
3.3862639
2.1942042
1.4035309
0.88599557
0.55181407
0.33900418
0.20539102
0.12270155
0.072269527
0.041962261
0.024018282
0.013552061
0.0075382656
0.0041341354
0.0022356964
0.0011924693
0.00062748582
0.0003258547
0.00016705939
8.4593491e-05
4.2329072e-05
2.0941562e-05
1.0249128e-05
4.9657833e-06
2.383148e-06
1.1341937e-06
5.3553766e-07
2.510398e-07
1.1647957e-07
5.3661299e-08
2.4501615e-08
1.0989448e-08
5.3378415e-09
1.9823761e-09
1.1689055e-09
5.8932543e-10
-2.6550928e-10
1.7252809e-10
-4.5740686e-10
-3.9990277e-10
1.2718735e-11
7.9438339e-11
4.3621713e-12
-4.9723205e-10
-4.9843812e-10
-9.7923781e-15
2.815689e-13
15.772523
10.736931
7.2257281
4.8056854
3.1575613
2.0489352
1.3126546
0.83003057
0.51789972
0.31878944
0.19354456
0.11587873
0.068409297