/*--------------------------------*- C++ -*----------------------------------*\
| =========                 |                                                 |
| \\      /  F ield         | OpenFOAM: The Open Source CFD Toolbox           |
|  \\    /   O peration     | Version:  2312                                  |
|   \\  /    A nd           | Website:  www.openfoam.com                      |
|    \\/     M anipulation  |                                                 |
\*---------------------------------------------------------------------------*/
FoamFile
{
    version     2.0;
    format      ascii;
    arch        "LSB;label=32;scalar=64";
    class       volScalarField;
    location    "0.02";
    object      T;
}
// * * * * * * * * * * * * * * * * * * * * * * * * * * * * * * * * * * * * * //

dimensions      [0 0 0 1 0 0 0];

internalField   nonuniform List<scalar> 
3224
(
574.53904
565.6712
556.75324
547.80187
538.83421
529.86743
520.91867
512.00489
503.14266
494.34807
485.63661
477.02299
468.52113
460.14402
451.90369
443.81113
435.87625
428.1079
420.51381
413.10064
405.87397
398.83835
391.99733
385.35349
378.90854
372.66334
366.61795
360.77176
355.12349
349.67127
344.41274
339.34507
334.46504
329.7691
325.2534
320.91389
316.74632
312.74631
308.90937
305.23095
301.70649
574.54112
565.6741
556.7563
547.80501
538.83746
529.87081
520.92218
512.00851
503.14637
494.35186
485.64044
477.02685
468.525
460.14788
451.90752
443.8149
435.87995
428.11152
420.51733
413.10405
405.87726
398.84152
392.00036
385.35638
378.91128
372.66592
366.62038
360.77403
355.12559
349.67321
344.41451
339.34667
334.46648
329.77036
325.2545
320.91482
316.74709
312.7469
308.90979
305.2312
301.70657
574.52184
565.65665
556.74021
547.79026
538.82401
529.85863
520.91121
511.9987
503.13766
494.34418
485.63373
477.02104
468.52001
460.14366
451.90399
443.81201
435.87765
428.10973
420.51601
413.10314
405.87672
398.84128
392.0004
385.35665
378.91174
372.66654
366.62113
360.77487
355.1265
349.67416
344.41548
339.34763
334.46741
329.77125
325.25532
320.91556
316.74773
312.74743
308.91018
305.23145
301.70666
574.48063
565.61834
556.7046
547.75725
538.79351
529.83054
520.88545
511.97516
503.11624
494.32476
485.6162
477.00529
468.50593
460.13113
451.89292
443.80228
435.86915
428.10237
420.50969
413.09777
405.8722
398.83754
391.99734
385.35421
378.90985
372.66513
366.62013
360.77423
355.12617
349.67408
344.4156
339.34792
334.46781
329.77173
325.25585
320.9161
316.74824
312.74788
308.91055
305.23169
301.70675
583.2096
574.41752
565.55927
556.64954
547.70605
538.74603
529.78663
520.84496
511.93795
503.08215
494.29365
485.5879
476.97965
468.4828
460.11036
451.87434
443.78574
435.8545
428.08948
420.49841
413.08796
405.86375
398.83031
391.99123
385.3491
378.90564
372.66171
366.61742
360.77214
355.12461
349.67298
344.4149
339.34754
334.4677
329.77182
325.25609
320.91644
316.74862
312.74827
308.91088
305.23193
301.70685
583.12323
574.33746
565.4842
556.57946
547.64078
538.68538
529.73042
520.79301
511.89008
503.03819
494.2534
485.55118
476.94627
468.45256
460.08307
451.84982
443.7638
435.83497
428.07217
420.48315
413.0746
405.85212
398.82027
391.98262
385.34179
378.8995
372.65662
366.61327
360.76881
355.12201
349.67102
344.41348
339.34658
334.46712
329.77155
325.25606
320.91658
316.74888
312.74857
308.91117
305.23215
301.70694
583.023
574.24385
565.39636
556.49739
547.56427
538.61421
529.66439
520.73191
511.83371
502.98633
494.20584
485.50771
476.90667
468.41662
460.05057
451.82054
443.73754
435.81152
428.05132
420.46472
413.05838
405.83794
398.80796
391.97201
385.33272
378.89182
372.6502
366.60796
360.7645
355.11858
349.66835
344.41148
339.34514
334.46616
329.77099
325.2558
320.91656
316.74902
312.7488
308.91143
305.23236
301.70704
582.90099
574.12936
565.28899
556.39702
547.47064
538.52706
529.58345
520.65696
511.76448
502.92258
494.14733
485.45417
476.85783
468.37223
460.01037
451.78427
443.70495
435.78236
428.02535
420.44169
413.03808
405.82014
398.79245
391.95859
385.32121
378.88203
372.64195
366.6011
360.75888
355.11405
349.66478
344.40874
339.34313
334.46476
329.77009
325.25531
320.91638
316.74906
312.74898
308.91166
305.23257
301.70713
591.43418
582.75541
573.99251
565.16069
556.27701
547.35863
538.42272
529.48651
520.56712
511.68145
502.84607
494.07703
485.38978
476.79906
468.31875
459.96189
451.74048
443.66555
435.74705
427.99385
420.41372
413.01337
405.79843
398.77349
391.94215
385.30705
378.86994
372.63174
366.59256
360.75184
355.10834
349.66024
344.40522
339.34049
334.46286
329.76882
325.25455
320.91601
316.74899
312.7491
308.91188
305.23277
301.70724
591.25114
582.58432
573.83173
565.00993
556.13594
547.22688
538.29995
529.37238
520.46129
511.58359
502.75583
493.99406
485.31374
476.72959
468.2555
459.90448
451.68858
443.61881
435.70512
427.95639
420.38042
412.98391
405.7725
398.7508
391.92243
385.29003
378.85538
372.61938
366.5822
360.74326
355.10133
349.65463
344.40083
339.33716
334.46043
329.76714
325.25349
320.91545
316.74879
312.74915
308.91206
305.23298
301.70735
599.59073
591.04017
582.38604
573.64539
564.83514
555.9723
547.07398
538.1574
529.2398
520.33829
511.46979
502.65084
493.89749
485.22518
476.64862
468.18172
459.83749
451.62796
443.56416
435.65605
427.91252
420.34137
412.94932
405.74202
398.72409
391.89917
385.26992
378.83812
372.60471
366.56986
360.73299
355.09292
349.64786
344.39549
339.33306
334.45741
329.76502
325.25211
320.91466
316.74845
312.74912
308.91221
305.23317
301.70746
599.33433
590.79881
582.15879
573.43174
564.63463
555.78448
546.89842
537.99366
529.08744
520.19689
511.33892
502.53004
493.78631
485.12316
476.55531
468.09664
459.76018
451.55796
443.50101
435.59931
427.86174
420.29612
412.90919
405.70661
398.69303
391.87208
385.24646
378.81796
372.58753
366.55536
360.7209
355.08298
349.63981
344.38912
339.32814
334.45373
329.76239
325.25036
320.91361
316.74794
312.749
308.91231
305.23335
301.70757
607.44367
599.0446
590.52497
581.90069
573.18893
564.40665
555.57083
546.69861
537.80722
528.9139
520.03577
511.18972
502.39228
493.65947
485.00672
476.44874
467.99943
459.67179
451.47788
443.42872
435.53429
427.80351
420.24419
412.8631
405.6659
398.65727
391.84086
385.21937
378.79464
372.56762
366.53852
360.70683
355.07136
349.63038
344.3816
339.32229
334.44932
329.75921
325.2482
320.91227
316.74724
312.74875
308.91235
305.23351
301.70769
607.09958
598.71859
590.21653
581.60972
572.91503
564.14931
555.32955
546.47288
537.59652
528.7177
519.85354
511.02092
502.23634
493.51583
484.8748
476.32795
467.88918
459.5715
451.38696
443.34659
435.46038
427.73726
420.18507
412.81057
405.61947
398.61644
391.80516
385.18837
378.7679
372.54475
366.51915
360.69059
355.05792
349.61942
344.37284
339.31544
334.44412
329.75542
325.24557
320.9106
316.74631
312.74837
308.91232
305.23365
301.7078
614.94205
606.71551
598.35386
589.87123
581.28374
572.60797
563.86067
555.0588
546.21947
537.35989
528.49728
519.64875
510.83114
502.06096
493.35421
484.7263
476.19193
467.76497
459.45845
451.28441
443.2539
435.37692
427.66241
420.11821
412.75112
405.56686
398.57013
391.76463
385.15312
378.73746
372.51868
366.49701
360.67199
355.04249
349.60681
344.3627
339.30747
334.43803
329.75093
325.24243
320.90856
316.74513
312.74783
308.91221
305.23375
301.7079
614.49255
606.28816
597.94788
589.48669
580.92048
572.26559
563.53867
554.75662
545.93653
537.09559
528.25101
519.41984
510.61895
501.86479
493.17337
484.56008
476.03959
467.62581
459.33172
451.1694
443.14989
435.2832
427.57829
420.04302
412.68421
405.5076
398.51792
391.71888
385.11329
378.70302
372.48913
366.47188
360.65084
355.02489
349.59237
344.35106
339.29828
334.43097
329.74568
325.23871
320.90609
316.74366
312.7471
308.91198
305.2338
301.708
622.0294
613.99562
605.81477
597.49804
589.06042
580.51756
571.88562
563.18114
554.42096
545.62213
536.8018
527.97715
519.16522
510.38282
501.64642
492.97198
484.37489
475.86981
467.47062
459.19034
451.04102
443.03372
435.17847
427.48423
419.95889
412.60929
405.44119
398.45934
391.66751
385.06851
378.66424
372.45581
366.4435
360.62689
355.00493
349.57595
344.33777
339.28775
334.42282
329.73958
325.23434
320.90314
316.74184
312.74615
308.91163
305.23379
301.70808
621.45571
613.44773
605.2925
597.00159
588.58977
580.07247
571.46568
562.78583
554.04968
545.27423
536.4766
527.6739
518.88317
510.12118
501.40436
492.74866
484.16945
475.68138
467.29832
459.03329
450.89834
442.90454
435.06193
427.3795
419.86515
412.52574
405.36707
398.39392
391.61007
385.01838
378.62078
372.41841
366.41158
360.59992
354.98239
349.55736
344.32268
339.27573
334.41347
329.73254
325.22924
320.89965
316.73965
312.74495
308.91114
305.23371
301.70815
620.82466
612.84552
604.71832
596.45565
588.072
579.58259
571.00328
562.35037
553.64054
544.89072
536.11797
527.33938
518.57192
509.83235
501.13705
492.50195
483.9424
475.47304
467.10773
458.85948
450.74035
442.76142
434.93275
427.26333
419.7611
412.43293
405.28467
398.32111
391.54609
384.96248
378.57226
372.37659
366.37584
360.56966
354.95705
349.53641
344.30562
339.26209
334.40281
329.72445
325.22333
320.89556
316.73702
312.74346
308.91046
305.23355
301.7082
620.13315
612.18556
604.0891
595.85721
587.50423
579.04521
570.49583
561.8723
553.19119
544.46937
535.72384
526.97161
518.22962
509.51458
500.84285
492.23032
483.69232
475.24346
466.89762
458.66778
450.56601
442.6034
434.79003
427.1349
419.64599
412.33019
405.19337
398.24038
391.47507
384.90036
378.51827
372.33
366.33596
360.53583
354.92865
349.51287
344.28639
339.24666
334.3907
329.7152
325.21652
320.89078
316.73391
312.74163
308.90958
305.23328
301.70822
627.13394
619.37902
611.46461
603.40158
595.20316
586.8835
578.45748
569.94063
561.34905
552.69921
544.00789
535.292
526.56852
517.85432
509.16606
500.52005
491.93217
483.4177
474.99126
466.66669
458.45698
450.3742
442.42946
434.63283
426.99336
419.51904
412.21679
405.09253
398.15112
391.39647
384.83153
378.45838
372.27825
366.29159
360.49813
354.89694
349.48651
344.2648
339.22927
334.37699
329.70467
325.2087
320.88525
316.73023
312.73942
308.90846
305.23289
301.70821
626.27567
618.55749
610.67916
602.6524
594.49028
586.20672
577.81646
569.33489
560.77797
552.16207
543.50387
534.8202
526.12798
517.444
508.78487
500.16687
491.60583
483.117
474.71498
466.41359
458.22583
450.16377
442.23852
434.46017
426.8378
419.37941
412.09198
404.98144
398.0527
391.30972
384.7555
378.39214
372.22093
366.24237
360.45622
354.86163
349.4571
344.24063
339.20973
334.36152
329.69272
325.19978
320.87886
316.72593
312.73678
308.90707
305.23236
301.70816
640.18661
632.85372
625.34416
617.66481
609.82557
601.8381
593.71522
585.47071
577.11912
568.67571
560.1563
551.57715
542.95482
534.30609
525.64775
516.99655
508.36905
499.78145
491.24955
482.78857
474.41309
466.13691
457.97302
449.9335
442.02945
434.27101
426.66726
419.22623
411.95495
404.85937
397.94447
391.21423
384.6717
378.31905
372.1576
366.1879
360.40978
354.8224
349.42434
344.21364
339.18785
334.34412
329.67921
325.18962
320.87152
316.72093
312.73365
308.90537
305.23167
301.70807
646.1938
639.09074
631.80191
624.33439
616.69707
608.90013
600.95509
592.87458
584.67219
576.36233
567.96011
559.4812
550.94174
542.35819
533.74722
525.12553
516.50981
507.91653
499.36186
490.86152
482.43073
474.08401
465.83516
457.69717
449.6821
441.80108
434.06425
426.48073
419.05858
411.80485
404.72556
397.82571
391.10935
384.57957
378.23859
372.08779
366.12777
360.35842
354.77894
349.38797
344.18359
339.16341
334.3246
329.66399
325.17809
320.86314
316.71515
312.72997
308.90332
305.23079
301.70792
644.96582
637.90732
630.66427
623.24217
615.65033
607.89905
599.99973
591.96484
583.80782
575.54289
567.18502
558.74975
550.25307
541.71133
533.14108
524.55895
515.98152
507.4252
498.90609
490.43987
482.0417
473.72609
465.50682
457.39684
449.40825
441.55217
433.83876
426.27716
418.87549
411.64081
404.57919
397.6957
390.99441
384.47849
378.15022
372.01101
366.06154
360.30175
354.7309
349.34767
344.15021
339.13617
334.30277
329.64689
325.16506
320.85358
316.70849
312.72567
308.90086
305.22969
301.70771
643.6411
636.6309
629.43662
622.06342
614.5206
606.81846
598.9683
590.98245
582.87416
574.65752
566.34732
557.95896
549.50829
541.01153
532.48511
523.94556
515.40938
506.89288
498.41209
489.98266
481.61968
473.33763
465.15027
457.07056
449.11056
441.28144
433.59335
426.05547
418.67594
411.46189
404.41942
397.55365
390.86871
384.36784
378.05334
371.92674
365.98874
360.23935
354.6779
349.30312
344.11321
339.10588
334.27841
329.62771
325.15038
320.84273
316.70086
312.72068
308.89796
305.22834
301.70742
642.21538
635.25692
628.1148
620.79405
613.30386
605.65447
597.85705
589.92378
581.86775
573.70289
565.44382
557.10578
548.70448
540.256
531.77666
523.28286
514.791
506.3173
497.87775
489.48789
481.16278
472.91687
464.76389
456.71678
448.78761
440.98755
433.32678
425.8145
418.45889
411.26712
404.24535
397.39875
390.73151
384.24692
377.94737
371.83443
365.90888
360.17078
354.61955
349.25397
344.07229
339.07229
334.2513
329.60628
325.13388
320.83046
316.69216
312.71492
308.89455
305.22672
301.70706
640.68422
633.78098
626.69457
619.42992
611.99608
604.40315
596.66217
588.78517
580.78508
572.67562
564.47128
556.18712
547.8387
539.44195
531.01305
522.56829
514.12396
505.6962
497.30088
488.9535
480.66908
472.462
464.34596
456.33391
448.43791
440.66912
433.03777
425.55306
418.22324
411.0555
404.05606
397.23015
390.58202
384.11503
377.83165
371.73349
365.82143
360.09559
354.55544
349.19984
344.02712
339.0351
334.22119
329.58239
325.1154
320.81663
316.68227
312.70831
308.89057
305.22479
301.7066
639.04309
632.19868
625.17167
617.9669
610.59323
603.06059
595.37989
587.56298
579.62261
571.57234
563.42646
555.19986
546.90795
538.5665
530.19155
521.79927
513.40581
505.02721
496.67928
488.37743
480.1366
471.97116
463.89476
455.92034
448.05994
440.32475
432.725
425.26995
417.96785
410.82598
403.85058
397.04696
390.41945
383.97145
377.70551
371.62333
365.72585
360.01327
354.48513
349.14037
343.97737
338.99403
334.18782
329.5558
325.09474
320.80108
316.67108
312.70075
308.88597
305.22251
301.70603
637.28751
630.50569
623.5419
616.40088
609.0913
601.6229
594.00643
586.25356
578.37683
570.38964
562.30609
554.14088
545.90925
537.6268
529.30944
520.97317
512.63405
504.308
496.01071
487.75754
479.56336
471.44247
463.40852
455.47439
447.65215
439.95298
432.38713
424.96389
417.69157
410.57748
403.62793
396.84829
390.24295
383.8154
377.56826
371.50332
365.62157
359.92331
354.40816
349.07513
343.92268
338.94877
334.15093
329.52631
325.07171
320.78367
316.65845
312.69215
308.88068
305.21984
301.70535
635.4131
628.69774
621.8011
614.72783
607.48636
600.08627
592.53809
584.85331
577.04428
569.12419
561.10694
553.00707
544.8396
536.62
528.36397
520.0874
511.8062
503.53618
495.29293
487.09171
478.94732
470.87403
462.88542
454.99438
447.21295
439.55232
432.02277
424.63361
417.3932
410.30889
403.38708
396.63318
390.05167
383.6461
377.41919
371.3728
365.50801
359.8252
354.32407
349.00371
343.86266
338.89897
334.11023
329.49366
325.04612
320.76421
316.64426
312.68241
308.87463
305.21675
301.70454
633.41564
626.77074
619.94528
612.94383
605.77461
598.44697
590.97125
583.35873
575.62155
567.7727
559.82586
551.79537
543.69608
535.54325
527.35244
519.13936
510.91978
502.70939
494.52367
486.37779
478.28647
470.26392
462.32368
454.47861
446.74074
439.12128
431.63052
424.2778
417.07152
410.01911
403.12699
396.40068
389.84471
383.46274
377.25755
371.23109
365.38455
359.71837
354.23235
348.92567
343.79695
338.84431
334.06543
329.4576
325.01775
320.74254
316.62837
312.67143
308.86774
305.21319
301.70358
631.29114
624.72075
617.97061
611.04515
603.95238
596.70144
589.30244
581.76643
574.10536
566.33197
558.45975
550.50281
542.47581
534.39381
526.27219
518.1265
509.97235
501.82531
493.70073
485.61367
477.5788
469.61023
461.72149
453.92537
446.23393
438.65836
431.20897
423.89514
416.72532
409.70697
402.84661
396.14981
389.62119
383.2645
377.08259
371.07752
365.25056
359.60226
354.1325
348.84056
343.72513
338.78443
334.01622
329.41786
324.98637
320.71847
316.61063
312.65909
308.85994
305.20911
301.70247
629.03588
622.54415
615.87349
609.02827
602.01623
594.8463
587.52835
580.07321
572.49258
564.79898
557.00566
549.12653
541.17602
533.16899
525.12064
517.04634
508.96153
500.88165
492.82191
484.79728
476.82232
468.91109
461.07706
453.33299
445.69093
438.16206
430.75672
423.48432
416.35335
409.37134
402.54487
395.87958
389.38019
383.05052
376.89354
370.91138
365.10542
359.4763
354.02401
348.7479
343.64679
338.71897
333.96228
329.37418
324.95176
320.69182
316.59088
312.64528
308.85114
305.20448
301.70117
626.6465
620.2376
613.65068
606.88997
599.96302
592.87846
585.64596
578.27608
570.78029
563.17087
555.46083
547.66383
539.7941
531.86628
523.89535
515.89652
507.88505
499.87622
491.88512
483.9266
476.01512
468.16467
460.38865
452.69982
445.11017
437.63091
430.27238
423.04403
415.9544
409.01107
402.2207
395.58901
389.1208
382.81998
376.68962
370.73196
364.94847
359.3399
353.90634
348.64724
343.56151
338.64755
333.9033
329.32628
324.91369
320.66238
316.56898
312.62988
308.84127
305.19922
301.69969
624.12007
617.79821
611.29928
604.62742
597.78991
590.79514
583.65252
576.37236
568.96586
561.44506
553.82271
546.11225
538.32764
530.48331
522.59404
514.67483
506.74077
498.80696
490.88837
482.99972
475.15536
467.36921
459.6546
452.02425
444.49014
437.06347
429.75459
422.57301
415.52728
408.62506
401.87308
395.27713
388.84212
382.57205
376.47008
370.53856
364.77908
359.19248
353.77896
348.53809
343.46888
338.56981
333.83894
329.27388
324.8719
320.62997
316.54477
312.61276
308.83024
305.19331
301.698
621.45419
615.22357
608.8169
602.23821
595.49452
588.59397
581.54568
574.3597
567.04697
559.61926
552.08907
544.46956
536.77446
529.01797
521.21464
513.37925
505.52672
497.67198
489.82983
482.01486
474.24134
466.52307
458.87333
451.30479
443.82941
436.45838
429.20208
422.07002
415.07083
408.21221
401.50097
394.943
388.54327
382.3059
376.23415
370.33049
364.5966
359.03346
353.64136
348.41999
343.36846
338.48538
333.76887
329.21668
324.82617
320.59437
316.51807
312.59382
308.81796
305.18669
301.69608
618.64707
612.51186
606.2017
599.72049
593.07499
586.27305
579.32353
572.23621
565.02173
557.69159
550.25802
542.7339
535.13273
527.46843
519.75534
512.00801
504.24117
496.46956
488.70783
480.97043
473.27149
465.62474
458.04339
450.54005
443.12665
435.81438
428.61362
421.53393
414.58396
407.77151
401.10343
394.5857
388.2234
382.02074
375.98111
370.10707
364.40042
358.86227
353.49301
348.29246
343.25984
338.39387
333.69278
329.15442
324.77625
320.5554
316.48875
312.57292
308.80435
305.1793
301.69393
615.69766
609.66197
603.45251
597.07304
590.53004
583.83109
576.98475
570.00051
562.88873
555.66061
548.3281
540.90382
533.40096
525.83322
518.21467
510.55966
502.88268
495.19829
487.52098
479.86503
472.24448
464.67292
457.16351
449.72879
442.38066
435.13031
427.98812
420.96367
414.06569
407.30199
400.67954
394.20439
387.88172
381.71585
375.71027
369.86766
364.18996
358.67837
353.33343
348.15507
343.14262
338.29493
333.61035
329.08682
324.7219
320.51285
316.45663
312.54994
308.78932
305.1711
301.69151
612.60574
606.67362
600.56895
594.2954
587.85914
581.26746
574.52863
567.65184
560.64714
553.52545
546.2984
538.97833
531.57816
524.1113
516.59159
509.03311
501.45015
493.85707
486.26816
478.69758
471.15919
463.66653
456.23262
448.86997
441.59044
434.40518
427.32462
420.35834
413.51511
406.80282
400.22851
393.79831
387.51751
381.39054
375.42099
369.61168
363.96466
358.48126
353.16215
348.00738
343.01642
338.18823
333.52127
329.0136
324.66291
320.46654
316.42156
312.52477
308.77278
305.16203
301.68882
609.37211
603.54743
597.55156
591.38797
585.06257
578.58234
571.95525
565.19017
558.29685
551.28588
544.16861
536.95706
529.66386
522.30215
514.88549
507.42772
499.9429
492.44516
484.94863
477.46728
470.01486
462.60475
455.24991
447.96278
440.75516
433.63822
426.62235
419.71717
412.9315
406.27329
399.74965
393.36681
387.13015
381.04421
375.11272
369.3386
363.72403
358.27048
352.97876
347.84903
342.88089
338.07344
333.42526
328.93454
324.59907
320.4163
316.3834
312.49729
308.75467
305.15206
301.68584
605.99865
600.28516
594.40189
588.35217
582.14159
575.77684
569.26556
562.61631
555.83852
548.94245
541.93914
534.8403
527.65825
520.40585
513.09637
505.74339
498.36075
490.96234
483.56209
476.1738
468.81106
461.48714
454.21491
447.00671
439.87432
432.82887
425.88075
419.03961
412.31431
405.71286
399.24243
392.90936
386.71913
380.67639
374.78498
369.04797
363.46765
358.04565
352.78288
347.67966
342.73573
337.95029
333.32209
328.84941
324.53017
320.36195
316.34202
312.4674
308.7349
305.14113
301.68256
602.48854
596.88977
591.12271
585.19054
579.09855
572.85311
566.46152
559.93203
553.27374
546.49657
539.61124
532.62913
525.56227
518.42319
511.22488
503.98067
496.70411
489.40889
482.10872
474.81722
467.54783
460.31367
453.12751
446.00161
438.94771
431.97689
425.09955
418.32536
411.66321
405.12117
398.7065
392.42561
386.2841
380.28672
374.43744
368.73946
363.19522
357.80645
352.57423
347.49901
342.58067
337.81856
333.21153
328.75802
324.45606
320.30336
316.2973
312.43502
308.71341
305.1292
301.67896
598.84637
593.3656
587.71813
581.90696
575.93707
569.81451
563.54626
557.14022
550.60516
543.95067
537.18712
530.32557
523.37771
516.35578
509.27246
502.1408
494.97409
487.78578
480.58935
473.39825
466.22573
459.08478
451.98806
444.94775
437.97551
431.08239
424.2788
417.57442
410.97815
404.49815
398.14174
391.91542
385.82489
379.87502
374.06991
368.41288
362.90651
357.55268
352.35261
347.30689
342.41554
337.67806
333.09343
328.66022
324.37661
320.24042
316.24915
312.40006
308.69015
305.11625
301.67503
595.07832
589.71857
584.19376
578.50673
572.66216
566.66576
560.5242
554.24502
547.83665
541.30833
534.67009
527.93265
521.10738
514.20617
507.24143
500.22588
493.17257
486.09468
479.00549
471.9182
464.84593
457.8015
450.79745
443.84587
436.95835
430.14592
423.41895
416.78713
410.25943
403.84402
397.54831
391.37889
385.34156
379.44132
373.68238
368.06819
362.60149
357.28428
352.11794
347.10321
342.24025
337.52869
332.96769
328.55594
324.29174
320.17305
316.19751
312.36247
308.66508
305.10225
301.67075
591.19227
585.95635
580.55693
574.99683
569.28043
563.41313
557.40124
551.25198
544.9734
538.57442
532.0647
525.45462
518.75519
511.978
505.13512
498.23899
491.30236
484.33817
477.35944
470.37919
463.41032
456.46552
449.55719
442.69732
435.89744
429.1685
422.52089
415.96429
409.50769
403.15933
396.92668
390.81642
384.83445
378.98588
373.27505
367.70556
362.28026
357.00133
351.87028
346.888
342.0548
337.37047
332.8343
328.44513
324.20141
320.10122
316.14233
312.32223
308.63817
305.08718
301.66614
587.19788
582.08852
576.81686
571.38606
565.80028
560.06458
554.18494
548.16823
542.02217
535.75529
529.37691
522.89704
516.32636
509.67611
502.95804
496.18429
489.36732
482.51978
475.65446
468.78417
461.92161
455.0793
448.2695
441.5041
434.79455
428.15175
421.58606
415.10717
408.72408
402.44508
396.27772
390.22875
384.30419
378.50924
372.8484
367.32537
361.94316
356.7041
351.60984
346.66142
341.85933
337.20348
332.69333
328.32786
324.10566
320.02495
316.08364
312.27934
308.60942
305.07104
301.66118
587.92834
583.1089
578.1271
572.9849
567.68525
562.23202
556.62995
550.88467
545.0027
538.99138
532.85891
526.61422
520.26698
513.82751
507.30671
500.71599
494.06718
487.37244
480.64415
473.89485
467.1371
460.38342
453.64616
446.93742
440.26898
433.6522
427.09794
420.61651
414.21759
407.91023
401.70274
395.60273
389.61705
383.75179
378.01231
372.40319
366.92829
361.59076
356.39307
351.33703
346.42384
341.65413
337.02797
332.54498
328.20428
324.00461
319.94433
316.02149
312.23384
308.57886
305.05384
301.65587
588.16521
583.63268
578.93944
574.08617
569.07462
563.90744
558.58816
553.12119
547.51183
541.76621
535.89135
529.89505
523.7859
517.57319
511.26689
504.87755
498.41624
491.89446
485.32408
478.7172
472.08608
465.44307
458.80046
452.17042
445.56492
438.9956
432.47373
426.0101
419.61498
413.29806
407.06839
400.93432
394.90352
388.98292
383.17871
377.49635
371.94056
366.51532
361.22393
356.069
351.05251
346.1758
341.43966
336.84433
332.38956
328.07464
323.89846
319.85952
315.95601
312.18581
308.54654
305.03561
301.65024
587.93241
583.68156
579.27309
574.70649
569.98232
565.10206
560.06806
554.88353
549.55253
544.08002
538.47178
532.73447
526.87551
520.90313
514.82627
508.65451
502.39806
496.06766
489.67447
483.23006
476.74622
470.23497
463.7084
457.17859
450.65753
444.15702
437.68858
431.26337
424.89211
418.58504
412.35182
406.2015
400.14249
394.18249
388.32852
382.58687
376.96309
371.46203
366.0878
360.84385
355.73293
350.75717
345.91808
341.21659
336.65311
332.22755
327.93934
323.78753
319.77077
315.88739
312.13539
308.51256
305.01641
301.64428
583.28474
579.15481
574.87013
570.43005
565.83492
561.08596
556.18519
551.13552
545.94067
540.60527
535.13475
529.53539
523.81426
517.97922
512.03883
506.00233
499.87957
493.68094
487.41727
481.09981
474.74008
468.3498
461.94083
455.52503
449.11418
442.71993
436.35365
430.02641
423.74884
417.53113
411.38293
405.31328
399.33062
393.44271
387.65663
381.97876
376.41476
370.96959
365.64751
360.45209
355.38624
350.45223
345.65173
340.98583
336.4551
332.0596
327.79892
323.67226
319.67843
315.81589
312.08279
308.47704
304.9963
301.63803
578.61915
574.60927
570.44756
566.13321
561.66637
557.04796
552.27974
547.36429
542.30504
537.10624
531.773
526.31123
520.72766
515.02976
509.22574
503.32448
497.33546
491.26873
485.1348
478.9446
472.70935
466.4405
460.14964
453.84843
447.54844
441.26114
434.99777
428.76927
422.58622
416.45872
410.3964
404.4083
398.50289
392.68797
386.97069
381.3575
375.85417
370.46578
365.1967
360.05066
355.03069
350.13923
345.3781
340.74855
336.2513
331.88656
327.6541
323.55325
319.58297
315.74188
312.02827
308.44018
304.97539
301.63151
573.96422
570.07283
566.03251
561.84234
557.50223
553.01285
548.37568
543.59301
538.66794
533.60441
528.40717
523.0818
517.63466
512.07286
506.40426
500.63737
494.78132
488.84583
482.84107
476.77764
470.66648
464.51876
458.34582
452.15907
445.9699
439.78959
433.62924
427.49967
421.41136
415.37437
409.39828
403.49213
397.66439
391.92291
386.2749
380.72689
375.28475
369.95367
364.73814
359.64201
354.66848
349.82012
345.0989
340.50622
336.04297
331.70951
327.50577
323.43123
319.485
315.66583
311.97217
308.4022
304.95382
301.62477
569.35223
565.57696
561.65565
557.58727
553.37149
549.00875
544.50026
539.84801
535.05482
530.12429
525.06086
519.86975
514.55698
509.12932
503.59425
497.95995
492.2352
486.42936
480.55229
474.61428
468.62597
462.59824
456.54219
450.46898
444.38982
438.31579
432.25785
426.2267
420.23271
414.28588
408.39575
402.57135
396.82116
391.15306
385.57432
380.09153
374.71067
369.43701
364.27519
359.22916
354.30228
349.49724
344.81618
340.26065
335.83168
331.52979
327.35506
323.30713
319.38525
315.58832
311.91494
308.3634
304.93176
301.61787
564.81934
561.15697
557.35143
553.40153
549.30677
545.06733
540.68418
536.15904
531.49442
526.69364
521.7608
516.70081
511.51934
506.22281
500.81837
495.31385
489.7177
484.03894
478.28711
472.47218
466.60449
460.69468
454.75357
448.7921
442.82125
436.85196
430.895
424.96096
419.0601
413.20237
407.39724
401.65374
395.98034
390.38496
384.8749
379.45685
374.13683
368.92025
363.81184
358.81569
353.93527
349.17343
344.53244
340.014
335.61929
331.349
327.20333
323.18208
319.28464
315.51007
311.85709
308.32414
304.90941
301.61086
560.40579
556.85218
553.1582
549.32253
545.34447
541.224
536.96182
532.55941
528.01901
523.34362
518.53707
513.60393
508.54957
503.38006
498.10223
492.72357
487.2522
481.69683
476.06667
470.37141
464.62108
458.82606
452.99691
447.14436
441.27918
435.41211
429.55379
423.71466
417.90491
412.13437
406.41251
400.74829
395.15021
389.62619
384.1836
378.82916
373.569
368.40859
363.35279
358.4058
353.57121
348.85201
344.2506
339.76884
335.40804
331.16904
327.05218
323.05741
319.18426
315.43193
311.79928
308.28486
304.88702
301.60383
556.15618
552.7061
549.11846
545.39174
541.52502
537.51807
533.37139
529.0862
524.66449
520.10899
515.42323
510.61149
505.67882
500.63101
495.47454
490.2166
484.86499
479.4281
473.91486
468.33465
462.69723
457.01272
451.29143
445.54387
439.7806
434.0122
428.24914
422.50175
416.7801
411.09395
405.4527
399.86532
394.34026
388.8855
383.5084
378.21577
373.01379
367.90804
362.90345
358.00435
353.21444
348.53684
343.97408
339.52816
335.20052
330.99213
326.90349
322.93469
319.08538
315.3549
311.74223
308.24608
304.86489
301.59687
555.33881
552.11911
548.76654
545.27901
541.65483
537.89295
533.99294
529.95509
525.7804
521.47061
517.02822
512.45647
507.75938
502.9417
498.00892
492.96725
487.82356
482.58535
477.26073
471.85832
466.38725
460.857
455.27744
449.65866
444.01093
438.34464
432.67018
426.99788
421.33794
415.70032
410.09471
404.53047
399.0165
393.56128
388.17277
382.85839
377.62497
372.47877
367.42544
362.47001
357.6169
352.86993
348.23234
343.70678
339.29537
334.99968
330.82083
326.75944
322.81571
318.98945
315.28012
311.68682
308.20838
304.84337
301.5901
551.4801
548.34818
545.0859
541.69107
538.16188
534.49713
530.69622
526.75926
522.68703
518.48108
514.14366
509.67777
505.08717
500.37635
495.55054
490.61565
485.57829
480.44569
475.22567
469.9266
464.55732
459.12711
453.64556
448.12255
442.56816
436.99259
431.40606
425.81876
420.24076
414.68194
409.1519
403.65993
398.21493
392.82534
387.49914
382.24375
377.06608
371.97242
366.9685
362.05942
357.24972
352.54329
347.9435
343.4531
339.07433
334.8089
330.65802
326.62245
322.70252
318.89814
315.2089
311.63402
308.17244
304.82283
301.58363
547.95397
544.90165
541.72124
538.41048
534.96746
531.39083
527.67984
523.83445
519.85526
515.74362
511.50157
507.13189
502.63813
498.02453
493.29606
488.45841
483.51792
478.48156
473.35693
468.15213
462.87579
457.53692
452.14493
446.70948
441.24048
435.74793
430.24192
424.73249
419.22961
413.74306
408.28236
402.85675
397.47509
392.14582
386.87691
381.67581
376.54944
371.50417
366.54577
361.67943
356.90976
352.24075
347.67586
343.21795
338.86936
334.6319
330.50692
326.49526
322.59738
318.8133
315.1427