/*--------------------------------*- C++ -*----------------------------------*\
| =========                 |                                                 |
| \\      /  F ield         | OpenFOAM: The Open Source CFD Toolbox           |
|  \\    /   O peration     | Version:  2312                                  |
|   \\  /    A nd           | Website:  www.openfoam.com                      |
|    \\/     M anipulation  |                                                 |
\*---------------------------------------------------------------------------*/
FoamFile
{
    version     2.0;
    format      ascii;
    arch        "LSB;label=32;scalar=64";
    class       volVectorField;
    location    "0.02";
    object      U;
}
// * * * * * * * * * * * * * * * * * * * * * * * * * * * * * * * * * * * * * //

dimensions      [0 1 -1 0 0 0 0];

internalField   nonuniform List<vector> 
3224
(
(-0.39444699 0.0018938864 0)
(-0.41827075 0.0019516908 0)
(-0.4416962 0.0020089196 0)
(-0.46466675 0.0020650928 0)
(-0.48713028 0.0021201361 0)
(-0.50903737 0.0021737348 0)
(-0.53034172 0.0022255194 0)
(-0.55100054 0.0022751329 0)
(-0.57097495 0.0023222497 0)
(-0.59023031 0.0023665857 0)
(-0.60873643 0.0024079036 0)
(-0.62646779 0.0024460141 0)
(-0.64340364 0.0024807762 0)
(-0.65952803 0.0025120974 0)
(-0.6748298 0.0025399335 0)
(-0.68930255 0.0025642865 0)
(-0.70294446 0.0025852043 0)
(-0.71575816 0.0026027782 0)
(-0.72775052 0.0026171412 0)
(-0.73893237 0.0026284633 0)
(-0.74931826 0.0026369491 0)
(-0.75892614 0.0026428314 0)
(-0.76777705 0.0026463652 0)
(-0.7758948 0.0026478351 0)
(-0.78330563 0.0026475293 0)
(-0.79003789 0.0026457376 0)
(-0.79612172 0.0026427619 0)
(-0.80158877 0.0026388968 0)
(-0.80647184 0.0026344262 0)
(-0.81080467 0.0026296178 0)
(-0.81462161 0.0026247165 0)
(-0.81795741 0.0026199441 0)
(-0.82084697 0.0026154839 0)
(-0.8233251 0.0026114788 0)
(-0.82542629 0.0026080199 0)
(-0.82718441 0.0026051429 0)
(-0.82863292 0.0026028089 0)
(-0.82980252 0.0026008978 0)
(-0.83072881 0.0025991837 0)
(-0.83141837 0.0025973616 0)
(-0.83203591 0.00259499 0)
(-0.39437508 0.0045100916 0)
(-0.41819457 0.0046939771 0)
(-0.44161662 0.004871095 0)
(-0.46458356 0.005041598 0)
(-0.48704339 0.005205045 0)
(-0.50894677 0.0053608107 0)
(-0.53024743 0.0055082771 0)
(-0.55090261 0.0056469008 0)
(-0.57087344 0.0057762357 0)
(-0.59012531 0.0058959414 0)
(-0.60862803 0.0060057877 0)
(-0.62635609 0.0061056531 0)
(-0.64328876 0.0061955226 0)
(-0.65941009 0.0062754835 0)
(-0.67470895 0.0063457204 0)
(-0.68917892 0.0064065089 0)
(-0.7028182 0.0064582093 0)
(-0.71562943 0.0065012582 0)
(-0.72761947 0.0065361615 0)
(-0.73879917 0.006563484 0)
(-0.74918305 0.0065838408 0)
(-0.75878907 0.0065978859 0)
(-0.76763828 0.0066063023 0)
(-0.77575446 0.0066097983 0)
(-0.78316384 0.0066090861 0)
(-0.78989477 0.0066048713 0)
(-0.79597739 0.006597856 0)
(-0.80144332 0.0065887197 0)
(-0.80632535 0.0065781119 0)
(-0.8106572 0.0065666419 0)
(-0.81447321 0.0065548698 0)
(-0.81780811 0.0065432976 0)
(-0.82069678 0.0065323536 0)
(-0.82317401 0.0065223806 0)
(-0.82527429 0.0065136172 0)
(-0.82703144 0.0065061797 0)
(-0.82847895 0.006500029 0)
(-0.8296475 0.0064949256 0)
(-0.83057272 0.0064904854 0)
(-0.83126118 0.0064858055 0)
(-0.83187721 0.0064811945 0)
(-0.39420696 0.0071221457 0)
(-0.4180175 0.0074312479 0)
(-0.44143082 0.0077279441 0)
(-0.46438871 0.0080126071 0)
(-0.48683951 0.0082843423 0)
(-0.50873399 0.0085421936 0)
(-0.53002595 0.008785288 0)
(-0.55067267 0.0090128928 0)
(-0.57063531 0.0092244399 0)
(-0.58987927 0.0094195318 0)
(-0.60837441 0.0095979445 0)
(-0.62609525 0.0097596233 0)
(-0.64302105 0.0099046781 0)
(-0.6591359 0.010033374 0)
(-0.67442868 0.010146125 0)
(-0.68889297 0.010243476 0)
(-0.70252698 0.010326101 0)
(-0.71533336 0.010394778 0)
(-0.72731895 0.010450385 0)
(-0.73849459 0.010493881 0)
(-0.74887481 0.010526288 0)
(-0.75847755 0.010548681 0)
(-0.76732383 0.010562168 0)
(-0.77543741 0.010567881 0)
(-0.78284451 0.010566952 0)
(-0.78957345 0.010560503 0)
(-0.79565432 0.010549633 0)
(-0.80111873 0.010535405 0)
(-0.80599942 0.010518834 0)
(-0.81033009 0.010500868 0)
(-0.81414503 0.010482381 0)
(-0.81747894 0.010464154 0)
(-0.82036665 0.01044686 0)
(-0.82284291 0.010431042 0)
(-0.82494216 0.010417087 0)
(-0.82669822 0.010405193 0)
(-0.82814453 0.010395324 0)
(-0.82931176 0.010387134 0)
(-0.83023567 0.010380068 0)
(-0.83092257 0.010372574 0)
(-0.8315367 0.010366017 0)
(-0.39394308 0.0097316431 0)
(-0.4177399 0.010164166 0)
(-0.44113889 0.010580003 0)
(-0.46408224 0.010978549 0)
(-0.48651867 0.011358359 0)
(-0.50839907 0.011718126 0)
(-0.52967731 0.012056713 0)
(-0.55031072 0.012373196 0)
(-0.57026053 0.012666883 0)
(-0.58949218 0.012937318 0)
(-0.60797557 0.013184282 0)
(-0.62568524 0.013407787 0)
(-0.64260049 0.013608065 0)
(-0.65870543 0.013785559 0)
(-0.67398895 0.013940907 0)
(-0.68844466 0.014074926 0)
(-0.70207076 0.014188596 0)
(-0.71486989 0.014283039 0)
(-0.7268489 0.014359502 0)
(-0.7380186 0.014419332 0)
(-0.74839351 0.014463961 0)
(-0.75799153 0.014494878 0)
(-0.76683366 0.014513616 0)
(-0.77494363 0.014521726 0)
(-0.78234762 0.014520762 0)
(-0.78907388 0.014512253 0)
(-0.7951525 0.014497698 0)
(-0.80061499 0.014478541 0)
(-0.80549407 0.014456157 0)
(-0.80982337 0.014431833 0)
(-0.81363711 0.014406754 0)
(-0.81696995 0.01438198 0)
(-0.81985664 0.014358428 0)
(-0.82233186 0.01433684 0)
(-0.82443002 0.014317753 0)
(-0.82618486 0.014301449 0)
(-0.8276298 0.014287908 0)
(-0.82879549 0.014276681 0)
(-0.82971783 0.014267051 0)
(-0.8304027 0.014256669 0)
(-0.83101438 0.014248579 0)
(-0.36946852 0.011759719 0)
(-0.39358501 0.012337443 0)
(-0.41736257 0.01289233 0)
(-0.44074126 0.013426947 0)
(-0.46366454 0.013939055 0)
(-0.48608129 0.014426665 0)
(-0.50794245 0.014888111 0)
(-0.52920198 0.015321994 0)
(-0.54981729 0.015727197 0)
(-0.56974967 0.016102904 0)
(-0.58896463 0.0164486 0)
(-0.60743212 0.01676407 0)
(-0.62512672 0.017049389 0)
(-0.64202777 0.017304911 0)
(-0.65811941 0.017531252 0)
(-0.67339054 0.017729275 0)
(-0.68783479 0.017900063 0)
(-0.70145036 0.018044903 0)
(-0.71423988 0.018165255 0)
(-0.72621018 0.018262731 0)
(-0.73737207 0.018339068 0)
(-0.74774002 0.0183961 0)
(-0.75733192 0.01843573 0)
(-0.76616869 0.01845991 0)
(-0.77427404 0.018470611 0)
(-0.78167408 0.0184698 0)
(-0.78839702 0.018459416 0)
(-0.79447286 0.018441351 0)
(-0.79993305 0.018417427 0)
(-0.80481025 0.018389379 0)
(-0.80913798 0.01835883 0)
(-0.81295042 0.018327272 0)
(-0.8162821 0.018296043 0)
(-0.81916772 0.018266301 0)
(-0.82164187 0.018238989 0)
(-0.82373886 0.018214794 0)
(-0.82549237 0.018194093 0)
(-0.82693577 0.018176881 0)
(-0.82809965 0.01816264 0)
(-0.82902023 0.018150447 0)
(-0.82970236 0.018137335 0)
(-0.83031154 0.01812739 0)
(-0.36906485 0.014091381 0)
(-0.3931573 0.014787475 0)
(-0.41691028 0.015458126 0)
(-0.44026394 0.016104454 0)
(-0.46316275 0.016723283 0)
(-0.48555552 0.017312216 0)
(-0.50739328 0.017869256 0)
(-0.52863007 0.018392759 0)
(-0.5492234 0.018881428 0)
(-0.56913464 0.019334331 0)
(-0.58832936 0.019750895 0)
(-0.60677759 0.020130907 0)
(-0.62445397 0.020474499 0)
(-0.64133788 0.020782136 0)
(-0.65741348 0.021054598 0)
(-0.67266971 0.021292953 0)
(-0.6871002 0.021498535 0)
(-0.70070315 0.021672915 0)
(-0.71348119 0.02181787 0)
(-0.72544113 0.021935353 0)
(-0.73659376 0.022027463 0)
(-0.7469535 0.022096408 0)
(-0.7565382 0.022144482 0)
(-0.76536873 0.022174024 0)
(-0.77346874 0.022187399 0)
(-0.78086428 0.02218696 0)
(-0.78758348 0.022175027 0)
(-0.79365625 0.022153862 0)
(-0.79911398 0.022125639 0)
(-0.80398922 0.022092427 0)
(-0.80831542 0.022056164 0)
(-0.81212663 0.022018629 0)
(-0.81545731 0.021981421 0)
(-0.81834203 0.021945923 0)
(-0.8208153 0.021913267 0)
(-0.82291131 0.021884284 0)
(-0.82466367 0.021859443 0)
(-0.82610566 0.021838757 0)
(-0.82726782 0.021821708 0)
(-0.82818661 0.021807015 0)
(-0.82886598 0.021792342 0)
(-0.82947203 0.021777638 0)
(-0.36860179 0.016304257 0)
(-0.39266578 0.017114619 0)
(-0.41638912 0.01789579 0)
(-0.43971288 0.018648147 0)
(-0.46258234 0.019368213 0)
(-0.48494633 0.020053261 0)
(-0.50675598 0.020701003 0)
(-0.52796544 0.021309567 0)
(-0.54853232 0.021877487 0)
(-0.56841811 0.02240372 0)
(-0.58758847 0.022887638 0)
(-0.60601351 0.023329026 0)
(-0.62366795 0.02372807 0)
(-0.64053121 0.024085338 0)
(-0.65658752 0.024401761 0)
(-0.67182583 0.024678602 0)
(-0.68623979 0.024917429 0)
(-0.69982763 0.02512008 0)
(-0.71259195 0.025288631 0)
(-0.72453955 0.025425355 0)
(-0.73568117 0.025532691 0)
(-0.74603123 0.025613204 0)
(-0.75560749 0.025669549 0)
(-0.76443079 0.025704435 0)
(-0.77252468 0.025720595 0)
(-0.77991515 0.025720748 0)
(-0.78663023 0.025707572 0)
(-0.79269976 0.025683673 0)
(-0.79815501 0.025651562 0)
(-0.80302844 0.025613623 0)
(-0.80735336 0.025572086 0)
(-0.81116374 0.025529005 0)
(-0.8144939 0.025486221 0)
(-0.81737831 0.025445332 0)
(-0.81985133 0.025407648 0)
(-0.82194706 0.025374138 0)
(-0.82369898 0.025345365 0)
(-0.82514027 0.025321359 0)
(-0.82630144 0.025301646 0)
(-0.82721885 0.02528449 0)
(-0.82789655 0.025269061 0)
(-0.82849976 0.025247634 0)
(-0.3680431 0.018572152 0)
(-0.39207158 0.019498963 0)
(-0.41575822 0.020393153 0)
(-0.43904499 0.021253946 0)
(-0.46187798 0.022077558 0)
(-0.48420616 0.022860939 0)
(-0.50598079 0.023601511 0)
(-0.52715618 0.024297169 0)
(-0.5476901 0.024946278 0)
(-0.56754416 0.025547678 0)
(-0.58668415 0.026100683 0)
(-0.60508028 0.026605075 0)
(-0.62270735 0.027061092 0)
(-0.63954489 0.027469406 0)
(-0.65557715 0.027831098 0)
(-0.67079314 0.028147629 0)
(-0.68518656 0.028420802 0)
(-0.69875561 0.028652726 0)
(-0.71150292 0.028845777 0)
(-0.72343525 0.029002554 0)
(-0.73456332 0.02912584 0)
(-0.74490148 0.029218558 0)
(-0.75446744 0.029283733 0)
(-0.76328196 0.029324448 0)
(-0.7713685 0.029343807 0)
(-0.77875296 0.029344902 0)
(-0.78546326 0.029330772 0)
(-0.79152913 0.029304377 0)
(-0.79698172 0.029268564 0)
(-0.80185334 0.029226036 0)
(-0.80617719 0.029179324 0)
(-0.80998709 0.029130757 0)
(-0.81331722 0.029082424 0)
(-0.81620189 0.02903614 0)
(-0.81867532 0.028993398 0)
(-0.82077146 0.028955307 0)
(-0.82252365 0.028922532 0)
(-0.82396493 0.028895127 0)
(-0.8251258 0.028872664 0)
(-0.8260421 0.028852989 0)
(-0.82671931 0.028836526 0)
(-0.82731895 0.028808885 0)
(-0.34311696 0.019814354 0)
(-0.36738537 0.020895117 0)
(-0.39137107 0.02193974 0)
(-0.41501352 0.022949266 0)
(-0.43825609 0.023920826 0)
(-0.46104553 0.024850256 0)
(-0.4833309 0.025734169 0)
(-0.50506369 0.026569692 0)
(-0.52619838 0.027354488 0)
(-0.54669291 0.028086745 0)
(-0.56650906 0.028765182 0)
(-0.58561276 0.029389054 0)
(-0.60397435 0.029958138 0)
(-0.62156874 0.030472721 0)
(-0.63837555 0.030933579 0)
(-0.65437911 0.031341943 0)
(-0.6695685 0.03169947 0)
(-0.68393741 0.0320082 0)
(-0.69748411 0.032270514 0)
(-0.71021117 0.032489091 0)
(-0.72212537 0.032666857 0)
(-0.73323736 0.032806943 0)
(-0.74356143 0.032912635 0)
(-0.75311523 0.032987327 0)
(-0.76191943 0.033034482 0)
(-0.76999738 0.033057581 0)
(-0.77737486 0.033060088 0)
(-0.78407968 0.033045413 0)
(-0.79014142 0.033016869 0)
(-0.79559109 0.032977645 0)
(-0.80046085 0.032930768 0)
(-0.80478375 0.032879071 0)
(-0.80859342 0.032825162 0)
(-0.81192388 0.03277138 0)
(-0.81480927 0.032719762 0)
(-0.81728364 0.032671986 0)
(-0.81938074 0.032629305 0)
(-0.82113376 0.032592487 0)
(-0.82257555 0.032561627 0)
(-0.82373661 0.032536316 0)
(-0.82465201 0.032514095 0)
(-0.82532939 0.032496046 0)
(-0.82592525 0.032463394 0)
(-0.34240625 0.022069482 0)
(-0.36662492 0.023271045 0)
(-0.3905596 0.0244364 0)
(-0.41415028 0.025563594 0)
(-0.43734148 0.026648177 0)
(-0.46008026 0.027685633 0)
(-0.48231588 0.028672227 0)
(-0.50400003 0.02960479 0)
(-0.52508742 0.030480746 0)
(-0.54553619 0.031298102 0)
(-0.56530829 0.032055456 0)
(-0.58436984 0.032751997 0)
(-0.60269131 0.033387497 0)
(-0.62024777 0.033962289 0)
(-0.63701892 0.034477249 0)
(-0.65298919 0.034933758 0)
(-0.66814772 0.035333669 0)
(-0.68248824 0.035679258 0)
(-0.69600902 0.035973179 0)
(-0.70871266 0.036218412 0)
(-0.72060587 0.036418214 0)
(-0.73169927 0.036576064 0)
(-0.74200709 0.036695611 0)
(-0.75154688 0.036780626 0)
(-0.76033919 0.036834949 0)
(-0.76840729 0.036862443 0)
(-0.7757768 0.036866949 0)
(-0.7824754 0.036852246 0)
(-0.78853249 0.036822006 0)
(-0.79397893 0.036779763 0)
(-0.79884671 0.036728868 0)
(-0.80316868 0.036672462 0)
(-0.80697829 0.036613432 0)
(-0.81030936 0.036554371 0)
(-0.81319582 0.036497538 0)
(-0.81567153 0.036444798 0)
(-0.81777002 0.036397554 0)
(-0.81952431 0.03635668 0)
(-0.820967 0.036322317 0)
(-0.82212858 0.036294059 0)
(-0.82304318 0.03626924 0)
(-0.82372117 0.03624916 0)
(-0.82431279 0.036212389 0)
(-0.31720405 0.023004731 0)
(-0.3415945 0.024372127 0)
(-0.36575647 0.025699125 0)
(-0.38963218 0.026988323 0)
(-0.41316377 0.028235426 0)
(-0.43629643 0.02943522 0)
(-0.45897751 0.030582845 0)
(-0.48115647 0.031674217 0)
(-0.50278526 0.032705871 0)
(-0.52381881 0.033674988 0)
(-0.5442155 0.03457939 0)
(-0.5639375 0.035417549 0)
(-0.58295111 0.036188588 0)
(-0.60122699 0.036892265 0)
(-0.61874033 0.037528959 0)
(-0.63547097 0.038099644 0)
(-0.65140343 0.038605849 0)
(-0.66652691 0.039049618 0)
(-0.68083521 0.039433463 0)
(-0.69432659 0.039760309 0)
(-0.70700365 0.040033438 0)
(-0.71887306 0.040256436 0)
(-0.7299454 0.040433132 0)
(-0.7402348 0.040567538 0)
(-0.74975873 0.040663802 0)
(-0.75853761 0.040726144 0)
(-0.76659457 0.040758808 0)
(-0.77395508 0.040766016 0)
(-0.78064666 0.040751916 0)
(-0.78669854 0.040720542 0)
(-0.79214138 0.040675773 0)
(-0.79700698 0.040621289 0)
(-0.80132796 0.040560537 0)
(-0.80513758 0.040496685 0)
(-0.80846942 0.040432583 0)
(-0.8113572 0.040370712 0)
(-0.81383452 0.040313128 0)
(-0.81593471 0.040261385 0)
(-0.81769055 0.040216462 0)
(-0.81913438 0.040178558 0)
(-0.82029667 0.040147252 0)
(-0.82121049 0.040119769 0)
(-0.82188926 0.040097286 0)
(-0.82247629 0.040056987 0)
(-0.31635077 0.025227274 0)
(-0.34067752 0.026723046 0)
(-0.36477452 0.028179398 0)
(-0.38858378 0.02959487 0)
(-0.41204907 0.030964014 0)
(-0.43511608 0.032281116 0)
(-0.45773244 0.033540977 0)
(-0.47984789 0.034739166 0)
(-0.50141463 0.035871919 0)
(-0.52238787 0.036936169 0)
(-0.54272624 0.037929553 0)
(-0.56239216 0.038850412 0)
(-0.58135212 0.039697796 0)
(-0.59957699 0.040471447 0)
(-0.61704211 0.041171788 0)
(-0.63372746 0.041799883 0)
(-0.64961767 0.042357406 0)
(-0.664702 0.042846593 0)
(-0.67897429 0.043270185 0)
(-0.69243284 0.043631377 0)
(-0.70508021 0.043933752 0)
(-0.71692305 0.044181223 0)
(-0.72797187 0.044377965 0)
(-0.73824071 0.044528357 0)
(-0.74774692 0.044636918 0)
(-0.75651079 0.044708252 0)
(-0.76455531 0.044746984 0)
(-0.77190577 0.044757714 0)
(-0.77858951 0.044744964 0)
(-0.78463555 0.044713127 0)
(-0.79007435 0.044666429 0)
(-0.79493748 0.044608879 0)
(-0.79925734 0.044544231 0)
(-0.80306693 0.044475935 0)
(-0.8063996 0.044407099 0)
(-0.80928881 0.044340426 0)
(-0.8117679 0.044278164 0)
(-0.81386996 0.044222018 0)
(-0.8156275 0.044173077 0)
(-0.81707258 0.044131604 0)
(-0.81823563 0.044097147 0)
(-0.81914859 0.044066911 0)
(-0.81982816 0.044041725 0)
(-0.8204101 0.043998328 0)
(-0.29096394 0.025830197 0)
(-0.31539401 0.027495484 0)
(-0.33964988 0.02912343 0)
(-0.36367384 0.030711656 0)
(-0.38740933 0.032255458 0)
(-0.41080115 0.033748627 0)
(-0.43379543 0.035185022 0)
(-0.45634012 0.036559095 0)
(-0.47838524 0.037866067 0)
(-0.49988332 0.039101872 0)
(-0.52078985 0.040263195 0)
(-0.54106374 0.041347478 0)
(-0.56066767 0.042352928 0)
(-0.57956837 0.043278519 0)
(-0.5977369 0.044123973 0)
(-0.61514879 0.044889747 0)
(-0.63178416 0.045576995 0)
(-0.64762773 0.046187532 0)
(-0.66266887 0.046723776 0)
(-0.67690145 0.0471887 0)
(-0.69032377 0.047585761 0)
(-0.70293841 0.04791884 0)
(-0.71475195 0.048192172 0)
(-0.72577482 0.04841028 0)
(-0.73602097 0.048577904 0)
(-0.74550761 0.048699936 0)
(-0.75425491 0.048781357 0)
(-0.76228566 0.048827175 0)
(-0.76962498 0.048842367 0)
(-0.77629999 0.048831826 0)
(-0.78233951 0.048800307 0)
(-0.78777376 0.048752379 0)
(-0.79263405 0.048692382 0)
(-0.79695255 0.048624374 0)
(-0.80076199 0.048552091 0)
(-0.80409543 0.048478893 0)
(-0.80698607 0.048407711 0)
(-0.80946697 0.048340981 0)
(-0.81157093 0.048280563 0)
(-0.81333019 0.048227656 0)
(-0.81477651 0.048182591 0)
(-0.81594021 0.048144886 0)
(-0.81685217 0.048111792 0)
(-0.81753239 0.048083647 0)
(-0.81810871 0.048037462 0)
(-0.28997737 0.02801028 0)
(-0.31432939 0.029810079 0)
(-0.33850598 0.031573559 0)
(-0.36244921 0.033295581 0)
(-0.38610369 0.034969524 0)
(-0.40941489 0.036588546 0)
(-0.43232939 0.038146092 0)
(-0.45479549 0.039636252 0)
(-0.47676355 0.04105389 0)
(-0.49818641 0.042394637 0)
(-0.5190199 0.043654924 0)
(-0.53922324 0.044831996 0)
(-0.55875936 0.045923921 0)
(-0.57759527 0.046929588 0)
(-0.59570223 0.047848695 0)
(-0.61305595 0.048681729 0)
(-0.62963672 0.049429927 0)
(-0.64542938 0.050095237 0)
(-0.66042335 0.05068026 0)
(-0.67461258 0.051188187 0)
(-0.68799537 0.051622736 0)
(-0.70057426 0.051988082 0)
(-0.71235581 0.052288778 0)
(-0.72335033 0.052529688 0)
(-0.73357167 0.052715909 0)
(-0.74303691 0.052852704 0)
(-0.75176605 0.052945429 0)
(-0.75978168 0.05299947 0)
(-0.76710874 0.053020181 0)
(-0.7737741 0.053012822 0)
(-0.77980636 0.052982508 0)
(-0.78523547 0.052934152 0)
(-0.79009249 0.05287242 0)
(-0.7944093 0.052801676 0)
(-0.79821834 0.052725936 0)
(-0.8015524 0.052648817 0)
(-0.80444435 0.052573471 0)
(-0.80692696 0.052502527 0)
(-0.80903273 0.052438 0)
(-0.8107936 0.0523812 0)
(-0.81224101 0.052332531 0)
(-0.81340517 0.052291487 0)
(-0.81431588 0.052255417 0)
(-0.81499647 0.052224103 0)
(-0.81556658 0.052175353 0)
(-0.26449702 0.028264603 0)
(-0.28888442 0.030234601 0)
(-0.31315128 0.032172224 0)
(-0.33724038 0.034073502 0)
(-0.36109538 0.035930873 0)
(-0.38466161 0.037736546 0)
(-0.40788506 0.039483081 0)
(-0.43071278 0.041163496 0)
(-0.45309343 0.042771497 0)
(-0.47497773 0.044301589 0)
(-0.4963189 0.045749092 0)
(-0.51707311 0.04711018 0)
(-0.53719989 0.048381895 0)
(-0.55666249 0.049562157 0)
(-0.57542816 0.050649769 0)
(-0.59346841 0.051644395 0)
(-0.61075914 0.052546547 0)
(-0.62728079 0.053357539 0)
(-0.64301833 0.054079444 0)
(-0.65796126 0.054715036 0)
(-0.67210357 0.055267722 0)
(-0.68544357 0.055741475 0)
(-0.69798377 0.056140752 0)
(-0.70973065 0.056470422 0)
(-0.72069446 0.056735682 0)
(-0.73088891 0.056941983 0)
(-0.74033091 0.057094951 0)
(-0.74904029 0.057200315 0)
(-0.75703945 0.057263835 0)
(-0.76435307 0.057291236 0)
(-0.77100783 0.057288144 0)
(-0.77703202 0.057260028 0)
(-0.78245534 0.057212144 0)
(-0.78730856 0.057149481 0)
(-0.79162325 0.057076707 0)
(-0.79543156 0.056998117 0)
(-0.79876595 0.05691758 0)
(-0.80165898 0.056838472 0)
(-0.8041431 0.056763612 0)
(-0.80625046 0.056695171 0)
(-0.80801271 0.056634571 0)
(-0.80946096 0.056582298 0)
(-0.81062525 0.056537834 0)
(-0.8115344 0.056498669 0)
(-0.81221497 0.056464012 0)
(-0.81277823 0.056412849 0)
(-0.26338535 0.030395239 0)
(-0.28768059 0.032504291 0)
(-0.31185384 0.034582585 0)
(-0.33584766 0.036623237 0)
(-0.35960702 0.038617263 0)
(-0.38307777 0.040556054 0)
(-0.40620637 0.042431588 0)
(-0.42894033 0.044236437 0)
(-0.45122871 0.045963903 0)
(-0.47302264 0.047608127 0)
(-0.49427572 0.049164113 0)
(-0.51494449 0.05062777 0)
(-0.53498882 0.051995931 0)
(-0.55437226 0.053266366 0)
(-0.57306235 0.054437779 0)
(-0.59103084 0.055509799 0)
(-0.60825385 0.056482951 0)
(-0.62471196 0.057358617 0)
(-0.64039026 0.058138991 0)
(-0.65527835 0.058827011 0)
(-0.66937024 0.059426291 0)
(-0.68266426 0.059941048 0)
(-0.69516288 0.060376018 0)
(-0.7068725 0.060736373 0)
(-0.71780326 0.061027641 0)
(-0.72796873 0.061255617 0)
(-0.73738567 0.061426284 0)
(-0.74607369 0.061545738 0)
(-0.75405499 0.061620106 0)
(-0.76135399 0.06165548 0)
(-0.76799711 0.061657846 0)
(-0.77401238 0.061633026 0)
(-0.77942919 0.061586611 0)
(-0.78427799 0.061523911 0)
(-0.78859006 0.061449894 0)
(-0.7923972 0.061369133 0)
(-0.79573154 0.061285744 0)
(-0.7986253 0.061203328 0)
(-0.8011106 0.061124891 0)
(-0.80321923 0.061052762 0)
(-0.80498252 0.06098848 0)
(-0.80643125 0.060932619 0)
(-0.80759524 0.060884668 0)
(-0.80850247 0.06084229 0)
(-0.80918251 0.060804152 0)
(-0.80973823 0.06075068 0)
(-0.2378988 0.030296719 0)
(-0.26216463 0.032570187 0)
(-0.28636016 0.034820988 0)
(-0.31043148 0.037041662 0)
(-0.33432243 0.039222811 0)
(-0.35797876 0.041354573 0)
(-0.3813468 0.043427661 0)
(-0.40437347 0.045433492 0)
(-0.42700673 0.047364168 0)
(-0.44919609 0.049212578 0)
(-0.4708931 0.050972488 0)
(-0.49205177 0.052638581 0)
(-0.51262902 0.054206494 0)
(-0.53258508 0.055672846 0)
(-0.55188384 0.057035247 0)
(-0.57049311 0.058292298 0)
(-0.58838491 0.059443581 0)
(-0.60553555 0.060489628 0)
(-0.62192579 0.061431881 0)
(-0.63754084 0.062272643 0)
(-0.65237037 0.063015007 0)
(-0.66640843 0.063662785 0)
(-0.67965335 0.064220428 0)
(-0.69210754 0.064692941 0)
(-0.70377734 0.065085792 0)
(-0.71467275 0.065404827 0)
(-0.72480719 0.065656178 0)
(-0.73419724 0.06584618 0)
(-0.7428623 0.065981284 0)
(-0.75082432 0.066067979 0)
(-0.75810749 0.066112716 0)
(-0.76473791 0.066121837 0)
(-0.77074334 0.066101508 0)
(-0.77615283 0.066057653 0)
(-0.78099654 0.065995897 0)
(-0.78530537 0.065921504 0)
(-0.78911081 0.065839319 0)
(-0.79244462 0.065753707 0)
(-0.79533866 0.065668487 0)
(-0.79782469 0.065586856 0)
(-0.79993416 0.065511298 0)
(-0.80169805 0.065443478 0)
(-0.8031468 0.065384063 0)
(-0.80430999 0.065332576 0)
(-0.80521484 0.065286879 0)
(-0.80589377 0.065245154 0)
(-0.80644121 0.065189444 0)
(-0.23667016 0.032373665 0)
(-0.26082978 0.034790944 0)
(-0.28491719 0.037185925 0)
(-0.30887871 0.039549948 0)
(-0.33265927 0.041872394 0)
(-0.35620521 0.044142737 0)
(-0.37946331 0.046351088 0)
(-0.40238097 0.04848831 0)
(-0.42490664 0.050546025 0)
(-0.44699028 0.052516695 0)
(-0.46858389 0.054393707 0)
(-0.4896419 0.056171412 0)
(-0.51012164 0.057845173 0)
(-0.52998372 0.059411385 0)
(-0.54919236 0.060867492 0)
(-0.56771569 0.062211982 0)
(-0.58552596 0.063444382 0)
(-0.6025997 0.064565221 0)
(-0.61891783 0.065575992 0)
(-0.6344657 0.066479095 0)
(-0.64923304 0.067277767 0)
(-0.66321394 0.067976007 0)
(-0.6764067 0.068578491 0)
(-0.68881369 0.069090478 0)
(-0.70044114 0.069517724 0)
(-0.71129893 0.069866381 0)
(-0.72140032 0.070142909 0)
(-0.73076167 0.070353982 0)
(-0.73940215 0.070506399 0)
(-0.74734348 0.070607003 0)
(-0.75460954 0.070662597 0)
(-0.76122616 0.070679868 0)
(-0.76722076 0.070665321 0)
(-0.77262209 0.070625206 0)
(-0.77745993 0.070565457 0)
(-0.78176485 0.07049163 0)
(-0.78556795 0.070408838 0)
(-0.78890064 0.07032169 0)
(-0.79179441 0.070234222 0)
(-0.79428064 0.070149821 0)
(-0.79639041 0.070071129 0)
(-0.79815436 0.069999941 0)
(-0.79960258 0.069937032 0)
(-0.8007644 0.069881984 0)
(-0.80166637 0.069832877 0)
(-0.80234352 0.069787493 0)
(-0.80288191 0.069729597 0)
(-0.23532881 0.034496843 0)
(-0.25937434 0.037060138 0)
(-0.28334601 0.039600293 0)
(-0.30719012 0.042108108 0)
(-0.33085278 0.044572335 0)
(-0.35428094 0.046981851 0)
(-0.37742188 0.049326195 0)
(-0.40022349 0.051595682 0)
(-0.42263469 0.053781445 0)
(-0.44460597 0.055875514 0)
(-0.46608976 0.057870885 0)
(-0.48704096 0.059761576 0)
(-0.5074173 0.061542665 0)
(-0.52717979 0.063210317 0)
(-0.54629298 0.064761799 0)
(-0.56472532 0.066195482 0)
(-0.58244932 0.067510823 0)
(-0.59944173 0.068708341 0)
(-0.61568363 0.069789566 0)
(-0.63116048 0.070756984 0)
(-0.64586208 0.071613965 0)
(-0.65978256 0.072364682 0)
(-0.67292018 0.07301402 0)
(-0.68527724 0.073567485 0)
(-0.69685988 0.074031103 0)
(-0.70767782 0.074411323 0)
(-0.71774413 0.07471492 0)
(-0.72707497 0.074948895 0)
(-0.73568927 0.075120387 0)
(-0.74360845 0.075236579 0)
(-0.75085613 0.075304617 0)
(-0.7574578 0.075331526 0)
(-0.76344054 0.075324142 0)
(-0.76883277 0.075289031 0)
(-0.7736639 0.075232433 0)
(-0.77796413 0.075160186 0)
(-0.78176419 0.075077667 0)
(-0.78509508 0.074989728 0)
(-0.78798793 0.074900618 0)
(-0.79047372 0.074813912 0)
(-0.79258317 0.074732418 0)
(-0.79434655 0.074658065 0)
(-0.79579363 0.074591747 0)
(-0.79695342 0.074533142 0)
(-0.79785196 0.07448056 0)
(-0.7985266 0.074431475 0)
(-0.79905513 0.074371435 0)
(-0.23386915 0.036672263 0)
(-0.25779299 0.039380333 0)
(-0.28164127 0.042065393 0)
(-0.30536033 0.044717018 0)
(-0.32889756 0.047323193 0)
(-0.35220056 0.049872202 0)
(-0.37521711 0.052353014 0)
(-0.39789563 0.054755401 0)
(-0.42018557 0.057070005 0)
(-0.44203788 0.059288412 0)
(-0.46340552 0.061403227 0)
(-0.48424381 0.063408125 0)
(-0.50451095 0.065297892 0)
(-0.52416832 0.067068455 0)
(-0.54318084 0.068716898 0)
(-0.56151726 0.070241459 0)
(-0.57915036 0.071641522 0)
(-0.5960571 0.072917578 0)
(-0.61221873 0.074071185 0)
(-0.62762082 0.075104901 0)
(-0.64225323 0.076022215 0)
(-0.6561101 0.076827459 0)
(-0.66918965 0.077525716 0)
(-0.68149413 0.078122719 0)
(-0.69302952 0.078624755 0)
(-0.70380541 0.079038554 0)
(-0.71383466 0.079371192 0)
(-0.72313319 0.079629986 0)
(-0.73171968 0.0798224 0)
(-0.73961526 0.079955948 0)
(-0.74684323 0.080038105 0)
(-0.75342875 0.080076227 0)
(-0.75939856 0.080077468 0)
(-0.7647807 0.080048705 0)
(-0.76960421 0.079996473 0)
(-0.7738989 0.079926888 0)
(-0.77769511 0.079845587 0)
(-0.78102345 0.079757655 0)
(-0.78391463 0.079667557 0)
(-0.78639927 0.079579058 0)
(-0.78850769 0.079495129 0)
(-0.7902698 0.079417849 0)
(-0.79171505 0.079348243 0)
(-0.79287211 0.079286116 0)
(-0.79376661 0.079230022 0)
(-0.79443795 0.079177229 0)
(-0.7949558 0.079115087 0)
(-0.20846646 0.036039781 0)
(-0.23228663 0.03890225 0)
(-0.25608131 0.041753384 0)
(-0.27979786 0.044582721 0)
(-0.30338407 0.047377809 0)
(-0.32678829 0.05012578 0)
(-0.34995871 0.052814308 0)
(-0.37284366 0.055431789 0)
(-0.39539208 0.057967453 0)
(-0.41755396 0.060411449 0)
(-0.43928078 0.062754917 0)
(-0.46052598 0.064990066 0)
(-0.48124537 0.067110219 0)
(-0.50139758 0.069109866 0)
(-0.5209444 0.070984686 0)
(-0.53985111 0.072731569 0)
(-0.55808678 0.074348614 0)
(-0.57562445 0.075835115 0)
(-0.59244129 0.077191526 0)
(-0.60851871 0.078419416 0)
(-0.62384238 0.079521405 0)
(-0.63840222 0.080501083 0)
(-0.65219237 0.081362926 0)
(-0.66521101 0.082112198 0)
(-0.67746029 0.082754847 0)
(-0.68894606 0.083297401 0)
(-0.69967772 0.083746857 0)
(-0.70966793 0.084110577 0)
(-0.71893236 0.084396181 0)
(-0.72748942 0.084611441 0)
(-0.73535991 0.084764189 0)
(-0.74256683 0.08486222 0)
(-0.74913497 0.084913206 0)
(-0.75509072 0.084924609 0)
(-0.76046172 0.084903611 0)
(-0.76527663 0.084857028 0)
(-0.76956486 0.084791251 0)
(-0.77335634 0.084712168 0)
(-0.77668128 0.084625098 0)
(-0.77956999 0.084534715 0)
(-0.78205267 0.084444975 0)
(-0.78415928 0.084359022 0)
(-0.78591936 0.084279089 0)
(-0.78736202 0.084206352 0)
(-0.78851561 0.084140775 0)
(-0.78940542 0.084081168 0)
(-0.7900726 0.084024694 0)
(-0.79057892 0.083960499 0)
(-0.20689384 0.038184611 0)
(-0.23057771 0.041187178 0)
(-0.25423417 0.044181114 0)
(-0.27781061 0.047154025 0)
(-0.30125613 0.050091914 0)
(-0.32451972 0.052981206 0)
(-0.34755013 0.055808964 0)
(-0.37029625 0.058563014 0)
(-0.39270758 0.061232051 0)
(-0.41473466 0.063805731 0)
(-0.4363295 0.066274746 0)
(-0.45744605 0.0686309 0)
(-0.47804061 0.070867165 0)
(-0.49807225 0.072977722 0)
(-0.51750317 0.074957997 0)
(-0.53629904 0.076804676 0)
(-0.55442922 0.078515705 0)
(-0.57186702 0.080090276 0)
(-0.58858982 0.081528796 0)
(-0.60457918 0.082832829 0)
(-0.61982086 0.084005037 0)
(-0.63430484 0.085049099 0)
(-0.64802523 0.085969618 0)
(-0.66098017 0.08677202 0)
(-0.67317169 0.08746245 0)
(-0.68460549 0.088047662 0)
(-0.69529079 0.088534901 0)
(-0.70524001 0.0889318 0)
(-0.71446856 0.089246262 0)
(-0.72299454 0.089486356 0)
(-0.73083846 0.089660216 0)
(-0.73802294 0.089775943 0)
(-0.74457243 0.089841512 0)
(-0.75051293 0.089864684 0)
(-0.75587169 0.089852928 0)
(-0.76067696 0.089813342 0)
(-0.76495774 0.089752577 0)
(-0.76874354 0.089676768 0)
(-0.77206416 0.089591462 0)
(-0.77494951 0.089501544 0)
(-0.77742937 0.089411161 0)
(-0.77953332 0.089323635 0)
(-0.78129055 0.089241366 0)
(-0.78272983 0.089165697 0)
(-0.78387915 0.089096783 0)
(-0.78476358 0.089033702 0)
(-0.78542573 0.088973607 0)
(-0.78591965 0.088907416 0)
(-0.15820943 0.034134646 0)
(-0.18167315 0.037248211 0)
(-0.20519671 0.040387062 0)
(-0.22873694 0.043529806 0)
(-0.25224631 0.046666077 0)
(-0.27567449 0.049781452 0)
(-0.29897144 0.052861138 0)
(-0.32208673 0.055890925 0)
(-0.34496967 0.058857285 0)
(-0.36756974 0.061747483 0)
(-0.38983701 0.064549685 0)
(-0.41172257 0.067253055 0)
(-0.43317899 0.069847839 0)
(-0.45416073 0.072325433 0)
(-0.47462459 0.074678448 0)
(-0.4945301 0.076900753 0)
(-0.51383988 0.07898751 0)
(-0.53251995 0.08093519 0)
(-0.55053999 0.082741577 0)
(-0.56787358 0.084405749 0)
(-0.58449829 0.085928045 0)
(-0.60039582 0.087310013 0)
(-0.61555203 0.088554342 0)
(-0.62995692 0.089664778 0)
(-0.64360459 0.090646033 0)
(-0.65649309 0.091503678 0)
(-0.66862433 0.092244037 0)
(-0.68000387 0.092874067 0)
(-0.69064069 0.093401248 0)
(-0.70054698 0.09383346 0)
(-0.70973787 0.094178875 0)
(-0.71823114 0.094445841 0)
(-0.72604697 0.09464278 0)
(-0.73320762 0.09477808 0)
(-0.73973715 0.094860008 0)
(-0.74566117 0.09489661 0)
(-0.75100653 0.094895633 0)
(-0.75580106 0.094864442 0)
(-0.76007333 0.094809944 0)
(-0.76385244 0.094738515 0)
(-0.76716777 0.094655925 0)
(-0.7700488 0.094567267 0)
(-0.77252492 0.094476884 0)
(-0.77462531 0.09438828 0)
(-0.77637881 0.094304036 0)
(-0.77781387 0.09422568 0)
(-0.77895809 0.094153586 0)
(-0.77983644 0.09408711 0)
(-0.78049261 0.094023493 0)
(-0.78097327 0.093955378 0)
(-0.13346865 0.032918711 0)
(-0.15668515 0.036127102 0)
(-0.17999947 0.039377411 0)
(-0.20337212 0.042651686 0)
(-0.22675905 0.045934166 0)
(-0.2501128 0.049211328 0)
(-0.27338459 0.052467631 0)
(-0.29652506 0.055687719 0)
(-0.31948434 0.058856796 0)
(-0.34221234 0.061960763 0)
(-0.36465913 0.064986337 0)
(-0.38677537 0.067921165 0)
(-0.40851273 0.070753925 0)
(-0.42982432 0.073474411 0)
(-0.45066515 0.076073612 0)
(-0.47099252 0.078543773 0)
(-0.49076641 0.080878444 0)
(-0.50994986 0.083072514 0)
(-0.52850927 0.085122229 0)
(-0.54641462 0.087025198 0)