/*--------------------------------*- C++ -*----------------------------------*\
| =========                 |                                                 |
| \\      /  F ield         | OpenFOAM: The Open Source CFD Toolbox           |
|  \\    /   O peration     | Version:  2312                                  |
|   \\  /    A nd           | Website:  www.openfoam.com                      |
|    \\/     M anipulation  |                                                 |
\*---------------------------------------------------------------------------*/
FoamFile
{
    version     2.0;
    format      ascii;
    arch        "LSB;label=32;scalar=64";
    class       volScalarField;
    location    "0.08";
    object      alphat;
}
// * * * * * * * * * * * * * * * * * * * * * * * * * * * * * * * * * * * * * //

dimensions      [1 -1 -1 0 0 0 0];

internalField   nonuniform List<scalar> 
3251
(
0.024399394
0.024625166
0.024859015
0.025101071
0.025351472
0.025610351
0.025877832
0.026154032
0.026439062
0.026733021
0.027036
0.027348082
0.027669335
0.027999817
0.028339572
0.028688631
0.02904701
0.02941471
0.029791713
0.030177987
0.03057348
0.030978122
0.031391823
0.031814474
0.032245944
0.032686084
0.03313472
0.033591659
0.034056687
0.034529566
0.035010039
0.035497828
0.035992631
0.03649413
0.037001983
0.037515833
0.038035301
0.038559992
0.039089496
0.039623384
0.040161215
0.040702535
0.041246876
0.041793762
0.042342703
0.042893203
0.043444759
0.043996858
0.044548981
0.045100606
0.045651204
0.046200125
0.046746793
0.047290811
0.047831678
0.048368898
0.048901958
0.049430371
0.024400171
0.02462595
0.024859816
0.025101883
0.025352293
0.02561118
0.025878669
0.026154875
0.02643991
0.026733874
0.027036857
0.027348942
0.027670197
0.02800068
0.028340435
0.028689494
0.029047871
0.029415568
0.029792567
0.030178836
0.030574323
0.030978958
0.03139265
0.031815292
0.032246751
0.032686879
0.033135501
0.033592426
0.034057438
0.034530301
0.035010756
0.035498525
0.035993308
0.036494785
0.037002616
0.037516441
0.038035884
0.03856055
0.039090026
0.039623886
0.040161689
0.040702979
0.041247289
0.041794143
0.042343051
0.042893517
0.043445036
0.043997096
0.044549179
0.045100759
0.045651305
0.046200196
0.046746877
0.047290909
0.047831786
0.048369
0.048902027
0.049430407
0.024401734
0.024627524
0.024861411
0.025103494
0.025353919
0.025612818
0.025880318
0.026156535
0.026441578
0.026735549
0.027038539
0.027350628
0.027671886
0.028002371
0.028342126
0.028691184
0.029049558
0.02941725
0.029794243
0.030180504
0.030575982
0.030980605
0.031394285
0.031816911
0.032248354
0.032688463
0.033137066
0.033593969
0.034058957
0.034531794
0.035012222
0.035499962
0.035994714
0.036496159
0.037003956
0.037517746
0.038037152
0.038561779
0.039091216
0.039625035
0.040162796
0.040704042
0.041248308
0.041795116
0.042343976
0.042894394
0.043445863
0.043997871
0.044549899
0.045101423
0.045651907
0.046200759
0.046747434
0.047291464
0.047832338
0.048369536
0.048902523
0.049430889
0.024404071
0.02462988
0.024863791
0.025105895
0.02535634
0.025615257
0.025882772
0.026159003
0.026444058
0.026738039
0.027041036
0.027353132
0.027674394
0.02800488
0.028344636
0.028693691
0.029052061
0.029419747
0.029796731
0.030182981
0.030578446
0.030983053
0.031396715
0.031819321
0.032250742
0.032690826
0.033139401
0.033596275
0.034061231
0.034534034
0.035014425
0.035502126
0.035996838
0.03649824
0.037005991
0.037519735
0.038039092
0.038563668
0.039093053
0.039626818
0.040164522
0.040705712
0.041249919
0.041796667
0.042345466
0.04289582
0.043447225
0.043999167
0.044551128
0.045102583
0.045652996
0.046201798
0.046748448
0.04729246
0.047833317
0.048370489
0.048903434
0.049431836
0.02440718
0.024633016
0.024866956
0.025109087
0.025359556
0.025618495
0.02588603
0.026162277
0.026447348
0.026741341
0.027044349
0.027356451
0.027677718
0.028008207
0.028347963
0.028697015
0.029055379
0.029423057
0.02980003
0.030186266
0.030581714
0.030986302
0.031399941
0.031822522
0.032253914
0.032693966
0.033142508
0.033599344
0.03406426
0.03453702
0.035017366
0.035505019
0.035999679
0.036501027
0.037008723
0.037522408
0.038041704
0.038566217
0.039095537
0.039629235
0.04016687
0.040707989
0.041252124
0.041798797
0.042347521
0.042897798
0.043449124
0.044000987
0.044552868
0.045104242
0.045654575
0.046203313
0.046749922
0.047293899
0.047834724
0.048371857
0.048904752
0.024410838
0.024636707
0.02487068
0.025112842
0.025363338
0.025622302
0.025889859
0.026166126
0.026451213
0.026745221
0.02704824
0.027360351
0.027681624
0.028012115
0.028351871
0.028700919
0.029059277
0.029426945
0.029803906
0.030190126
0.030585554
0.03099012
0.031403734
0.031826285
0.032257645
0.032697662
0.033146165
0.033602959
0.03406783
0.034540541
0.035020836
0.035508434
0.036003037
0.036504325
0.037011957
0.037525576
0.038044804
0.038569247
0.039098493
0.039632115
0.040169674
0.040710713
0.041254767
0.041801358
0.042349997
0.042900189
0.043451428
0.044003203
0.044554995
0.045106282
0.045656531
0.046205197
0.046751751
0.04729568
0.047836461
0.048373541
0.048906358
0.024414935
0.024640841
0.024874849
0.025117044
0.02536757
0.025626562
0.025894143
0.026170432
0.026455537
0.02674956
0.027052592
0.027364712
0.027685991
0.028016486
0.02835624
0.028705285
0.029063636
0.029431294
0.029808241
0.030194443
0.030589851
0.030994392
0.031407977
0.031830497
0.032261822
0.0327018
0.03315026
0.033607008
0.03407183
0.034544489
0.035024727
0.035512266
0.036006806
0.036508028
0.037015592
0.037529139
0.038048293
0.038572658
0.039101825
0.039635366
0.04017284
0.040713794
0.04125776
0.04180426
0.042352809
0.042902907
0.043454053
0.044005734
0.044557432
0.045108625
0.045658784
0.046207372
0.04675386
0.047297731
0.047838457
0.048375476
0.04890824
0.024419794
0.024645743
0.024879793
0.025122026
0.025372587
0.025631611
0.02589922
0.026175534
0.026460661
0.026754702
0.027057748
0.02736988
0.027691166
0.028021664
0.028361418
0.028710459
0.029068801
0.029436446
0.029813377
0.03019956
0.030594942
0.030999455
0.031413008
0.031835491
0.032266775
0.032706708
0.033155119
0.033611814
0.034076578
0.034549175
0.035029348
0.035516819
0.036011286
0.036512432
0.037019916
0.03753338
0.038052448
0.038576724
0.039105799
0.039639245
0.040176623
0.040717477
0.041261341
0.041807738
0.042356181
0.042906174
0.043457211
0.044008784
0.044560374
0.045111461
0.045661518
0.046210013
0.04675642
0.047300219
0.047840876
0.04837783
0.048910585
0.024425471
0.02465147
0.024885568
0.025127845
0.025378447
0.025637507
0.02590515
0.026181493
0.026466645
0.026760707
0.027063769
0.027375913
0.027697207
0.028027709
0.028367463
0.028716499
0.029074832
0.029442463
0.029819375
0.030205534
0.030600889
0.031005369
0.031418884
0.031841325
0.032272561
0.032712443
0.033160797
0.033617431
0.034082129
0.034554657
0.035034755
0.035522146
0.036016531
0.036517589
0.037024982
0.037538351
0.03805732
0.038581494
0.039110463
0.039643801
0.040181068
0.040721808
0.041265556
0.041811835
0.042360158
0.042910029
0.043460944
0.044012393
0.044563861
0.045114827
0.045664768
0.046213155
0.046759465
0.047303174
0.047843748
0.04838064
0.024432028
0.024658084
0.024892236
0.025134564
0.025385212
0.025644314
0.025911994
0.02618837
0.026473551
0.026767636
0.027070718
0.027382876
0.027704179
0.028034686
0.028374439
0.028723469
0.029081792
0.029449406
0.029826297
0.03021243
0.030607752
0.031012195
0.031425667
0.03184806
0.032279243
0.032719065
0.033167355
0.03362392
0.034088543
0.034560991
0.035041004
0.035528305
0.036022595
0.036523554
0.037030843
0.037544104
0.038062961
0.03858702
0.039115869
0.039649084
0.040186224
0.040726835
0.041270452
0.041816597
0.042364784
0.042914517
0.043465293
0.044016604
0.044567933
0.045118762
0.04566857
0.046216833
0.046763028
0.04730663
0.047847104
0.048383932
0.024439527
0.024665648
0.024899861
0.025142246
0.025392947
0.025652096
0.025919819
0.026196232
0.026481445
0.026775557
0.02707866
0.027390835
0.027712149
0.02804266
0.028382413
0.028731436
0.029089747
0.029457343
0.02983421
0.030220312
0.030615599
0.031019999
0.031433423
0.031855761
0.032286883
0.032726639
0.033174857
0.033631342
0.034095881
0.034568238
0.035048156
0.035535355
0.036029538
0.036530385
0.037037558
0.037550697
0.038069427
0.038593355
0.03912207
0.039655146
0.040192144
0.04073261
0.041276078
0.041822072
0.042370106
0.042919684
0.043470305
0.044021458
0.044572632
0.045123307
0.045672965
0.046221085
0.046767145
0.047310619
0.047850979
0.024448035
0.02467423
0.024908512
0.025150961
0.02540172
0.025660923
0.025928693
0.026205149
0.026490397
0.02678454
0.027087668
0.02739986
0.027721186
0.028051703
0.028391455
0.028740471
0.029098768
0.029466344
0.029843183
0.030229251
0.030624497
0.03102885
0.031442219
0.031864496
0.032295551
0.032735232
0.033183367
0.033639765
0.034104209
0.034576465
0.035056274
0.03554336
0.036037423
0.036538145
0.037045186
0.037558189
0.038076777
0.038600558
0.039129122
0.039662043
0.040198882
0.040739185
0.041282487
0.041828312
0.042376175
0.04292558
0.043476026
0.044027004
0.044578003
0.045128505
0.045677994
0.046225949
0.046771852
0.047315179
0.047855416
0.024457624
0.024683901
0.024918259
0.02516078
0.025411605
0.025670868
0.025938692
0.026215194
0.026500483
0.02679466
0.027097814
0.027410027
0.027731366
0.028061889
0.02840164
0.028750648
0.029108929
0.029476482
0.029853291
0.030239321
0.030634522
0.031038821
0.03145213
0.031874338
0.032305317
0.032744914
0.033192958
0.033649257
0.034113595
0.034585738
0.035065428
0.035552386
0.036046316
0.036546897
0.037053792
0.037566642
0.038085073
0.038608691
0.039137086
0.039669834
0.040206495
0.040746617
0.041289734
0.041835371
0.042383042
0.042932255
0.043482506
0.04403329
0.044584093
0.045134402
0.045683699
0.046231466
0.046777188
0.047320351
0.024468368
0.024694736
0.024929181
0.025171781
0.02542268
0.025682008
0.025949891
0.026226446
0.02651178
0.026805994
0.027109179
0.027421413
0.027742767
0.028073297
0.028413047
0.028762046
0.029120309
0.029487837
0.029864612
0.0302506
0.030645749
0.03104999
0.031463231
0.031885363
0.032316257
0.032755761
0.033203704
0.033659893
0.034124114
0.03459613
0.035075687
0.035562504
0.036056285
0.036556711
0.037063443
0.037576124
0.038094379
0.038617816
0.039146024
0.03967858
0.040215044
0.040754965
0.041297877
0.041843305
0.042390765
0.042939763
0.043489799
0.044040366
0.044590953
0.045141046
0.045690127
0.046237679
0.046783194
0.047326189
0.024480347
0.024706817
0.024941356
0.025184045
0.025435024
0.025694426
0.025962375
0.026238987
0.026524371
0.026818626
0.027121844
0.027434103
0.027755473
0.028086011
0.028425759
0.028774747
0.029132992
0.029500491
0.029877228
0.030263169
0.030658262
0.031062437
0.031475603
0.031897651
0.032328451
0.032767852
0.033215683
0.033671751
0.034135841
0.034607719
0.035087127
0.035573788
0.036067405
0.036567658
0.037074211
0.037586705
0.038104766
0.038628002
0.039156004
0.039688348
0.040224594
0.040764292
0.041306977
0.041852175
0.042399401
0.042948163
0.043497961
0.044048288
0.044598635
0.045148487
0.045697326
0.046244633
0.046789916
0.024493644
0.024720226
0.024954871
0.025197657
0.025448725
0.025708208
0.025976229
0.026252904
0.026538343
0.026832644
0.027135897
0.027448184
0.027769572
0.028100117
0.028439863
0.02878884
0.029147063
0.029514531
0.029891226
0.030277115
0.030672146
0.031076249
0.031489332
0.031911287
0.032341983
0.032781271
0.033228978
0.033684911
0.034148858
0.034620582
0.035099828
0.035586317
0.036079753
0.036579816
0.03708617
0.037598459
0.038116306
0.038639321
0.039167096
0.039699205
0.040235212
0.040774665
0.041317101
0.041862045
0.042409013
0.042957515
0.04350705
0.044057113
0.044607195
0.04515678
0.045705347
0.046252376
0.046797407
0.024508349
0.024735054
0.024969814
0.025212707
0.025463873
0.025723445
0.025991544
0.026268289
0.026553787
0.026848138
0.027151432
0.027463748
0.027785155
0.028115709
0.028455453
0.028804417
0.029162616
0.029530049
0.029906698
0.03029253
0.030687493
0.031091515
0.031504507
0.031926359
0.032356942
0.032796104
0.033243675
0.033699462
0.03416325
0.034634806
0.035113872
0.035600173
0.036093409
0.036593264
0.037099401
0.037611463
0.038129076
0.038651849
0.039179373
0.039711226
0.04024697
0.040786154
0.041328315
0.04187298
0.042419666
0.042967881
0.043517128
0.044066901
0.044616691
0.045165981
0.045714244
0.046260961
0.024524553
0.024751394
0.02498628
0.02522929
0.025480564
0.025740231
0.026008418
0.026285238
0.026570802
0.026865207
0.027168544
0.027480892
0.027802319
0.028132883
0.028472624
0.028821574
0.029179747
0.029547141
0.02992374
0.030309509
0.030704396
0.031108331
0.031521223
0.031942962
0.03237342
0.032812446
0.033259867
0.033715492
0.034179108
0.034650479
0.035129349
0.035615442
0.036108461
0.036608087
0.037113986
0.0376258
0.038143156
0.038665663
0.039192914
0.039724486
0.040259942
0.040798831
0.041340692
0.041885052
0.042431428
0.04297933
0.043528261
0.044077715
0.044627185
0.04517615
0.045724076
0.046270457
0.024542356
0.024769346
0.025004369
0.025247507
0.025498896
0.02575867
0.02602695
0.026303853
0.026589487
0.026883951
0.027187335
0.027499718
0.027821168
0.028151741
0.028491479
0.028840413
0.029198557
0.029565909
0.029942452
0.030328152
0.030722957
0.031126795
0.031539578
0.031961194
0.032391516
0.032830391
0.033277649
0.033733098
0.034196524
0.034667693
0.035146349
0.035632216
0.036124996
0.036624373
0.037130012
0.037641555
0.038158631
0.038680848
0.0392078
0.039739065
0.040274206
0.040812775
0.041354308
0.041898334
0.042444372
0.042991932
0.043540516
0.044089622
0.044638742
0.045187352
0.045734906
0.046280942
0.02456186
0.024789012
0.025024185
0.025267461
0.025518977
0.025778865
0.026047247
0.02632424
0.02660995
0.026904478
0.027207913
0.027520333
0.027841807
0.02817239
0.028512125
0.028861041
0.029219152
0.029586458
0.02996294
0.030348565
0.03074328
0.031147013
0.031559676
0.031981158
0.03241133
0.032850042
0.033297122
0.033752379
0.034215598
0.034686547
0.035164969
0.035650589
0.03614311
0.036642215
0.03714757
0.037658818
0.038175589
0.03869749
0.039224117
0.039755048
0.040289847
0.040828064
0.041369241
0.041912904
0.042458573
0.043005759
0.043553965
0.044102691
0.044651429
0.045199655
0.04574681
0.046292491
0.024583173
0.024810502
0.025045839
0.025289264
0.025540917
0.025800928
0.026069421
0.02634651
0.026632303
0.0269269
0.027230389
0.02754285
0.027864349
0.028194942
0.028534673
0.028883569
0.029241645
0.0296089
0.029985316
0.030370858
0.030765474
0.031169093
0.031581625
0.032002961
0.032432971
0.032871504
0.033318391
0.033773438
0.034236433
0.034707142
0.03518531
0.035670661
0.0361629
0.03666171
0.037166756
0.037677684
0.038194122
0.03871568
0.039241954
0.039772521
0.040306948
0.040844785
0.041385574
0.041928842
0.04247411
0.043020889
0.043568683
0.044116992
0.044665316
0.045213135
0.045759872
0.024606408
0.024833932
0.025069444
0.025313032
0.025564833
0.025824977
0.026093588
0.026370781
0.026656663
0.026951334
0.027254881
0.027567384
0.027888911
0.028219515
0.02855924
0.028908114
0.029266151
0.029633351
0.030009693
0.030395146
0.030789654
0.031193149
0.031605539
0.032026716
0.032456549
0.032894889
0.033341564
0.033796384
0.034259135
0.034729584
0.035207476
0.035692536
0.036184469
0.036682958
0.03718767
0.03769825
0.038214328
0.038735514
0.039261404
0.039791578
0.040325601
0.040863025
0.041403393
0.041946232
0.042491065
0.043037401
0.043584746
0.044132601
0.044680475
0.04522788
0.045774208
0.024631681
0.024859423
0.025095124
0.025338885
0.025590844
0.025851131
0.026119869
0.026397174
0.026683152
0.026977901
0.027281511
0.02759406
0.027915614
0.02824623
0.028585948
0.028934798
0.029292792
0.02965993
0.030036194
0.030421548
0.03081594
0.031219299
0.031631535
0.032052539
0.032482181
0.03292031
0.033366757
0.033821331
0.034283817
0.034753984
0.035231578
0.035716322
0.036207923
0.036706065
0.037210415
0.037720619
0.038236306
0.038757089
0.039282564
0.039812312
0.040345898
0.040882876
0.041422788
0.041965163
0.042509524
0.043055381
0.043602237
0.044149593
0.044696983
0.024659116
0.0248871
0.025123004
0.025366951
0.02561908
0.025879519
0.026148394
0.026425817
0.026711897
0.027006731
0.027310407
0.027623004
0.027944588
0.028275214
0.028614924
0.028963746
0.029321694
0.029688765
0.030064942
0.03045019
0.030844455
0.031247667
0.031659736
0.032080552
0.032509986
0.032947888
0.033394088
0.033848395
0.034310595
0.034780458
0.035257727
0.035742131
0.036233373
0.03673114
0.037235098
0.037744895
0.038260161
0.038780509
0.039305536
0.039834823
0.040367937
0.040904433
0.041443852
0.041985726
0.042529577
0.043074914
0.043621239
0.044168056
0.024688848
0.024917095
0.025153216
0.025397362
0.025649671
0.025910274
0.026179293
0.026456843
0.026743031
0.027037954
0.027341701
0.027654348
0.027975963
0.0283066
0.0286463
0.028995091
0.029352987
0.029719986
0.030096068
0.0304812
0.030875327
0.03127838
0.031690268
0.032110881
0.032540091
0.032977747
0.033423679
0.033877698
0.034339589
0.034809122
0.035286043
0.035770078
0.036260933
0.036758295
0.037261831
0.037771189
0.038286
0.038805879
0.039330422
0.039859213
0.040391818
0.040927794
0.041466682
0.042008016
0.042551316
0.043096092
0.043641843
0.044188099
0.024500355
0.02472107
0.024949553
0.0251859
0.025430255
0.025682755
0.025943532
0.026212705
0.02649039
0.026776693
0.02707171
0.027375531
0.027688231
0.028009877
0.028340524
0.028680212
0.029028969
0.029386808
0.029753726
0.030129706
0.030514712
0.03090869
0.03131157
0.031723262
0.032143656
0.032572623
0.033010014
0.033455658
0.033909365
0.034370923
0.034840101
0.035316646
0.035800284
0.036290722
0.036787647
0.037290728
0.037799613
0.038313935
0.038833309
0.039357331
0.039885587
0.040417645
0.040953061
0.041491378
0.04203213
0.042574838
0.04311901
0.04366414
0.044209793
0.02453493
0.024755881
0.024984611
0.025221196
0.025465772
0.025718476
0.025979436
0.026248772
0.0265266
0.026813024
0.027108141
0.027412039
0.027724794
0.028046472
0.028377128
0.028716801
0.029065519
0.029423296
0.029790127
0.030165995
0.030550864
0.030944681
0.031347374
0.031758854
0.032179011
0.032607717
0.033044821
0.033490154
0.033943525
0.034404725
0.03487352
0.03534966
0.03583287
0.03632286
0.036819316
0.037321907
0.037830285
0.03834408
0.03886291
0.039386373
0.039914055
0.040445524
0.040980339
0.041518043
0.04205817
0.042600242
0.043143766
0.043688235
0.04423324
0.02457218
0.024793416
0.025022414
0.025259251
0.025504062
0.025756981
0.026018134
0.026287643
0.02656562
0.026852171
0.027147393
0.027451371
0.027764183
0.028085894
0.028416557
0.028756212
0.029104887
0.029462594
0.02982933
0.030205077
0.030589797
0.030983439
0.03138593
0.031797182
0.032217084
0.032645507
0.033082302
0.0335273
0.033980311
0.034441125
0.034909509
0.035385213
0.035867965
0.036357472
0.036853424
0.03735549
0.037863321
0.038376552
0.038894798
0.039417661
0.039944726
0.040475565
0.041009734
0.041546781
0.042086239
0.04262763
0.043170462
0.043714229
0.04425854
0.024612279
0.024833826
0.025063112
0.025300217
0.025545276
0.02579842
0.026059778
0.026329468
0.026607603
0.026894287
0.027189617
0.027493679
0.027806549
0.028128292
0.02845896
0.028798594
0.029147221
0.029504851
0.029871483
0.030247097
0.030631656
0.031025109
0.031427382
0.031838387
0.032258014
0.032686133
0.033122596
0.033567234
0.034019858
0.034480256
0.034948199
0.035423435
0.035905694
0.036394684
0.036890095
0.037391598
0.037898844
0.038411469
0.03892909
0.03945131
0.039977715
0.040507878
0.041041357
0.041577699
0.042116441
0.042657105
0.0431992
0.043742222
0.044285791
0.024655391
0.024877269
0.025106861
0.025344249
0.025589569
0.025842952
0.026104524
0.026374403
0.026652703
0.026939527
0.02723497
0.027539118
0.027852046
0.02817382
0.028504491
0.028844099
0.02919267
0.029550217
0.029916734
0.030292204
0.030676589
0.031069837
0.031471875
0.031882614
0.032301944
0.032729736
0.033165843
0.033610094
0.034062301
0.034522254
0.034989724
0.035464459
0.035946189
0.036434625
0.036929457
0.037430356
0.037936975
0.038448952
0.038965905
0.039487436
0.040013135
0.040542575
0.041075316
0.041610907
0.042148884
0.042688772
0.043230082
0.043772312
0.044315091
0.02470168
0.024923907
0.025153822
0.025391509
0.025637103
0.025890735
0.026152531
0.026422609
0.02670108
0.026988047
0.027283607
0.027587842
0.02790083
0.028222633
0.028553303
0.02889288
0.02924139
0.029598843
0.029965235
0.030340548
0.030724744
0.03111777
0.031519555
0.031930007
0.032349018
0.03277646
0.033212183
0.033656019
0.03410778
0.034567256
0.035034218
0.035508416
0.035989581
0.036477424
0.036971636
0.037471889
0.037977839
0.038489123
0.039005361
0.039526157
0.040051102
0.04057977
0.041111723
0.041646511
0.042183673
0.042722735
0.04326321
0.0438046
0.044346538
0.024751313
0.024973906
0.025204159
0.025442159
0.02568804
0.025941933
0.026203962
0.026474245
0.026752894
0.02704001
0.027335688
0.027640013
0.027953059
0.028274889
0.028605554
0.028945094
0.029293534
0.029650883
0.030017139
0.030392281
0.030776272
0.031169059
0.031570569
0.031980713
0.032399382
0.032826446
0.033261758
0.033705149
0.034156432
0.034615397
0.035081816
0.03555544
0.036036001
0.03652321
0.037016759
0.037516323
0.038021558
0.038532102
0.039047577
0.039567589
0.040091729
0.040619574
0.041150688
0.041684622
0.042220916
0.042759098
0.043298685
0.043839182
0.044380226
0.02480446
0.025027433
0.025258039
0.025496366
0.025742546
0.02599671
0.026258981
0.026529477
0.026808308
0.027095577
0.027391376
0.02769579
0.028008892
0.028330746
0.028661401
0.029000896
0.029349257
0.029706492
0.030072598
0.030447554
0.030831323
0.031223851
0.031625066
0.032034878
0.032453178
0.032879838
0.033314709
0.033757624
0.034208395
0.034666814
0.035132652
0.035605663
0.036085578
0.03657211
0.037064953
0.037563782
0.038068254
0.038578009
0.039092671
0.039611848
0.040135131
0.0406621
0.04119232
0.041725345
0.042260716
0.042797964
0.043336608
0.043876157
0.044416251
0.024861292
0.02508466
0.025315633
0.025554298
0.025800788
0.026055231
0.026317752
0.026588467
0.026867486
0.027154909
0.02745083
0.027755333
0.028068489
0.028390361
0.028721
0.029060442
0.029408713
0.029765821
0.030131762
0.030506516
0.030890044
0.031282293
0.03168319
0.032092645
0.03251055
0.032936776
0.033371175
0.03381358
0.034263804
0.034721639
0.035186858
0.035659214
0.03613844
0.036624251
0.03711634
0.037614386
0.038118046
0.038626962
0.039140758
0.039659046
0.040181418
0.040707456
0.041236726
0.041768785
0.042303176
0.042839433
0.043377075
0.043915619
0.044454704
0.024921979
0.025145756
0.025377109
0.025616124
0.025862932
0.026117664
0.026380441
0.026651379
0.026930588
0.027218168
0.027514211
0.027818799
0.028132005
0.02845389
0.028784504
0.029123884
0.029472053
0.029829021
0.030194782
0.030569314
0.030952581
0.031344528
0.031745083
0.032154155
0.032571635
0.032997396
0.03343129
0.03387315
0.03432279
0.034780002
0.03524456
0.035716218
0.036194711
0.036679753
0.037171041
0.037668253
0.038171049
0.038679072
0.03919195
0.039709292
0.040230697
0.040755746
0.041284008
0.041815042
0.042348394
0.042883599
0.04342018
0.043957658
0.044495674
0.024986695
0.025210893
0.025442635
0.025682008
0.025929144
0.02618417
0.026447208
0.026718374
0.026997774
0.02728551
0.027581673
0.027886343
0.028199594
0.028521485
0.028852065
0.029191371
0.029539425
0.029896236
0.030261799
0.030636091
0.031019075
0.031410696
0.031810882
0.032219542
0.032636567
0.033061831
0.033495184
0.033936462
0.034385478
0.034842026
0.03530588
0.035776795
0.036254507
0.036738733
0.037229168
0.037725495
0.038227373
0.038734449
0.03924635
0.039762691
0.040283069
0.040807069
0.041334263
0.041864211
0.042396462
0.042930553
0.043466012
0.04400236
0.044539244
0.025055608
0.025280235
0.025512376
0.025752116
0.025999585
0.02625491
0.026518212
0.026789606
0.027069198
0.027357089
0.027653367
0.027958115
0.028271403
0.02859329
0.028923825
0.029263043
0.029610967
0.029967605
0.03033295
0.03070698
0.031089658
0.031480927
0.031880715
0.032288933
0.032705471
0.033130202
0.033562979
0.034003635
0.034451986
0.034907827
0.035370932
0.035841057
0.036317939
0.036801296
0.037290827
0.037786214
0.038287119
0.03879319
0.039304057
0.039819336
0.040338627
0.040861517
0.04138758
0.041916379
0.042447465
0.042980379
0.04351465
0.044049805
0.044585492
0.025128881
0.025353946
0.025586491
0.025826603
0.026074409
0.026330035
0.026593603
0.026865225
0.027145007
0.027433048
0.027729437
0.028034254
0.02834757
0.028669442
0.028999919
0.029339035
0.029686812
0.030043257
0.030408363
0.030782107
0.031164452
0.031555341
0.031954703
0.032362446
0.032778462
0.033202623
0.033634784
0.034074779
0.034522422
0.034977509
0.035439818
0.035909104
0.036385105
0.036867541
0.037356113
0.037850504
0.038350378
0.038855385
0.039365157
0.039879313
0.040397454
0.04091917
0.041444039
0.041971624
0.04250148
0.04303315
0.043566167
0.044100062
0.044634485
0.025206672
0.02543218
0.025665133
0.025905619
0.026153763
0.026409691
0.026673522
0.026945369
0.027225336
0.027513522
0.027810014
0.028114891
0.028428223
0.028750067
0.029080471
0.029419467
0.029767077
0.030123307
0.030488151
0.030861584
0.031243568
0.031634048
0.03203295
0.032440184
0.032855641
0.033279194
0.033710698
0.034149987
0.034596877
0.035051165
0.035512627
0.035981023
0.036456091
0.036937552
0.037425108
0.037918444
0.038417228
0.03892111
0.039429726
0.039942694
0.040459621
0.040980099
0.041503706
0.042030011
0.042558569
0.043088928
0.043620623
0.04415319
0.04468628
0.025289127
0.025515079
0.025748441
0.0259893
0.02623778
0.026494007
0.026758098
0.027030164
0.027310309
0.02759863
0.027895214
0.02820014
0.028513474
0.028835274
0.029165586
0.029504443
0.029851865
0.030207857
0.030572412
0.030945506
0.0313271
0.031717137
0.032115545
0.032522233
0.032937093
0.033359998
0.033790802
0.03422934
0.03467543
0.035128868
0.035589434
0.036056886
0.036530965
0.037011394
0.037497876
0.037990099
0.038487731
0.038990426
0.03949782
0.040009537
0.040525184
0.041044356
0.041566635
0.042091591
0.042618783
0.043147762
0.043678065
0.044209234
0.044740921
0.025376377
0.025602771
0.025836539
0.026077767
0.02632658
0.026583099
0.026847441
0.027119718
0.027400031
0.027688476
0.027985139
0.028290097
0.028603417
0.028925155
0.029255355
0.02959405
0.029941259
0.030296987
0.030661225
0.03103395
0.03141512
0.031804681
0.032202558
0.032608662
0.033022883
0.033445096
0.033875154
0.034312895
0.034758136
0.035210674
0.03567029
0.036136743
0.036609778
0.037089116
0.037574464
0.038065511
0.038561929
0.039063372
0.039569481
0.04007988
0.04059418
0.041111978
0.041632859
0.042156396
0.042682153
0.04320968
0.043738522
0.044268222
0.044798435
0.025468535
0.025695365
0.025929532
0.026171122
0.026420257
0.026677059
0.026941642
0.027214117
0.027494584
0.027783138
0.028079863
0.028384836
0.028698122
0.029019775
0.029349841
0.029688349
0.030035318
0.030390753
0.030754643
0.031126965
0.031507678
0.031896724
0.032294032
0.03269951
0.03311305
0.033534525
0.033963792
0.034400686
0.034845026
0.035296611
0.035755222
0.036220621
0.036692552
0.03717074
0.037654893
0.038144703
0.038639842
0.039139968
0.039644725
0.040153738
0.040666622
0.041182977
0.041702391
0.042224439
0.042748689
0.043274695
0.043802004
0.044330163
0.044858831
0.025565691
0.025792946
0.026027501
0.02626944
0.026518884
0.026775954
0.027040763
0.02731342
0.027594024
0.027882668
0.028179435
0.028484401
0.02879763
0.029119175
0.029449078
0.029787371
0.030134071
0.03048918
0.03085269
0.031224573
0.03160479
0.031993284
0.032389981
0.032794789
0.033207603
0.033628294
0.034056719
0.034492715
0.034936102
0.035386679
0.03584423
0.036308516
0.036779284
0.037256261
0.037739157
0.038227664
0.03872146
0.039220203
0.03972354
0.0402311
0.040742499
0.041257341
0.041775217
0.042295706
0.042818378
0.043342791
0.043868496
0.044395043
0.044922095
0.025667902
0.025895566
0.026130492
0.026372763
0.0266225
0.026879819
0.027144835
0.027417653
0.027698372
0.027987083
0.028283869
0.028588802
0.028901947
0.029223355
0.029553068
0.029891114
0.030237511
0.03059226
0.030955352
0.031326759
0.031706441
0.032094339
0.032490381
0.032894475
0.033306514
0.033726372
0.034153905
0.034588951
0.03503133
0.035480844
0.035937276
0.03640039
0.036869935
0.037345639
0.037827214
0.038314355
0.038806741
0.039304035
0.039805885
0.040311922
0.040821768
0.041335027
0.041851295
0.042370154
0.042891176
0.043413926
0.043937955
0.044462821
0.044988186
0.02577519
0.026003241
0.026238516
0.026481097
0.026731102
0.026988648
0.027253846
0.0275268
0.027807609
0.02809636
0.028393136
0.028698008
0.029011038
0.029332277
0.029661766
0.029999531
0.030345589
0.030699941
0.031062575
0.031433465
0.031812568
0.032199827
0.032595169
0.032998501
0.033409717
0.03382869
0.034255278
0.03468932
0.035130636
0.035579029
0.036034283
0.036496166
0.036964426
0.037438794
0.037918985
0.038404695
0.038895607
0.039391385
0.039891679
0.040396127
0.040904349
0.041415956
0.041930546
0.042447704
0.042967007
0.043488022
0.044010307
0.044533423
0.045057035
0.025887528
0.026115939
0.026351535
0.026594398
0.026844644
0.027102387
0.027367738
0.027640799
0.027921666
0.028210426
0.02850716
0.028811937
0.029124818
0.029445853
0.02977508
0.030112526
0.030458205
0.030812119
0.031174254
0.031544582
0.031923063
0.032309636
0.032704228
0.033106749
0.03351709
0.033935127
0.034360717
0.034793699
0.035233895
0.035681109
0.036135128
0.036595719
0.037062633
0.037535603
0.038014346
0.038498561
0.038987932
0.039482128
0.039980801
0.040483591
0.040990123
0.04150001
0.042012852
0.04252824
0.043045755
0.043564966
0.044085439
0.044606741
0.045128542
0.026004836
0.026233573
0.026469456
0.026712567
0.026963019
0.027220926
0.027486395
0.027759527
0.028040417
0.02832915
0.028625805
0.028930449
0.029243143
0.029563933
0.029892859
0.030229944
0.030575202
0.030928634
0.031290224
0.031659946
0.032037755
0.032423594
0.032817388
0.033219046
0.033628461
0.034045507
0.034470043
0.03490191
0.035340929
0.035786907
0.036239631
0.036698869
0.037164376
0.037635887
0.038113119
0.038595776
0.039083543
0.039576092
0.040073079
0.040574146
0.041078921
0.041587021
0.042098049
0.0426116
0.043127258
0.043644599
0.044163194
0.044682624
0.045202578
0.026126967
0.026355989
0.026592117
0.026835435
0.027086054
0.027344084
0.027609631
0.027882794
0.028163666
0.028452331
0.028748865
0.029053335
0.029365799
0.029686302
0.030014882
0.030351561
0.030696353
0.031049256
0.031410254
0.03177932
0.03215641