/*--------------------------------*- C++ -*----------------------------------*\
| =========                 |                                                 |
| \\      /  F ield         | OpenFOAM: The Open Source CFD Toolbox           |
|  \\    /   O peration     | Version:  2312                                  |
|   \\  /    A nd           | Website:  www.openfoam.com                      |
|    \\/     M anipulation  |                                                 |
\*---------------------------------------------------------------------------*/
FoamFile
{
    version     2.0;
    format      ascii;
    arch        "LSB;label=32;scalar=64";
    class       volScalarField;
    location    "0.08";
    object      H2O;
}
// * * * * * * * * * * * * * * * * * * * * * * * * * * * * * * * * * * * * * //

dimensions      [0 0 0 0 0 0 0];

internalField   nonuniform List<scalar> 
3251
(
0.019712635
0.019493302
0.019270667
0.019044707
0.018815438
0.018582899
0.018347147
0.018108261
0.017866339
0.017621499
0.017373875
0.017123619
0.016870899
0.016615897
0.016358809
0.016099841
0.015839212
0.015577149
0.015313886
0.015049664
0.014784729
0.014519328
0.014253711
0.01398813
0.013722833
0.013458067
0.013194076
0.012931098
0.012669368
0.012409111
0.012150547
0.011893888
0.011639336
0.011387085
0.01113732
0.010890215
0.010645934
0.010404632
0.010166452
0.0099315277
0.0096999834
0.0094719325
0.009247479
0.0090267173
0.0088097327
0.0085966017
0.0083873925
0.0081821653
0.0079809733
0.0077838629
0.007590875
0.0074020532
0.0072174451
0.0070370558
0.0068608818
0.0066889345
0.0065212241
0.0063577572
0.019710862
0.019491578
0.019268986
0.019043063
0.018813831
0.018581327
0.018345611
0.01810676
0.017864873
0.017620068
0.017372479
0.017122257
0.016869572
0.016614604
0.01635755
0.016098616
0.015838021
0.015575991
0.015312762
0.015048574
0.014783671
0.014518303
0.01425272
0.013987171
0.013721906
0.013457172
0.013193212
0.012930266
0.012668566
0.01240834
0.012149806
0.011893177
0.011638654
0.011386433
0.011136696
0.010889619
0.010645365
0.01040409
0.010165936
0.0099310374
0.0096995183
0.009471492
0.0092470625
0.0090263243
0.0088093627
0.0085962543
0.0083870672
0.0081818619
0.0079806915
0.0077836025
0.0075906363
0.0074018346
0.0072172359
0.0070368513
0.0068606845
0.0066887459
0.0065210462
0.0063575946
0.019707268
0.019488069
0.019265555
0.019039705
0.018810544
0.018578111
0.018342464
0.018103682
0.017861863
0.017617125
0.017369603
0.017119449
0.01686683
0.016611929
0.01635494
0.016096072
0.015835543
0.015573578
0.015310414
0.01504629
0.014781451
0.014516147
0.014250626
0.01398514
0.013719937
0.013455264
0.013191365
0.012928479
0.012666838
0.012406671
0.012148195
0.011891622
0.011637155
0.011384989
0.011135306
0.010888282
0.01064408
0.010402855
0.010164751
0.0099299017
0.0096984302
0.0094704504
0.0092460663
0.0090253723
0.0088084539
0.0085953876
0.0083862416
0.0081810764
0.0079799452
0.0077828946
0.0075899658
0.0074011984
0.0072166258
0.0070362629
0.0068601178
0.0066882015
0.006520525
0.0063570937
0.019701859
0.019482779
0.019260378
0.019034637
0.018805581
0.018573252
0.018337708
0.018099028
0.017857311
0.017612674
0.017365252
0.017115198
0.016862678
0.016607874
0.016350984
0.016092213
0.015831781
0.015569913
0.015306844
0.015042815
0.014778071
0.014512861
0.014247433
0.01398204
0.013716928
0.013452346
0.013188537
0.012925739
0.012664186
0.012404105
0.012145714
0.011889225
0.011634841
0.011382755
0.011133152
0.010886206
0.01064208
0.010400931
0.0101629
0.0099281217
0.0096967201
0.0094688085
0.009244491
0.0090238619
0.0088070067
0.0085940019
0.0083849159
0.008179809
0.0079787346
0.0077817391
0.0075888634
0.0074001452
0.007215615
0.00703529
0.0068591814
0.0066873009
0.0065196598
0.0063562468
0.019694642
0.019475714
0.019253461
0.019027863
0.018798949
0.018566758
0.018331351
0.018092807
0.017851224
0.01760672
0.017359431
0.017109508
0.016857119
0.016602446
0.016345686
0.016087044
0.01582674
0.015564999
0.015302057
0.015038155
0.014773536
0.01450845
0.014243146
0.013977874
0.013712884
0.013448422
0.013184731
0.012922051
0.012660613
0.012400645
0.012142367
0.011885988
0.011631713
0.011379734
0.011130236
0.010883392
0.010639368
0.010398317
0.010160383
0.0099256988
0.0096943893
0.0094665675
0.0092423376
0.0090217938
0.0088050217
0.0085920977
0.0083830903
0.0081780599
0.0079770595
0.0077801356
0.0075873288
0.0073986749
0.007214203
0.0070339316
0.006857874
0.0066860437
0.0065184529
0.019686139
0.019467387
0.019245307
0.019019877
0.018791127
0.018559099
0.018323853
0.018085468
0.017844043
0.017599696
0.017352562
0.017102794
0.016850559
0.016596039
0.01633943
0.01608094
0.015820786
0.015559196
0.015296403
0.015032648
0.014768176
0.014503236
0.014238076
0.013972948
0.013708099
0.013443777
0.013180225
0.012917682
0.01265638
0.012396545
0.012138398
0.011882149
0.011628001
0.011376147
0.011126771
0.010880048
0.010636141
0.010395205
0.010157384
0.0099228103
0.0096916083
0.0094638914
0.0092397637
0.0090193195
0.0088026442
0.0085898145
0.0083808986
0.008175957
0.0079750427
0.007778202
0.0075854749
0.0073968962
0.0072124938
0.0070322873
0.0068562916
0.0066845223
0.0065170015
0.019676614
0.019458057
0.019236169
0.019010926
0.01878236
0.018550514
0.018315448
0.018077241
0.017835992
0.01759182
0.017344861
0.017095265
0.016843202
0.016588853
0.016332415
0.016074094
0.015814108
0.015552685
0.015290058
0.015026468
0.01476216
0.014497382
0.014232384
0.013967416
0.013702725
0.01343856
0.013175163
0.012912773
0.012651621
0.012391936
0.012133935
0.01187783
0.011623824
0.011372109
0.01112287
0.010876281
0.010632506
0.010391698
0.010154002
0.0099195514
0.0096884692
0.0094608691
0.0092368552
0.0090165219
0.0087999545
0.0085872296
0.0083784156
0.0081735727
0.0079727541
0.0077760056
0.007583367
0.0073948722
0.0072105484
0.0070304157
0.0068544902
0.0066827899
0.0065153413
0.019665323
0.019446995
0.019225332
0.019000311
0.018771964
0.018540333
0.018305479
0.018067482
0.017826443
0.017582478
0.017335725
0.017086334
0.016834474
0.016580328
0.01632409
0.016065969
0.015806182
0.015544957
0.015282527
0.015019132
0.014755018
0.014490433
0.014225625
0.013960846
0.013696343
0.013432363
0.013169149
0.012906939
0.012645966
0.012386456
0.012128629
0.011872694
0.011618855
0.011367305
0.011118228
0.010871797
0.010628176
0.010387521
0.010149973
0.0099156669
0.009684726
0.0094572639
0.0092333843
0.0090131818
0.0087967416
0.0085841403
0.0083754463
0.0081707198
0.0079700138
0.007773374
0.0075808397
0.0073924441
0.0072082138
0.0070281696
0.0068523283
0.0066807089
0.0065133338
0.019652137
0.019434075
0.019212674
0.018987912
0.018759819
0.018528439
0.018293833
0.018056082
0.017815286
0.017571564
0.01732505
0.017075898
0.016824275
0.016570365
0.016314362
0.016056474
0.015796919
0.015535924
0.015273723
0.015010557
0.014746669
0.014482307
0.014217722
0.013953163
0.013688878
0.013425114
0.013162113
0.012900114
0.012639349
0.012380044
0.012122418
0.011866682
0.011613038
0.011361679
0.01111279
0.010866543
0.010623103
0.010382624
0.010145249
0.0099111111
0.0096803348
0.0094530331
0.0092293098
0.0090092593
0.0087929671
0.0085805096
0.0083719551
0.0081673639
0.0079667888
0.0077702754
0.0075778624
0.0073895824
0.0072054619
0.0070255217
0.0068497798
0.0066782546
0.019636921
0.019419166
0.019198067
0.018973601
0.018745801
0.01851471
0.018280391
0.018042923
0.017802408
0.017558964
0.017312727
0.01706385
0.016812501
0.016558862
0.01630313
0.016045511
0.015786224
0.015525494
0.015263557
0.015000653
0.014737025
0.014472922
0.014208593
0.013944288
0.013680254
0.013416738
0.013153983
0.012892226
0.0126317
0.012372631
0.012115237
0.01185973
0.01160631
0.011355172
0.011106499
0.010860464
0.010617232
0.010376956
0.010139779
0.0099058359
0.0096752488
0.0094481316
0.0092245881
0.0090047126
0.0087885905
0.0085762983
0.0083679043
0.0081634687
0.0079630441
0.0077666759
0.0075744026
0.0073862561
0.0072022626
0.0070224435
0.0068468177
0.006675405
0.019619533
0.019402127
0.019181372
0.018957246
0.01872978
0.018499019
0.018265026
0.018027882
0.017787688
0.017544562
0.017298641
0.017050078
0.016799041
0.016545713
0.016290289
0.016032977
0.015773994
0.015513568
0.015251933
0.014989328
0.014725997
0.014462189
0.014198152
0.013934136
0.013670389
0.013407157
0.013144681
0.012883201
0.012622948
0.012364148
0.012107019
0.011851772
0.011598609
0.011347722
0.011099296
0.010853503
0.010610507
0.010370463
0.010133513
0.0098997902
0.0096694189
0.0094425121
0.0092191735
0.0089994974
0.0087835692
0.0085714654
0.0083632542
0.0081589958
0.0079587427
0.0077625401
0.0075704262
0.0073824324
0.0071985845
0.0070189049
0.0068434134
0.019599825
0.019382813
0.019162447
0.018938704
0.018711617
0.01848123
0.018247607
0.018010829
0.017770998
0.017528233
0.01728267
0.017034462
0.016783779
0.016530802
0.016275727
0.016018763
0.015760126
0.015500044
0.015238749
0.014976483
0.014713489
0.014450014
0.014186308
0.01392262
0.013659197
0.013396286
0.013134128
0.012872961
0.012613017
0.012354521
0.012097692
0.011842739
0.011589866
0.011339264
0.011091116
0.010845597
0.010602869
0.010363087
0.010126393
0.0098929207
0.0096627934
0.0094361246
0.0092130177
0.0089935672
0.0087778583
0.0085659675
0.008357963
0.0081539049
0.0079538458
0.0077578308
0.0075658975
0.0073780769
0.0071943948
0.0070148747
0.00683954
0.019577638
0.01936107
0.019141141
0.01891783
0.018691168
0.018461202
0.018227994
0.017991629
0.017752206
0.017509846
0.017264686
0.017016878
0.016766592
0.016514011
0.016259329
0.016002756
0.015744508
0.015484811
0.015223901
0.014962016
0.0146994
0.014436301
0.014172967
0.013909647
0.013646589
0.013384039
0.013122237
0.012861422
0.012601825
0.012343671
0.012087179
0.011832558
0.011580011
0.011329728
0.011081895
0.010836683
0.010594256
0.010354768
0.010118362
0.0098851709
0.009655318
0.0094289165
0.00920607
0.008986873
0.0087714104
0.0085597589
0.0083519866
0.0081481537
0.0079483127
0.0077525085
0.0075607786
0.0073731536
0.0071896589
0.0070103195
0.019552809
0.019336738
0.019117297
0.018894468
0.018668281
0.018438785
0.018206043
0.017970138
0.017731172
0.017489265
0.017244555
0.016997195
0.016747354
0.016495214
0.016240973
0.015984836
0.015727023
0.015467758
0.015207277
0.014945818
0.014683625
0.014420946
0.014158028
0.01389512
0.01363247
0.013370323
0.01310892
0.012848498
0.012589289
0.012331518
0.012075403
0.011821152
0.011568969
0.011319044
0.011071561
0.010826692
0.010584602
0.010345443
0.010109359
0.0098764819
0.0096469354
0.0094208327
0.0091982772
0.0089793633
0.008764176
0.0085527919
0.0083452791
0.0081416977
0.0079421003
0.007746532
0.0075550301
0.0073676247
0.0071843407
0.007005207
0.019525167
0.019309647
0.019090749
0.018868456
0.018642798
0.018413825
0.0181816
0.017946207
0.01770775
0.017466348
0.017222138
0.016975276
0.01672593
0.016474282
0.01622053
0.01596488
0.015707549
0.015448766
0.015188762
0.014927777
0.014666055
0.014403842
0.014141387
0.013878937
0.013616741
0.013355042
0.013094083
0.012834099
0.012575322
0.012317976
0.012062279
0.011808441
0.011556662
0.011307134
0.011060041
0.010815555
0.010573839
0.010335046
0.010099319
0.0098667917
0.009637586
0.0094118154
0.0091895835
0.0089709843
0.0087561031
0.0085450162
0.0083377918
0.0081344901
0.0079351638
0.0077398581
0.0075486105
0.0073614507
0.0071784019
0.019494531
0.019279621
0.019061325
0.018839625
0.018614553
0.018386158
0.018154506
0.017919681
0.017681787
0.017440943
0.017197289
0.016950978
0.01670218
0.016451077
0.016197866
0.015942755
0.01568596
0.015427709
0.015168233
0.014907774
0.014646573
0.014384877
0.014122934
0.013860992
0.013599298
0.013338097
0.013077628
0.012818129
0.012559829
0.012302955
0.012047722
0.01179434
0.011543009
0.011293922
0.01104726
0.010803197
0.010561895
0.010323507
0.010088176
0.0098560354
0.009627207
0.0094018041
0.0091799303
0.0089616796
0.0087471372
0.0085363793
0.0083294741
0.008126482
0.0079274558
0.0077324413
0.0075414764
0.0073545908
0.0071718054
0.019460715
0.019246478
0.019028845
0.018807799
0.018583373
0.018355616
0.018124596
0.017890398
0.017653124
0.017412897
0.017169854
0.016924152
0.016675958
0.016425456
0.016172843
0.015918326
0.015662122
0.015404458
0.015145566
0.014885685
0.014625059
0.014363934
0.014102556
0.013841174
0.013580035
0.013319381
0.013059453
0.012800489
0.012542717
0.012286362
0.01203164
0.011778761
0.011527925
0.011279323
0.011033137
0.01078954
0.010548695
0.010310754
0.01007586
0.0098441454
0.0096157329
0.0093907355
0.0091692566
0.0089513903
0.0087372214
0.0085268263
0.0083202731
0.0081176223
0.007918927
0.007724234
0.0075335825
0.0073470021
0.019423523
0.019210027
0.018993122
0.018772794
0.018549077
0.018322022
0.018091697
0.017858186
0.017621595
0.017382045
0.017139676
0.016894641
0.016647112
0.016397271
0.016145315
0.015891452
0.015635897
0.015378878
0.015120627
0.014861383
0.014601389
0.014340891
0.014080134
0.013819368
0.013558837
0.013298785
0.013039453
0.012781076
0.012523883
0.012268099
0.012013939
0.011761613
0.01151132
0.011263251
0.011017589
0.010774505
0.010534162
0.010296712
0.010062297
0.009831051
0.0096030956
0.0093785438
0.0091574988
0.0089400547
0.0087262963
0.0085162999
0.0083101335
0.0081078575
0.0079095259
0.0077151865
0.0075248808
0.0073386438
0.019382755
0.019170069
0.018953961
0.018734419
0.01851148
0.018285193
0.018055628
0.017822871
0.017587028
0.01734822
0.017106588
0.016862286
0.016615485
0.016366368
0.016115132
0.015861984
0.015607141
0.015350829
0.01509328
0.014834734
0.014575432
0.01431562
0.014055545
0.013795452
0.013535588
0.013276197
0.013017516
0.012759782
0.012503225
0.012248066
0.011994522
0.011742801
0.011493103
0.011245619
0.011000529
0.010758007
0.010518213
0.010281301
0.010047412
0.0098166787
0.0095892239
0.0093651601
0.0091445905
0.0089276089
0.0087143002
0.0085047405
0.0082989976
0.0080971322
0.0078991985
0.0077052464
0.0075153203
0.0073294549
0.019338201
0.019126398
0.01891116
0.018692477
0.018470386
0.018244938
0.018016204
0.01778427
0.017549243
0.017311246
0.017070419
0.016826918
0.016580912
0.016332586
0.016082136
0.015829769
0.015575704
0.015320164
0.015063383
0.014805599
0.014547053
0.014287991
0.014028659
0.013769303
0.013510168
0.013251497
0.012993528
0.012736497
0.012480633
0.012226157
0.011973285
0.011722226
0.011473178
0.011226331
0.010981868
0.010739958
0.010500765
0.01026444
0.010031125
0.0098009521
0.0095740441
0.0093505133
0.0091304628
0.0089139864
0.0087011689
0.0084920861
0.008286806
0.0080853887
0.007887889
0.0076943591
0.0075048471
0.0073193793
0.019289644
0.019078803
0.018864511
0.018646763
0.018425595
0.018201062
0.017973232
0.017742195
0.017508057
0.017270943
0.017030993
0.016788363
0.016543224
0.016295759
0.016046166
0.015794651
0.015541432
0.015286734
0.015030788
0.014773834
0.014516112
0.014257867
0.013999345
0.013740791
0.01348245
0.013224563
0.012967371
0.012711105
0.012455995
0.012202263
0.011950124
0.011699785
0.011451445
0.011205293
0.010961511
0.010720269
0.01048173
0.010246044
0.010013354
0.0097837921
0.0095574796
0.0093345293
0.0091150443
0.0088991183
0.0086868358
0.0084782728
0.0082734967
0.0080725673
0.0078755393
0.0076824682
0.007493408
0.01923686
0.019027065
0.0188138
0.018597066
0.018376902
0.01815336
0.017926513
0.01769645
0.017463279
0.017227124
0.016988127
0.016746444
0.016502246
0.016255717
0.016007054
0.015756465
0.015504166
0.015250382
0.014995345
0.014739292
0.014482465
0.014225108
0.013967466
0.013709783
0.013452304
0.013195271
0.01293892
0.012683486
0.012429197
0.012176273
0.01192493
0.011675373
0.011427802
0.011182405
0.010939363
0.010698847
0.010461018
0.010226027
0.0099940162
0.009765117
0.0095394515
0.0093171319
0.0090982613
0.0088829333
0.0086712324
0.0084632343
0.0082590062
0.008058607
0.0078620896
0.0076695143
0.0074809531
0.019179621
0.018970958
0.018758805
0.01854317
0.018324092
0.018101626
0.017875844
0.017646836
0.017414712
0.017179597
0.016941632
0.016700976
0.016457798
0.016212284
0.01596463
0.015715044
0.015463741
0.015210948
0.014956896
0.014701821
0.014445964
0.014189569
0.01393288
0.013676142
0.013419598
0.013163489
0.012908052
0.012653519
0.012400119
0.012148071
0.01189759
0.011648882
0.011402143
0.011157565
0.010915325
0.010675595
0.010438536
0.010204298
0.0099730232
0.0097448426
0.0095198783
0.0092982424
0.0090800377
0.0088653579
0.0086542876
0.0084469023
0.008243269
0.0080434453
0.0078474789
0.01911769
0.01891025
0.018699299
0.018484852
0.018266949
0.018045645
0.017821014
0.017593148
0.017362156
0.017128165
0.016891317
0.01665177
0.016409696
0.016165279
0.015918716
0.015670215
0.015419991
0.015168269
0.014915282
0.014661264
0.014406456
0.014151102
0.013895444
0.013639727
0.013384194
0.013129085
0.012874635
0.012621077
0.012368638
0.012117538
0.011867989
0.011620198
0.011374361
0.011130667
0.010889295
0.010650415
0.010414188
0.010180765
0.0099502858
0.0097228824
0.0094986763
0.0092777797
0.0090602954
0.0088463168
0.0086359286
0.0084292067
0.0082262181
0.0080270196
0.019050825
0.018844703
0.01863505
0.018421886
0.01820525
0.0179852
0.017761811
0.017535176
0.017305406
0.017072628
0.016836985
0.016598636
0.016357752
0.016114519
0.015869134
0.015621803
0.015372742
0.015122178
0.014870339
0.014617462
0.014363786
0.014109555
0.01385501
0.013600396
0.013345953
0.013091922
0.012838538
0.012586032
0.012334631
0.012084552
0.01183601
0.011589208
0.011344344
0.011101604
0.010861169
0.010623207
0.010387878
0.010155333
0.0099257126
0.0096991478
0.00947576
0.0092556613
0.0090389543
0.0088257326
0.0086160809
0.0084100756
0.0082077848
0.0080092682
0.019179946
0.018978781
0.018774079
0.018565825
0.018354041
0.01813877
0.017920069
0.017698017
0.017472707
0.017244252
0.01701278
0.016778435
0.016541376
0.016301775
0.016059817
0.015815699
0.015569628
0.015321822
0.015072502
0.014821901
0.014570252
0.014317796
0.014064774
0.013811428
0.013558
0.013304733
0.013051863
0.012799627
0.012548254
0.012297969
0.012048991
0.011801533
0.011555797
0.011311979
0.011070268
0.01083084
0.010593866
0.010359505
0.010127906
0.0098992105
0.0096735487
0.0094510422
0.0092318027
0.0090159328
0.0088035263
0.0085946681
0.0083894351
0.0081878968
0.0079901134
0.019100924
0.018901313
0.018698137
0.018491385
0.018281085
0.018067278
0.017850028
0.017629412
0.017405527
0.017178485
0.016948417
0.016715466
0.016479793
0.016241569
0.016000982
0.015758227
0.015513511
0.015267051
0.015019071
0.014769799
0.014519471
0.014268326
0.014016603
0.013764545
0.013512394
0.013260389
0.013008767
0.012757764
0.012507609
0.012258525
0.01201073
0.011764436
0.011519845
0.011277153
0.011036546
0.010798202
0.01056229
0.010328968
0.010098386
0.0098706848
0.0096459937
0.0094244343
0.0092061183
0.0089911483
0.008779618
0.0085716127
0.0083672098
0.0081664798
0.0079694824
0.019016122
0.018818176
0.018616634
0.018411493
0.018202782
0.017990547
0.017774851
0.017555776
0.017333418
0.017107892
0.016879328
0.016647873
0.016413687
0.016176942
0.015937824
0.015696531
0.015453269
0.015208254
0.01496171
0.014713865
0.014464953
0.014215214
0.013964885
0.013714209
0.013463426
0.013212776
0.012962493
0.012712813
0.012463964
0.012216168
0.011969642
0.011724597
0.011481235
0.01123975
0.011000328
0.010763147
0.010528373
0.010296167
0.010066676
0.0098400403
0.0096163904
0.009395847
0.0091785217
0.008964517
0.0087539268
0.0085468364
0.0083433236
0.0081434598
0.0079473036
0.018925292
0.018729123
0.018529329
0.018325911
0.0181189
0.017908346
0.017694314
0.017476886
0.017256163
0.017032259
0.016805307
0.016575454
0.016342859
0.016107696
0.015870152
0.015630424
0.015388719
0.015145251
0.014900245
0.014653927
0.014406533
0.014158299
0.013909463
0.013660267
0.013410949
0.013161748
0.0129129
0.012664637
0.012417185
0.012170768
0.011925601
0.011681894
0.011439847
0.011199654
0.010961502
0.010725565
0.010492011
0.010260998
0.010032675
0.0098071813
0.0095846463
0.0093651908
0.0091489263
0.0089359552
0.0087263714
0.0085202605
0.0083177005
0.008118763
0.0079235061
0.018828186
0.018633911
0.018435982
0.018234402
0.018029207
0.017820447
0.017608192
0.017392525
0.017173548
0.016951377
0.016726147
0.016498004
0.01626711
0.016033639
0.015797777
0.015559722
0.01531968
0.015077866
0.014834503
0.014589818
0.014344045
0.01409742
0.01385018
0.013602565
0.013354814
0.013107163
0.012859847
0.012613097
0.01236714
0.012122197
0.011878482
0.011636204
0.011395563
0.011156752
0.010919955
0.010685348
0.010453098
0.010223361
0.0099962866
0.0097720128
0.0095506694
0.0093323766
0.0091172458
0.0089053794
0.0086968712
0.0084918069
0.0082902648
0.0080923165
0.0078980196
0.018724558
0.018532299
0.018336355
0.018136733
0.017933473
0.017726626
0.017516265
0.017302475
0.01708536
0.016865038
0.016641644
0.016415326
0.016186246
0.01595458
0.015720512
0.015484242
0.015245974
0.015005925
0.014764315
0.014521372
0.014277329
0.01403242
0.013786882
0.013540955
0.013294874
0.013048877
0.012803196
0.012558061
0.012313698
0.012070327
0.011828161
0.011587408
0.011348267
0.011110929
0.010875579
0.010642391
0.010411531
0.010183156
0.0099574131
0.0097344409
0.0095143686
0.0092973163
0.009083395
0.008872707
0.0086653463
0.0084613984
0.0082609418
0.0080640481
0.0078707747
0.018614171
0.018424053
0.018230219
0.01803268
0.017831476
0.017626665
0.017418319
0.017206526
0.016991393
0.016773039
0.0165516
0.016327225
0.016100077
0.015870332
0.015638175
0.015403805
0.015167427
0.014929257
0.014689514
0.014448427
0.014206225
0.013963144
0.01371942
0.013475289
0.013230987
0.012986751
0.012742811
0.012499396
0.012256731
0.012015034
0.011774518
0.011535388
0.011297844
0.011062076
0.010828266
0.010596589
0.01036721
0.010140285
0.0099159599
0.0096943739
0.0094756553
0.009259924
0.0090472907
0.0088378577
0.0086317188
0.0084289596
0.0082296587
0.0080338876
0.0078417035
0.018496795
0.018308949
0.018117353
0.017922024
0.017723004
0.017520353
0.017314147
0.017104477
0.016891449
0.016675186
0.016455825
0.016233515
0.01600842
0.015780717
0.015550591
0.015318241
0.015083872
0.014847699
0.014609941
0.014370826
0.014130583
0.013889445
0.013647648
0.013405427
0.013163017
0.012920652
0.012678563
0.012436976
0.012196116
0.011956198
0.011717435
0.011480032
0.011244186
0.011010086
0.010777914
0.010547843
0.010320037
0.010094653
0.0098718359
0.0096517234
0.0094344438
0.0092201167
0.0090088526
0.0088007536
0.0085959134
0.0083944178
0.0081963451
0.0080017671
0.0078107406
0.018372215
0.018186774
0.017997548
0.01780456
0.017607854
0.017407494
0.017203556
0.016996136
0.016785341
0.016571296
0.016354137
0.016134018
0.015911102
0.015685565
0.015457595
0.015227388
0.014995151
0.014761097
0.014525446
0.014288423
0.014050257
0.013811182
0.013571429
0.013331235
0.013090832
0.012850453
0.012610328
0.012370682
0.012131736
0.011893707
0.011656804
0.011421233
0.011187187
0.010954857
0.010724423
0.010496056
0.010269921
0.010046172
0.0098249544
0.0096064054
0.0093906528
0.0091778157
0.0089680045
0.008761321
0.0085578589
0.0083577038
0.0081609343
0.0079676221
0.0077778237
0.018240232
0.018057332
0.017870612
0.017680098
0.01748584
0.017287902
0.017086365
0.016881326
0.016672895
0.016461197
0.016246371
0.016028571
0.015807962
0.015584719
0.015359032
0.015131095
0.014901116
0.014669307
0.014435887
0.01420108
0.013965116
0.013728224
0.013490638
0.01325259
0.013014313
0.012776038
0.012537993
0.012300401
0.012063483
0.011827454
0.011592522
0.01135889
0.011126753
0.010896297
0.010667703
0.010441142
0.010216776
0.0099947582
0.009775235
0.009558342
0.0093442067
0.0091329479
0.0089246755
0.0087194912
0.0085174886
0.0083187534
0.0081233641
0.0079313925
0.0077428948
0.018100668
0.017920448
0.017736371
0.017548469
0.017356793
0.017161413
0.016962412
0.016759887
0.016553953
0.016344735
0.016132376
0.015917027
0.015698856
0.015478039
0.015254764
0.015029228
0.014801635
0.014572199
0.014341138
0.014108675
0.013875038
0.013640455
0.013405159
0.013169381
0.012933352
0.0126973
0.012461453
0.012226034
0.01199126
0.011757346
0.011524497
0.011292916
0.011062795
0.010834321
0.010607673
0.01038302
0.010160523
0.0099403369
0.0097226048
0.0095074626
0.0092950372
0.0090854468
0.0088788012
0.008675202
0.0084747425
0.0082775084
0.0080835782
0.0078930239
0.0077059014
0.01795337
0.017775971
0.017594677
0.017409524
0.01722057
0.017027885
0.016831556
0.016631683
0.016428382
0.01622178
0.016012021
0.015799258
0.015583659
0.015365402
0.015144672
0.014921669
0.014696595
0.014469663
0.014241091
0.014011101
0.013779919
0.013547773
0.013314894
0.01308151
0.012847853
0.012614148
0.012380621
0.012147494
0.011914983
0.011683299
0.011452649
0.011223231
0.010995238
0.010768856
0.01054426
0.01032162
0.010101097
0.0098828429
0.0096670008
0.009453706
0.0092430847
0.0090352549
0.0088303261
0.0086283994
0.0084295681
0.008233918
0.0080415276
0.0078524689
0.0076667977
0.017798216
0.01762378
0.017445409
0.017263147
0.017077054
0.016887203
0.016693685
0.016496602
0.016296071
0.016092223
0.015885201
0.015675161
0.015462271
0.015246708
0.015028659
0.014808322
0.014585901
0.014361607
0.014135657
0.013908271
0.013679675
0.013450096
0.013219761
0.0129889
0.01275774
0.012526507
0.012295424
0.012064711
0.011834582
0.011605247
0.011376912
0.011149773
0.010924022
0.010699841
0.010477407
0.010256888
0.010038443
0.009822223
0.0096083713
0.009397022
0.0091883008
0.0089823252
0.0087792043
0.0085790391
0.0083819227
0.0081879408
0.0079971721
0.0078096886
0.0076255461
0.01763512
0.017463788
0.017288483
0.017109252
0.016926161
0.016739285
0.016548717
0.016354563
0.016156942
0.015955986
0.01575184
0.015544661
0.015334617
0.015121885
0.014906655
0.014689121
0.014469488
0.014247966
0.014024771
0.013800123
0.013574245
0.013347363
0.013119704
0.012891494
0.012662959
0.012434324
0.012205809
0.011977632
0.011750008
0.011523143
0.01129724
0.011072496
0.0108491
0.010627234
0.010407072
0.010188781
0.0099725199
0.0097584384
0.0095466787
0.0093373742
0.00913065
0.0089266232
0.0087254025
0.0085270886
0.0083317747
0.0081395462
0.0079504821
0.0077646544
0.0075821187
0.017464039
0.017295953
0.017123854
0.016947797
0.016767847
0.016584086
0.01639661
0.016205525
0.016010953
0.015813029
0.015611898
0.015407718
0.015200658
0.014990896
0.01477862
0.014564027
0.014347318
0.014128704
0.013908399
0.013686623
0.013463596
0.013239543
0.01301469
0.012789261
0.012563479
0.012337568
0.012111747
0.011886232
0.011661233
0.011436958
0.011213607
0.010991375
0.010770449
0.01055101
0.010333231
0.010117277
0.0099033064
0.0096914676
0.0094819019
0.0092747419
0.0090701123
0.0088681294
0.0086689016
0.0084725296
0.0082791061
0.0080887168
0.0079014406
0.0077173497
0.0075364997
0.017284977
0.017120279
0.016951527
0.016778782
0.016602114
0.016421608
0.016237362
0.016049486
0.015858103
0.015663349
0.015465372
0.01526433
0.015060393
0.014853738
0.014644555
0.014433038
0.01421939
0.014003819
0.013786539
0.013567768
0.013347726
0.013126635
0.012904718
0.012682199
0.012459299
0.01223624
0.012013238
0.011790507
0.011568257
0.011346692
0.011126011
0.010906407
0.010688066
0.010471167
0.010255882
0.010042374
0.0098308006
0.0096213088
0.009414039
0.0092091234
0.0090066856
0.0088068417
0.0086096997
0.0084153598
0.0082239148
0.0080354503
0.0078500453
0.0076677723
0.0074886866
0.017097998
0.016936825
0.016771558
0.016602263
0.016429016
0.016251903
0.016071025
0.015886496
0.01569844
0.015506994
0.015312309
0.015114542
0.014913865
0.014710455
0.0145045
0.014296196
0.014085743
0.013873351
0.01365923
0.013443597
0.013226671
0.013008672
0.012789822
0.012570342
0.012350452
0.01213037
0.011910311
0.011690488
0.011471108
0.011252373
0.01103448
0.01081762
0.010601978
0.010387731
0.01017505
0.0099640957
0.0097550245
0.0095479831
0.0093431107
0.0091405383
0.0089403892
0.0087427786
0.0085478143
0.0083555962
0.008166217
0.0079797622
0.0077963111
0.0076159362
0.0074386931
0.01690323
0.016745716
0.016584069
0.01641836
0.016248668
0.016075083
0.015897709
0.015716661
0.015532067
0.015344066
0.015152807
0.014958451
0.014761168
0.014561138
0.014358546
0.014153588
0.013946465
0.013737383
0.013526553
0.01331419
0.01310051
0.012885733
0.012670077
0.012453763
0.012237008
0.012020027
0.011803035
0.011586241
0.011369849
0.011154062
0.010939073
0.010725072
0.010512241
0.010300757
0.010090787
0.0098824925
0.0096760279
0.0094715388
0.0092691633
0.0090690315
0.0088712662
0.0086759819
0.0084832859
0.0082932778
0.0081060501
0.0079216886
0.0077402726
0.0075618749
0.007386551
0.016700874
0.01654715
0.016389251
0.016227258
0.016061252
0.015891326
0.015717588
0.015540154
0.015359154
0.015174728
0.014987028
0.014796215
0.014602458
0.014405938
0.01420684
0.014005359
0.013801696
0.013596054
0.013388643
0.013179677
0.012969371
0.012757941
0.012545606
0.012332581
0.012119082
0.011905325
0.011691518
0.011477871
0.011264585
0.01105186
0.010839889
0.010628857
0.010418947
0.010210332
0.010003179
0.0097976484
0.0095938918
0.0093920542
0.0091922727
0.0089946766
0.0087993877
0.0086065201
0.0084161806
0.0082284684
0.008043476
0.007861289
0.0076819869
0.007505643
0.0073323132
0.016491218
0.016341404
0.016187379
0.016029226
0.01586703
0.015700889
0.015530912
0.015357218
0.015179938
0.014999215
0.014815201
0.014628057
0.014437954
0.01424507
0.014049593
0.013851715
0.013651636
0.013449559
0.013245693
0.013040247
0.012833437
0.012625477
0.012416581
0.012206965
0.011996842
0.011786424
0.011575918
0.011365532
0.011155464
0.010945912
0.010737066
0.010529112
0.010322228
0.010116586
0.0099123519
0.0097096839
0.0095087329
0.0093096423
0.0091125483
0.0089175792
0.0087248561
0.0085344924
0.0083465944
0.0081612609
0.0079785841
0.0077986497
0.0076215372
0.0074473204
0.0072760558
0.01627464
0.016128853
0.015978816
0.015824619
0.015666352
0.015504114
0.015338016
0.015168181
0.014994742
0.014817842
0.014637633
0.014454279
0.01426795
0.014078824
0.013887087
0.013692932
0.013496557
0.013298164
0.013097959
0.012896152
0.012692954
0.012488578
0.012283237
0.012077144
0.011870508
0.01166354
0.011456446
0.011249428
0.011042685
0.010836411
0.010630795
0.010426019
0.010222261
0.01001969
0.0098184715
0.0096187609
0.009420708
0.0092244553
0.0090301375
0.0088378822
0.0086478096
0.0084600325
0.0082746565
0.0080917802
0.0079114953
0.0077338872
0.0075590356
0.0073870144
0.0072178806
0.016051628
0.015909971
0.015764028
0.015613895
0.015459664
0.015301438
0.01513933
0.014973465
0.014803978
0.014631012
0.014454721
0.014275269