/*--------------------------------*- C++ -*----------------------------------*\
| =========                 |                                                 |
| \\      /  F ield         | OpenFOAM: The Open Source CFD Toolbox           |
|  \\    /   O peration     | Version:  2312                                  |
|   \\  /    A nd           | Website:  www.openfoam.com                      |
|    \\/     M anipulation  |                                                 |
\*---------------------------------------------------------------------------*/
FoamFile
{
    version     2.0;
    format      ascii;
    arch        "LSB;label=32;scalar=64";
    class       volScalarField;
    location    "0.08";
    object      k;
}
// * * * * * * * * * * * * * * * * * * * * * * * * * * * * * * * * * * * * * //

dimensions      [0 2 -2 0 0 0 0];

internalField   nonuniform List<scalar> 
3251
(
11.743299
11.656423
11.571586
11.488712
11.407736
11.328596
11.251235
11.175599
11.101637
11.029303
10.958554
10.889351
10.821659
10.755444
10.690678
10.627335
10.56539
10.504822
10.445614
10.387747
10.331208
10.275982
10.222058
10.169425
10.118072
10.067991
10.019171
9.9716046
9.925282
9.8801944
9.8363323
9.7936861
9.7522455
9.7119996
9.6729367
9.6350447
9.5983105
9.5627203
9.5282595
9.4949128
9.462664
9.4314964
9.4013925
9.3723342
9.3443026
9.3172782
9.2912408
9.2661687
9.2420391
9.2188275
9.196506
9.1750267
9.1543292
9.1344219
9.115318
9.096998
9.0794359
9.0626058
11.742699
11.655846
11.571031
11.488176
11.407218
11.328096
11.250752
11.175131
11.101185
11.028866
10.958131
10.888942
10.821263
10.755061
10.690307
10.626975
10.565042
10.504485
10.445287
10.38743
10.330901
10.275684
10.221769
10.169145
10.1178
10.067727
10.018915
9.9713554
9.9250397
9.8799587
9.836103
9.7934629
9.7520281
9.7117877
9.6727302
9.6348432
9.5981138
9.5625282
9.5280717
9.494729
9.4624841
9.4313201
9.4012195
9.3721641
9.3441349
9.3171125
9.2910762
9.2660043
9.2418739
9.2186602
9.1963348
9.1748543
9.1541739
9.1342907
9.1152049
9.0968979
9.0793433
9.0625162
11.741547
11.654737
11.569962
11.487144
11.406222
11.327134
11.249822
11.174233
11.100317
11.028026
10.95732
10.888158
10.820504
10.754328
10.689598
10.626289
10.564378
10.503843
10.444666
10.386829
10.330319
10.275122
10.221225
10.168618
10.11729
10.067233
10.018437
9.9708926
9.9245916
9.8795247
9.8356826
9.7930556
9.7516334
9.7114052
9.6723593
9.6344835
9.5977649
9.5621896
9.5277431
9.4944099
9.4621741
9.4310188
9.4009263
9.3718786
9.3438566
9.3168406
9.2908099
9.2657428
9.2416161
9.2184052
9.1960818
9.1746071
9.1539453
9.1340861
9.1150215
9.0967314
9.0791887
9.0623758
11.739843
11.653094
11.568378
11.485616
11.404747
11.325709
11.248446
11.172903
11.099032
11.026785
10.95612
10.886998
10.819383
10.753244
10.68855
10.625276
10.563399
10.502896
10.44375
10.385944
10.329463
10.274294
10.220424
10.167844
10.116542
10.066509
10.017737
9.9702159
9.9239372
9.8788919
9.8350707
9.7924638
9.751061
9.7108515
9.6718236
9.6339653
9.5972635
9.5617044
9.5272734
9.4939552
9.4617337
9.4305921
9.4005128
9.3714776
9.3434673
9.3164623
9.2904418
9.265384
9.2412658
9.2180626
9.1957467
9.1742838
9.1536428
9.1338088
9.114768
9.0964986
9.0789725
9.0621926
11.737588
11.65092
11.566281
11.483593
11.402793
11.323823
11.246624
11.171144
11.097332
11.025143
10.954533
10.885464
10.817901
10.751811
10.687165
10.623938
10.562105
10.501645
10.442541
10.384775
10.328334
10.273202
10.219369
10.166824
10.115557
10.065557
10.016817
9.9693268
9.9230781
9.8780619
9.8342687
9.791689
9.7503125
9.7101283
9.671125
9.6332903
9.5966113
9.5610741
9.5266644
9.4933666
9.4611648
9.4300421
9.3999809
9.3709629
9.3429691
9.3159797
9.289974
9.26493
9.240825
9.2176344
9.1953316
9.1738853
9.1532678
9.1334608
9.1144468
9.0962008
9.0786933
11.734945
11.648371
11.563822
11.48122
11.400503
11.321612
11.244489
11.169082
11.09534
11.023218
10.952673
10.883667
10.816165
10.750133
10.685544
10.62237
10.56059
10.500182
10.441127
10.383409
10.327013
10.271926
10.218136
10.165633
10.114406
10.064446
10.015743
9.96829
9.922077
9.8770952
9.8333353
9.7907878
9.7494425
9.7092885
9.6703143
9.6325078
9.5958559
9.5603451
9.5259606
9.4926873
9.460509
9.4294089
9.3993695
9.3703724
9.3423986
9.3154283
9.2894408
9.2644142
9.240326
9.2171519
9.1948661
9.1734399
9.1528473
9.1330681
9.1140818
9.09586
9.0783632
11.731993
11.645524
11.561076
11.47857
11.397945
11.319142
11.242105
11.166779
11.093115
11.021069
10.950597
10.881661
10.814226
10.74826
10.683734
10.620621
10.5589
10.498548
10.439549
10.381884
10.32554
10.270503
10.216762
10.164305
10.113124
10.063208
10.014548
9.967136
9.9209629
9.8760199
9.8322976
9.7897864
9.7484762
9.7083561
9.6694148
9.63164
9.5950189
9.5595377
9.5251818
9.4919361
9.4597844
9.42871
9.3986953
9.369722
9.341771
9.3148225
9.2888559
9.2638496
9.2397809
9.2166262
9.1943605
9.1729569
9.1523905
9.1326397
9.113682
9.0954857
9.0780076
11.728502
11.642157
11.557828
11.475436
11.39492
11.316222
11.239284
11.164055
11.090485
11.018528
10.948142
10.87929
10.811935
10.746046
10.681594
10.618554
10.556903
10.496619
10.437684
10.380083
10.3238
10.268823
10.215139
10.162738
10.111611
10.061747
10.013138
9.9657752
9.9196498
9.8747528
9.8310751
9.7886072
9.7473388
9.7072592
9.668357
9.6306201
9.5940356
9.5585897
9.524268
9.4910553
9.4589354
9.4278917
9.3979065
9.3689617
9.3410381
9.314116
9.2881748
9.2631929
9.2391482
9.2160173
9.1937759
9.1723989
9.1518621
9.132143
9.1132171
9.0950511
9.0776081
11.724433
11.638232
11.554041
11.471782
11.391393
11.312817
11.235997
11.160881
11.087419
11.015567
10.945282
10.876526
10.809265
10.743466
10.679102
10.616147
10.554577
10.494372
10.435514
10.377986
10.321775
10.266867
10.213251
10.160915
10.109851
10.060048
10.011498
9.9641931
9.9181234
9.8732804
9.829655
9.7872377
9.7460183
9.7059862
9.6671299
9.6294374
9.5928958
9.5574915
9.5232099
9.4900359
9.4579534
9.4269458
9.3969954
9.3680841
9.3401928
9.3133019
9.2873907
9.2624381
9.2384218
9.2153192
9.1931067
9.1717604
9.1512569
9.1315727
9.1126819
9.0945518
11.719745
11.63371
11.549679
11.467572
11.38733
11.308895
11.23221
11.157224
11.083887
11.012155
10.941986
10.873343
10.80619
10.740496
10.676232
10.613374
10.551898
10.491784
10.433015
10.375573
10.319444
10.264616
10.211078
10.158817
10.107826
10.058094
10.009613
9.9623743
9.9163689
9.8715884
9.8280234
9.7856647
9.744502
9.7045248
9.6657217
9.6280807
9.5915888
9.5562326
9.5219975
9.4888683
9.4568292
9.4258634
9.3959535
9.3670811
9.3392275
9.3123729
9.2864969
9.2615783
9.2375954
9.2145257
9.1923467
9.1710355
9.1505691
9.1309232
9.1120704
9.093978
11.714395
11.628549
11.5447
11.462767
11.382693
11.304418
11.227888
11.15305
11.079857
11.008263
10.938227
10.869711
10.802681
10.737106
10.672958
10.610211
10.548843
10.488834
10.430165
10.37282
10.316787
10.26205
10.208601
10.156427
10.105519
10.055868
10.007465
9.9603023
9.9143707
9.8696616
9.826166
9.7838743
9.7427767
9.7028624
9.6641202
9.6265381
9.5901032
9.5548021
9.5206203
9.4875427
9.4555533
9.4246356
9.394772
9.3659445
9.3381341
9.3113213
9.2854858
9.2606065
9.236662
9.2136303
9.1914895
9.1702176
9.1497923
9.1301881
9.1113763
11.708337
11.622705
11.539062
11.457327
11.377443
11.29935
11.222995
11.148326
11.075294
11.003856
10.93397
10.8656
10.79871
10.73327
10.669252
10.606632
10.545386
10.485494
10.42694
10.369706
10.31378
10.259148
10.205799
10.153722
10.102909
10.05335
10.005037
9.9579603
9.9121124
9.8674845
9.8240675
9.781852
9.7408281
9.7009853
9.6623123
9.6247972
9.5884272
9.5531887
9.5190675
9.4860484
9.4541156
9.4232525
9.3934417
9.3646652
9.3369041
9.310139
9.2843497
9.2595154
9.2356146
9.2126259
9.190528
9.1693
9.1489197
9.1293605
9.1105905
11.701524
11.616133
11.532721
11.451209
11.371538
11.29365
11.217492
11.143012
11.070163
10.998901
10.929184
10.860977
10.794245
10.728957
10.665086
10.602608
10.541499
10.481741
10.423315
10.366207
10.310401
10.255886
10.202651
10.150684
10.099978
10.050523
10.002309
9.9553303
9.9095768
9.8650403
9.821712
9.7795824
9.7386418
9.6988796
9.6602847
9.622845
9.5865481
9.5513803
9.5173274
9.4843745
9.4525055
9.4217041
9.391953
9.3632341
9.3355287
9.3088176
9.2830805
9.2582969
9.2344456
9.2115052
9.1894552
9.1682752
9.1479441
9.1284339
11.693906
11.608785
11.525632
11.444368
11.364936
11.287277
11.21134
11.137072
11.064427
10.99336
10.923834
10.855809
10.789253
10.724136
10.66043
10.59811
10.537156
10.477546
10.419265
10.362296
10.306626
10.252242
10.199134
10.147291
10.096704
10.047365
9.9992638
9.9523938
9.906746
9.862312
9.819083
9.7770497
9.7362023
9.6965305
9.658023
9.6206681
9.584453
9.5493645
9.5153883
9.4825094
9.4507121
9.4199799
9.3902957
9.3616414
9.3339986
9.307348
9.2816697
9.2569431
9.2331471
9.2102606
9.1882631
9.1671353
9.1468573
9.1273989
11.685431
11.60061
11.517745
11.436758
11.357591
11.280188
11.204495
11.130463
11.058045
10.987198
10.917882
10.850061
10.783701
10.718774
10.655251
10.593109
10.532326
10.472882
10.414761
10.357948
10.302429
10.248191
10.195225
10.143519
10.093065
10.043855
9.9958797
9.9491311
9.9036012
9.8592814
9.8161631
9.7742371
9.7334937
9.6939226
9.6555126
9.6182521
9.5821285
9.5471283
9.5132376
9.4804414
9.4487239
9.4180689
9.3884593
9.3598771
9.3323041
9.3057212
9.2801085
9.2554455
9.2317111
9.2088841
9.1869439
9.1658719
9.1456516
11.676045
11.591557
11.509011
11.42833
11.349457
11.272336
11.196916
11.123145
11.050979
10.980374
10.911292
10.843696
10.777554
10.712837
10.649517
10.587571
10.526978
10.467719
10.409776
10.353135
10.297783
10.243708
10.190898
10.139345
10.089039
10.039972
9.992136
9.9455222
9.9001229
9.8559298
9.8129344
9.7711274
9.7304994
9.69104
9.6527383
9.6155825
9.5795603
9.5446582
9.5108623
9.4781578
9.446529
9.4159597
9.3864328
9.3579308
9.3304353
9.3039274
9.2783875
9.2537952
9.2301291
9.2073674
9.185489
9.1644756
9.1443161
11.665692
11.58157
11.499376
11.419033
11.340484
11.263676
11.188555
11.115073
11.043184
10.972847
10.904023
10.836676
10.770774
10.706289
10.643194
10.581465
10.521082
10.462026
10.40428
10.34783
10.292662
10.238766
10.18613
10.134745
10.084602
10.035694
9.9880107
9.9415458
9.8962909
9.8522378
9.8093781
9.7677027
9.7272021
9.6878662
9.649684
9.612644
9.5767338
9.5419401
9.5082491
9.4756459
9.444115
9.4136404
9.384205
9.3557914
9.3283815
9.3019566
9.2764973
9.251983
9.2283923
9.2057022
9.1838898
9.1629368
11.654312
11.570593
11.488786
11.408814
11.330622
11.254157
11.179365
11.106201
11.034617
10.964575
10.896034
10.828961
10.763324
10.699094
10.636246
10.574756
10.514603
10.455771
10.398241
10.342001
10.287036
10.233337
10.180892
10.129693
10.07973
10.030995
9.9834811
9.9371801
9.8920841
9.8481851
9.8054747
9.7639441
9.7235838
9.6843838
9.6463333
9.6094207
9.5736338
9.5389595
9.5053838
9.4728922
9.4414692
9.4110987
9.381764
9.3534478
9.3261321
9.2997985
9.2744277
9.2499996
9.226492
9.2038801
9.1821377
9.1612424
11.641846
11.558568
11.477184
11.397619
11.319818
11.243728
11.169298
11.096481
11.025233
10.955513
10.887283
10.820511
10.755163
10.691213
10.628635
10.567407
10.507508
10.44892
10.391628
10.335618
10.280877
10.227393
10.175158
10.124162
10.074396
10.025852
9.9785236
9.9324024
9.8874807
9.8437507
9.8012042
9.7598325
9.7196261
9.6805752
9.6426691
9.6058963
9.5702447
9.5357013
9.5022522
9.4698829
9.4385782
9.4083219
9.3790977
9.3508881
9.3236757
9.2974421
9.2721686
9.247835
9.2244189
9.2018927
9.1802258
9.1593999
11.628229
11.545433
11.464512
11.385391
11.308017
11.232337
11.158302
11.085865
11.014983
10.945615
10.877726
10.811281
10.746251
10.682607
10.620325
10.559382
10.49976
10.441441
10.384408
10.32865
10.274152
10.220905
10.168899
10.118125
10.068574
10.02024
9.9731138
9.9271891
9.8824581
9.838913
9.7965458
9.7553477
9.7153097
9.6764218
9.6386737
9.6020538
9.5665502
9.5321499
9.4988392
9.4666038
9.4354283
9.405297
9.3761934
9.3481004
9.3210007
9.2948763
9.2697089
9.245479
9.2221637
9.1997322
9.178148
9.1574079
11.613397
11.531126
11.450708
11.372071
11.295162
11.21993
11.146324
11.074301
11.003818
10.934835
10.867316
10.801229
10.736544
10.673233
10.611274
10.550644
10.491323
10.433296
10.376547
10.321062
10.266831
10.213841
10.162085
10.111553
10.062238
10.014131
9.9672264
9.9215162
9.8769931
9.8336497
9.7914778
9.7504692
9.7106148
9.6719048
9.6343289
9.5978758
9.5625335
9.5282893
9.4951296
9.4630401
9.4320056
9.4020105
9.3730383
9.3450723
9.3180952
9.2920895
9.2670374
9.2429204
9.2197166
9.1973905
9.1758957
11.597282
11.515582
11.435711
11.3576
11.281196
11.206449
11.133311
11.061738
10.991687
10.923122
10.856006
10.790308
10.725998
10.663051
10.601442
10.541151
10.482159
10.42445
10.368009
10.312823
10.25888
10.206171
10.154686
10.104418
10.055358
10.0075
9.9608356
9.9153586
9.8710617
9.8279375
9.7859783
9.7451758
9.7055211
9.6670046
9.629616
9.5933443
9.5581775
9.5241031
9.4911076
9.4591768
9.4282956
9.3984484
9.3696191
9.3417909
9.3149468
9.2890696
9.2641422
9.2401474
9.2170669
9.1948611
9.1734564
11.579815
11.498735
11.419456
11.341914
11.266057
11.191837
11.119206
11.04812
10.97854
10.910427
10.843749
10.778472
10.71457
10.652016
10.590788
10.530865
10.472229
10.414865
10.358758
10.303895
10.250266
10.197861
10.146672
10.09669
10.047907
10.000318
9.9539145
9.9086906
9.8646392
9.8217531
9.7800246
9.7394457
9.7000077
9.6617011
9.6245158
9.5884409
9.5534646
9.5195745
9.4867571
9.4549983
9.4242834
9.3945967
9.3659221
9.3382432
9.3115429
9.2858043
9.2610105
9.2371466
9.2142032
11.560925
11.480516
11.401877
11.32495
11.249686
11.176034
11.103951
11.033393
10.964321
10.896699
10.830493
10.765673
10.702211
10.640083
10.579267
10.519743
10.461493
10.404502
10.348756
10.294244
10.240955
10.18888
10.138009
10.088337
10.039855
9.9925567
9.946436
9.9014861
9.8577004
9.815072
9.7735934
9.7332566
9.6940532
9.6559739
9.6190087
9.5831469
9.5483768
9.514686
9.4820614
9.450489
9.4199539
9.3904408
9.3619337
9.334416
9.3078708
9.282281
9.2576295
9.2339028
11.54054
11.460855
11.382907
11.306644
11.232018
11.158981
11.087489
11.017501
10.948977
10.881884
10.816188
10.751861
10.688876
10.627208
10.566836
10.507742
10.449909
10.393321
10.337967
10.283833
10.230911
10.179191
10.128666
10.079328
10.031171
9.9841874
9.938372
9.8937182
9.8502197
9.8078697
9.7666609
9.7265858
9.6876359
9.6498021
9.6130747
9.577443
9.5428956
9.5094203
9.4770039
9.4456327
9.4152919
9.3859662
9.3576397
9.3302959
9.3039176
9.2784874
9.2539862
9.2303988
11.599281
11.518593
11.439682
11.362477
11.28693
11.212991
11.140615
11.06976
11.000385
10.932453
10.865929
10.800784
10.736987
10.674515
10.613343
10.553451
10.49482
10.437436
10.381283
10.32635
10.272625
10.220098
10.168762
10.118609
10.069632
10.021824
9.9751804
9.9296942
9.8853597
9.8421708
9.800121
9.7592032
9.7194101
9.6807335
9.6431644
9.6066933
9.5713098
9.5370025
9.5037594
9.4715675
9.4404132
9.4102817
9.381158
9.3530261
9.3258694
9.2996707
9.2744114
9.2500705
9.226635
11.574831
11.495006
11.416925
11.340519
11.26574
11.19254
11.120875
11.050704
10.981987
10.91469
10.84878
10.784226
10.721
10.659079
10.59844
10.539064
10.480933
10.424032
10.368347
10.313867
10.260581
10.20848
10.157557
10.107804
10.059215
10.011784
9.9655058
9.9203739
9.8763829
9.8335272
9.7918004
9.7511958
9.7117062
9.6733236
9.6360394
9.5998441
9.5647276
9.5306787
9.4976854
9.465735
9.434814
9.4049078
9.3760013
9.3480786
9.3211231
9.2951173
9.2700419
9.2458745
9.2226053
11.5486
11.469703
11.392513
11.316964
11.243007
11.170599
11.099696
11.030259
10.96225
10.895634
10.830381
10.766462
10.703849
10.64252
10.582454
10.523632
10.466036
10.409654
10.354471
10.300478
10.247664
10.196021
10.145541
10.096218
10.048046
10.00102
9.9551333
9.9103819
9.86676
9.8242621
9.7828823
9.742614
9.7034504
9.6653836
9.6284054
9.5925064
9.5576765
9.523905
9.4911801
9.4594891
9.4288185
9.3991542
9.3704809
9.342783
9.3160436
9.2902451
9.2653677
9.2413887
9.2183006
11.520516
11.442612
11.366375
11.291741
11.218666
11.147105
11.077017
11.008365
10.941113
10.875227
10.810678
10.747438
10.685482
10.624788
10.565335
10.507106
10.450085
10.394259
10.339615
10.286143
10.233835
10.182682
10.132678
10.083816
10.036091
9.9894983
9.9440326
9.8996891
9.8564629
9.8143487
9.7733408
9.7334332
9.6946191
9.6568909
9.6202406
9.5846592
9.5501368
9.5166627
9.4842253
9.4528123
9.4224104
9.3930053
9.3645821
9.337125
9.3106174
9.2850415
9.2603773
9.2366022
9.2137106
11.490504
11.413658
11.338438
11.264783
11.192647
11.121991
11.052775
10.984962
10.918518
10.853413
10.789616
10.727103
10.665849
10.605833
10.547036
10.489442
10.433035
10.377804
10.323736
10.270823
10.219056
10.168428
10.118932
10.070564
10.023317
9.9771888
9.9321733
9.8882665
9.8454637
9.8037602
9.7631504
9.7236287
9.6851886
9.6478229
9.6115236
9.576282
9.5420885
9.5089327
9.4768031
9.4456876
9.415573
9.3864454
9.3582899
9.3310908
9.3048314
9.2794942
9.2550591
9.231504
9.2088246
11.45849
11.382771
11.308634
11.23602
11.164886
11.095194
11.026907
10.959989
10.894408
10.830134
10.767141
10.705403
10.644898
10.585606
10.52751
10.470593
10.414843
10.360247
10.306795
10.254478
10.203289
10.153221
10.104269
10.056428
10.009693
9.9640598
9.9195254
9.8760851
9.8337348
9.7924699
9.7522856
9.7131762
9.6751357
9.6381571
9.6022327
9.5673542
9.5335122
9.5006963
9.4688956
9.4380979
9.4082904
9.3794592
9.3515896
9.3246662
9.2986725
9.2735907
9.2494013
9.2260826
9.2036314
11.424401
11.34988
11.276894
11.205387
11.135319
11.066652
10.999353
10.933387
10.868724
10.805336
10.743198
10.682286
10.622579
10.564059
10.506709
10.450515
10.395464
10.341545
10.288749
10.237068
10.186496
10.137026
10.088653
10.041374
9.9951846
9.9500808
9.9060593
9.8631166
9.8212488
9.7804519
9.7407213
9.7020516
9.6644373
9.6278716
9.5923471
9.5578558
9.5243886
9.4919353
9.4604852
9.4300265
9.4005465
9.3720315
9.3444671
9.3178379
9.2921276
9.2673188
9.2433923
9.2203269
9.1981203
11.388168
11.314916
11.243151
11.172819
11.103882
11.036305
10.970054
10.9051
10.841413
10.778966
10.717737
10.657703
10.598845
10.541146
10.48459
10.429164
10.374857
10.321659
10.269562
10.218557
10.168641
10.119807
10.072052
10.025371
9.9797622
9.9352215
9.8917463
9.8493334
9.8079794
9.7676808
9.7284331
9.6902318
9.6530711
9.616945
9.5818464
9.5477673
9.5146991
9.4826319
9.4515552
9.4214574
9.392326
9.3641478
9.3369084
9.3105926
9.2851846
9.2606669
9.2370209
9.2142261
9.1922807
11.349725
11.277817
11.207344
11.138256
11.070517
11.004093
10.938955
10.875073
10.81242
10.750973
10.690708
10.631606
10.573648
10.51682
10.461108
10.406498
10.352981
10.300549
10.249193
10.198908
10.149689
10.101532
10.054432
10.008388
9.9633955
9.9194534
9.8765587
9.8347089
9.7939011
9.754132
9.7153978
9.6776941
9.6410158
9.605357
9.5707109
9.5370701
9.5044259
9.472769
9.4420891
9.412375
9.3836143
9.355794
9.3289002
9.3029179
9.2778313
9.2536236
9.2302763
9.2077698
9.1861028
11.309011
11.238521
11.169414
11.101641
11.035167
10.969964
10.906002
10.843255
10.781697
10.721307
10.662063
10.603948
10.546946
10.491041
10.436222
10.382477
10.329798
10.278178
10.227609
10.178087
10.129607
10.082167
10.035763
9.9903935
9.9460561
9.902749
9.8604703
9.8192181
9.7789898
9.7397826
9.7015933
9.6644177
9.6282511
9.5930881
9.5589222
9.5257463
9.4935522
9.4623307
9.4320719
9.4027648
9.3743975
9.3469572
9.3204302
9.2948018
9.2700567
9.2461783
9.2231485
9.2009484
9.1795772
11.26597
11.196976
11.129308
11.062921
10.997784
10.933868
10.871148
10.809599
10.749198
10.689925
10.631761
10.574689
10.518696
10.463768
10.409894
10.357065
10.305273
10.254511
10.204775
10.156061
10.108364
10.061684
10.016017
9.9713616
9.9277175
9.8850831
9.8434569
9.8028375
9.7632231
9.7246112
9.6869989
9.6503827
9.6147583
9.5801205
9.5464633
9.5137798
9.4820624
9.4513021
9.4214894
9.3926135
9.364663
9.3376252
9.3114869
9.2862337
9.2618505
9.2383211
9.2156281
9.193753
9.1726955
11.220555
11.153133
11.08698
11.022052
10.958321
10.895762
10.83435
10.774064
10.714882
10.656787
10.599762
10.543791
10.488863
10.434966
10.38209
10.330227
10.279372
10.229519
10.180663
10.132802
10.085933
10.040055
9.9951665
9.9512671
9.9083561
9.8664327
9.8254965
9.7855463
9.7465809
9.7085984
9.6715964
9.6355717
9.6005204
9.566438
9.5333186
9.501156
9.4699426
9.43967
9.4103289
9.3819091
9.3543993
9.3277873
9.3020601
9.2772037
9.2532035
9.2300435
9.2077068
9.1861757
9.1654501
11.172727
11.106954
11.042391
10.978995
10.916742
10.855608
10.795572
10.736614
10.678715
10.62186
10.566033
10.511222
10.457416
10.404604
10.35278
10.301937
10.252069
10.203173
10.155245
10.108284
10.062288
10.017257
9.9731907
9.9300885
9.887951
9.8467782
9.80657
9.7673261
9.7290457
9.6917275
9.6553696
9.6199692
9.5855231
9.5520267
9.5194751
9.4878622
9.4571808
9.427423
9.3985798
9.3706414
9.3435968
9.3174343
9.2921411
9.2677038
9.2441079
9.2213381
9.1993778
9.1782099
9.1578349
11.122456
11.058411
10.995512
10.933722
10.873018
10.813378
10.754785
10.697221
10.640669
10.585116
10.530548
10.476956
10.424328
10.372659
10.321941
10.27217
10.223341
10.175452
10.128501
10.082488
10.037411
9.9932721
9.9500708
9.9078083
9.8664855
9.8261032
9.786662
9.7481621
9.7106034
9.6739851
9.6383057
9.6035631
9.5697543
9.5368756
9.5049221
9.4738883
9.4437675
9.414552
9.3862335
9.3588022
9.3322478
9.3065589
9.2817232
9.2577275
9.2345578
9.2121992
9.1906356
9.1698506
9.1498449
11.069727
11.007485
10.946326
10.886214
10.827129
10.769054
10.711971
10.655866
10.600725
10.546536
10.493289
10.440974
10.389584
10.339113
10.289556
10.24091
10.193172
10.146341
10.100416
10.055398
10.011287
9.9680854
9.9257936
9.8844136
9.8439473
9.804396
9.7657611
9.7280435
9.6912436
9.6553611
9.6203952
9.5863443
9.5532058
9.5209765
9.489652
9.4592272
9.4296958
9.4010507
9.3732838
9.3463859
9.3203471
9.2951563
9.2708016
9.2472704
9.224549
9.202623
9.1814767
9.1610944
9.1414771
11.014536
10.954174
10.894828
10.836466
10.779071
10.722628
10.667123
10.612542
10.558876
10.506113
10.454247
10.403268
10.353173
10.303956
10.255615
10.208148
10.161553
10.11583
10.070981
10.027007
9.9839087
9.9416895
9.9003516
9.8598974
9.8203294
9.78165
9.7438612
9.7069643
9.6709606
9.6358503
9.6016332
9.5683081
9.5358731
9.5043252
9.4736608
9.4438751
9.4149623
9.3869158
9.3597279
9.3333898
9.3078921
9.283224
9.2593743
9.2363306
9.2140799
9.1926079
9.1718997
9.15194
9.1327303
10.956898
10.898488
10.841027
10.784486
10.72885
10.674106
10.620244
10.567253
10.515123
10.463849
10.413423
10.36384
10.315096
10.26719
10.220119
10.173883
10.128483
10.08392
10.040196
9.9973131
9.9552747
9.9140839
9.8737442
9.834259
9.7956315
9.7578648
9.7209617
9.6849243
9.6497542
9.6154526
9.5820195
9.5494545
9.5177561
9.486922
9.4569489
9.4278325
9.3995676
9.372148
9.3455664
9.3198146
9.2948836
9.2707631
9.2474423
9.2249093
9.2031514
9.1821551
9.1619057
9.1423887
9.1236059
10.896845
10.840459
10.784952
10.730299
10.676489
10.62351
10.571355
10.520015
10.469485
10.419759
10.370832
10.322702
10.275367
10.228826
10.183079
10.138128
10.093974
10.05062
10.008069
9.9663259
9.9253934
9.8852763
9.8459789
9.8075056
9.7698603
9.7330471
9.6970692
9.6619296
9.6276305
9.5941737
9.5615599
9.5297891
9.4988605
9.4687722
9.4395214
9.4111045
9.3835167
9.3567521
9.3308042
9.3056651
9.2813263
9.257778
9.2350099
9.2130106
9.1917679
9.1712688
9.151499
9.1324447
9.1141079
10.834431
10.780135
10.72665
10.673951
10.62203
10.570879
10.520493
10.470866
10.421994
10.373874
10.326504
10.279883
10.234011
10.188889
10.144519
10.100903
10.058046
10.01595
9.9746213
9.9340639
9.894283
9.8552842
9.8170725
9.7796533
9.7430315
9.7072117
9.6721981
9.6379942
9.604603
9.5720268
9.540267
9.5093242
9.479198
9.4498872
9.4213896
9.3937019
9.3668199
9.3407384
9.3154511
9.2909508
9.2672293
9.2442777
9.2220858
9.2006429
9.1799374
9.1599567
9.1406871
9.1221154
9.1042436
10.769733
10.717592
10.66619
10.615506
10.565535
10.516272
10.467714
10.419857
10.3727
10.326243
10.280484
10.235426
10.19107
10.147419
10.104476
10.062246
10.020734
9.9799447
9.939884
9.9005581
9.8619734
9.8241361
9.7870526
9.7507288
9.7151706
9.6803834
9.6463721
9.613141
9.5806937
9.5490331
9.5181613
9.4880795
9.4587878
9.4302856
9.4025712
9.3756418
9.3494939
9.3241227
9.2995224
9.2756864
9.2526071
9.2302758
9.2086832
9.187819
9.1676721
9.1482306
9.1294815
9.111412
9.0940244
10.702859
10.65293
10.603667
10.555056
10.507092
10.459772
10.413096
10.367064
10.321676
10.276934
10.232839
10.189395
10.146605
10.104474
10.063007
10.02221
9.9820897
9.9426519
9.9039042
9.8658536
9.8285077
9.7918737
9.7559589
9.7207703
9.6863145
9.6525977
9.6196255
9.587403
9.5559344
9.5252233
9.4952724
9.4660834
9.4376572
9.4099936
9.3830916
9.3569488
9.3315623
9.3069278
9.2830401
9.2598931
9.2374797
9.2157918
9.1948207
9.1745566
9.1549892
9.136107
9.1178979
9.1003502
9.0834666
10.633942
10.586277
10.539207
10.492719
10.446812
10.401486
10.356744
10.312586
10.269016
10.226038
10.183655
10.141872
10.100695
10.060131
10.020185
9.980866
9.9421808
9.9041377
9.8667449
9.830011
9.7939442
9.7585531
9.7238457
9.68983
9.6565134
9.6239028
9.5920047
9.5608249
9.5303682
9.5006389
9.4716402
9.4433745
9.4158433
9.3890471
9.3629851
9.3376559
9.3130568
9.2891842
9.2660335
9.2435991
9.2218743
9.2008518
9.1805232
9.1608796
9.1419111
9.1236072
9.1059569
9.0889503
9.0725924
10.563155
10.517798
10.472964
10.428645
10.38484
10.341553
10.298788
10.25655
10.214842
10.173671
10.133044
10.092966
10.053445
10.014488
9.9761057
9.9383051
9.9010957
9.8644869
9.8284881
9.7931089
9.7583589
9.7242473
9.6907832
9.6579754
9.6258323
9.5943615
9.5635702
9.5334648
9.504051
9.4753336
9.4473164
9.4200026
9.3933941
9.367492
9.3422961
9.3178057
9.2940185
9.2709315
9.2485406
9.2268407
9.2058259
9.1854891
9.1658228
9.1468184
9.1284668
9.1107586
9.0936851
9.0772402
10.490705
10.447692
10.405132
10.363018
10.321353
10.280142
10.239393
10.199112
10.159305
10.11998
10.081146
10.04281
10.004982
9.9676718
9.9308888
9.8946433
9.8589457
9.8238066
9.7892367
9.7552467
9.7218471
9.6890482
9.6568599
9.625292
9.5943534
9.5640528
9.534398
9.505396
9.4770533
9.4493752
9.4223664
9.3960304
9.3703699
9.3453864
9.3210806
9.2974519
9.2744989
9.2522191
9.2306088
9.2096637
9.1893782
9.1697459
9.1507597
9.1324114
9.1146927
9.0975961
9.081118
10.416845
10.376202
10.335943
10.296062
10.256565
10.217461
10.178758
10.140465
10.102589
10.065142
10.028132
9.9915701
9.9554671
9.9198339
9.8846818
9.8500225
9.8158675
9.7822287
9.7491179
9.7165467
9.6845268
9.6530694
9.6221852
9.5918849
9.5621781
9.5330743
9.504582
9.4767089
9.4494622
9.4228477
9.3968708
9.3715356
9.3468453
9.3228021
9.2994072
9.2766607
9.2545616
9.233108
9.2122969
9.1921244
9.1725854
9.153674
9.1353836
9.1177065
9.1006349
9.084163
10.341874
10.303616
10.265674
10.228044
10.190736
10.153759
10.117123
10.080839
10.044918
10.00937
9.9742091
9.9394453
9.9050914
9.8711599
9.8376634
9.8046148
9.772027
9.739913
9.7082855
9.6771574
9.6465411
9.6164487
9.586892
9.5578821
9.5294297
9.5015447
9.4742366
9.4475136
9.4213834
9.3958527
9.3709274
9.3466121
9.3229107
9.299826
9.2773597
9.2555124
9.2342838
9.2136724
9.193676
9.1742909
9.1555128
9.1373364
9.1197553
9.1027625
9.0863513
9.0705233
10.266143
10.230274
10.194653
10.159282
10.124169
10.089328
10.054771
10.020508
9.9865545
9.9529218
9.9196236
9.8866733
9.8540844
9.8218709
9.7900468
9.758626
9.7276227
9.6970509
9.6669243
9.6372568
9.6080615
9.5793516
9.5511394
9.523437
9.4962558
9.4696064
9.4434986
9.4179417
9.3929439
9.3685124
9.3446536
9.321373
9.2986748
9.2765624
9.2550381
9.2341031
9.2137577
9.1940009
9.174831
9.1562449
9.138239
9.1208083
9.1039471
9.0876489
9.0719077
9.0567289
10.190063
10.156571
10.123264
10.090144
10.057224
10.024516
9.9920356
9.9597959
9.9278114
9.8960965
9.8646659
9.8335343
9.8027168
9.7722285
9.7420844
9.7122998
9.6828897
9.6538692
9.625253
9.5970557
9.5692914
9.5419739
9.5151165
9.4887318
9.4628319
9.4374281
9.4125309
9.38815
9.3642943
9.3409716
9.3181889
9.2959521
9.2742661
9.2531349
9.2325613
9.212547
9.1930929
9.1741985
9.1558627
9.1380831
9.1208564
9.1041784
9.088044
9.072447
9.0573826
9.0428575
10.11411
10.082968
10.051951
10.021061
9.9903143
9.9597243
9.9293069
9.8990777
9.8690521
9.8392462
9.8096758
9.7803571
9.7513061
9.7225391
9.6940723
9.6659219
9.6381039
9.6106342
9.5835285
9.5568021
9.5304699
9.5045464
9.4790455
9.4539806
9.4293643
9.4052086
9.3815246
9.3583225
9.3356117
9.3134007
9.291697
9.270507
9.2498362
9.2296891
9.2100689
9.1909781
9.172418
9.1543887
9.1368896
9.1199189
9.1034739
9.0875509
9.0721455
9.0572523
9.042867
9.028997
10.038829
10.009995
9.9812267
9.952531
9.923923
9.8954189
9.8670357
9.83879
9.8106989
9.7827794
9.7550485
9.7275234
9.7002214
9.6731597
9.6463553
9.6198255
9.593587
9.5676567
9.5420507
9.5167853
9.4918761
9.4673381
9.4431859
9.4194335
9.3960941
9.3731801
9.3507033
9.3286743
9.3071033
9.285999
9.2653695
9.2452218
9.2255618
9.2063946
9.187724
9.1695528
9.151883
9.1347153
9.1180495
9.1018844
9.0862179
9.071047
9.0563677
9.0421754
9.0284666
9.0152489
9.9648473
9.9382583
9.9116809
9.8851237
9.858603
9.8321362
9.8057413
9.7794363
9.7532391
9.7271677
9.7012403
9.6754751
9.6498901
9.6245033
9.5993329
9.5743965
9.549712
9.5252965
9.5011673
9.477341
9.4538338
9.4306614
9.4078389
9.3853808
9.3633008
9.3416119
9.3203263
9.2994552
9.279009
9.2589972
9.2394283
9.2203097
9.2016479
9.1834484
9.1657154
9.1484525
9.1316619
9.115345
9.0995021
9.0841326
9.0692349
9.0548065
9.0408443
9.0273443
9.0143037
9.0017308
9.8928795
9.8684523
9.8439868
9.8194931
9.7949884
9.7704911
9.74602
9.7215942
9.6972323
9.6729535
9.6487765
9.6247203
9.6008038
9.5770458
9.553465
9.5300798
9.5069085
9.4839692
9.4612794
9.4388563
9.4167166
9.3948767
9.373352
9.3521574
9.3313073
9.3108149
9.2906929
9.2709531
9.2516061
9.232662
9.2141297
9.196017
9.1783309
9.1610773
9.144261
9.127886
9.111955
9.0964698
9.0814313
9.0668395
9.0526932
9.0389906
9.025729
9.0129054
9.0005184
8.988579
9.8237383
9.801367
9.7789121
9.7563848
9.7338029
9.7111859
9.6885533
9.6659246
9.6433196
9.6207577
9.5982585
9.5758418
9.5535268
9.531333
9.5092797
9.4873859
9.4656703
9.4441514
9.4228473
9.4017757
9.3809537
9.3603979
9.3401243
9.3201482
9.3004842
9.2811462
9.262147
9.2434988
9.2252128
9.2072993
9.1897676
9.172626
9.1558819
9.1395416
9.1236105
9.1080927
9.0929916
9.0783095
9.0640477
9.0502066
9.0367856
9.0237834
9.0111977
8.9990263
8.987269
9.758347
9.7379004
9.7173297
9.696647
9.6758709
9.6550213