/*--------------------------------*- C++ -*----------------------------------*\
| =========                 |                                                 |
| \\      /  F ield         | OpenFOAM: The Open Source CFD Toolbox           |
|  \\    /   O peration     | Version:  2312                                  |
|   \\  /    A nd           | Website:  www.openfoam.com                      |
|    \\/     M anipulation  |                                                 |
\*---------------------------------------------------------------------------*/
FoamFile
{
    version     2.0;
    format      ascii;
    arch        "LSB;label=32;scalar=64";
    class       volScalarField;
    location    "0.08";
    object      nut;
}
// * * * * * * * * * * * * * * * * * * * * * * * * * * * * * * * * * * * * * //

dimensions      [0 2 -1 0 0 0 0];

internalField   nonuniform List<scalar> 
3251
(
0.034599338
0.034753879
0.034915123
0.035083059
0.035257698
0.035439046
0.035627105
0.035821874
0.036023348
0.036231518
0.036446369
0.036667879
0.036896023
0.037130767
0.03737207
0.037619881
0.037874143
0.038134788
0.038401738
0.038674903
0.038954183
0.039239467
0.039530628
0.039827531
0.040130023
0.040437942
0.04075111
0.041069336
0.041392416
0.041720133
0.042052254
0.042388537
0.042728727
0.043072554
0.043419742
0.04377
0.04412303
0.044478524
0.044836166
0.045195634
0.0455566
0.045918729
0.046281685
0.046645127
0.047008711
0.047372095
0.047734934
0.048096883
0.048457598
0.048816741
0.049173973
0.04952884
0.049881014
0.050230289
0.050576323
0.050918837
0.051257544
0.051592185
0.034599259
0.034753821
0.034915096
0.035083053
0.035257712
0.035439077
0.035627153
0.035821938
0.036023426
0.036231609
0.036446472
0.036667994
0.036896148
0.037130901
0.037372211
0.03762003
0.037874298
0.038134948
0.038401902
0.03867507
0.038954352
0.039239637
0.039530798
0.0398277
0.040130191
0.040438107
0.040751272
0.041069494
0.041392569
0.041720279
0.042052394
0.042388669
0.04272885
0.043072669
0.043419847
0.043770095
0.044123114
0.044478596
0.044836227
0.045195683
0.045556636
0.045918753
0.046281695
0.046645122
0.047008692
0.047372061
0.047734883
0.048096814
0.048457509
0.04881663
0.049173834
0.049528698
0.049880894
0.050230179
0.050576228
0.050918742
0.051257419
0.051592045
0.0345991
0.034753699
0.034915017
0.035083012
0.035257704
0.035439101
0.035627206
0.035822017
0.036023531
0.036231737
0.036446621
0.036668161
0.036896333
0.037131102
0.037372426
0.037620257
0.037874535
0.038135194
0.038402155
0.038675329
0.038954616
0.039239902
0.039531065
0.039827966
0.040130456
0.040438369
0.040751529
0.041069745
0.041392812
0.041720514
0.042052619
0.042388884
0.042729053
0.04307286
0.043420024
0.043770257
0.044123261
0.044478727
0.044836341
0.045195779
0.045556714
0.045918812
0.046281735
0.046645143
0.047008693
0.04737204
0.04773484
0.048096748
0.048457419
0.048816513
0.049173686
0.049528542
0.049880751
0.050230045
0.050576104
0.050918617
0.051257263
0.051591879
0.034598845
0.034753498
0.034914874
0.035082921
0.035257661
0.035439103
0.035627249
0.035822099
0.036023647
0.036231886
0.036446799
0.036668367
0.036896563
0.037131354
0.037372698
0.037620545
0.037874839
0.03813551
0.038402482
0.038675663
0.038954956
0.039240247
0.039531411
0.039828313
0.0401308
0.040438709
0.040751863
0.041070072
0.04139313
0.041720821
0.042052914
0.042389165
0.042729319
0.043073109
0.043420255
0.043770469
0.044123453
0.044478898
0.04483649
0.045195906
0.045556818
0.045918892
0.04628179
0.046645173
0.047008696
0.047372016
0.047734789
0.048096669
0.048457312
0.048816375
0.049173515
0.049528358
0.049880573
0.050229871
0.050575936
0.050918446
0.051257068
0.051591689
0.03459849
0.034753217
0.034914666
0.03508278
0.035257582
0.035439081
0.03562728
0.035822179
0.036023773
0.036232054
0.036447005
0.036668608
0.036896836
0.037131655
0.037373024
0.037620894
0.037875207
0.038135894
0.038402879
0.038676072
0.038955372
0.039240668
0.039531836
0.039828737
0.040131222
0.040439127
0.040752274
0.041070474
0.041393521
0.041721199
0.042053277
0.042389511
0.042729647
0.043073416
0.043420541
0.043770732
0.044123692
0.044479112
0.044836677
0.045196066
0.045556949
0.045918993
0.046281862
0.046645213
0.047008705
0.047371994
0.047734734
0.04809658
0.04845719
0.04881622
0.049173327
0.049528151
0.049880363
0.050229661
0.050575727
0.050918231
0.051256834
0.034598065
0.034752878
0.034914409
0.0350826
0.035257474
0.035439039
0.0356273
0.035822256
0.036023903
0.036232232
0.036447228
0.036668871
0.036897135
0.037131987
0.037373385
0.037621281
0.037875616
0.038136322
0.038403323
0.038676528
0.038955838
0.03924114
0.039532311
0.039829213
0.040131696
0.040439596
0.040752736
0.041070926
0.041393962
0.041721625
0.042053687
0.042389903
0.042730018
0.043073765
0.043420866
0.043771032
0.044123965
0.044479357
0.044836893
0.045196251
0.045557103
0.045919115
0.04628195
0.046645268
0.047008726
0.047371979
0.047734684
0.048096495
0.04845707
0.048816065
0.049173139
0.049527942
0.049880144
0.050229437
0.050575499
0.050917991
0.051256585
0.034597583
0.034752491
0.034914113
0.035082389
0.035257342
0.03543898
0.03562731
0.035822329
0.036024034
0.036232417
0.036447462
0.03666915
0.036897454
0.037132342
0.037373773
0.037621697
0.037876057
0.038136784
0.038403802
0.038677021
0.038956342
0.039241652
0.039532827
0.03982973
0.040132211
0.040440106
0.040753239
0.041071419
0.041394442
0.04172209
0.042054134
0.04239033
0.042730424
0.043074148
0.043421223
0.043771362
0.044124266
0.044479627
0.044837132
0.045196457
0.045557275
0.045919253
0.046282053
0.046645334
0.047008755
0.047371972
0.047734639
0.048096413
0.048456951
0.04881591
0.049172951
0.04952773
0.049879918
0.0502292
0.050575254
0.050917729
0.05125633
0.034597009
0.034752029
0.034913757
0.035082133
0.035257178
0.035438903
0.035627313
0.035822406
0.03602418
0.036232625
0.036447728
0.036669469
0.036897821
0.037132752
0.037374221
0.037622178
0.037876567
0.03813732
0.038404358
0.038677594
0.038956927
0.039242246
0.039533426
0.039830331
0.040132811
0.040440701
0.040753825
0.041071994
0.041395002
0.041722633
0.042054658
0.042390832
0.0427309
0.043074597
0.043421643
0.043771751
0.044124622
0.044479949
0.044837418
0.045196706
0.045557486
0.045919424
0.046282183
0.046645424
0.047008803
0.047371977
0.047734601
0.048096333
0.04845683
0.04881575
0.049172754
0.049527504
0.049879672
0.050228939
0.050574977
0.050917437
0.051256065
0.034596337
0.034751486
0.034913338
0.035081829
0.035256981
0.035438807
0.035627309
0.035822489
0.036024342
0.036232861
0.03644803
0.036669832
0.03689824
0.03713322
0.037374733
0.03762273
0.037877153
0.038137934
0.038404997
0.038678252
0.038957601
0.03924293
0.039534117
0.039831024
0.040133502
0.040441387
0.040754502
0.041072658
0.04139565
0.041723262
0.042055264
0.042391413
0.042731454
0.04307512
0.043422133
0.043772206
0.04412504
0.044480328
0.044837756
0.045197002
0.045557738
0.045919631
0.046282345
0.046645539
0.04700887
0.047371997
0.047734574
0.048096258
0.048456708
0.048815584
0.049172547
0.049527263
0.049879405
0.05022865
0.050574668
0.05091712
0.03459556
0.034750858
0.03491285
0.035081473
0.035256749
0.035438689
0.035627299
0.035822577
0.036024522
0.036233125
0.036448371
0.036670243
0.036898714
0.037133752
0.037375316
0.037623358
0.037877819
0.038138634
0.038405725
0.038679003
0.038958369
0.039243711
0.039534906
0.039831816
0.040134292
0.040442171
0.040755277
0.041073418
0.041396393
0.041723983
0.04205596
0.042392081
0.04273209
0.043075722
0.043422698
0.043772731
0.044125523
0.044480768
0.04483815
0.045197348
0.045558036
0.045919879
0.046282541
0.046645682
0.047008961
0.047372034
0.047734558
0.048096189
0.048456588
0.048815413
0.049172331
0.049527006
0.049879114
0.050228329
0.050574321
0.050916785
0.034594672
0.034750139
0.03491229
0.035081064
0.03525648
0.035438551
0.035627281
0.035822673
0.036024721
0.03623342
0.036448754
0.036670706
0.036899249
0.037134352
0.037375974
0.037624067
0.037878573
0.038139427
0.038406549
0.038679853
0.038959239
0.039244596
0.0395358
0.039832714
0.040135189
0.040443062
0.040756156
0.041074282
0.041397237
0.041724804
0.042056753
0.042392842
0.042732816
0.04307641
0.043423345
0.043773334
0.044126079
0.044481275
0.044838606
0.045197751
0.045558383
0.04592017
0.046282775
0.046645858
0.047009078
0.047372091
0.047734555
0.048096127
0.048456468
0.048815238
0.049172103
0.049526731
0.049878797
0.050227974
0.050573934
0.034593665
0.034749323
0.034911654
0.035080597
0.035256172
0.03543839
0.035627258
0.035822776
0.036024942
0.036233748
0.036449182
0.036671224
0.036899849
0.037135025
0.037376713
0.037624864
0.037879421
0.038140317
0.038407477
0.03868081
0.038960219
0.039245593
0.039536807
0.039833726
0.0401362
0.040444066
0.040757149
0.041075258
0.041398191
0.041725731
0.04205765
0.042393704
0.042733639
0.04307719
0.04342408
0.04377402
0.044126713
0.044481854
0.044839128
0.045198214
0.045558786
0.04592051
0.046283051
0.046646069
0.047009223
0.04737217
0.047734567
0.048096074
0.04845635
0.048815058
0.049171864
0.049526436
0.049878449
0.050227579
0.050573522
0.034592532
0.034748404
0.034910938
0.03508007
0.035255822
0.035438206
0.035627228
0.035822889
0.036025186
0.036234114
0.036449658
0.036671801
0.036900518
0.037135777
0.037377539
0.037625755
0.037880369
0.038141315
0.038408515
0.038681882
0.038961317
0.03924671
0.039537936
0.039834861
0.040137334
0.040445193
0.040758263
0.041076354
0.041399263
0.041726774
0.042058658
0.042394674
0.042734567
0.043078071
0.043424909
0.043774795
0.044127431
0.044482511
0.044839722
0.045198743
0.045559247
0.045920902
0.046283372
0.046646318
0.047009399
0.047372273
0.047734597
0.048096031
0.048456235
0.048814874
0.049171611
0.049526117
0.049878066
0.050227144
0.034591265
0.034747377
0.034910136
0.03507948
0.03525543
0.035437999
0.035627192
0.035823012
0.036025457
0.036234519
0.036450188
0.036672444
0.036901263
0.037136615
0.037378459
0.037626748
0.037881426
0.038142426
0.038409672
0.038683077
0.038962542
0.039247956
0.039539196
0.039836127
0.0401386
0.040446452
0.040759508
0.041077579
0.041400462
0.041727941
0.042059788
0.042395761
0.042735607
0.043079059
0.043425841
0.043775667
0.04412824
0.044483254
0.044840395
0.045199344
0.045559774
0.045921352
0.046283744
0.046646611
0.047009611
0.047372403
0.047734646
0.048096
0.048456125
0.048814685
0.049171345
0.049525772
0.049877643
0.050226692
0.034589859
0.034746236
0.034909245
0.035078824
0.035254994
0.035437767
0.035627151
0.035823148
0.036025755
0.036234968
0.036450775
0.036673156
0.03690209
0.037137544
0.03737948
0.03762785
0.037882599
0.03814366
0.038410957
0.038684404
0.038963902
0.03924934
0.039540597
0.039837535
0.040140008
0.040447852
0.040760893
0.041078942
0.041401797
0.041729241
0.042061047
0.042396974
0.042736768
0.043080163
0.043426884
0.043776645
0.044129148
0.044484088
0.044841153
0.045200023
0.04556037
0.045921865
0.046284171
0.04664695
0.047009862
0.047372565
0.047734718
0.048095982
0.048456019
0.048814492
0.049171064
0.049525397
0.049877178
0.034588304
0.034744974
0.03490826
0.035078099
0.035254512
0.035437512
0.035627106
0.035823298
0.036026086
0.036235465
0.036451424
0.036673945
0.036903004
0.037138572
0.037380609
0.03762907
0.037883897
0.038145025
0.03841238
0.038685874
0.038965408
0.039250874
0.039542148
0.039839096
0.040141569
0.040449405
0.04076243
0.041080455
0.041403279
0.041730685
0.042062447
0.042398323
0.04273806
0.043081393
0.043428047
0.043777735
0.044130162
0.044485023
0.044842004
0.045200786
0.045561044
0.045922447
0.046284659
0.046647342
0.047010156
0.047372761
0.047734816
0.048095982
0.048455921
0.048814297
0.049170768
0.049524993
0.049876687
0.034586594
0.034743588
0.034907178
0.035077303
0.035253984
0.035437233
0.035627058
0.035823465
0.036026452
0.036236014
0.036452141
0.036674815
0.036904013
0.037139706
0.037381856
0.037630415
0.037885329
0.038146533
0.03841395
0.038687496
0.038967071
0.039252567
0.039543862
0.03984082
0.040143293
0.040451121
0.040764129
0.041082128
0.041404918
0.041732284
0.042063997
0.042399817
0.042739493
0.043082758
0.043429339
0.043778949
0.044131292
0.044486065
0.044842955
0.045201642
0.045561802
0.045923104
0.046285213
0.046647791
0.047010499
0.047372996
0.047734943
0.048096
0.048455832
0.048814099
0.049170458
0.049524563
0.034584721
0.034742071
0.034905995
0.035076434
0.035253407
0.03543693
0.03562701
0.035823653
0.036026858
0.036236621
0.036452931
0.036675774
0.036905125
0.037140956
0.037383228
0.037631897
0.037886906
0.038148192
0.038415679
0.038689282
0.038968903
0.039254432
0.039545749
0.039842719
0.040145193
0.040453013
0.040766002
0.041083974
0.041406728
0.041734048
0.042065709
0.042401469
0.042741078
0.04308427
0.04343077
0.043780295
0.044132547
0.044487225
0.044844015
0.045202599
0.045562652
0.045923844
0.04628584
0.046648304
0.047010896
0.047373275
0.047735103
0.048096041
0.048455753
0.048813902
0.049170136
0.049524146
0.034582678
0.034740417
0.034904707
0.035075489
0.035252783
0.035436605
0.035626963
0.035823863
0.036027307
0.03623729
0.036453802
0.036676828
0.036906347
0.037142329
0.037384736
0.037633524
0.037888638
0.038150015
0.038417578
0.038691244
0.038970914
0.039256481
0.039547823
0.039844806
0.040147282
0.040455093
0.040768063
0.041086005
0.041408719
0.041735992
0.042067595
0.042403291
0.042742826
0.043085938
0.043432352
0.043781784
0.044133938
0.044488512
0.044845193
0.045203665
0.045563602
0.045924674
0.046286548
0.046648888
0.047011353
0.047373604
0.047735301
0.048096107
0.048455689
0.048813705
0.049169801
0.049523718
0.034580459
0.034738623
0.034903312
0.035074467
0.035252111
0.035436258
0.03562692
0.035824102
0.036027805
0.036238028
0.03645476
0.036677987
0.036907688
0.037143834
0.037386389
0.037635308
0.037890537
0.038152012
0.038419659
0.038693394
0.038973119
0.039258727
0.039550097
0.039847094
0.040149574
0.040457374
0.040770324
0.041088234
0.041410907
0.041738127
0.042069669
0.042405294
0.04274475
0.043087776
0.043434096
0.043783427
0.044135475
0.044489936
0.0448465
0.04520485
0.045564661
0.045925604
0.046287345
0.046649549
0.047011876
0.047373987
0.047735542
0.048096203
0.048455639
0.048813514
0.049169463
0.049523274
0.034578056
0.034736685
0.034901806
0.035073368
0.035251392
0.035435893
0.035626884
0.035824371
0.036028358
0.036238841
0.036455813
0.036679259
0.036909158
0.037145484
0.037388199
0.037637261
0.037892614
0.038154197
0.038421936
0.038695746
0.038975531
0.039261184
0.039552585
0.039849599
0.040152081
0.040459873
0.0407728
0.041090677
0.041413304
0.041740468
0.042071944
0.042407493
0.042746864
0.043089796
0.043436015
0.043785237
0.044137169
0.044491509
0.044847946
0.045206164
0.045565839
0.045926641
0.046288239
0.046650296
0.047012474
0.047374432
0.04773583
0.04809633
0.048455606
0.048813334
0.049169145
0.034575461
0.034734598
0.034900189
0.035072191
0.035250626
0.035435511
0.035626859
0.035824678
0.036028971
0.036239737
0.036456968
0.036680652
0.036910767
0.037147287
0.037390177
0.037639394
0.037894883
0.038156583
0.038424422
0.038698314
0.038978165
0.039263867
0.039555301
0.039852334
0.040154821
0.040462602
0.040775506
0.041093347
0.041415925
0.041743029
0.042074434
0.042409901
0.042749181
0.043092012
0.043438122
0.043787227
0.044139034
0.044493243
0.044849543
0.045207618
0.045567146
0.045927797
0.04628924
0.046651138
0.047013154
0.047374947
0.047736174
0.048096494
0.048455588
0.04881318
0.049168933
0.034572667
0.034732361
0.034898459
0.035070937
0.035249816
0.035435116
0.03562685
0.035825027
0.036029652
0.036240724
0.036458236
0.036682177
0.036912526
0.037149257
0.037392336
0.03764172
0.037897357
0.038159185
0.038427131
0.038701113
0.038981035
0.039266792
0.039558263
0.039855317
0.040157808
0.04046558
0.040778459
0.041096261
0.041418788
0.041745827
0.042077155
0.042412535
0.042751716
0.043094439
0.043440431
0.04378941
0.044141083
0.044495151
0.044851303
0.045209225
0.045568593
0.045929081
0.046290357
0.046652084
0.047013926
0.04737554
0.04773658
0.048096701
0.048455587
0.034569666
0.034729971
0.034896616
0.035069606
0.035248965
0.035434711
0.035626862
0.035825426
0.036030409
0.036241811
0.036459626
0.036683844
0.036914445
0.037151404
0.037394688
0.037644254
0.03790005
0.038162016
0.03843008
0.038704159
0.038984159
0.039269974
0.039561486
0.039858563
0.04016106
0.040468821
0.040781674
0.041099436
0.041421907
0.041748878
0.042080124
0.042415409
0.042754485
0.043097091
0.043442957
0.0437918
0.04414333
0.044497245
0.044853239
0.045210996
0.045570194
0.045930506
0.046291602
0.046653145
0.047014799
0.04737622
0.047737059
0.048096971
0.034566461
0.034727427
0.034894662
0.035068201
0.035248075
0.035434302
0.0356269
0.03582588
0.036031248
0.036243006
0.036461148
0.036685665
0.036916538
0.037153743
0.037397247
0.037647009
0.037902977
0.038165093
0.038433283
0.038707467
0.038987552
0.039273431
0.039564987
0.039862089
0.040164594
0.040472345
0.04078517
0.041102888
0.041425301
0.041752198
0.042083356
0.042418541
0.042757504
0.043099985
0.043445715
0.043794413
0.044145788
0.044499541
0.044855365
0.045212944
0.045571959
0.045932084
0.046292986
0.046654332
0.047015785
0.047377
0.047737626
0.048097361
0.034407764
0.034563112
0.034724737
0.034892597
0.035066726
0.035247151
0.035433894
0.035626973
0.035826399
0.036032181
0.03624432
0.036462814
0.036687652
0.036918817
0.037156287
0.037400028
0.037650001
0.037906155
0.038168431
0.038436758
0.038711056
0.038991232
0.03927718
0.039568785
0.039865915
0.040168428
0.040476168
0.040788965
0.041106637
0.041428986
0.041755805
0.04208687
0.042421947
0.042760789
0.043103138
0.043448723
0.043797265
0.044148475
0.044502054
0.044857695
0.045215085
0.045573904
0.045933826
0.046294522
0.046655657
0.047016894
0.047377888
0.047738286
0.048097829
0.034403513
0.034559574
0.034721899
0.034890426
0.035065183
0.035246198
0.035433493
0.035627086
0.035826991
0.036033216
0.036245765
0.036464635
0.036689817
0.036921297
0.03715905
0.037403046
0.037653246
0.037909599
0.038172048
0.038440523
0.038714943
0.038995217
0.03928124
0.039572897
0.039870058
0.040172581
0.04048031
0.040793077
0.0411107
0.041432983
0.041759718
0.042090684
0.042425646
0.042764359
0.043106566
0.043451996
0.043800372
0.044151405
0.044504798
0.044860244
0.045217431
0.045576041
0.045935748
0.046296223
0.046657133
0.04701814
0.047378899
0.047739057
0.048098387
0.034398973
0.034555832
0.034718909
0.034888149
0.035063577
0.035245222
0.035433107
0.035627249
0.035827666
0.036034365
0.036247351
0.036466624
0.036692175
0.036923991
0.037162048
0.037406317
0.03765676
0.037913327
0.038175962
0.038444595
0.038719146
0.038999526
0.03928563
0.039577344
0.039874538
0.040177072
0.04048479
0.040797526
0.041115097
0.04143731
0.041763957
0.042094816
0.042429657
0.042768232
0.043110287
0.043455552
0.043803751
0.044154596
0.04450779
0.044863028
0.04522
0.045578386
0.045937863
0.046298103
0.046658773
0.047019536
0.047380047
0.047739955
0.048099052
0.034394166
0.034551886
0.03471577
0.03488577
0.035061915
0.035244231
0.035432744
0.035627473
0.035828434
0.036035639
0.036249092
0.036468795
0.03669474
0.036926914
0.037165296
0.037409858
0.03766056
0.037917356
0.038180189
0.038448992
0.038723685
0.039004178
0.039290369
0.039582144
0.039879375
0.040181921
0.040489629
0.040802331
0.041119848
0.041441986
0.041768539
0.042099286
0.042433997
0.042772426
0.04311432
0.04345941
0.04380742
0.044158064
0.044511046
0.044866063
0.045222805
0.045580953
0.045940186
0.046300176
0.046660591
0.047021095
0.047381345
0.047740991
0.048099839
0.034389105
0.034547742
0.034712486
0.034883297
0.035060202
0.035243233
0.035432413
0.035627766
0.035829308
0.03603705
0.036251002
0.036471162
0.036697527
0.036930083
0.037168812
0.037413684
0.037664664
0.037921704
0.03818475
0.038453733
0.038728577
0.039009192
0.039295477
0.039587318
0.039884588
0.040187148
0.040494845
0.040807513
0.041124973
0.041447032
0.041773485
0.042104114
0.042438686
0.042776961
0.043118683
0.043463586
0.043811396
0.044161827
0.044514584
0.044869366
0.045225863
0.045583759
0.045942732
0.046302456
0.046662601
0.047022832
0.047382806
0.047742178
0.048100759
0.034383797
0.034543406
0.034709065
0.034880736
0.035058449
0.035242238
0.035432127
0.035628142
0.035830299
0.036038613
0.036253093
0.03647374
0.036700551
0.036933514
0.037172611
0.037417814
0.037669089
0.03792639
0.038189662
0.038458839
0.038733844
0.039014589
0.039300974
0.039592885
0.039890198
0.040192773
0.040500459
0.040813092
0.041130491
0.041452467
0.041778815
0.042109317
0.042443744
0.042781854
0.043123394
0.0434681
0.043815698
0.044165902
0.044518421
0.044872953
0.04522919
0.045586818
0.045945516
0.046304959
0.046664818
0.04702476
0.047384443
0.047743526
0.048101824
0.034378251
0.034538888
0.034705515
0.034878097
0.035056666
0.035241257
0.035431897
0.035628612
0.035831422
0.036040342
0.036255382
0.036476545
0.036703829
0.036937223
0.037176711
0.037422266
0.037673855
0.037931432
0.038194944
0.038464327
0.038739503
0.039020387
0.039306879
0.039598866
0.039896225
0.040198817
0.040506492
0.040819087
0.041136423
0.041458312
0.041784548
0.042114917
0.04244919
0.042787126
0.043128474
0.04347297
0.043820342
0.044170307
0.044522573
0.044876841
0.045232804
0.045590148
0.045948554
0.0463077
0.046667257
0.047026892
0.047386269
0.047745048
0.048103046
0.03437248
0.034534201
0.03470185
0.034875393
0.035054866
0.035240303
0.035431737
0.035629193
0.035832692
0.036042252
0.036257884
0.036479593
0.036707377
0.036941228
0.03718113
0.037427058
0.037678978
0.037936849
0.038200616
0.038470217
0.038745576
0.039026607
0.039313212
0.03960528
0.039902688
0.040205299
0.040512964
0.040825519
0.041142789
0.041464585
0.041790704
0.042120932
0.042455042
0.042792795
0.043133939
0.043478214
0.043825348
0.04417506
0.044527059
0.044881047
0.045236719
0.045593763
0.045951862
0.046310693
0.04666993
0.047029244
0.047388297
0.047746755
0.048104436
0.034366498
0.034529359
0.034698083
0.034872638
0.035053062
0.035239393
0.035431662
0.035629898
0.035834124
0.036044359
0.036260616
0.0364829
0.036711213
0.036945546
0.037185885
0.037432207
0.037684479
0.037942659
0.038206696
0.038476528
0.03875208
0.039033267
0.039319993
0.039612147
0.039909607
0.040212239
0.040519892
0.040832406
0.041149607
0.041471306
0.041797302
0.042127382
0.04246132
0.042798878
0.043139808
0.04348385
0.043830732
0.044180176
0.044531893
0.044885586
0.045240952
0.045597679
0.045955453
0.046313953
0.046672854
0.047031827
0.04739054
0.047748659
0.048106006
0.034360323
0.03452438
0.034694232
0.03486985
0.035051273
0.035238541
0.035431689
0.035630745
0.035835736
0.036046681
0.036263595
0.036486485
0.036715354
0.036950195
0.037190994
0.037437731
0.037690373
0.037948881
0.038213203
0.038483278
0.038759034
0.039040386
0.03932724
0.039619485
0.039917001
0.040219654
0.040527296
0.040839768
0.041156896
0.041478492
0.041804358
0.042134282
0.04246804
0.042805394
0.043146098
0.043489894
0.043836511
0.044185674
0.044537093
0.044890475
0.045245517
0.045601911
0.045959343
0.046317493
0.04667604
0.047034656
0.04739301
0.047750772
0.048107765
0.034353977
0.034519285
0.034690316
0.034867047
0.035049517
0.035237768
0.035431836
0.035631752
0.035837544
0.036049234
0.036266838
0.036490364
0.036719817
0.036955191
0.037196475
0.037443648
0.037696679
0.037955531
0.038220153
0.038490484
0.038766455
0.039047982
0.03933497
0.039627311
0.039924887
0.040227563
0.040535194
0.040847621
0.041164672
0.041486161
0.041811891
0.042141651
0.042475219
0.042812359
0.043152825
0.043496361
0.043842701
0.044191566
0.044542673
0.044895728
0.04525043
0.045606473
0.045963545
0.046321328
0.046679502
0.047037742
0.047395718
0.047753104
0.048109726
0.034347485
0.034514097
0.034686361
0.034864253
0.035047816
0.035237093
0.035432122
0.035632938
0.035839569
0.036052038
0.036270363
0.036494556
0.03672462
0.036960553
0.037202344
0.037449974
0.037703414
0.037962626
0.038227563
0.038498164
0.03877436
0.03905607
0.039343199
0.039635642
0.039933279
0.04023598
0.0405436
0.04085598
0.041172951
0.041494328
0.041819915
0.042149503
0.042482871
0.042819786
0.043160003
0.043503267
0.043849314
0.044197868
0.044548646
0.044901357
0.045255703
0.045611377
0.045968071
0.046325469
0.046683252
0.047041097
0.047398676
0.047755668
0.048111898
0.034340878
0.034508846
0.034682391
0.034861492
0.035046193
0.035236539
0.035432571
0.035634324
0.035841829
0.036055111
0.036274189
0.036499077
0.03672978
0.036966297
0.037208618
0.037456726
0.037710593
0.037970182
0.038235448
0.038506331
0.038782763
0.039064664
0.039351941
0.03964449
0.039942193
0.04024492
0.040552527
0.040864859
0.041181746
0.041503005
0.041828443
0.042157851
0.042491009
0.042827688
0.043167644
0.043510623
0.043856363
0.044204591
0.044555025
0.044907375
0.045261347
0.045616635
0.045972933
0.046329926
0.046687299
0.04704473
0.047401894
0.047758471
0.04811429
0.034334189
0.034503563
0.034678437
0.034858792
0.035044674
0.035236131
0.035433204
0.035635931
0.035844345
0.036058472
0.036278334
0.036503945
0.036735313
0.036972438
0.037215312
0.037463917
0.037718229
0.037978212
0.03824382
0.038514997
0.038791676
0.039073777
0.039361209
0.039653868
0.039951639
0.040254393
0.040561988
0.040874268
0.041191067
0.041512203
0.041837484
0.042166704
0.042499644
0.042836075
0.043175757
0.043518439
0.043863858
0.044211744
0.044561818
0.044913791
0.045267371
0.045622255
0.045978138
0.046334709
0.046691652
0.047048649
0.047405378
0.047761522
0.048116911
0.034327458
0.034498285
0.034674532
0.034856184
0.035043288
0.035235894
0.035434045
0.035637781
0.035847136
0.03606214
0.036282815
0.036509177
0.036741235
0.036978991
0.037222438
0.037471561
0.037726335
0.037986727
0.038252691
0.038524174
0.038801109
0.039083417
0.03937101
0.039663784
0.039961626
0.040264407
0.040571988
0.040884215
0.041200922
0.04152193
0.041847047
0.042176069
0.042508781
0.042844954
0.043184351
0.043526721
0.043871805
0.044219334
0.044569032
0.044920612
0.045273782
0.045628244
0.045983694
0.046339823
0.046696318
0.047052862
0.047409137
0.047764828
0.048119766
0.03432073
0.034493052
0.034670713
0.034853701
0.035042065
0.035235856
0.035435119
0.035639897
0.035850225
0.036066135
0.03628765
0.036514788
0.03674756
0.036985968
0.037230008
0.037479667
0.03773492
0.037995735
0.038262069
0.038533868
0.038811067
0.039093591
0.03938135
0.039674243
0.039972157
0.040274967
0.040582533
0.040894703
0.041211314
0.041532187
0.041857133
0.042185951
0.042518424
0.042854329
0.043193427
0.043535473
0.043880207
0.044227365
0.04457667
0.04492784
0.045280584
0.045634606
0.045989604
0.046345272
0.0467013
0.047057372
0.047413173
0.047768391
0.04812286
0.034314052
0.034487908
0.03466702
0.03485138
0.035041038
0.035236047
0.035436454
0.035642303
0.035853632
0.036070474
0.036292854
0.036520791
0.036754299
0.03699338
0.037238032
0.037488243
0.037743989
0.038005241
0.038271956
0.038544082
0.038821555
0.0391043
0.039392229
0.039685244
0.039983233
0.040286071
0.040593621
0.040905732
0.041222242
0.041542975
0.041867743
0.042196346
0.042528572
0.042864197
0.043202985
0.043544693
0.043889065
0.044235836
0.044584733
0.044935476
0.045287776
0.04564134
0.045995869
0.046351057
0.046706598
0.04706218
0.047417487
0.047772214
0.048126194
0.034307479
0.034482901
0.034663497
0.03484926
0.035040241
0.035236496
0.035438075
0.035645022
0.035857377
0.036075175
0.036298442
0.0365272
0.036761462
0.037001235
0.037246516
0.037497293
0.037753547
0.038015247
0.038282354
0.038554815
0.038832568
0.03911554
0.039403645
0.039696785
0.039994849
0.040297715
0.040605246
0.040917295
0.0412337
0.041554286
0.041878869
0.04220725
0.042539218
0.042874552
0.043213019
0.043554377
0.043898371
0.044244741
0.044593215
0.044943515
0.045295355
0.045648444
0.046002484
0.046357175
0.046712211
0.047067282
0.047422078
0.047776295
0.048129768
0.034301068
0.034478084
0.03466019
0.03484738
0.035039711
0.035237236
0.035440009
0.035648076
0.035861479
0.036080253
0.036304427
0.036534023
0.036769058
0.037009537
0.03725546
0.037506818
0.037763591
0.03802575
0.038293257
0.03856606
0.038844101
0.039127305
0.039415588
0.039708854
0.040006994
0.040309887
0.040617398
0.04092938
0.041245675
0.041566109
0.0418905
0.04221865
0.042550351
0.042885384
0.043223518
0.043564512
0.043908116
0.044254071
0.044602106
0.044951947
0.045303311
0.045655908
0.046009443
0.046363618
0.04671813
0.047072673
0.047426938
0.047780627
0.048133577
0.034294883
0.034473512
0.034657147
0.034845785
0.035039483
0.035238298
0.035442283
0.035651488
0.035865955
0.036085722
0.036310818
0.036541268
0.036777088
0.037018287
0.037264864
0.037516813
0.037774114
0.038036741
0.038304655
0.038577807
0.038856139
0.039139578
0.039428042
0.039721435
0.040019651
0.040322569
0.040630057
0.040941969
0.041258149
0.041578425
0.041902616
0.042230526
0.042561951
0.042896672
0.043234462
0.043575082
0.043918283
0.044263808
0.044611392
0.044960759
0.045311631
0.045663719
0.046016732
0.046370373
0.046724343
0.047078338
0.047432055
0.0477852
0.048137613
0.034288989
0.034469243
0.034654419
0.034844517
0.035039595
0.035239712
0.035444923
0.035655278
0.035870822
0.036091592
0.036317622
0.036548936
0.036785552
0.037027479
0.03727472
0.037527268
0.037785104
0.038048204
0.03831653
0.038590036
0.038868661
0.039152338
0.039440984
0.039734505
0.040032795
0.040335736
0.040643198
0.040955036
0.041271094
0.041591206
0.04191519
0.042242853
0.042573993
0.042908393
0.043245828
0.043586062
0.043928848
0.044273932
0.044621049
0.044969929
0.045320294
0.045671858
0.046024333
0.046377423
0.046730833
0.047084262
0.047437411
0.047789997
0.048141867
0.034283456
0.034465337
0.034652058
0.034843621
0.035040085
0.03524151
0.035447952
0.035659464
0.03587609
0.036097872
0.036324842
0.036557026
0.036794443
0.037037105
0.037285015
0.037538165
0.037796541
0.038060118
0.038328859
0.038602719
0.038881641
0.039165555
0.039454382
0.039748029
0.040046392
0.040349353
0.040656785
0.040968544
0.041284477
0.041604417
0.041928187
0.042255596
0.042586441
0.042920511
0.043257582
0.043597419
0.043939779
0.04428441
0.04463105
0.04497943
0.045329275
0.045680301
0.046032222
0.046384746
0.046737577
0.04709042
0.047442981
0.047794991
0.048146329
0.034278353
0.034461856
0.034650116
0.03484314
0.035040987
0.035243717
0.035451391
0.035664059
0.035881769
0.036104562
0.036332473
0.036565529
0.03680375
0.037047148
0.037295727
0.037549482
0.037808398
0.038072452
0.038341609