/*--------------------------------*- C++ -*----------------------------------*\
| =========                 |                                                 |
| \\      /  F ield         | OpenFOAM: The Open Source CFD Toolbox           |
|  \\    /   O peration     | Version:  2312                                  |
|   \\  /    A nd           | Website:  www.openfoam.com                      |
|    \\/     M anipulation  |                                                 |
\*---------------------------------------------------------------------------*/
FoamFile
{
    version     2.0;
    format      ascii;
    arch        "LSB;label=32;scalar=64";
    class       volScalarField;
    location    "0.08";
    object      O2;
}
// * * * * * * * * * * * * * * * * * * * * * * * * * * * * * * * * * * * * * //

dimensions      [0 0 0 0 0 0 0];

internalField   nonuniform List<scalar> 
3251
(
0.18035361
0.18100275
0.18165877
0.18232154
0.18299086
0.18366649
0.18434813
0.18503544
0.18572805
0.18642552
0.18712742
0.18783325
0.18854248
0.18925459
0.189969
0.19068512
0.19140235
0.19212009
0.1928377
0.19355457
0.19427007
0.19498358
0.19569447
0.19640215
0.19710601
0.19780548
0.19849999
0.19918899
0.19987196
0.2005484
0.20121784
0.20187982
0.20253392
0.20317974
0.2038169
0.20444508
0.20506394
0.2056732
0.20627261
0.20686192
0.20744093
0.20800944
0.20856731
0.20911439
0.20965057
0.21017574
0.21068985
0.21119281
0.2116846
0.21216518
0.21263453
0.21309259
0.21353931
0.21397478
0.2143991
0.21481232
0.2152145
0.21560567
0.18035813
0.18100714
0.18166305
0.18232571
0.18299493
0.18367046
0.18435199
0.18503921
0.18573171
0.18642909
0.18713089
0.18783662
0.18854576
0.18925777
0.18997208
0.19068811
0.19140525
0.1921229
0.19284042
0.1935572
0.19427261
0.19498603
0.19569684
0.19640443
0.1971082
0.19780759
0.19850201
0.19919093
0.19987382
0.20055019
0.20121955
0.20188145
0.20253548
0.20318122
0.20381832
0.20444642
0.20506522
0.20567442
0.20627376
0.206863
0.20744195
0.20801041
0.20856822
0.20911524
0.20965136
0.21017648
0.21069053
0.21119345
0.21168518
0.21216571
0.212635
0.21309301
0.21353973
0.2139752
0.21439952
0.21481273
0.21521489
0.21560603
0.1803674
0.18101618
0.18167186
0.18233432
0.18300334
0.18367867
0.18436001
0.18504703
0.18573934
0.18643653
0.18713813
0.18784367
0.18855263
0.18926445
0.18997858
0.19069442
0.19141138
0.19212885
0.1928462
0.1935628
0.19427804
0.19499128
0.19570192
0.19640934
0.19711296
0.19781218
0.19850644
0.1991952
0.19987794
0.20055415
0.20122337
0.20188512
0.202539
0.20318461
0.20382157
0.20444954
0.2050682
0.20567728
0.20627649
0.20686562
0.20744445
0.20801279
0.20857049
0.2091174
0.20965342
0.21017844
0.21069239
0.2111952
0.21168684
0.21216727
0.21263647
0.2130944
0.21354107
0.2139765
0.21440079
0.21481396
0.21521608
0.21560717
0.18038139
0.18102985
0.18168522
0.18234737
0.18301608
0.18369111
0.18437216
0.18505889
0.18575091
0.18644781
0.18714914
0.1878544
0.18856307
0.18927462
0.18998848
0.19070405
0.19142074
0.19213794
0.19285502
0.19357137
0.19428635
0.19499934
0.19570973
0.1964169
0.19712027
0.19781925
0.19851327
0.1992018
0.19988431
0.2005603
0.20122929
0.20189083
0.2025445
0.2031899
0.20382665
0.20445443
0.2050729
0.20568178
0.20628081
0.20686976
0.20744841
0.20801659
0.20857412
0.20912088
0.20965674
0.21018161
0.21069541
0.21119808
0.21168958
0.21216988
0.21263894
0.21309677
0.21354334
0.2139787
0.21440291
0.21481601
0.21521805
0.21560913
0.18040011
0.18104814
0.18170308
0.18236483
0.18303315
0.18370778
0.18438844
0.18507478
0.18576642
0.18646295
0.1871639
0.18786878
0.18857709
0.18928827
0.19000177
0.19071698
0.19143332
0.19215016
0.1928669
0.1935829
0.19429753
0.19501019
0.19572024
0.19642709
0.19713013
0.19782879
0.1985225
0.19921072
0.19989293
0.20056862
0.20123732
0.20189857
0.20255196
0.20319708
0.20383357
0.20446108
0.2050793
0.20568793
0.20628672
0.20687543
0.20745385
0.2080218
0.20857912
0.20912567
0.20966132
0.21018599
0.2106996
0.21120209
0.21169341
0.21217353
0.21264243
0.2131001
0.21354654
0.21398179
0.21440589
0.21481888
0.21522081
0.18042218
0.18106971
0.18172418
0.18238544
0.18305329
0.18372746
0.18440766
0.18509355
0.18578474
0.18648082
0.18718133
0.18788578
0.18859366
0.18930441
0.19001748
0.19073227
0.19144819
0.19216462
0.19288095
0.19359654
0.19431078
0.19502304
0.1957327
0.19643916
0.19714183
0.19784011
0.19853346
0.19922131
0.19990316
0.2005785
0.20124686
0.20190778
0.20256084
0.20320564
0.20384181
0.20446902
0.20508693
0.20569527
0.20629378
0.20688221
0.20746037
0.20802806
0.20858512
0.20913142
0.20966683
0.21019127
0.21070466
0.21120693
0.21169803
0.21217795
0.21264666
0.21310416
0.21355044
0.21398554
0.2144095
0.21482236
0.21522412
0.18044693
0.18109391
0.18174783
0.18240856
0.18307589
0.18374954
0.18442923
0.18511461
0.1858053
0.18650088
0.1872009
0.18790487
0.18861226
0.18932253
0.19003512
0.19074944
0.1914649
0.19218087
0.19289673
0.19361188
0.19432567
0.19503748
0.19574671
0.19645274
0.19715498
0.19785285
0.19854578
0.19923323
0.19991468
0.20058963
0.20125761
0.20191815
0.20257084
0.20321529
0.20385111
0.20447797
0.20509555
0.20570357
0.20630176
0.20688988
0.20746774
0.20803513
0.20859191
0.20913794
0.20967309
0.21019727
0.2107104
0.21121243
0.2117033
0.212183
0.21265149
0.21310879
0.21355489
0.21398982
0.21441363
0.21482633
0.21522792
0.18047628
0.18112261
0.18177589
0.182436
0.1831027
0.18377574
0.18445482
0.1851396
0.1858297
0.1865247
0.18722413
0.18792752
0.18863434
0.18934405
0.19005607
0.19076984
0.19148474
0.19220016
0.19291549
0.19363009
0.19434336
0.19505465
0.19576336
0.19646888
0.19717062
0.19786799
0.19856044
0.19924741
0.19992839
0.20060288
0.2012704
0.20193051
0.20258276
0.20322678
0.20386219
0.20448865
0.20510583
0.20571346
0.20631128
0.20689904
0.20747654
0.20804359
0.20860003
0.20914573
0.20968057
0.21020444
0.21071728
0.21121902
0.21170962
0.21218906
0.2126573
0.21311436
0.21356024
0.21399497
0.21441859
0.21483111
0.21523253
0.18051058
0.18115616
0.18180869
0.18246806
0.18313404
0.18380636
0.18448474
0.18516882
0.18585823
0.18655254
0.18725129
0.187954
0.18866016
0.1893692
0.19008057
0.19079369
0.19150794
0.19222273
0.19293743
0.19365141
0.19436405
0.19507474
0.19578285
0.19648777
0.19718893
0.19788572
0.1985776
0.19926402
0.19994445
0.2006184
0.2012854
0.20194498
0.20259674
0.20324026
0.20387518
0.20450117
0.2051179
0.20572508
0.20632245
0.20690979
0.20748688
0.20805353
0.20860958
0.2091549
0.20968937
0.21021289
0.21072539
0.2112268
0.21171708
0.2121962
0.21266416
0.21312094
0.21356656
0.21400105
0.21442444
0.21483674
0.18055017
0.18119488
0.18184655
0.18250508
0.18317022
0.18384172
0.18451928
0.18520256
0.18589117
0.18658469
0.18728266
0.18798459
0.18868998
0.18939826
0.19010888
0.19082124
0.19153476
0.19224881
0.19296278
0.19367604
0.19438797
0.19509795
0.19580537
0.19650961
0.19721009
0.19790622
0.19859745
0.19928322
0.19996303
0.20063636
0.20130275
0.20196174
0.20261291
0.20325586
0.20389023
0.20451567
0.20513187
0.20573853
0.20633541
0.20692225
0.20749886
0.20806505
0.20862066
0.20916554
0.20969959
0.2102227
0.2107348
0.21123583
0.21172574
0.21220452
0.21267213
0.2131286
0.21357392
0.21400813
0.21443125
0.21484329
0.18059543
0.18123914
0.18188984
0.1825474
0.18321159
0.18388215
0.18455878
0.18524114
0.18592883
0.18662145
0.18731853
0.18801958
0.18872408
0.18943149
0.19014125
0.19085276
0.19156542
0.19227864
0.19299177
0.19370422
0.19441534
0.19512452
0.19583114
0.19653461
0.19723431
0.19792969
0.19862017
0.19930521
0.1999843
0.20065692
0.20132261
0.20198093
0.20263143
0.20327374
0.20390747
0.20453229
0.20514788
0.20575396
0.20635026
0.20693655
0.20751262
0.20807828
0.20863337
0.20917776
0.20971133
0.21023397
0.21074562
0.21124622
0.21173571
0.21221408
0.21268131
0.21313741
0.21358239
0.21401627
0.21443907
0.18064674
0.18128933
0.18193892
0.18259538
0.1832585
0.18392799
0.18460357
0.18528488
0.18597155
0.18666314
0.18735921
0.18805925
0.18876276
0.18946919
0.19017796
0.19088851
0.19160021
0.19231248
0.19302468
0.19373619
0.19444639
0.19515466
0.19586039
0.19656297
0.19726181
0.19795633
0.19864596
0.19933017
0.20000844
0.20068027
0.20134518
0.20200272
0.20265248
0.20329404
0.20392706
0.20455118
0.20516609
0.2057715
0.20636715
0.2069528
0.20752826
0.20809332
0.20864784
0.20919166
0.20972468
0.2102468
0.21075795
0.21125805
0.21174707
0.21222498
0.21269177
0.21314746
0.21359204
0.21402555
0.21444798
0.18070451
0.18134584
0.18199418
0.18264942
0.18331132
0.18397962
0.18465401
0.18533415
0.18601966
0.1867101
0.18740503
0.18810394
0.18880633
0.18951165
0.19021932
0.19092878
0.19163941
0.1923506
0.19306174
0.19377221
0.19448138
0.19518863
0.19589335
0.19659494
0.1972928
0.19798635
0.19867503
0.19935831
0.20003567
0.20070659
0.20137062
0.2020273
0.20267621
0.20331695
0.20394916
0.20457249
0.20518663
0.20579129
0.20638621
0.20697115
0.20754592
0.20811031
0.20866417
0.20920737
0.20973978
0.21026131
0.21077187
0.21127142
0.21175991
0.21223731
0.21270361
0.21315882
0.21360296
0.21403604
0.18076918
0.18140909
0.18205604
0.18270991
0.18337045
0.18403741
0.18471047
0.1853893
0.18607351
0.18676267
0.18745632
0.18815398
0.18885511
0.18955919
0.19026564
0.19097387
0.19168329
0.19239329
0.19310325
0.19381255
0.19452057
0.19522668
0.19593027
0.19663074
0.19732751
0.19801998
0.19870761
0.19938984
0.20006617
0.20073609
0.20139913
0.20205485
0.20270281
0.20334263
0.20397393
0.20459638
0.20520966
0.20581348
0.20640759
0.20699174
0.20756573
0.20812937
0.20868251
0.209225
0.20975672
0.21027759
0.21078752
0.21128645
0.21177434
0.21225116
0.21271691
0.21317159
0.21361523
0.21404781
0.18084118
0.18147952
0.18212492
0.18277726
0.18343629
0.18410176
0.18477336
0.18545073
0.18613349
0.18682122
0.18751345
0.1882097
0.18890945
0.18961214
0.19031722
0.1910241
0.19173218
0.19244085
0.1931495
0.1938575
0.19456422
0.19526906
0.19597141
0.19667064
0.19736619
0.19805746
0.19874391
0.19942498
0.20010017
0.20076897
0.20143092
0.20208556
0.20273247
0.20337126
0.20400156
0.20462303
0.20523535
0.20583824
0.20643143
0.2070147
0.20758783
0.20815064
0.20870297
0.20924467
0.20977564
0.21029577
0.21080499
0.21130323
0.21179046
0.21226664
0.21273177
0.21318586
0.21362893
0.18092098
0.18155758
0.18220128
0.18285192
0.18350929
0.1841731
0.18484306
0.18551882
0.18619998
0.18688613
0.18757679
0.18827149
0.18896969
0.18967086
0.19037442
0.1910798
0.19178639
0.19249359
0.19320078
0.19390734
0.19461264
0.19531608
0.19601703
0.1967149
0.19740909
0.19809904
0.19878418
0.19946397
0.20013789
0.20080546
0.20146619
0.20211964
0.20276538
0.20340303
0.20403222
0.2046526
0.20526387
0.20586572
0.20645791
0.2070402
0.20761238
0.20817427
0.2087257
0.20926653
0.20979666
0.21031597
0.2108244
0.21132189
0.21180838
0.21228385
0.21274829
0.21320171
0.21364415
0.18100908
0.18164376
0.18228557
0.18293434
0.18358987
0.18425186
0.18492003
0.185594
0.1862734
0.1869578
0.18764673
0.18833971
0.18903621
0.18973569
0.19043758
0.1911413
0.19184626
0.19255183
0.19325742
0.19396238
0.19466612
0.195368
0.19606742
0.19676378
0.19745649
0.19814497
0.19882866
0.19950704
0.20017957
0.20084577
0.20150516
0.20215729
0.20280176
0.20343815
0.20406611
0.2046853
0.20529539
0.20589611
0.20648719
0.2070684
0.20763953
0.2082004
0.20875084
0.20929072
0.20981991
0.21033833
0.21084589
0.21134254
0.21182822
0.2123029
0.21276657
0.21321925
0.18110597
0.18173855
0.18237828
0.18302501
0.18367851
0.1843385
0.18500469
0.1856767
0.18635416
0.18703664
0.18772367
0.18841476
0.18910939
0.18980701
0.19050707
0.19120897
0.19191213
0.19261592
0.19331973
0.19402295
0.19472496
0.19542514
0.19612288
0.19681758
0.19750865
0.19819552
0.19887763
0.19955444
0.20022545
0.20089014
0.20154806
0.20219876
0.20284181
0.20347682
0.20410343
0.2047213
0.20533011
0.20592958
0.20651944
0.20709947
0.20766945
0.20822919
0.20877855
0.20931737
0.20984554
0.21036297
0.21086958
0.2113653
0.21185009
0.21232391
0.21278673
0.21323856
0.18121219
0.18184246
0.18247991
0.1831244
0.18377568
0.18443349
0.1850975
0.18576738
0.18644271
0.18712308
0.18780803
0.18849705
0.18918963
0.18988523
0.19058327
0.19128318
0.19198436
0.19268619
0.19338808
0.19408938
0.1947895
0.19548781
0.1961837
0.19687658
0.19756586
0.19825097
0.19893134
0.19960645
0.20027578
0.20093883
0.20159514
0.20224425
0.20288576
0.20351926
0.20414439
0.20476082
0.20536822
0.20596632
0.20655485
0.20713357
0.20770229
0.20826081
0.20880897
0.20934664
0.2098737
0.21039004
0.2108956
0.21139032
0.21187413
0.212347
0.21280889
0.2132598
0.18132827
0.18195603
0.182591
0.18323303
0.1838819
0.18453731
0.18519896
0.18586649
0.18653951
0.18721758
0.18790024
0.18858701
0.18927735
0.18997073
0.19066658
0.19136431
0.19206333
0.19276303
0.1934628
0.19416202
0.19486007
0.19555634
0.19625022
0.19694111
0.19762843
0.19831161
0.19899009
0.19966333
0.20033083
0.20099209
0.20164663
0.20229402
0.20293384
0.20356569
0.20418921
0.20480406
0.20540993
0.20600653
0.2065936
0.2071709
0.20773824
0.20829542
0.20884228
0.20937869
0.20990452
0.21041968
0.2109241
0.21141771
0.21190047
0.2123723
0.21283317
0.21328311
0.18145479
0.1820798
0.18271207
0.18335144
0.18399767
0.18465048
0.18530955
0.18597453
0.18664502
0.18732058
0.18800077
0.18868508
0.18937298
0.19006394
0.1907574
0.19145276
0.19214943
0.1928468
0.19354427
0.19424121
0.19493701
0.19563106
0.19632274
0.19701147
0.19769666
0.19837774
0.19905416
0.19972537
0.20039087
0.20105017
0.2017028
0.20234831
0.20298629
0.20361634
0.2042381
0.20485124
0.20545543
0.2060504
0.20663588
0.20721164
0.20777748
0.2083332
0.20887864
0.20941367
0.20993817
0.21045205
0.21095522
0.21144763
0.21192923
0.21239995
0.2128597
0.18159231
0.18221435
0.18284369
0.18348016
0.18412353
0.1847735
0.18542978
0.18609198
0.18675973
0.18743258
0.18811007
0.1887917
0.18947696
0.1901653
0.19085615
0.19154893
0.19224305
0.1929379
0.19363286
0.19432733
0.19502069
0.19571232
0.19640162
0.197088
0.19777088
0.19844968
0.19912385
0.19979286
0.20045619
0.20111336
0.2017639
0.20240737
0.20304335
0.20367145
0.20429131
0.20490258
0.20550495
0.20609815
0.20668191
0.20725599
0.20782019
0.20837432
0.20891823
0.20945176
0.20997481
0.21048729
0.21098911
0.21148021
0.21196057
0.21243008
0.21288859
0.18174145
0.18236025
0.18298642
0.18361975
0.18426002
0.18490693
0.18556017
0.18621937
0.18688414
0.18755405
0.18822861
0.18890735
0.18958974
0.19027524
0.19096327
0.19165326
0.19234461
0.19303672
0.19372897
0.19442076
0.19511147
0.19580048
0.1964872
0.19717104
0.1978514
0.19852773
0.19919947
0.19986608
0.20052707
0.20118194
0.20183022
0.20247148
0.20310529
0.20373127
0.20434906
0.20495831
0.20555872
0.20614999
0.20673188
0.20730414
0.20786657
0.20841898
0.20896122
0.20949313
0.21001461
0.21052556
0.21102591
0.2115156
0.21199462
0.18190279
0.18251812
0.18314085
0.18377079
0.18440771
0.1850513
0.18570126
0.18635722
0.18701878
0.18768549
0.1883569
0.18903251
0.1897118
0.19039421
0.1910792
0.19176616
0.19245452
0.19314367
0.19383299
0.19452188
0.19520973
0.19589591
0.19657984
0.19726092
0.19793857
0.19861222
0.19928133
0.19994537
0.20060381
0.20125619
0.20190203
0.2025409
0.20317237
0.20379606
0.20441161
0.20501867
0.20561695
0.20620614
0.20678601
0.2073563
0.20791682
0.20846737
0.2090078
0.20953796
0.21005774
0.21056704
0.21106579
0.21155394
0.18207698
0.18268855
0.18330758
0.18393386
0.18456716
0.18520718
0.18585361
0.18650606
0.18716415
0.18782742
0.18849543
0.18916766
0.18984359
0.19052269
0.19120439
0.19188809
0.19257323
0.19325918
0.19394534
0.1946311
0.19531585
0.19599898
0.1966799
0.19735801
0.19803273
0.1987035
0.19936977
0.20003101
0.20068672
0.20133641
0.20197962
0.2026159
0.20324484
0.20386606
0.2044792
0.2050839
0.20567988
0.20626684
0.20684452
0.20741269
0.20797114
0.20851968
0.20905816
0.20958643
0.21010437
0.21061189
0.2111089
0.21159535
0.18166479
0.18226465
0.18287217
0.18348721
0.18410955
0.18473896
0.18537514
0.18601775
0.18666644
0.18732079
0.18798036
0.1886447
0.18931329
0.18998562
0.19066115
0.1913393
0.1920195
0.19270115
0.19338366
0.19406642
0.19474881
0.19543023
0.19611008
0.19678775
0.19746266
0.19813423
0.19880189
0.19946511
0.20012335
0.20077611
0.2014229
0.20206327
0.20269677
0.20332299
0.20394155
0.20455208
0.20515425
0.20574775
0.2063323
0.20690763
0.20747351
0.20802973
0.20857612
0.20911249
0.20963872
0.21015469
0.21066028
0.21115542
0.21164005
0.18187099
0.18246643
0.1830696
0.18368035
0.18429847
0.1849237
0.18555574
0.18619426
0.1868389
0.18748923
0.18814483
0.18880522
0.18946991
0.19013837
0.19081005
0.1914844
0.19216082
0.19283874
0.19351756
0.19419665
0.19487543
0.19555327
0.19622959
0.19690377
0.19757524
0.19824342
0.19890774
0.19956768
0.20022269
0.20087228
0.20151596
0.20215328
0.20278379
0.20340709
0.20402279
0.20463053
0.20522997
0.20582081
0.20640276
0.20697556
0.20753899
0.20809282
0.20863688
0.209171
0.20969503
0.21020887
0.2107124
0.21120553
0.2116882
0.18209225
0.18268296
0.18328147
0.18388763
0.18450121
0.18512196
0.18574957
0.1863837
0.18702399
0.18767003
0.18832136
0.18897752
0.18963802
0.19030232
0.19096989
0.19164015
0.19231253
0.19298645
0.19366129
0.19433646
0.19501136
0.19568537
0.19635789
0.19702833
0.19769611
0.19836066
0.1990214
0.19967781
0.20032937
0.20097556
0.2016159
0.20224995
0.20287726
0.20349742
0.20411005
0.20471479
0.20531131
0.20589929
0.20647846
0.20704855
0.20760934
0.2081606
0.20870217
0.20923387
0.20975555
0.2102671
0.21076842
0.21125939
0.21173998
0.18232921
0.18291486
0.1835084
0.18410964
0.18471837
0.18533433
0.18595719
0.18658664
0.18722228
0.18786371
0.18851048
0.18916211
0.18981812
0.19047798
0.19114113
0.19180703
0.19247508
0.19314471
0.1938153
0.19448627
0.19515701
0.19582691
0.19649538
0.19716182
0.19782565
0.1984863
0.19914322
0.19979586
0.2004437
0.20108625
0.20172303
0.20235357
0.20297745
0.20359425
0.2042036
0.20480513
0.20539852
0.20598344
0.20655963
0.20712682
0.20768478
0.2082333
0.2087722
0.2093013
0.20982047
0.21032957
0.21082852
0.21131719
0.21179555
0.18258253
0.18316279
0.18375101
0.18434701
0.18495056
0.18556139
0.1861792
0.18680363
0.1874343
0.18807081
0.1887127
0.18935951
0.19001072
0.19066582
0.19132427
0.19198549
0.19264892
0.19331396
0.19398002
0.1946465
0.1953128
0.19597831
0.19664244
0.1973046
0.19796421
0.1986207
0.19927353
0.19992214
0.20056602
0.20120468
0.20183764
0.20246444
0.20308465
0.20369787
0.20430371
0.20490181
0.20549184
0.2060735
0.20664651
0.2072106
0.20776554
0.20831113
0.20884717
0.2093735
0.20988997
0.21039647
0.21089288
0.2113791
0.21185508
0.18285283
0.18342735
0.1840099
0.18460032
0.18519835
0.18580373
0.18641613
0.18703522
0.1876606
0.18829186
0.18892855
0.1895702
0.1902163
0.19086634
0.19151976
0.192176
0.19283449
0.19349464
0.19415586
0.19481756
0.19547912
0.19613995
0.19679945
0.19745705
0.19811216
0.19876422
0.19941267
0.20005698
0.20069665
0.20133116
0.20196004
0.20258285
0.20319915
0.20380854
0.20441063
0.20500508
0.20559154
0.20616972
0.20673933
0.20730011
0.20785183
0.20839428
0.20892728
0.20945065
0.20996426
0.21046797
0.21096168
0.21144528
0.21191873
0.18314073
0.18370914
0.18428568
0.18487015
0.18546232
0.18606189
0.18666855
0.18728194
0.18790169
0.18852737
0.18915852
0.18979469
0.19043535
0.19107998
0.19172805
0.19237899
0.19303223
0.19368718
0.19434325
0.19499984
0.19565636
0.1963122
0.19696679
0.19761952
0.19826984
0.19891718
0.19956098
0.20020072
0.20083588
0.20146598
0.20209053
0.20270908
0.20332122
0.20392653
0.20452464
0.20511519
0.20569785
0.20627232
0.20683831
0.20739556
0.20794386
0.20848298
0.20901273
0.20953296
0.21004351
0.21054425
0.21103508
0.21151591
0.21198666
0.18344681
0.18400875
0.1845789
0.18515707
0.185743
0.1863364
0.18693696
0.18754432
0.18815808
0.18877783
0.1894031
0.19003343
0.19066831
0.19130722
0.1919496
0.19259491
0.19324256
0.19389198
0.19454257
0.19519374
0.1958449
0.19649545
0.1971448
0.19779237
0.19843759
0.19907991
0.19971877
0.20035365
0.20098403
0.20160943
0.20222937
0.20284341
0.20345112
0.2040521
0.20464597
0.20523238
0.205811
0.20638152
0.20694367
0.20749718
0.20804183
0.2085774
0.20910371
0.20962059
0.21012789
0.21062549
0.21111327
0.21159113
0.21205902
0.18377163
0.18432671
0.1848901
0.18546159
0.18604091
0.18662779
0.18722188
0.18782283
0.18843025
0.1890437
0.18966274
0.19028688
0.19091563
0.19154845
0.19218481
0.19282413
0.19346586
0.19410941
0.1947542
0.19539962
0.19604509
0.19669002
0.19733382
0.19797591
0.19861573
0.19925272
0.19988634
0.20051606
0.20114137
0.20176179
0.20237685
0.20298609
0.20358911
0.20418549
0.20477487
0.20535688
0.20593121
0.20649755
0.20705562
0.20760516
0.20814594
0.20867775
0.20920041
0.20971374
0.21021759
0.21071184
0.21119638
0.21167111
0.21213597
0.1841157
0.18466353
0.18521977
0.18578419
0.18635653
0.18693649
0.18752375
0.18811792
0.18871862
0.18932542
0.18993785
0.19055545
0.1911777
0.19180408
0.19243405
0.19306705
0.19370251
0.19433985
0.19497848
0.19561781
0.19625726
0.19689624
0.19753416
0.19817046
0.19880456
0.19943591
0.20006397
0.20068823
0.20130817
0.20192332
0.2025332
0.20313737
0.20373541
0.20432693
0.20491154
0.20548891
0.20605869
0.2066206
0.20717435
0.20771968
0.20825637
0.2087842
0.20930298
0.20981255
0.21031275
0.21080347
0.21128458
0.21175598
0.21221762
0.18447946
0.18501965
0.18556834
0.18612531
0.18669028
0.18726294
0.18784297
0.18842999
0.18902359
0.18962336
0.19022882
0.1908395
0.19145489
0.19207447
0.19269769
0.193324
0.19395283
0.1945836
0.19521572
0.19584863
0.19648171
0.1971144
0.19774611
0.19837627
0.19900433
0.19962972
0.20025191
0.2008704
0.20148466
0.20209423
0.20269864
0.20329745
0.20389024
0.20447661
0.20505619
0.20562864
0.20619363
0.20675085
0.20730003
0.20784092
0.20837328
0.20889689
0.20941158
0.20991718
0.21041353
0.2109005
0.21137798
0.21184587
0.21230412
0.18486331
0.18539545
0.1859362
0.18648531
0.18704252
0.18760749
0.18817991
0.18875938
0.18934551
0.18993785
0.19053596
0.19113934
0.1917475
0.1923599
0.192976
0.19359525
0.19421709
0.19484093
0.1954662
0.19609232
0.19671869
0.19734475
0.1979699
0.1985936
0.19921527
0.19983437
0.20045038
0.20106277
0.20167105
0.20227474
0.20287338
0.20346653
0.20405377
0.20463471
0.20520899
0.20577625
0.20633617
0.20688846
0.20743282
0.20796901
0.2084968
0.20901598
0.20952635
0.21002775
0.21052003
0.21100306
0.21147671
0.2119409
0.21239556
0.18526756
0.18579124
0.18632364
0.1868645
0.18741353
0.18797043
0.18853483
0.18910637
0.18968462
0.19026917
0.19085953
0.19145524
0.19205577
0.19266062
0.19326923
0.19388106
0.19449553
0.19511208
0.19573013
0.1963491
0.19696841
0.19758747
0.19820573
0.19882261
0.19943757
0.20005006
0.20065955
0.20126553
0.2018675
0.202465
0.20305756
0.20364475
0.20422616
0.20480139
0.20537007
0.20593187
0.20648646
0.20703354
0.20757283
0.20810409
0.20862707
0.20914156
0.20964739
0.21014437
0.21063237
0.21111123
0.21158086
0.21204115
0.21249203
0.1856924
0.18620722
0.18673086
0.18726307
0.18780353
0.18835194
0.18890794
0.18947114
0.19004114
0.19061748
0.19119972
0.19178736
0.1923799
0.1929768
0.19357755
0.19418157
0.19478831
0.1953972
0.19600766
0.19661912
0.197231
0.19784273
0.19845374
0.19906346
0.19967136
0.20027689
0.20087954
0.20147878
0.20207413
0.20266512
0.2032513
0.20383223
0.2044075
0.20497673
0.20553954
0.2060956
0.20664459
0.2071862
0.20772016
0.20824622
0.20876415
0.20927373
0.20977478
0.21026712
0.21075061
0.21122511
0.2116905
0.21214669
0.21259361
0.18613794
0.18664349
0.18715797
0.18768112
0.18821261
0.18875214
0.18929934
0.18985381
0.19041515
0.1909829
0.19155662
0.19213581
0.19271995
0.19330854
0.19390103
0.19449687
0.19509551
0.19569636
0.19629887
0.19690246
0.19750655
0.19811058
0.19871399
0.19931622
0.19991672
0.20051496
0.20111042
0.20170259
0.202291
0.20287517
0.20345465
0.20402902
0.20459786
0.20516079
0.20571745
0.20626749
0.2068106
0.20734648
0.20787485
0.20839547
0.20890809
0.20941252
0.20990856
0.21039604
0.2108748
0.21134472
0.21180568
0.21225756
0.21270032
0.18660415
0.18710002
0.18760495
0.18811863
0.18864076
0.189171
0.189709
0.19025435
0.19080664
0.19136542
0.19193022
0.19250057
0.19307594
0.19365583
0.19423969
0.19482697
0.19541712
0.19600957
0.19660376
0.19719911
0.19779506
0.19839104
0.19898649
0.19958087
0.20017363
0.20076424
0.20135219
0.20193697
0.20251812
0.20309515
0.20366763
0.20423513
0.20479724
0.20535358
0.2059038
0.20644755
0.20698451
0.20751439
0.20803691
0.20855183
0.20905891
0.20955794
0.21004874
0.21053112
0.21100495
0.21147007
0.21192638
0.21237377
0.21281217
0.18709085
0.18757665
0.18807162
0.18857544
0.18908781
0.18960838
0.19013678
0.19067262
0.19121547
0.19176488
0.19232039
0.19288151
0.19344774
0.19401854
0.19459339
0.19517174
0.19575304
0.19633672
0.19692222
0.19750897
0.19809642
0.19868399
0.19927115
0.19985733
0.20044201
0.20102466
0.20160477
0.20218184
0.2027554
0.20332498
0.20389015
0.20445048
0.20500557
0.20555504
0.20609853
0.20663571
0.20716625
0.20768987
0.20820629
0.20871526
0.20921655
0.20970995
0.21019527
0.21067234
0.21114101
0.21160113
0.21205259
0.21249527
0.21292913
0.18759768
0.18807303
0.18855765
0.18905124
0.18955346
0.19006397
0.1905824
0.19110834
0.19164137
0.19218104
0.19272687
0.19327839
0.19383509
0.19439644
0.19496191
0.19553096
0.19610304
0.19667758
0.19725404
0.19783184
0.19841043
0.19898926
0.19956777
0.20014542
0.20072169
0.20129604
0.20186799
0.20243703
0.20300269
0.20356452
0.20412207
0.20467494
0.20522272
0.20576503
0.20630152
0.20683185
0.20735571
0.20787281
0.20838287
0.20888565
0.20938091
0.20986845
0.21034807
0.21081961
0.2112829
0.21173781
0.21218421
0.21262201
0.21305112
0.1881241
0.18858862
0.18906254
0.18954551
0.19003721
0.1905373
0.19104538
0.19156105
0.19208389
0.19261344
0.19314924
0.19369079
0.19423759
0.19478912
0.19534485
0.19590425
0.19646675
0.19703181
0.19759887
0.19816738
0.19873678
0.19930651
0.19987605
0.20044484
0.20101236
0.20157811
0.20214158
0.20270227
0.20325973
0.20381351
0.20436316
0.20490827
0.20544845
0.20598333
0.20651254
0.20703577
0.20755269
0.20806301
0.20856647
0.20906282
0.20955182
0.21003327
0.21050697
0.21097275
0.21143047
0.21187996
0.21232112
0.21275383
0.21317803
0.18866936
0.1891227
0.18958555
0.19005755
0.19053838
0.19102768
0.19152506
0.19203011
0.1925424
0.19306148
0.19358688
0.19411811
0.19465467
0.19519604
0.19574169
0.19629108
0.19684366
0.1973989
0.19795623
0.19851511
0.19907498
0.19963531
0.20019554
0.20075516
0.20131363
0.20187046
0.20242514
0.2029772
0.20352616
0.20407159
0.20461306
0.20515014
0.20568245
0.20620963
0.20673131
0.20724717
0.20775691
0.20826022
0.20875684
0.20924652
0.20972903
0.21020417
0.21067174
0.21113157
0.2115835
0.21202739
0.21246312
0.21289057
0.21330967
0.18923244
0.18967427
0.19012572
0.19058642
0.19105605
0.19153422
0.19202056
0.19251466
0.19301607
0.19352435
0.19403902
0.1945596
0.19508558
0.19561645
0.19615168
0.19669075
0.19723309
0.19777818
0.19832547
0.1988744
0.19942444
0.19997504
0.20052567
0.20107581
0.20162493
0.20217255
0.20271816
0.20326129
0.20380149
0.2043383
0.20487131
0.2054001
0.20592429
0.20644351
0.20695742
0.20746568
0.20796798
0.20846405
0.20895361
0.20943641
0.20991222
0.21038085
0.21084208
0.21129576
0.21174172
0.21217983
0.21260994
0.21303196
0.2134458
0.18981205
0.19024208
0.19068183
0.19113093
0.19158904
0.19205579
0.19253078
0.19301361
0.19350383
0.19400099
0.19450462
0.19501424
0.19552934
0.19604941
0.19657392
0.19710235
0.19763415
0.1981688
0.19870574
0.19924443
0.19978434
0.20032493
0.20086568
0.20140606
0.20194556
0.20248369
0.20301997
0.20355392
0.20408508
0.20461302
0.20513732
0.20565758
0.20617341
0.20668444
0.20719034
0.20769077
0.20818544
0.20867404
0.20915633
0.20963205
0.21010097
0.21056288
0.2110176
0.21146494
0.21190476
0.2123369
0.21276125
0.21317768
0.21358613
0.19040663
0.19082458
0.19125236
0.19168959
0.19213591
0.19259095
0.19305432
0.1935256
0.19400435
0.19449012
0.19498243
0.1954808
0.19598474
0.19649373
0.19700724
0.19752476
0.19804575
0.19856968
0.19909601
0.19962419
0.20015371
0.20068403
0.20121464
0.201745
0.20227463
0.20280304
0.20332973
0.20385425
0.20437615
0.20489499
0.20541037
0.20592186
0.20642911
0.20693175
0.20742943
0.20792183
0.20840866
0.20888961
0.20936444
0.20983289
0.21029473
0.21074976
0.21119778
0.21163863
0.21207214
0.21249817
0.2129166
0.21332733
0.19101423
0.19141989
0.19183547
0.19226059
0.19269489
0.19313799
0.1935895
0.19404898
0.19451602
0.19499015
0.1954709
0.19595779
0.19645031
0.19694797
0.19745025
0.19795662
0.19846655
0.19897953
0.199495
0.20001245
0.20053135
0.20105117
0.2015714
0.20209154
0.20261107
0.20312953
0.20364643
0.20416132
0.20467375
0.20518329
0.20568953
0.20619208
0.20669056
0.20718461
0.2076739
0.20815809
0.2086369
0.20911004
0.20957724
0.21003825
0.21049287
0.21094086
0.21138204
0.21181624
0.2122433
0.21266308
0.21307547
0.19163258
0.19202576
0.19242896
0.19284179
0.19326388
0.19369484
0.19413429
0.19458179
0.19503691
0.1954992
0.19596818
0.19644338
0.1969243
0.19741043
0.19790126
0.19839628
0.19889496
0.19939678
0.19990121
0.20040773
0.20091581
0.20142494
0.20193462
0.20244433
0.20295359
0.20346192
0.20396886
0.20447394
0.20497672
0.2054768
0.20597375
0.20646719
0.20695674
0.20744205
0.20792279
0.20839863
0.20886928
0.20933446
0.20979389
0.21024735
0.2106946
0.21113543
0.21156965
0.21199708
0.21241756
0.21283096
0.19225896
0.19263955
0.19303025
0.19343065
0.19384038
0.19425908
0.19468632
0.19512168
0.19556474
0.19601504
0.19647211
0.19693546
0.19740461
0.19787906
0.1983583
0.19884182
0.19932909
0.1998196
0.20031284
0.20080827
0.20130539
0.20180369
0.20230266
0.20280182
0.20330067
0.20379873
0.20429556
0.2047907
0.20528372
0.2057742
0.20626173
0.20674594
0.20722645
0.20770291
0.20817498
0.20864236
0.20910475
0.20956186
0.21001343
0.21045923
0.21089901
0.21133258
0.21175974
0.21218031
0.21259413
0.21300107
0.19289024
0.19325818
0.1936363
0.1940242
0.19442152
0.19482785
0.1952428
0.19566595
0.19609686
0.19653507
0.19698012
0.19743154
0.19788883
0.1983515
0.19881905
0.19929096
0.19976673
0.20024585
0.20072779
0.20121204
0.20169811
0.20218548
0.20267366
0.20316217
0.20365051
0.20413823
0.20462487
0.20510999
0.20559316
0.20607396
0.206552
0.2070269
0.20749829
0.20796582
0.20842917
0.20888802
0.20934207
0.20979105
0.21023469
0.21067276
0.21110503
0.21153129
0.21195133
0.21236499
0.21277209
0.21317252
0.19352277
0.19387807
0.19424363
0.19461904
0.19500392
0.19539789
0.19580054
0.19621144
0.19663018
0.19705628
0.19748929
0.19792874