/*--------------------------------*- C++ -*----------------------------------*\
| =========                 |                                                 |
| \\      /  F ield         | OpenFOAM: The Open Source CFD Toolbox           |
|  \\    /   O peration     | Version:  2312                                  |
|   \\  /    A nd           | Website:  www.openfoam.com                      |
|    \\/     M anipulation  |                                                 |
\*---------------------------------------------------------------------------*/
FoamFile
{
    version     2.0;
    format      ascii;
    arch        "LSB;label=32;scalar=64";
    class       volScalarField;
    location    "0.08";
    object      omega;
}
// * * * * * * * * * * * * * * * * * * * * * * * * * * * * * * * * * * * * * //

dimensions      [0 0 -1 0 0 0 0];

internalField   nonuniform List<scalar> 
3251
(
339.40818
335.39919
331.42045
327.47178
323.55305
319.66426
315.80549
311.97694
308.17892
304.41183
300.67615
296.97248
293.30149
289.66394
286.06064
282.49251
278.96049
275.4656
272.00888
268.59142
265.21433
261.87874
258.58578
255.33657
252.13223
248.97387
245.86254
242.79926
239.78503
236.82078
233.90737
231.04563
228.23628
225.48
222.77739
220.12896
217.53517
214.99635
212.51281
210.08473
207.71225
205.39541
203.13419
200.92847
198.7781
196.68284
194.64237
192.65633
190.72425
188.84562
187.01979
185.24614
183.52332
181.85087
180.22896
178.65683
177.13365
175.6585
339.39163
335.38316
331.40482
327.45657
323.53825
319.64986
315.79149
311.96334
308.16571
304.399
300.6637
296.9604
293.28977
289.65257
286.04963
282.48184
278.95016
275.4556
271.99921
268.58207
265.2053
261.87001
258.57735
255.32845
252.1244
248.96632
245.85526
242.79226
239.7783
236.8143
233.90115
231.03964
228.23053
225.47448
222.77209
220.12388
217.53029
214.99168
212.50833
210.08044
207.70814
205.39147
203.13041
200.92485
198.77462
196.67949
194.63913
192.65319
190.72119
188.84262
187.01684
185.24319
183.52065
181.84866
180.22706
178.6552
177.13228
175.65724
339.35989
335.35241
331.37495
327.42754
323.51006
319.6225
315.76493
311.93757
308.14072
304.37477
300.64021
296.93765
293.26775
289.63126
286.02901
282.4619
278.93089
275.43699
271.98124
268.56474
265.18858
261.85391
258.56184
255.31351
252.11003
248.9525
245.84199
242.77951
239.76606
236.80256
233.88989
231.02886
228.22021
225.4646
222.76264
220.11485
217.52166
214.98344
212.50046
210.07293
207.70098
205.38464
203.12389
200.91864
198.7687
196.67383
194.63373
192.64801
190.71623
188.83785
187.01225
185.23879
183.51659
181.84507
180.22388
178.65237
177.1298
175.65508
339.31314
335.30707
331.33094
327.38482
323.4686
319.58227
315.72592
311.89975
308.10406
304.33925
300.60582
296.90436
293.23553
289.6001
285.9989
282.43281
278.9028
275.40987
271.95508
268.53952
265.16428
261.83051
258.53932
255.29185
252.08922
248.93251
245.8228
242.7611
239.74841
236.78565
233.8737
231.01337
228.20539
225.45044
222.74912
220.10194
217.50935
214.9717
212.48928
210.06228
207.69084
205.37499
203.11472
200.90991
198.7604
196.66594
194.62623
192.64087
190.70942
188.83136
187.00609
185.23295
183.51118
181.84018
180.21946
178.64839
177.12626
175.65218
339.25144
335.24722
331.27286
327.32847
323.41393
319.52925
315.67452
311.84993
308.05579
304.29251
300.56058
296.86058
293.19319
289.55917
285.95934
282.39461
278.86593
275.3743
271.92079
268.50647
265.13246
261.79988
258.50986
255.26353
252.06201
248.90639
245.79774
242.73708
239.72539
236.76362
233.85262
230.9932
228.18612
225.43204
222.73156
220.0852
217.49339
214.9565
212.47481
210.04852
207.67775
205.36256
203.10291
200.8987
198.74977
196.65585
194.61665
192.63178
190.7008
188.82319
186.99836
185.22568
183.50444
181.83401
180.21385
178.6433
177.12162
339.17922
335.17715
331.20487
327.26252
323.34997
319.46724
315.61441
311.79169
307.99939
304.2379
300.50772
296.80945
293.14375
289.51139
285.91319
282.35005
278.82292
275.33283
271.88081
268.46796
265.09538
261.76421
258.47556
255.23057
252.03036
248.87602
245.76861
242.70916
239.69865
236.73802
233.82814
230.96981
228.16378
225.41072
222.71122
220.06581
217.47492
214.93892
212.45809
210.03263
207.66266
205.34823
203.08931
200.88581
198.73754
196.64427
194.60568
192.6214
190.69098
188.81391
186.98961
185.21747
183.49681
181.82701
180.20745
178.63745
177.11604
339.09863
335.09896
331.12902
327.18895
323.27863
319.39808
315.54739
311.72677
307.93651
304.17703
300.44883
296.75249
293.08868
289.45817
285.86179
282.30043
278.77506
275.28667
271.83633
268.42512
265.05414
261.72453
258.43742
255.19393
251.99518
248.84226
245.73625
242.67815
239.66896
236.70961
233.80098
230.94386
228.139
225.38707
222.68868
220.04433
217.45447
214.91946
212.43959
210.01505
207.64597
205.33239
203.0743
200.87158
198.72407
196.63151
194.59361
192.60999
190.6802
188.80374
186.98004
185.20851
183.48848
181.81933
180.20042
178.63102
177.10998
339.00336
335.00653
331.03936
327.10199
323.19432
319.31636
315.4682
311.65006
307.86224
304.10515
300.37928
296.68523
293.02367
289.39536
285.80113
282.24188
278.71857
275.23221
271.78385
268.37458
265.00551
261.67775
258.39246
255.15074
251.95372
248.80249
245.69812
242.64162
239.634
236.67616
233.769
230.91331
228.10984
225.35926
222.66216
220.01907
217.43043
214.8966
212.41785
209.9944
207.62637
205.31381
203.05668
200.8549
198.70828
196.61658
194.5795
192.59666
190.66762
188.79188
186.9689
185.19809
183.4788
181.81039
180.19221
178.62351
177.1031
338.89233
334.89882
330.93489
327.00068
323.0961
319.22117
315.37597
311.56073
307.77575
304.02144
300.2983
296.60692
292.94798
289.32224
285.73053
282.17374
278.65285
275.16885
271.72281
268.3158
264.94894
261.62336
258.34017
255.10052
251.90552
248.75626
245.6538
242.59918
239.59337
236.63731
233.73186
230.87784
228.07598
225.32697
222.63139
219.98977
217.40254
214.87008
212.39265
209.97047
207.60367
205.29228
203.03629
200.83559
198.69001
196.59931
194.56319
192.58126
190.6531
188.77822
186.95608
185.18609
183.46764
181.80008
180.18273
178.61481
338.76443
334.77474
330.81455
326.88399
322.98299
319.11154
315.26977
311.45788
307.67618
303.92508
300.20509
296.51679
292.86087
289.23809
285.64928
282.09534
278.57723
275.09596
271.65259
268.24819
264.88389
261.5608
258.28006
255.04279
251.85011
248.70312
245.60288
242.55041
239.54669
236.59266
233.68919
230.83709
228.0371
225.28989
222.59606
219.95613
217.37054
214.83965
212.36375
209.94303
207.57763
205.2676
203.01291
200.81347
198.66909
196.57954
194.54453
192.56366
190.63652
188.76263
186.94145
185.17242
183.45492
181.78831
180.17188
178.60472
338.61847
334.63316
330.67723
326.75085
322.85393
318.98647
315.14861
311.34055
307.5626
303.81517
300.09878
296.41401
292.76155
289.14215
285.55665
282.00596
278.49103
275.01288
271.57255
268.17114
264.80975
261.48952
258.21156
254.97702
251.78699
248.64259
245.54487
242.49486
239.49354
236.54183
233.64062
230.79072
227.99285
225.2477
222.55587
219.91786
217.33413
214.80504
212.33087
209.91183
207.54804
205.23956
202.98636
200.78834
198.64534
196.55711
194.52336
192.5437
190.61773
188.74496
186.92488
185.15693
183.44052
181.77496
180.15953
338.45321
334.47285
330.52177
326.60012
322.70783
318.84491
315.01148
311.20775
307.43406
303.6908
299.97848
296.29771
292.64916
289.0336
285.45187
281.90486
278.39353
274.91891
271.48203
268.084
264.72592
261.40891
258.13412
254.90265
251.71564
248.57417
245.47931
242.43208
239.43347
236.4844
233.58575
230.73832
227.94286
225.20005
222.51047
219.87465
217.29303
214.76597
212.29377
209.87662
207.51465
205.20792
202.95641
200.76001
198.61856
196.53183
194.49951
192.52123
190.59658
188.72508
186.90624
185.13951
183.4243
181.75992
180.14546
338.26734
334.29257
330.34694
326.43062
322.54354
318.68572
314.85729
311.05845
307.28954
303.55097
299.84325
296.16698
292.52284
288.9116
285.3341
281.79123
278.28397
274.81331
271.38033
267.9861
264.63174
261.31837
258.04712
254.81913
251.6355
248.49733
245.40569
242.36159
239.36602
236.41991
233.52414
230.67951
227.88676
225.14656
222.45952
219.82616
217.24691
214.72215
212.25215
209.83713
207.47721
205.17245
202.92283
200.72825
198.58856
196.5035
194.4728
192.49607
190.57291
188.70284
186.88538
185.12001
183.40615
181.74304
338.05949
334.09097
330.15145
326.2411
322.35986
318.50775
314.68491
310.89155
307.128
303.39468
299.69211
296.02087
292.38167
288.77526
285.20249
281.66427
278.16154
274.69533
271.2667
267.87673
264.52653
261.21723
257.94995
254.72584
251.546
248.41152
245.32347
242.28287
239.29071
236.34792
233.45536
230.61385
227.82413
225.08687
222.40267
219.77205
217.19545
214.67325
212.20572
209.79308
207.43545
205.1329
202.88539
200.69285
198.55511
196.47194
194.44304
192.46805
190.54654
188.67807
186.86215
185.09828
183.38592
181.72407
337.82824
333.86667
329.93396
326.03026
322.15552
318.30978
314.49316
310.7059
306.94832
303.22085
299.52401
295.85838
292.22468
288.62366
285.05616
281.52309
278.02543
274.56417
271.14038
267.75514
264.40957
261.1048
257.84195
254.62215
251.44652
248.31615
245.23211
242.19541
239.20704
236.26793
233.37895
230.54091
227.75456
225.02056
222.33952
219.71195
217.13831
214.61895
212.15417
209.74417
207.38909
205.08899
202.84385
200.65357
198.51801
196.43693
194.41004
192.43698
190.51732
188.65062
186.83639
185.07417
183.36345
337.57206
333.61822
329.69305
325.79672
321.9292
318.09051
314.28081
310.50031
306.74935
303.02837
299.33787
295.67847
292.05086
288.4558
284.89415
281.36681
277.87475
274.41898
271.00055
267.62057
264.28013
260.98038
257.72243
254.50741
251.33645
248.21063
245.13102
242.09864
239.11447
236.17944
233.29443
230.46024
227.67761
224.94723
222.26968
219.6455
217.07512
214.55892
212.09718
209.69011
207.33785
205.04046
202.79793
200.61016
198.47701
196.39825
194.37359
192.40267
190.48506
188.6203
186.80792
185.04749
183.33848
337.28941
333.34409
329.42725
325.53907
321.67951
317.84863
314.04655
310.27352
306.52988
302.81606
299.13257
295.48004
291.85916
288.2707
284.7155
281.19448
277.7086
274.25889
270.84639
267.4722
264.13743
260.84321
257.59067
254.38094
251.21512
248.09433
245.0196
241.99198
239.01245
236.08192
233.20128
230.37134
227.59283
224.86643
222.19274
219.57229
217.00551
214.49279
212.0344
209.63057
207.28142
204.98702
202.74737
200.56237
198.43188
196.35567
194.33347
192.36492
190.44957
188.58695
186.77658
185.01802
336.97864
333.0427
329.13503
325.25582
321.40503
317.58272
313.78904
310.02424
306.28865
302.5827
298.90694
295.26197
291.64849
288.06728
284.51918
281.00512
277.52605
274.08299
270.67701
267.30919
263.98066
260.69252
257.44593
254.242
251.08185
247.96658
244.89723
241.87485
238.90041
235.97483
233.099
230.27372
227.49974
224.77772
222.10827
219.49192
216.9291
214.4202
211.9655
209.56521
207.21948
204.92837
202.69188
200.50992
198.38235
196.30896
194.28947
192.32351
190.41066
188.55039
186.74217
184.98537
336.63805
332.71241
328.81479
324.94541
321.10424
317.29135
313.50688
309.7511
306.02434
302.32704
298.65975
295.02307
291.41771
287.84445
284.30414
280.7977
277.32609
273.89034
270.4915
267.13067
263.80897
260.52751
257.28744
254.08987
250.93593
247.8267
244.76325
241.74661
238.77775
235.8576
232.98703
230.16686
227.39784
224.68062
222.01582
219.40395
216.84548
214.34076
211.89009
209.4937
207.15171
204.86421
202.63117
200.45254
198.32817
196.25786
194.24133
192.27824
190.36813
188.51043
186.70455
184.94976
336.26589
332.35149
328.46487
324.60624
320.7756
316.973
313.19862
309.4527
305.7356
302.04776
298.38972
294.76211
291.16564
287.60107
284.06928
280.57117
277.10772
273.67995
270.28893
266.93574
263.6215
260.34733
257.11438
253.92377
250.77661
247.674
244.61699
241.60661
238.64385
235.72963
232.86482
230.05023
227.28662
224.57464
221.91491
219.30795
216.75422
214.25407
211.80781
209.41567
207.07777
204.7942
202.56494
200.38994
198.26906
196.20211
194.18883
192.22888
190.32179
188.46691
186.66358
184.9112
335.86031
331.95817
328.08354
324.23665
320.41749
316.62613
312.86274
309.12758
305.42101
301.74349
298.09556
294.47784
290.89104
287.33596
283.81345
280.32443
276.86988
273.45081
270.0683
266.72344
263.41734
260.15113
256.92594
253.74291
250.60314
247.50773
244.45774
241.45419
238.49807
235.59031
232.73177
229.92327
227.16555
224.45929
221.80508
219.20347
216.65489
214.15972
211.71827
209.33075
206.9973
204.71801
202.49287
200.32182
198.20474
196.14144
194.13169
192.17517
190.27141
188.41963
186.61898
335.41944
331.53061
327.66903
323.83491
320.02824
316.24911
312.49768
308.77424
305.07913
301.41284
297.77589
294.16893
290.59267
287.0479
283.53549
280.05636
276.61148
273.20188
269.82862
266.49281
263.19556
259.938
256.72125
253.54646
250.41472
247.32714
244.28478
241.28866
238.33976
235.43901
232.58728
229.78539
227.03408
224.33403
221.68583
219.09002
216.54705
214.05729
211.62105
209.23855
206.90994
204.6353
202.41462
200.24787
198.1349
196.07557
194.06964
192.11686
190.2168
188.36841
186.57017
334.94133
331.06691
327.21949
323.39923
319.60613
315.84027
312.10184
308.39111
304.70846
301.05434
297.42932
293.83404
290.26921
286.73564
283.23418
279.76577
276.33139
272.93206
269.56885
266.24286
262.95521
259.70702
256.49943
253.33357
250.21055
247.13146
244.09737
241.1093
238.16823
235.27508
232.43075
229.63602
226.89166
224.19833
221.55664
218.96712
216.43023
213.94634
211.51575
209.1387
206.81532
204.54571
202.32988
200.16776
198.05925
196.00419
194.00239
192.05364
190.1577
334.42397
330.5651
326.73302
322.92779
319.14939
315.39792
311.67357
307.97661
304.30744
300.66652
297.05441
293.47178
289.91933
286.39788
282.90829
279.45149
276.02847
272.64026
269.28792
265.97256
262.69529
259.45725
256.25957
253.10338
249.98978
246.91988
243.89474
240.91538
237.98278
235.09787
232.26152
229.47454
226.73769
224.05164
221.41699
218.83428
216.30396
213.82641
211.40193
209.03076
206.71305
204.44889
202.23828
200.08117
197.97747
195.92701
193.92961
191.98512
333.86525
330.02315
326.20768
322.41871
318.65622
314.9203
311.21116
307.5291
303.87449
300.24784
296.64969
293.08072
289.54166
286.0333
282.55653
279.11228
275.70153
272.32533
268.98474
265.68086
262.41481
259.18773
256.00075
252.85499
249.75158
246.6916
243.67612
240.70616
237.7827
234.90667
232.07895
229.30034
226.5716
223.8934
221.26635
218.69098
216.16775
213.69704
211.27916
208.91435
206.60274
204.34445
202.13947
199.98777
197.88923
195.84371
193.85099
191.91071
337.11231
333.26261
329.43897
325.64148
321.87007
318.12475
314.40562
310.7129
307.0469
303.40802
299.79674
296.21366
292.65943
289.13479
285.64056
282.17761
278.74688
275.34937
271.98612
268.65819
265.36668
262.11273
258.89746
255.72201
252.5875
249.49506
246.44577
243.4407
240.48087
237.56726
234.7008
231.88237
229.11278
226.39277
223.72303
221.10416
218.5367
216.02111
213.55777
211.147
208.78902
206.484
204.23202
202.03311
199.88721
197.79424
195.75401
193.76629
191.83059
336.44328
332.61422
328.8105
325.03242
321.27994
317.55311
313.85206
310.17703
306.52832
302.90636
299.31166
295.74479
292.20642
288.69732
285.21828
281.77021
278.35404
274.97078
271.62145
268.30714
265.02896
261.78801
258.58545
255.4224
252.3
249.21935
246.18156
243.18768
240.23874
237.33573
234.47956
231.67112
228.91121
226.2006
223.53995
220.92988
218.37092
215.86354
213.40812
211.00498
208.65435
206.3564
204.11121
201.91882
199.77917
197.69215
195.6576
193.67527
191.74458
335.72514
331.91801
328.13569
324.37846
320.64633
316.93939
313.25778
309.60175
305.97165
302.36788
298.79097
295.24152
291.72021
288.22779
284.76509
281.333
277.93247
274.5645
271.23014
267.93046
264.66658
261.4396
258.25068
255.10095
251.99154
248.92356
245.89811
242.91625
239.979
237.08735
234.24223
231.44451
228.695
225.99446
223.34357
220.74294
218.19311
215.69454
213.24762
210.85267
208.50992
206.21955
203.98165
201.79624
199.66328
197.58266
195.55421
193.57766
191.65244
334.95551
331.17184
327.41243
323.67757
319.96728
316.28168
312.62093
308.9853
305.37514
301.79089
298.23308
294.70232
291.19929
287.72477
284.27959
280.86464
277.48088
274.12931
270.81099
267.527
264.27844
261.06644
257.89214
254.75668
251.66119
248.60679
245.59456
242.62558
239.70086
236.82139
233.98809
231.20186
228.46349
225.77375
223.13331
220.54278
218.00272
215.51359
213.07577
210.68959
208.35529
206.07303
203.84293
201.665
199.53921
197.46545
195.44353
193.4732
191.55388
334.1321
330.3735
326.63861
322.92769
319.2408
315.57806
311.93965
308.32587
304.73707
301.17373
297.63637
294.12562
290.64217
287.18681
283.76038
280.36378
276.99797
273.66396
270.36281
267.0956
263.86345
260.66747
257.50882
254.38863
251.30803
248.26815
245.27007
242.31485
239.40353
236.53708
233.71644
230.94249
228.21603
225.53783
222.90856
220.32885
217.79923
215.32018
212.8921
210.51529
208.19001
205.91644
203.69468
201.52475
199.40662
197.34018
195.32526
193.3616
191.44863
333.2526
329.52081
325.81213
322.12681
318.46492
314.82662
311.2121
307.62168
304.05573
300.51473
296.99923
293.50987
290.04736
286.61248
283.20609
279.8291
276.48247
273.16722
269.88442
266.63514
263.4205
260.24165
257.09971
253.99582
250.93113
247.90675
244.92377
241.98326
239.08625
236.2337
233.42657
230.66573
227.95198
225.2861
222.66876
220.10058
217.58212
215.11383
212.69612
210.32932
208.01368
205.74937
203.5365
201.37511
199.26516
197.20655
195.19911
193.24259
191.33643
332.31478
328.61161
324.93089
321.27288
317.6377
314.02548
310.43646
306.87097
303.32941
299.81226
296.3201
292.85357
289.41339
286.00037
282.61536
279.25928
275.93312
272.63788
269.37464
266.14449
262.94854
259.78793
256.66381
253.57732
250.52958
247.52173
244.55485
241.63001
238.74824
235.91052
233.11778
230.37091
227.67071
225.01795
222.41332
219.85744
217.35085
214.89403
212.48739
210.13125
207.82586
205.57142
203.36803
201.21574
199.1145
197.06424
195.06478
193.11588
191.217
331.31645
327.64378
323.99285
320.36397
316.75722
313.1728
309.61096
306.07204
302.55646
299.06473
295.59742
292.15521
288.73883
285.34909
281.98686
278.65306
275.34868
272.07476
268.83235
265.62256
262.44651
259.30533
256.20018
253.13219
250.1025
247.11224
244.1625
241.25433
238.38878
235.56683
232.7894
230.05739
227.37161
224.73281
222.1417
219.59888
217.10493
214.66031
212.26543
209.92062
207.62615
205.38221
203.1889
201.04628
198.95433
196.91295
194.92198
192.9812
191.09008
330.2555
326.61529
322.99607
319.39815
315.82167
312.26682
308.73389
305.22324
301.7353
298.27059
294.82973
291.41339
288.02232
284.65733
281.31931
278.00921
274.728
271.47673
268.25647
265.06832
261.91341
258.79288
255.70788
252.65956
249.64905
246.67747
243.74593
240.85548
238.00716
235.20195
232.44079
229.72456
227.05408
224.43011
221.85335
219.32442
216.84388
214.4122
212.02982
209.69705
207.41417
205.18136
202.99876
200.86642
198.78432
196.75237
194.77044
192.83829
190.95543
329.12993
325.52419
321.93865
318.37363
314.82929
311.30586
307.80363
304.32299
300.8644
297.42841
294.01562
290.62674
287.26254
283.92383
280.61152
277.32656
274.06994
270.84271
267.64595
264.48077
261.34829
258.24967
255.18606
252.15859
249.16842
246.21666
243.30442
240.43276
237.60271
234.81525
232.07133
229.37183
226.71758
224.10933
221.54778
219.03356
216.56724
214.14929
211.78014
209.46013
207.18953
204.96854
202.79729
200.67584
198.60418
196.58224
194.60989
192.68691
190.8128
327.93788
324.3687
320.81887
317.28873
313.77847
310.28834
306.81866
303.36985
299.94237
296.53681
293.15379
289.79402
286.45829
283.14743
279.86237
276.60405
273.37348
270.17173
266.99986
263.859
260.75029
257.67487
254.6339
251.62852
248.65988
245.72911
242.8373
239.98552
237.17481
234.40615
231.68048
228.99868
226.3616
223.76998
221.22453
218.72588
216.2746
213.87117
211.51603
209.20952
206.95191
204.74342
202.58418
200.47425
198.41365
196.40231
194.4401
192.52681
190.66198
326.67764
323.14717
319.63514
316.14192
312.66773
309.21285
305.77763
302.36249
298.96795
295.59458
292.24305
288.91409
285.60848
282.32709
279.07085
275.84071
272.6377
269.46288
266.31734
263.2022
260.11861
257.06772
254.05068
251.06865
248.12277
245.21418
242.34396
239.51319
236.72291
233.97411
231.26772
228.60463
225.98568
223.41163
220.88318
218.40098
215.96558
213.5775
211.23715
208.94489
206.70101
204.50571
202.35916
200.26141
198.21249
196.21234
194.26084
192.35781
190.50278
325.34774
321.85818
318.38609
314.93188
311.4958
308.07816
304.67933
301.29977
297.94002
294.60066
291.2824
287.98596
284.71217
281.4619
278.23608
275.0357
271.86178
268.7154
265.59765
262.50967
259.45259
256.42758
253.4358
250.4784
247.55654
244.67133
241.82389
239.01529
236.24656
233.51869
230.83263
228.18927
225.58944
223.03391
220.52339
218.05852
215.63988
213.26796
210.94321
208.66598
206.43656
204.25519
202.122
200.03709
198.00049
196.01214
194.07195
192.17973
190.33503
323.94697
320.50055
317.07058
313.65751
310.26162
306.88325
303.5228
300.18076
296.85768
293.55419
290.27099
287.00885
283.7686
280.55113
277.35738
274.18836
271.0451
267.92868
264.84021
261.78082
258.75168
255.75393
252.78875
249.8573
246.96072
244.10015
241.27669
238.49142
235.74537
233.03955
230.37489
227.75229
225.17258
222.63654
220.14489
217.69826
215.29724
212.94234
210.63399
208.37257
206.15838
203.99165
201.87253
199.80114
197.77749
195.80157
193.87327
191.99243
190.15861
322.47441
319.0734
315.68778
312.31801
308.96443
305.62739
302.30733
299.00477
295.72029
292.45453
289.20824
285.98218
282.77721
279.59424
276.43424
273.2982
270.18718
267.10227
264.04459
261.01528
258.0155
255.04641
252.1092
249.20501
246.335
243.50032
240.70206
237.94131
235.2191
232.53643
229.89425
227.29345
224.73488
222.21932
219.74747
217.32
214.93749
212.60046
210.30934
208.06453
205.86632
203.71497
201.61063
199.55343
197.54339
195.58051
193.66471
191.79582
189.97343
320.92955
317.57624
314.23719
310.91292
307.60376
304.31013
301.0325
297.77141
294.52746
291.30134
288.09379
284.90562
281.7377
278.59096
275.46637
272.36496
269.28778
266.23595
263.21058
260.21283
257.24386
254.30484
251.39696
248.52138
245.67925
242.87171
240.09988
237.36483
234.66761
232.00922
229.39061
226.81267
224.27626
221.78215
219.33107
216.92368
214.56057
212.24226
209.9692
207.74179
205.56034
203.42509
201.33625
199.29391
197.29815
195.34894
193.44623
191.58987
189.77946
319.31228
316.00897
312.71874
309.44214
306.17956
302.93144
299.69827
296.48063
293.27917
290.09458
286.92763
283.77917
280.65007
277.54128
274.45379
271.38865
268.34692
265.32973
262.3382
259.37349
256.43679
253.52925
250.65208
247.80644
244.99348
242.21436
239.47018
236.76203
234.09096
231.45797
228.86401
226.30998
223.79675
221.32509
218.89573
216.50933
214.16651
211.86777
209.6136
207.40438
205.24045
203.12206
201.04941
199.02263
197.04178
195.10688
193.21787
191.37461
189.57672
317.62302
314.372
311.13283
307.90609
304.69221
301.49167
298.305
295.13281
291.97577
288.8346
285.71011
282.60316
279.51464
276.44552
273.39682
270.36959
267.36491
264.38392
261.42775
258.49757
255.59457
252.71992
249.87482
247.06045
244.27796
241.52851
238.81321
236.13315
233.48937
230.88289
228.31466
225.7856
223.29655
220.8483
218.44161
216.07713
213.75546
211.47716
209.24269
207.05246
204.9068
202.80599
200.75024
198.73969
196.77441
194.85444
192.97971
191.15012
189.3653
315.86277
312.66631
309.48041
306.30569
303.14262
299.99172
296.85356
293.72878
290.61807
287.52221
284.442
281.37834
278.33215
275.30441
272.29616
269.30845
266.34241
263.39915
260.47984
257.58565
254.71778
251.87741
249.06574
246.28395
243.5332
240.81466
238.12944
235.47862
232.86328
230.28441
227.74297
225.23989
222.77602
220.35217
217.96906
215.62739
213.32776
211.07072
208.85675
206.68628
204.55965
202.47714
200.43898
198.44532
196.49625
194.59181
192.73197
190.91661
189.14538
314.03324
310.89355
307.76307
304.64247
301.53228
298.43304
295.34536
292.26991
289.20742
286.15869
283.12456
280.10594
277.10378
274.11909
271.15291
268.20632
265.28045
262.37644
259.49546
256.6387
253.80735
251.00261
248.22568
245.47775
242.76
240.07358
237.4196
234.79918
232.21337
229.66318
227.14958
224.67348
222.23577
219.83723
217.47862
215.16062
212.88387
210.6489
208.45623
206.30627
204.19938
202.13588
200.11598
198.13986
196.20762
194.31932
192.47493
190.67435
188.91723
312.13689
309.0561
305.98313
302.9187
299.86338
296.81775
293.78245
290.75819
287.74574
284.74592
281.75961
278.78773
275.83126
272.89122
269.96869
267.06475
264.18055
261.31725
258.47602
255.65806
252.86458
250.09678
247.35587
244.64305
241.95949
239.30635
236.68476
234.09583
231.54061
229.02013
226.53536
224.08722
221.67658
219.30427
216.97102
214.67755
212.42447
210.21236
208.04173
205.913
203.82656
201.78272
199.78173
197.82377
195.90897
194.03738
192.20901
190.42375
188.68123
310.17708
307.15722
304.14375
301.13744
298.13889
295.14872
292.16762
289.19634
286.23566
283.28645
280.3496
277.42607
274.51687
271.62303
268.74564
265.88582
263.04472
260.22352
257.42339
254.64556
251.89123
249.16162
246.45794
243.78139
241.13317
238.51442
235.9263
233.3699
230.84629
228.35649
225.9015
223.48223
221.09956
218.75431
216.44726
214.1791
211.95047
209.76195
207.61406
205.50725
203.44191
201.41837
199.43689
197.49768
195.60088
193.74657
191.93476
190.16533
188.43788
308.15818
305.20114
302.24904
299.30266
296.36265
293.42969
290.50449
287.58784
284.68056
281.78354
278.89771
276.02405
273.16359
270.31739
267.48656
264.67223
261.87557
259.09776
256.34
253.60353
250.88955
248.19929
245.53398
242.89481
240.28298
237.69967
235.14601
232.62311
230.13205
227.67385
225.24951
222.85995
220.50607
218.18869
215.90859
213.66648
211.463
209.29876
207.17427
205.09
203.04637
201.04371
199.0823
197.16237
195.28409
193.44757
191.65282
189.89974
306.0857
303.19322
300.30416
297.41937
294.53953
291.66536
288.79762
285.93712
283.08472
280.24134
277.40795
274.58555
271.77518
268.97794
266.19494
263.42735
260.67634
257.94312
255.22889
252.5349
249.86236
247.21252
244.5866
241.98581
239.41135
236.86441
234.34612
231.85761
229.39994
226.97417
224.58127
222.2222
219.89785
217.60905
215.35659
213.14118
210.9635
208.82414
206.72364
204.66249
202.64109
200.65982
198.71898
196.81881
194.9595
193.14119
191.36392
303.96645
301.14004
298.31551
295.49376
292.67552
289.86153
287.05261
284.2496
281.45339
278.66494
275.88523
273.1153
270.35622
267.6091
264.87508
262.15533
259.45106
256.76346
254.09378
251.44326
248.81312
246.20463
243.619
241.05747
238.52124
236.01149
233.52937
231.076
228.65248
226.25985
223.89909
221.57118
219.27699
217.01739
214.79317
212.60505
210.45371
208.33976
206.26375
204.22619
202.2275
200.26807
198.3482
196.46816
194.62818
192.82839
301.80869
299.04959
296.29082
293.53332
290.77786
288.02523
285.27627
282.53187
279.79295
277.06049
274.33552
271.61909
268.91229
266.21627
263.53217
260.86119
258.20455
255.56346
252.93917
250.33294
247.74602
245.17964
242.63507
240.11352
237.61621
235.14433
232.69904
230.28146
227.8927
225.53379
223.20575
220.90953
218.64604
216.41615
214.22064
212.06027
209.93572
207.84761
205.79651
203.78293
201.80732
199.87006
197.97149
196.11188
194.29142
192.51008
299.62228
296.93144
294.23937
291.54703
288.85525
286.16487
283.47674
280.7918
278.11101
275.43538
272.76594
270.10379
267.45005
264.80586
262.17241
259.55091
256.94259
254.34868
251.77044
249.20913
246.66601
244.14235
241.6394
239.15838
236.70053
234.26703
231.85906
229.47774
227.12418
224.79944
222.50453
220.24041
218.00801
215.80819
213.64176
211.50948
209.41203
207.35007
205.32417
203.33485
201.38257
199.46774
197.5907
195.75173
193.95103
192.18853
297.41895
294.79694
292.17213
289.54552
286.91799
284.2904
281.66366
279.03873
276.4166
273.79831
271.18492
268.57756
265.97735
263.38548
260.80315
258.23158
255.67201
253.1257
250.59391
248.07792
245.57899
243.09841
240.63742
238.19728
235.7792
233.3844
231.01404
228.66926
226.35118
224.06086
221.79932
219.56754
217.36645
215.19691
213.05975
210.95574
208.88558
206.84994
204.84939
202.88448
200.95568
199.06341
197.20802
195.38982
193.60901
191.86556
295.21243
292.65939
290.10199
287.54128
284.97816
282.41354
279.84835
277.2836
274.7203
272.15952
269.60235
267.04994
264.50344
261.96405
259.43298
256.91148
254.4008
251.90222
249.41701
246.94645
244.49183
242.05443
239.6355
237.23631
234.85809
232.50205
230.16937
227.8612
225.57865
223.32279
221.09466
218.89525
216.72548
214.58624
212.47838
210.40265
208.35979
206.35046
204.37527
202.43476
200.52943
198.65971
196.82598
195.02855
193.26765
191.54327
293.01876
290.53432
288.04399
285.54885
283.04984
280.5479
278.044
275.53917
273.03445
270.53094
268.02976
265.53207
263.03905
260.55192
258.0719
255.60026
253.13827
250.68721
248.24837
245.82304
243.41251
241.01808
238.64102
236.28258
233.94401
231.62653
229.33131
227.05954
224.81231
222.59072
220.3958
218.22854
216.0899
213.98077
211.902
209.85436
207.83861
205.8554
203.90538
201.9891
200.10707
198.25974
196.4475
194.67069
192.92955
191.22411
290.8565
288.43972
286.01555
283.58511
281.14937
278.70929
276.26589
273.82021
271.37334
268.92638
266.48049
264.03683
261.59663
259.16109
256.73149
254.30909
251.89517
249.49102
247.09795
244.71727
242.35027
239.99824
237.66248
235.34425
233.04479
230.76534
228.50708
226.27118
224.05878
221.87096
219.70876
217.5732
215.46523
213.38575
211.33563
209.31565
207.32658
205.3691
203.44384
201.5514
199.69229
197.86699
196.0759
194.31939
192.5977
190.9109
288.74706
286.39633
284.03676
281.66951
279.29556
276.91592
274.53164
272.14377
269.75343
267.36174
264.96989
262.57906
260.19048
257.80539
255.42507
253.05079
250.68385
248.32556
245.97723
243.64016
241.31569
239.00509
236.70967
234.4307
232.16944
229.92711
227.70493
225.50406
223.32563
221.17076
219.04049
216.93583
214.85776
212.80719
210.78499
208.79197
206.8289
204.89647
202.99534
201.12612
199.28933
197.48547
195.71498
193.97822
192.27549
190.60683
286.71504
284.42797
282.13069
279.82436
277.51003
275.18871
272.86146
270.52939
268.19361
265.85528
263.5156
261.17576
258.83702
256.50064
254.16789
251.84006
249.51848
247.20444
244.89929
242.60433
240.32088
238.05025
235.79375
233.55265
231.32822
229.12169
226.93428
224.76716
222.62148
220.49835
218.39883
216.32394
214.27466
212.25192
210.2566
208.28951
206.35145
204.44312
202.56519
200.71829
198.90295
197.1197
195.36899
193.65121
191.9667
284.78858
282.5619
280.32372
278.07523
275.8175
273.55155