/*--------------------------------*- C++ -*----------------------------------*\
| =========                 |                                                 |
| \\      /  F ield         | OpenFOAM: The Open Source CFD Toolbox           |
|  \\    /   O peration     | Version:  2312                                  |
|   \\  /    A nd           | Website:  www.openfoam.com                      |
|    \\/     M anipulation  |                                                 |
\*---------------------------------------------------------------------------*/
FoamFile
{
    version     2.0;
    format      ascii;
    arch        "LSB;label=32;scalar=64";
    class       volScalarField;
    location    "0.08";
    object      T;
}
// * * * * * * * * * * * * * * * * * * * * * * * * * * * * * * * * * * * * * //

dimensions      [0 0 0 1 0 0 0];

internalField   nonuniform List<scalar> 
3251
(
468.11964
466.29922
464.45588
462.58954
460.70027
458.7883
456.85398
454.89779
452.92035
450.92238
448.90474
446.86838
444.81439
442.74393
440.65828
438.5588
436.44693
434.32418
432.19212
430.05239
427.90665
425.75663
423.60405
421.45068
419.29827
417.14858
415.00336
412.86436
410.73327
408.61179
406.50155
404.40414
402.32112
400.25399
398.20417
396.17306
394.16196
392.17213
390.20475
388.26094
386.34175
384.44816
382.58109
380.74138
378.92983
377.14715
375.39402
373.67104
371.97876
370.31771
368.68837
367.09116
365.52679
363.99543
362.49705
361.03196
359.6004
358.20266
468.10571
466.28559
464.44246
462.57634
460.6873
458.77556
456.84147
454.88552
452.90831
450.91058
448.89318
446.85706
444.80331
442.7331
440.64769
438.54846
436.43683
434.31433
432.18252
430.04304
427.89756
425.7478
423.59548
421.44236
419.2902
417.14077
414.99582
412.85707
410.72624
408.60502
406.49503
404.39788
402.31511
400.24823
398.19867
396.1678
394.15695
392.16736
390.20023
388.25666
386.3377
384.44434
382.5775
380.73802
378.92669
377.14423
375.39132
373.66855
371.9765
370.31566
368.68653
367.08957
365.52529
363.99395
362.49565
361.03063
359.59913
358.20151
468.07794
466.25837
464.41572
462.55007
460.6615
458.75023
456.81661
454.86112
452.88438
450.88711
448.87017
446.83452
444.78123
442.71149
440.62655
438.52779
436.41663
434.2946
432.16327
430.02426
427.87925
425.72996
423.57811
421.42547
419.27378
417.12482
414.98033
412.84205
410.71169
408.59092
406.48139
404.3847
402.30238
400.23594
398.18682
396.15639
394.14597
392.1568
390.19008
388.24692
386.32837
384.43541
382.56896
380.72986
378.91891
377.13682
375.38427
373.66186
371.97015
370.30966
368.68087
367.08423
365.52019
363.98902
362.4909
361.02605
359.59469
358.19717
468.03636
466.21758
464.37566
462.51072
460.62286
458.71228
456.77936
454.82457
452.84852
450.85195
448.8357
446.80074
444.74815
442.6791
440.59485
438.49678
436.38632
434.26498
432.13434
429.99602
427.85171
425.70311
423.55195
421.39999
419.24899
417.10071
414.9569
412.8193
410.6896
408.5695
406.46063
404.36459
402.28292
400.21712
398.16863
396.13882
394.12901
392.14045
390.17432
388.23175
386.31377
384.42137
382.55547
380.71691
378.90649
377.12492
375.37288
373.65096
371.95974
370.29973
368.67139
367.07518
365.5115
363.98064
362.48282
361.01825
359.58713
358.1895
467.98099
466.16322
464.32227
462.45829
460.57137
458.66173
456.72974
454.77587
452.80075
450.8051
448.78977
446.75573
444.70405
442.63591
440.55259
438.45543
436.34589
434.22546
432.09574
429.95833
427.81493
425.66724
423.51699
421.36593
419.21583
417.06845
414.92553
412.78881
410.65999
408.54076
406.43275
404.33756
402.25673
400.19176
398.14409
396.11509
394.10608
392.11831
390.15295
388.21113
386.2939
384.40223
382.53704
380.69918
378.88944
377.10854
375.35715
373.63588
371.94528
370.28587
368.65811
367.06244
365.49924
363.96882
362.47142
361.00726
359.57651
467.9158
466.09921
464.2594
462.39654
460.51073
458.6022
456.6713
454.71853
452.74449
450.74992
448.73567
446.70271
444.65211
442.58505
440.5028
438.40671
436.29824
434.17889
432.05023
429.9139
427.77156
425.62493
423.47574
421.32574
419.17669
417.03035
414.88847
412.75278
410.62498
408.50676
406.39975
404.30555
402.22571
400.16171
398.11499
396.08693
394.07885
392.09198
390.12752
388.18658
386.27021
384.37938
382.51502
380.67797
378.86902
377.0889
375.33826
373.61772
371.92783
370.26911
368.64202
367.04697
365.48435
363.95446
362.45756
360.99389
359.56379
467.8428
466.02751
464.18898
462.32738
460.44282
458.53552
456.60585
454.65429
452.68147
450.68811
448.67507
446.64331
444.59392
442.52806
440.44701
438.35213
436.24485
434.12669
431.99923
429.86409
427.72294
425.5775
423.42949
421.28066
419.13278
416.98761
414.84688
412.71233
410.58568
408.46858
406.36269
404.26959
402.19083
400.12791
398.08225
396.05524
394.04818
392.06233
390.09886
388.1589
386.24348
384.35359
382.49014
380.65399
378.84592
377.06664
375.31684
373.59711
371.90802
370.25006
368.6237
367.02935
365.46737
363.93808
362.44174
360.97861
359.54914
467.75625
465.9425
464.10549
462.24538
460.36229
458.45646
456.52825
454.57814
452.60675
450.61483
448.60322
446.57289
444.52492
442.46048
440.38085
438.28739
436.18153
434.06479
431.93874
429.80501
427.66527
425.52122
423.37461
421.22717
419.08067
416.93687
414.7975
412.66431
410.539
408.42323
406.31865
404.22685
402.14938
400.08772
398.04332
396.01753
394.01169
392.02702
390.06473
388.12591
386.21161
384.32283
382.46046
380.62536
378.81831
377.04005
375.29122
373.57245
371.88428
370.22721
368.60171
367.00818
365.44697
363.9184
362.42273
360.96021
359.53123
467.65517
465.84321
464.00797
462.14961
460.26825
458.36412
456.43761
454.48919
452.51948
450.52924
448.5193
446.49063
444.44433
442.38155
440.30358
438.21177
436.10756
433.99247
431.86806
429.73597
427.59787
425.45545
423.31046
421.16465
419.01976
416.87755
414.73977
412.60815
410.4844
408.37018
406.26713
404.17684
402.10086
400.04068
397.99772
395.97337
393.96893
391.98565
390.02471
388.08723
386.17424
384.28673
382.42561
380.59174
378.78589
377.00878
375.26109
373.54342
371.85633
370.2003
368.5758
366.98321
365.4229
363.89518
362.40029
360.93847
467.53852
465.72862
463.89541
462.03907
460.1597
458.25755
456.333
454.38653
452.41876
450.43045
448.42243
446.39569
444.3513
442.29044
440.21438
438.12447
436.02217
433.90898
431.78647
429.65627
427.52005
425.37952
423.2364
421.09244
418.9494
416.80904
414.67309
412.54328
410.42132
408.30888
406.20759
404.11904
402.04478
399.98629
397.945
395.92229
393.91947
391.93778
389.9784
388.04244
386.13096
384.24492
382.38524
380.55276
378.74828
376.97252
375.22613
373.50973
371.82386
370.16903
368.54567
366.95418
365.3949
363.86815
362.37418
360.91324
467.40519
465.59765
463.76677
461.91273
460.03564
458.13575
456.21343
454.26919
452.30364
450.31753
448.31172
446.28717
444.24497
442.18629
440.11241
438.02469
435.92456
433.81354
431.69319
429.56515
427.43108
425.29269
423.15171
421.00988
418.86895
416.73068
414.59682
412.46907
410.34916
408.23875
406.13946
404.0529
401.98059
399.92403
397.88465
395.86381
393.86283
391.88295
389.92534
387.99113
386.08135
384.19698
382.33894
380.50806
378.70514
376.9309
375.18599
373.47103
371.78656
370.13308
368.51103
366.92079
365.3627
363.83706
362.34412
467.25403
465.44916
463.62092
461.76948
459.89497
457.99764
456.07787
454.13615
452.17312
450.18951
448.18619
446.16413
444.12441
442.06821
439.9968
437.91154
435.81388
433.70531
431.58742
429.46182
427.33019
425.19423
423.05566
420.91623
418.7777
416.6418
414.51029
412.38489
410.26729
408.15917
406.06216
403.97783
401.90774
399.85336
397.81612
395.7974
393.7985
391.82067
389.86507
387.93283
386.02498
384.1425
382.2863
380.45723
378.65607
376.88355
375.14031
373.42698
371.74409
370.09214
368.47157
366.88274
365.32599
363.80162
362.30994
467.08382
465.28195
463.45669
461.60819
459.73659
457.84214
455.92522
453.98635
452.02615
450.04536
448.04485
446.02559
443.98866
441.93524
439.86662
437.78413
435.68924
433.58344
431.4683
429.34546
427.21656
425.08333
422.94748
420.81076
418.67491
416.54168
414.41282
412.29005
410.17506
408.06951
405.97504
403.89324
401.82563
399.7737
397.73888
395.72254
393.72598
391.75044
389.7971
387.86706
385.96138
384.08102
382.2269
380.39985
378.60067
376.83007
375.08872
373.37721
371.6961
370.04587
368.42695
366.83971
365.28447
363.76153
466.89328
465.09478
463.27284
461.42763
459.55928
457.66806
455.75435
453.81866
451.86162
449.88398
447.88661
445.87049
443.83669
441.78639
439.72087
437.6415
435.5497
433.44699
431.33494
429.21517
427.08935
424.95917
422.82636
420.69265
418.55981
416.42957
414.30367
412.18383
410.07175
407.96909
405.87747
403.79847
401.73364
399.68445
397.65233
395.63864
393.64469
391.67172
389.7209
387.79333
385.89007
384.01208
382.16027
380.33549
378.53851
376.77006
375.0308
373.32133
371.6422
369.99389
368.37683
366.79138
365.23782
363.71655
466.68108
464.88633
463.06809
461.22654
459.36181
457.47418
455.56404
453.63189
451.67838
449.70426
447.71039
445.69775
443.66743
441.62061
439.55856
437.48264
435.39429
433.29503
431.18641
429.07006
426.94765
424.82086
422.69143
420.56109
418.43159
416.30467
414.18207
412.0655
409.95665
407.85719
405.76873
403.69287
401.63113
399.58498
397.55586
395.54512
393.55408
391.58396
389.63593
387.71111
385.81054
383.93517
382.08594
380.26367
378.46915
376.70309
374.96615
373.25894
371.58201
369.93584
368.32086
366.7374
365.18569
466.44581
464.65522
462.84108
461.00358
459.14288
457.25923
455.35304
453.42483
451.47523
449.505
447.51501
445.50624
443.47978
441.4368
439.37859
437.3065
435.22198
433.12653
431.02172
428.90916
426.79053
424.66751
422.54182
420.41521
418.28941
416.16617
414.04721
411.93426
409.82899
407.73308
405.64813
403.57573
401.5174
399.47463
397.44883
395.44136
393.45353
391.48656
389.54163
387.61985
385.72225
383.8498
382.00341
380.18392
378.39211
376.62869
374.89433
373.18962
371.51512
369.87132
368.25865
366.6774
365.12779
466.18601
464.4
462.5904
460.75738
458.90111
457.02186
455.12004
453.19617
451.25088
449.28496
447.29925
445.29475
443.27255
441.23383
439.17986
437.112
435.0317
432.94046
430.83985
428.73148
426.61701
424.49814
422.37659
420.25409
418.13238
416.01319
413.89826
411.7893
409.68798
407.59598
405.5149
403.44632
401.39176
399.3527
397.33056
395.3267
393.3424
391.37892
389.4374
387.51897
385.62464
383.7554
381.91215
380.09572
378.3069
376.5464
374.81487
373.11292
371.4411
369.79992
368.1898
366.61103
465.90015
464.11918
462.31456
460.48647
458.63508
456.76068
454.86366
452.94457
451.00404
449.04284
447.06185
445.06206
443.04454
441.01049
438.96118
436.89798
434.82233
432.73572
430.63972
428.53596
426.42608
424.31178
422.19477
420.07679
417.95957
415.84484
413.73434
411.62976
409.53279
407.44508
405.36825
403.30387
401.25346
399.21848
397.20036
395.20046
393.22005
391.26039
389.32263
387.40787
385.51715
383.65143
381.81162
379.99856
378.21302
376.45571
374.7273
373.02837
371.35949
369.72119
368.1139
366.53806
465.58663
463.81119
462.01204
460.18935
458.34332
456.47422
454.58248
452.66863
450.73331
448.77731
446.80149
444.80685
442.79447
440.76555
438.72136
436.66326
434.5927
432.51117
430.42024
428.32152
426.21667
424.10737
421.99535
419.88232
417.77002
415.66018
413.55453
411.45475
409.36255
407.27955
405.20738
403.14759
401.10172
399.07122
397.0575
395.06193
393.08579
391.13031
389.19666
387.28592
385.39915
383.53729
381.70126
379.89188
378.10993
376.35613
374.63112
372.9355
371.26983
369.63467
368.03048
366.45776
465.24379
463.4744
461.68122
459.86445
458.02427
456.16098
454.27501
452.36688
450.43727
448.48695
446.51678
444.52778
442.52103
440.49771
438.45912
436.4066
434.3416
432.26562
430.18023
428.08703
425.98767
423.88385
421.77727
419.66966
417.56274
415.45824
413.35788
411.26336
409.17635
407.0985
405.03142
402.97666
400.93574
398.91012
396.90122
394.91038
392.9389
390.98799
389.05882
387.15249
385.27001
383.41237
381.58046
379.77511
377.99709
376.24711
374.52581
372.83379
371.17163
369.53988
367.93907
366.36956
464.86993
463.10712
461.32045
459.51013
457.67634
455.81938
453.9397
452.03783
450.11444
448.17031
446.20631
444.22346
442.22284
440.20564
438.17314
436.12671
434.06778
431.99786
429.9185
427.83131
425.73795
423.64009
421.53945
419.43774
417.33668
415.238
413.14342
411.05462
408.97328
406.90104
404.83949
402.7902
400.75469
398.73439
396.73073
394.74505
392.77864
390.83271
388.90842
387.00688
385.1291
383.27605
381.44862
379.64765
377.87391
376.12809
374.41084
372.72274
371.06436
369.43631
367.8392
464.46325
462.70759
460.92801
459.1247
457.29786
455.4478
453.57497
451.6799
449.76328
447.82588
445.8686
443.89244
441.89848
439.88794
437.86208
435.82227
433.76995
431.70661
429.63381
427.55316
425.46632
423.37495
421.28076
419.18546
417.09078
414.99843
412.91012
410.82754
408.75236
406.68621
404.63069
402.58735
400.5577
398.54319
396.54523
394.56515
392.60425
390.66373
388.74475
386.84841
384.97572
383.12766
381.30511
379.5089
377.73981
375.99852
374.28566
372.60181
370.94749
369.3234
367.7306
464.02192
462.27402
460.50212
458.70643
456.88713
455.04456
453.17915
451.29147
449.3822
447.45212
445.50212
443.53322
441.54651
439.54319
437.52453
435.4919
433.44674
431.39055
429.32488
427.25133
425.17155
423.08722
421.00003
418.91169
416.82392
414.73844
412.65694
410.58111
408.51261
406.45306
404.40407
402.36718
400.34389
398.33566
396.34387
394.36987
392.41493
390.48027
388.56705
386.67635
384.80919
382.96653
381.14926
379.35822
377.59417
375.85779
374.14971
372.47046
370.82043
463.54405
461.80451
460.04095
458.2535
456.44238
454.60792
452.75056
450.87089
448.96957
447.04741
445.10531
443.14428
441.16541
439.1699
437.15905
435.1342
433.0968
431.04835
428.99039
426.92452
424.8524
422.77568
420.69607
418.61527
416.53498
414.45692
412.38279
410.31426
408.25299
406.20059
404.15867
402.12875
400.11235
398.1109
396.12579
394.15836
392.20988
390.28157
388.37457
386.48996
384.62878
382.79197
380.98042
379.19496
377.43636
375.7053
374.00241
372.32817
463.02768
461.29717
459.54262
457.76409
455.96181
454.13611
452.28746
450.41644
448.52373
446.61013
444.67656
442.72403
440.75364
438.76659
436.76416
434.74773
432.71871
430.67861
428.62899
426.57142
424.50757
422.43908
420.36766
418.29499
416.22279
414.15275
412.08657
410.02593
407.97246
405.92779
403.89349
401.87111
399.86213
397.868
395.89011
393.92977
391.98826
390.0668
388.16651
386.28849
384.43376
382.60326
380.79788
379.01846
377.26575
375.54044
373.84317
372.17453
464.167
462.4706
460.75
459.0052
457.23631
455.44357
453.62733
451.78807
449.92638
448.04295
446.13859
444.21423
442.27087
440.30962
438.33169
436.33836
434.33099
432.31102
430.27994
428.2393
426.19069
424.13575
422.07614
420.01354
417.94964
415.88615
413.82476
411.76716
409.71501
407.66995
405.6336
403.60752
401.59326
399.59229
397.60605
395.63592
393.68323
391.74924
389.83514
387.94209
386.07117
384.22338
382.39968
380.60095
378.82802
377.08166
375.36256
373.67135
372.0087
463.55638
461.87097
460.16104
458.42674
456.66823
454.88577
453.07972
451.25057
449.39893
447.5255
445.6311
443.71664
441.78316
439.83176
437.86365
435.88011
433.8825
431.87227
429.85089
427.81992
425.78095
423.7356
421.68554
419.63244
417.57798
415.52386
413.47178
411.4234
409.38039
407.34438
405.31698
403.29974
401.29421
399.30185
397.3241
395.36232
393.41785
391.49193
389.58577
387.7005
385.8372
383.99688
382.18048
380.38891
378.62297
376.88343
375.17099
373.48631
371.83005
462.90056
461.22677
459.52829
457.80528
456.05793
454.28651
452.49141
450.67314
448.8323
446.96962
445.08591
443.18211
441.25925
439.31843
437.36087
435.38785
433.40074
431.40097
429.39002
427.36944
425.34082
423.30578
421.26598
419.22307
417.17875
415.13471
413.09261
411.05414
409.02094
406.99465
404.97685
402.96911
400.97295
398.98984
397.02119
395.06838
393.13273
391.21548
389.31783
387.44091
385.58579
383.75348
381.94494
380.16103
378.40258
376.67037
374.96509
373.28739
371.63797
462.19732
460.53595
458.84973
457.13883
455.40344
453.64387
451.86053
450.05392
448.22468
446.37352
444.5013
442.60893
440.69746
438.768
436.82176
434.86003
432.88417
430.89562
428.89586
426.88643
424.86891
422.84493
420.81612
418.78415
416.7507
414.71745
412.68606
410.65821
408.63553
406.61965
404.61215
402.61459
400.62847
398.65526
396.69637
394.75317
392.82697
390.919
389.03047
387.16249
385.31614
383.49242
381.69228
379.91659
378.16617
376.4418
374.74417
373.07395
371.43182
461.44453
459.79643
458.12333
456.42538
454.70281
452.95593
451.18518
449.39107
447.57424
445.73544
443.87552
441.9954
440.09612
438.17883
436.24471
434.29507
432.33127
430.35474
428.36696
426.36946
424.36383
422.35168
420.33465
418.31439
416.29257
414.27087
412.25094
410.23445
408.22303
406.21829
404.2218
402.23512
400.25974
398.29713
396.34868
394.41576
392.49966
390.60163
388.72285
386.86444
385.02747
383.21293
381.42176
379.65486
377.91303
376.19704
374.50759
372.84535
371.211
460.64007
459.00615
457.34706
455.66296
453.95409
452.22078
450.46349
448.68274
446.8792
445.05361
443.20683
441.33981
439.45359
437.5493
435.62815
433.69144
431.74053
429.77684
427.80186
425.81712
423.8242
421.82469
419.82024
417.81249
415.8031
413.79374
411.78606
409.78171
407.78231
405.78947
403.80475
401.82969
399.86579
397.91448
395.97719
394.05524
392.14993
390.2625
388.39413
386.54593
384.71896
382.91422
381.13265
379.37512
377.64245
375.93541
374.25469
372.60095
370.97489
459.78187
458.16307
456.51893
454.8496
453.15535
451.43654
449.69361
447.92713
446.13777
444.32629
442.49355
440.64051
438.76822
436.87781
434.97051
433.0476
431.11044
429.16047
427.19916
425.22803
423.24866
421.26265
419.27162
417.27721
415.28108
413.28489
411.29026
409.29885
407.31228
405.33212
403.35994
401.39728
399.4456
397.50636
395.58095
393.67069
391.77689
389.90076
388.04348
386.20617
384.38986
382.59557
380.82422
379.07668
377.35377
375.65625
373.98483
372.34015
370.72291
458.86791
457.26522
455.637
453.98341
452.30474
450.60136
448.87374
447.12248
445.34823
443.55179
441.73401
439.89588
438.03843
436.16283
434.27027
432.36207
430.43957
428.50421
426.55745
424.60083
422.6359
420.66426
418.68753
416.70733
414.72532
412.74314
410.76242
408.78479
406.81186
404.84521
402.88639
400.93691
398.99825
397.07184
395.15907
393.26126
391.3797
389.51559
387.67012
385.84438
384.03942
382.25624
380.49575
378.75884
377.04631
375.35892
373.69738
372.06233
370.45447
457.89625
456.31069
454.69939
453.06254
451.40044
449.71348
448.00216
446.26708
444.50892
442.72847
440.92662
439.10434
437.2627
435.40284
433.52598
431.63342
429.72652
427.8067
425.87543
423.93423
421.98466
420.02831
418.06677
416.10169
414.13469
412.1674
410.20146
408.23848
406.28005
404.32774
402.38311
400.44764
398.52281
396.61004
394.7107
392.82611
390.95754
389.10621
387.27327
385.45983
383.66692
381.89553
380.14658
378.42095
376.71944
375.04281
373.39176
371.76693
370.16902
456.86503
455.29766
453.70433
452.08526
450.44075
448.77124
447.07723
445.35933
443.61826
441.85481
440.06988
438.26445
436.43959
434.59646
432.73627
430.86033
428.96999
427.06667
425.15184
423.22702
421.29376
419.35362
417.40823
415.45918
413.5081
411.55663
409.60637
407.65892
405.71588
403.7788
401.84921
399.92861
398.01844
396.12013
394.23503
392.36446
390.50967
388.67188
386.85223
385.05182
383.27169
381.5128
379.77609
378.06242
376.37259
374.70735
373.06741
371.45341
369.86605
455.77256
454.22446
452.65018
451.04995
449.4241
447.77308
446.09742
444.39775
442.6748
440.92938
439.16239
437.37483
435.56777
433.74238
431.89987
430.04154
428.16876
426.28294
424.38555
422.47809
420.5621
418.63916
416.71086
414.7788
412.8446
410.90987
408.97622
407.04523
405.11848
403.19752
401.28387
399.379
397.48436
395.60136
393.73133
391.8756
390.0354
388.21194
386.40635
384.61974
382.85312
381.10746
379.3837
377.68267
376.0052
374.35202
372.72384
371.1213
369.54509
454.61731
453.08959
451.53546
449.95516
448.34906
446.71762
445.06139
443.38102
441.67725
439.95091
438.20291
436.43427
434.64606
432.83944
431.01565
429.17597
427.32178
425.45448
423.57553
421.68643
419.78872
417.88397
415.97375
414.05967
412.14331
410.22629
408.3102
406.39661
404.48708
402.58316
400.68635
398.79811
396.91988
395.05305
393.19896
391.35889
389.53411
387.72578
385.93506
384.16301
382.41067
380.67899
378.96889
377.28123
375.61681
373.97637
372.3606
370.77015
369.20572
453.39794
451.89174
450.3589
448.79966
447.21442
445.60366
443.96795
442.30798
440.62448
438.91831
437.19039
435.44174
433.67345
431.88667
430.08265
428.26268
426.42812
424.58038
422.72091
420.85121
418.97281
417.08727
415.19614
413.30103
411.40351
409.50518
407.60762
405.71239
403.82104
401.93509
400.05604
398.18535
396.32443
394.47465
392.63736
390.81383
389.0053
387.21294
385.43788
383.68119
381.9439
380.22695
378.53127
376.85769
375.20702
373.58
371.97732
370.39961
368.8476
452.11341
450.6299
449.11949
447.58245
446.0192
444.43025
442.81619
441.17773
439.51561
437.83072
436.12398
434.39642
432.64913
430.88328
429.10011
427.30092
425.48707
423.65996
421.82103
419.97178
418.11373
416.24843
414.37743
412.5023
410.62463
408.74599
406.86795
404.99205
403.11985
401.25283
399.39249
397.54027
395.69756
393.86575
392.04614
390.24001
388.44858
386.67302
384.91445
383.17392
381.45246
379.75102
378.0705
376.41174
374.77553
373.16263
371.57372
370.00943
368.47047
450.76296
449.3033
447.8165
446.30282
444.76271
443.19672
441.60545
439.98963
438.35003
436.68753
435.00309
433.29773
431.57256
429.82874
428.06753
426.29022
424.49815
422.69274
420.87543
419.0477
417.21106
415.36705
413.51721
411.66311
409.80631
407.94837
406.09085
404.23528
402.38319
400.53608
398.69539
396.86257
395.03901
393.22607
391.42503
389.63718
387.86371
386.1058
384.36454
382.64099
380.93616
379.25099
377.58639
375.94318
374.32217
372.72409
371.14963
369.59942
368.07417
449.34622
447.9116
446.44957
444.96041
443.44461
441.90273
440.33541
438.74338
437.12743
435.48847
433.82746
432.14542
430.44349
428.72282
426.98467
425.23034
423.46116
421.67855
419.88394
418.0788
416.26464
414.44298
412.61535
410.78331
408.94841
407.11219
405.2762
403.44196
401.61097
399.78472
397.96465
396.15218
394.34869
392.55552
390.77397
389.00527
387.25063
385.51121
383.78809
382.08233
380.39493
378.72681
377.07888
375.45198
373.84688
372.26432
370.705
369.16954
367.65866
447.86324
446.45484
445.01876
443.5553
442.06498
440.54837
439.00615
437.43905
435.84791
434.23362
432.59717
430.93959
429.26202
427.56562
425.85165
424.1214
422.37622
420.6175
418.84667
417.06521
415.27459
413.47634
411.67198
409.86305
408.05108
406.23761
404.42415
402.61223
400.80333
398.99891
397.20041
395.40923
393.62674
391.85426
390.09307
388.34441
386.60946
384.88938
383.18523
381.49807
379.82888
378.17859
376.5481
374.93823
373.34976
371.78343
370.23993
368.71989
367.22403
446.31458
444.93358
443.52462
442.08803
440.62434
439.13416
437.61818
436.07717
434.51197
432.9235
431.31274
429.68076
428.02867
426.35766
424.66897
422.96391
421.24382
419.51008
417.76413
416.00741
414.24141
412.46763
410.68758
408.90279
407.11477
405.32505
403.53514
401.74653
399.96068
398.17906
396.40308
394.63412
392.87355
391.12266
389.38272
387.65497
385.94057
384.24065
382.5563
380.88854
379.23835
377.60665
375.99434
374.40223
372.8311
371.2817
369.75469
368.25073
366.77053
444.7014
443.34895
441.96826
440.55969
439.12377
437.66116
436.17257
434.65879
433.12066
431.55913
429.97518
428.3699
426.7444
425.09989
423.43759
421.75881
420.06489
418.35722
416.6372
414.90629
413.16595
411.41768
409.66298
407.90335
406.1403
404.37534
402.60995
400.84562
399.08379
397.32591
395.57338
393.82757
392.08981
390.3614
388.64359
386.93759
385.24457
383.56565
381.90189
380.25431
378.62389
377.01154
375.41813
373.84449
372.2914
370.75959
369.24973
367.76249
366.29858
443.02552
441.70275
440.35146
438.97201
437.565
436.13108
434.67098
433.18553
431.67558
430.14209
428.58606
427.00857
425.41076
423.79381
422.15898
420.50755
418.84087
417.16031
415.46728
413.76321
412.04957
410.32783
408.59948
406.86601
405.12891
403.38967
401.64977
399.91067
398.1738
396.44058
394.7124
392.99062
391.27655
389.57147
387.87664
386.19323
384.5224
382.86527
381.22288
379.59625
377.98633
376.39405
374.82025
373.26578
371.73138
370.21781
368.72573
367.25582
365.80882
441.28953
439.99751
438.6767
437.32747
435.95043
434.54628
433.11576
431.65971
430.17901
428.67462
427.14757
425.59894
424.02986
422.44153
420.8352
419.21216
417.57374
415.92132
414.25628
412.58006
410.8941
409.19987
407.49885
405.79249
404.0823
402.36972
400.65623
398.94326
397.23224
395.52457
393.82162
392.12472
390.43518
388.75427
387.08321
385.42318
383.77533
382.14074
380.52047
378.91551
377.32681
375.75528
374.20178
372.66712
371.15205
369.65732
368.18361
366.73159
365.30207
439.49689
438.23666
436.94735
435.62936
434.28332
432.90995
431.51003
430.0844
428.63397
427.15971
425.66265
424.14387
422.60453
421.04583
419.46899
417.87532
416.26614
414.64282
413.00674
411.35931
409.70199
408.0362
406.36342
404.6851
403.0027
401.31767
399.63146
397.9455
396.26118
394.57988
392.90297
391.23177
389.56755
387.91158
386.26506
384.62916
383.00501
381.39368
379.79622
378.21362
376.64681
375.09669
373.56411
372.04987
370.55472
369.07938
367.62455
366.19092
364.77939
437.65206
436.42455
435.16769
433.88189
432.56781
431.22618
429.85781
428.46356
427.04435
425.60116
424.13503
422.64706
421.1384
419.61024
418.06383
416.50045
414.92143
413.32811
411.72188
410.10414
408.47632
406.83985
405.19617
403.54672
401.89295
400.2363
398.57818
396.92001
395.26317
393.60903
391.95892
390.31415
388.67599
387.04567
385.42439
383.8133
382.21352
380.62612
379.05212
377.4925
375.94819
374.42008
372.909
371.41574
369.94104
368.4856
367.0501
365.6352
435.76057
434.56663
433.34308
432.09033
430.80907
429.50005
428.1641
426.80209
425.41497
424.00371
422.56938
421.11308
419.63594
418.13918
416.62404
415.09179
413.54375
411.98126
410.4057
408.81845
407.22093
405.61455
404.00075
402.38094
400.75656
399.12902
397.49973
395.87007
394.24142
392.61512
390.99249
389.37482
387.76336
386.15933
384.56392
382.97826
381.40346
379.84056
378.29059
376.75451
375.23325
373.72768
372.23862
370.76685
369.31309
367.878
366.46218
433.82921
432.66959
431.48008
430.26112
429.01343
427.73777
426.435
425.10599
423.75171
422.37316
420.97138
419.54749
418.10264
416.63802
415.15488
413.65449
412.13816
410.60722
409.06304
407.50699
405.94046
404.36487
402.78161
401.19211
399.59777
397.99998
396.40014
394.79962
393.19976
391.6019
390.00733
388.41733
386.83314
385.25595
383.68694
382.12723
380.57791
379.04002
377.51456
376.00251
374.50475
373.02218
371.55559
370.10577
368.6734
367.25906
431.86614
430.74141
429.58655
428.402
427.18849
425.94681
424.67784
423.38247
422.06166
420.71642
419.34783
417.95698
416.54503
415.11318
413.66266
412.19475
410.71073
409.21193
407.69971
406.17543
404.64047
403.09622
401.54407
399.98541
398.42164
396.85413
395.28425
393.71336
392.14279
390.57385
389.00781
387.44594
385.88946
384.33954
382.79736
381.26401
379.74057
378.22808
376.72753
375.23987
373.76599
372.30678
370.86303
369.43552
368.02498
366.63224
429.88102
428.79161
427.67183
426.52212
425.34325
424.13602
422.90131
421.64004
420.35318
419.04174
417.7068
416.34947
414.97089
413.57227
412.15483
410.71984
409.26859
407.80239
406.32257
404.83049
403.32752
401.81502
400.29438
398.76697
397.23415
395.6973
394.15775
392.61686
391.07592
389.53623
387.99906
386.46564
384.93717
383.41484
381.89977
380.39307
378.8958
377.40898
375.93359
374.47057
373.02083
371.58521
370.16454
368.75959
367.3711
365.99994
427.88519
426.83132
425.74686
424.63225
423.48828
422.31576
421.1156
419.88871
418.63608
417.35873
416.05773
414.7342
413.38929
412.02419
410.64011
409.23833
407.82011
406.38676
404.93961
403.47999
402.00926
400.52876
399.03985
397.54391
396.04227
394.53627
393.02727
391.51655
390.00543
388.49518
386.98704
385.48223
383.98194
382.48734
380.99953
379.51961
378.04863
376.5876
375.13749
373.69923
372.27372
370.86181
369.46432
368.082
366.71562
365.36604
425.89182
424.87349
423.82435
422.74487
421.63584
420.49809
419.33252
418.14008
416.92175
415.67856
414.41158
413.12193
411.81075
410.47924
409.1286
407.76009
406.37497
404.97454
403.56011
402.133
400.69454
399.24607
397.78894
396.32448
394.85403
393.37891
391.90044
390.41992
388.93861
387.45778
385.97865
384.50243
383.03029
381.56338
380.1028
378.64962
377.20489
375.7696
374.34472
372.93117
371.52984
370.14157
368.76718
367.40743
366.06307
364.73497
423.9161
422.93303
421.91897
420.87438
419.80006
418.69686
417.5657
416.40751
415.2233
414.01409
412.78095
411.525
410.24739
408.94929
407.63191
406.29649
404.94429
403.5766
402.19469
400.79989
399.39351
397.97688
396.55131
395.11813
393.67866
392.2342
390.78605
389.33548
387.88376
386.43211
384.98177
383.5339
382.08967
380.65021
379.21661
377.78994
376.37121
374.96142
373.56153
372.17244
370.79505
369.43018
368.07865
366.74122
365.41863
364.11177
421.97537
421.027
420.04746
419.03722
417.9971
416.92795
415.8307
414.70628
413.55571
412.38
411.18024
409.95753
408.71301
407.44787
406.16329
404.8605
403.54076
402.20532
400.85548
399.49253
398.11776
396.73248
395.338
393.93563
392.52665
391.11237
389.69405
388.27295
386.85033
385.42739
384.00534
382.58534
381.16854
379.75606
378.34897
376.94832
375.55513
374.17038
372.79501
371.42993
370.07602
368.7341
367.40498
366.08941
364.78814
363.50208
420.0894
419.17479
418.22888
417.25212
416.24533
415.20939
414.1452
413.05374
411.93598
410.79298
409.62579
408.43552
407.22331
405.99032
404.73775
403.46681
402.17873
400.87478
399.55621
398.22431
396.88036
395.52565
394.16147
392.78911
391.40985
390.02495
388.63568
387.24328
385.84898
384.45397
383.05945
381.66656
380.27643
378.89017
377.50885
376.13349
374.76511
373.40468
372.05313
370.71136
369.38024
368.06059
366.7532
365.45882
364.17818
362.9122
418.28048
417.39834
416.48476
415.54021
414.56551
413.56153
412.5292
411.46947
410.38334
409.27184
408.13604
406.97704
405.79596
404.59396
403.37223
402.13197
400.8744
399.60076
398.31231
397.01031
395.69603
394.37075
393.03573
391.69224
390.34155
388.98492
387.62357
386.25875
384.89166
383.52349
382.1554
380.78853
379.42401
378.06292
376.70631
375.35522
374.01063
372.67352
371.3448
370.02537
368.71609
367.41777
366.13119
364.85708
363.59604
416.57374
415.72231
414.83933
413.92527