/*--------------------------------*- C++ -*----------------------------------*\
| =========                 |                                                 |
| \\      /  F ield         | OpenFOAM: The Open Source CFD Toolbox           |
|  \\    /   O peration     | Version:  2312                                  |
|   \\  /    A nd           | Website:  www.openfoam.com                      |
|    \\/     M anipulation  |                                                 |
\*---------------------------------------------------------------------------*/
FoamFile
{
    version     2.0;
    format      ascii;
    arch        "LSB;label=32;scalar=64";
    class       volVectorField;
    location    "0.08";
    object      U;
}
// * * * * * * * * * * * * * * * * * * * * * * * * * * * * * * * * * * * * * //

dimensions      [0 1 -1 0 0 0 0];

internalField   nonuniform List<vector> 
3251
(
(1.7717085 0.0055621754 0)
(1.7346672 0.0055455333 0)
(1.6978253 0.0055323474 0)
(1.6612016 0.0055142299 0)
(1.6248107 0.005493236 0)
(1.5886652 0.0054705594 0)
(1.5527785 0.0054465297 0)
(1.5171647 0.0054212144 0)
(1.4818382 0.0053945859 0)
(1.4468138 0.0053665789 0)
(1.4121063 0.005337126 0)
(1.3777305 0.005306175 0)
(1.343701 0.0052736948 0)
(1.3100321 0.0052396761 0)
(1.2767378 0.0052041258 0)
(1.243832 0.0051670649 0)
(1.2113278 0.0051285226 0)
(1.179238 0.0050885371 0)
(1.147575 0.0050471498 0)
(1.1163503 0.0050044079 0)
(1.0855753 0.0049603596 0)
(1.0552603 0.0049150585 0)
(1.0254152 0.004868558 0)
(0.99604917 0.0048209157 0)
(0.9671706 0.0047721886 0)
(0.9387872 0.0047224377 0)
(0.91090596 0.0046717225 0)
(0.88353311 0.0046201063 0)
(0.85667414 0.0045676495 0)
(0.83033382 0.0045144165 0)
(0.8045162 0.0044604681 0)
(0.77922463 0.0044058685 0)
(0.75446176 0.0043506775 0)
(0.73022961 0.0042949579 0)
(0.70652953 0.0042387677 0)
(0.68336227 0.0041821674 0)
(0.660728 0.0041252123 0)
(0.63862633 0.0040679622 0)
(0.61705634 0.0040104747 0)
(0.59601658 0.0039528188 0)
(0.57550508 0.0038950743 0)
(0.55551937 0.0038373514 0)
(0.53605646 0.0037797938 0)
(0.51711286 0.0037225931 0)
(0.49868467 0.0036659661 0)
(0.48076763 0.0036101136 0)
(0.4633574 0.0035551126 0)
(0.4464498 0.0035006977 0)
(0.43004094 0.0034458659 0)
(0.41412691 0.0033884149 0)
(0.39870215 0.0033260504 0)
(0.38375708 0.003263079 0)
(0.36928711 0.0032059593 0)
(0.35529387 0.0031472614 0)
(0.34177308 0.0030876741 0)
(0.32871873 0.0030317382 0)
(0.31612371 0.0029826287 0)
(0.30397403 0.0029331052 0)
(1.7714779 0.016342665 0)
(1.7344467 0.016255087 0)
(1.6976129 0.016168182 0)
(1.660996 0.016074005 0)
(1.6246124 0.015974567 0)
(1.5884744 0.015871092 0)
(1.5525952 0.015763958 0)
(1.5169888 0.015653296 0)
(1.4816696 0.015539149 0)
(1.4466524 0.015421532 0)
(1.4119519 0.015300461 0)
(1.377583 0.01517597 0)
(1.3435602 0.015048119 0)
(1.3098979 0.014916993 0)
(1.2766102 0.014782694 0)
(1.2437108 0.014645341 0)
(1.211213 0.014505065 0)
(1.1791294 0.014362004 0)
(1.1474725 0.014216303 0)
(1.1162539 0.014068111 0)
(1.0854847 0.013917579 0)
(1.0551756 0.01376486 0)
(1.0253362 0.013610109 0)
(0.99597574 0.013453479 0)
(0.96710268 0.013295124 0)
(0.9387247 0.013135196 0)
(0.91084876 0.012973846 0)
(0.88348112 0.012811221 0)
(0.85662726 0.012647465 0)
(0.83029195 0.01248272 0)
(0.80447925 0.012317124 0)
(0.7791925 0.012150807 0)
(0.75443436 0.0119839 0)
(0.73020684 0.011816523 0)
(0.70651129 0.011648797 0)
(0.68334848 0.011480831 0)
(0.66071856 0.011312734 0)
(0.63862116 0.011144606 0)
(0.61705535 0.010976547 0)
(0.59601968 0.010808657 0)
(0.5755122 0.010641045 0)
(0.55553046 0.010473836 0)
(0.53607147 0.010307183 0)
(0.51713177 0.010141274 0)
(0.49870743 0.0099763181 0)
(0.48079421 0.0098125057 0)
(0.46338767 0.0096499142 0)
(0.44648341 0.0094883513 0)
(0.43007723 0.0093270382 0)
(0.41416498 0.0091643895 0)
(0.39874195 0.0089985797 0)
(0.38380019 0.0088307734 0)
(0.36933388 0.008666797 0)
(0.35534331 0.0085046947 0)
(0.34182605 0.0083433174 0)
(0.32877698 0.0081881141 0)
(0.31618621 0.0080433943 0)
(0.30403582 0.0079021063 0)
(1.7710005 0.027085803 0)
(1.7339859 0.026926606 0)
(1.697168 0.026764409 0)
(1.6605657 0.026593383 0)
(1.6241971 0.026414946 0)
(1.5880742 0.026230198 0)
(1.55221 0.026039554 0)
(1.5166183 0.025843201 0)
(1.4813137 0.025641256 0)
(1.4463108 0.025433817 0)
(1.4116245 0.025220988 0)
(1.3772694 0.025002894 0)
(1.3432603 0.024779687 0)
(1.3096116 0.024551548 0)
(1.2763372 0.024318676 0)
(1.2434508 0.024081292 0)
(1.2109658 0.023839627 0)
(1.178895 0.023593921 0)
(1.1472505 0.023344422 0)
(1.1160442 0.023091382 0)
(1.0852872 0.022835053 0)
(1.0549899 0.022575689 0)
(1.0251623 0.022313543 0)
(0.99581336 0.022048867 0)
(0.96695161 0.021781907 0)
(0.93858475 0.021512907 0)
(0.91071974 0.021242105 0)
(0.88336283 0.020969733 0)
(0.8565195 0.020696015 0)
(0.83019454 0.020421168 0)
(0.80439198 0.020145403 0)
(0.77911518 0.019868918 0)
(0.7543668 0.019591907 0)
(0.73014884 0.01931455 0)
(0.70646268 0.01903702 0)
(0.68330905 0.018759479 0)
(0.66068813 0.018482079 0)
(0.63859954 0.018204964 0)
(0.61704236 0.017928268 0)
(0.59601514 0.017652121 0)
(0.57551594 0.017376652 0)
(0.5555423 0.017102002 0)
(0.53609127 0.016828324 0)
(0.51715939 0.0165558 0)
(0.49874274 0.016284622 0)
(0.48083703 0.016014963 0)
(0.46343778 0.015746899 0)
(0.44654044 0.015480268 0)
(0.43014057 0.015214482 0)
(0.41423385 0.014948386 0)
(0.39881581 0.014680579 0)
(0.38387995 0.01441081 0)
(0.36942049 0.014143739 0)
(0.3554364 0.013880347 0)
(0.34192632 0.013619871 0)
(0.3288863 0.013367509 0)
(0.31630396 0.013127333 0)
(0.30415059 0.012893585 0)
(1.7702756 0.037809387 0)
(1.7332847 0.037578363 0)
(1.6964906 0.037340774 0)
(1.6599109 0.037092681 0)
(1.6235649 0.036835075 0)
(1.5874647 0.036568932 0)
(1.5516229 0.036294683 0)
(1.5160534 0.036012571 0)
(1.4807707 0.03572279 0)
(1.4457893 0.035425519 0)
(1.4111242 0.035120952 0)
(1.3767901 0.034809305 0)
(1.3428017 0.034490825 0)
(1.3091732 0.034165788 0)
(1.2759189 0.033834495 0)
(1.2430523 0.033497262 0)
(1.2105868 0.033154425 0)
(1.1785351 0.032806325 0)
(1.1469096 0.032453314 0)
(1.1157219 0.032095745 0)
(1.0849832 0.031733973 0)
(1.0547039 0.031368352 0)
(1.024894 0.030999234 0)
(0.99556253 0.030626966 0)
(0.96671794 0.030251889 0)
(0.93836793 0.029874336 0)
(0.91051949 0.029494633 0)
(0.88317885 0.029113094 0)
(0.8563515 0.028730025 0)
(0.83004221 0.028345717 0)
(0.80425505 0.02796045 0)
(0.77899334 0.027574491 0)
(0.75425977 0.027188095 0)
(0.73005633 0.0268015 0)
(0.70638439 0.026414932 0)
(0.68324469 0.026028603 0)
(0.66063743 0.025642708 0)
(0.63856219 0.02525743 0)
(0.61701808 0.024872939 0)
(0.59600365 0.024489391 0)
(0.57551696 0.024106936 0)
(0.55555555 0.023725722 0)
(0.53611649 0.023345906 0)
(0.51719633 0.022967653 0)
(0.49879115 0.022591136 0)
(0.48089666 0.022216503 0)
(0.46350831 0.021843819 0)
(0.44662145 0.021472957 0)
(0.43023148 0.02110345 0)
(0.41433395 0.020734457 0)
(0.39892449 0.02036497 0)
(0.38399761 0.019994569 0)
(0.36954803 0.01962654 0)
(0.35557394 0.019263231 0)
(0.3420745 0.018905241 0)
(0.32904623 0.018556495 0)
(0.31647462 0.018216645 0)
(0.30431819 0.017874421 0)
(1.7693031 0.04852327 0)
(1.7323435 0.048220699 0)
(1.695581 0.047908092 0)
(1.6590321 0.04758308 0)
(1.6227167 0.047246471 0)
(1.5866466 0.046899093 0)
(1.5508346 0.046541385 0)
(1.5152946 0.046173657 0)
(1.480041 0.045796178 0)
(1.4450884 0.045409217 0)
(1.4104516 0.045013056 0)
(1.3761454 0.044608005 0)
(1.3421846 0.044194405 0)
(1.3085833 0.043772628 0)
(1.2753558 0.043343071 0)
(1.2425157 0.042906153 0)
(1.2100762 0.042462307 0)
(1.1780502 0.042011981 0)
(1.14645 0.041555625 0)
(1.1152872 0.041093697 0)
(1.084573 0.040626652 0)
(1.0543179 0.040154946 0)
(1.0245317 0.039679027 0)
(0.99522363 0.039199339 0)
(0.96640202 0.038716316 0)
(0.9380746 0.038230382 0)
(0.91024835 0.037741948 0)
(0.8829295 0.037251413 0)
(0.85612355 0.03675916 0)
(0.82983527 0.036265556 0)
(0.80406871 0.035770952 0)
(0.77882723 0.035275681 0)
(0.75411347 0.03478006 0)
(0.72992946 0.034284384 0)
(0.70627655 0.033788932 0)
(0.68315549 0.033293965 0)
(0.66056646 0.032799723 0)
(0.63850908 0.032306427 0)
(0.61698242 0.03181428 0)
(0.59598504 0.031323465 0)
(0.57551501 0.030834151 0)
(0.5555699 0.030346494 0)
(0.53614676 0.029860646 0)
(0.51724217 0.029376756 0)
(0.49885223 0.028894971 0)
(0.48097265 0.028415414 0)
(0.46359886 0.027938136 0)
(0.44672612 0.027463043 0)
(0.43034972 0.02698979 0)
(0.41446509 0.026517825 0)
(0.39906789 0.026046504 0)
(0.3841533 0.025575604 0)
(0.36971665 0.025107545 0)
(0.35575565 0.024645275 0)
(0.34226927 0.024190369 0)
(0.32925315 0.02374476 0)
(0.31668994 0.023299829 0)
(1.7681531 0.058615989 0)
(1.7312306 0.058246007 0)
(1.6945051 0.057862952 0)
(1.6579929 0.05746576 0)
(1.6217136 0.05705497 0)
(1.5856792 0.05663127 0)
(1.5499025 0.056195122 0)
(1.5143973 0.055746902 0)
(1.479178 0.055286958 0)
(1.4442593 0.054815644 0)
(1.409656 0.054333329 0)
(1.375383 0.05384041 0)
(1.3414547 0.05333732 0)
(1.3078857 0.052824518 0)
(1.2746899 0.052302495 0)
(1.2418811 0.051771763 0)
(1.2094725 0.05123285 0)
(1.177477 0.050686298 0)
(1.1459067 0.050132655 0)
(1.1147734 0.049572474 0)
(1.0840884 0.049006306 0)
(1.0538619 0.048434699 0)
(1.0241039 0.047858197 0)
(0.9948235 0.047277331 0)
(0.96602914 0.046692625 0)
(0.93772851 0.046104587 0)
(0.90992859 0.045513709 0)
(0.8826356 0.044920468 0)
(0.85585504 0.044325322 0)
(0.82959168 0.043728709 0)
(0.80384958 0.043131045 0)
(0.77863207 0.042532727 0)
(0.75394183 0.041934129 0)
(0.72978085 0.041335602 0)
(0.70615051 0.040737475 0)
(0.68305155 0.040140054 0)
(0.66048415 0.039543621 0)
(0.63844792 0.038948434 0)
(0.61694193 0.038354728 0)
(0.59596477 0.03776271 0)
(0.57551449 0.037172564 0)
(0.55558866 0.036584453 0)
(0.53618438 0.035998521 0)
(0.51729823 0.035414899 0)
(0.49892635 0.03483371 0)
(0.48106444 0.034255051 0)
(0.46370791 0.033678973 0)
(0.44685197 0.033105422 0)
(0.4304918 0.032534189 0)
(0.41462277 0.031964956 0)
(0.39924051 0.031397415 0)
(0.38434069 0.030831663 0)
(0.36991919 0.030269699 0)
(0.3559735 0.029714822 0)
(0.34250208 0.029169128 0)
(0.32949794 0.028632539 0)
(0.31693903 0.028090076 0)
(1.7668597 0.068220908 0)
(1.7299795 0.067786841 0)
(1.693296 0.067337008 0)
(1.6568253 0.066871455 0)
(1.6205868 0.066390345 0)
(1.5845929 0.065894231 0)
(1.5488561 0.065383621 0)
(1.5133904 0.064858963 0)
(1.4782101 0.064320692 0)
(1.4433299 0.063769244 0)
(1.4087646 0.063205076 0)
(1.3745291 0.06262867 0)
(1.340638 0.06204054 0)
(1.3071055 0.061441231 0)
(1.2739458 0.060831321 0)
(1.2411726 0.060211406 0)
(1.2087992 0.059582107 0)
(1.1768382 0.058944054 0)
(1.1453021 0.058297886 0)
(1.1142025 0.057644247 0)
(1.0835506 0.05698378 0)
(1.0533568 0.056317121 0)
(1.0236309 0.0556449 0)
(0.99438218 0.054967738 0)
(0.96561895 0.054286238 0)
(0.93734893 0.05360099 0)
(0.9095791 0.052912566 0)
(0.88231568 0.052221514 0)
(0.85556418 0.051528365 0)
(0.82932936 0.050833623 0)
(0.80361527 0.050137769 0)
(0.77842526 0.049441259 0)
(0.75376199 0.048744522 0)
(0.72962746 0.048047962 0)
(0.70602305 0.047351957 0)
(0.6829495 0.046656855 0)
(0.66040699 0.04596298 0)
(0.63839513 0.045270624 0)
(0.616913 0.044580051 0)
(0.59595917 0.04389149 0)
(0.57553169 0.043205139 0)
(0.55562815 0.042521164 0)
(0.53624562 0.041839701 0)
(0.51738072 0.041160861 0)
(0.49902956 0.04048474 0)
(0.48118788 0.039811413 0)
(0.46385104 0.03914093 0)
(0.44701425 0.038473287 0)
(0.43067265 0.037808409 0)
(0.41482159 0.037146235 0)
(0.39945678 0.036486813 0)
(0.38457426 0.035830665 0)
(0.37017048 0.035179756 0)
(0.3562429 0.034537416 0)
(0.34278901 0.033905495 0)
(0.32979833 0.033281772 0)
(0.31724251 0.032647157 0)
(1.7653225 0.078083653 0)
(1.7284932 0.077583971 0)
(1.6918597 0.077066022 0)
(1.6554381 0.076530562 0)
(1.6192484 0.075977485 0)
(1.5833028 0.075407233 0)
(1.5476138 0.074820358 0)
(1.5121954 0.074217395 0)
(1.4770618 0.073598861 0)
(1.4422277 0.072965286 0)
(1.407708 0.072317212 0)
(1.3735174 0.071655208 0)
(1.3396706 0.070979874 0)
(1.306182 0.070291842 0)
(1.2730655 0.069591776 0)
(1.240335 0.068880364 0)
(1.2080037 0.068158315 0)
(1.1760843 0.067426353 0)
(1.1445891 0.066685212 0)
(1.1135299 0.065935627 0)
(1.0829177 0.065178334 0)
(1.0527631 0.064414061 0)
(1.0230759 0.063643529 0)
(0.99386516 0.062867446 0)
(0.96513933 0.0620865 0)
(0.93690611 0.061301366 0)
(0.90917247 0.060512693 0)
(0.88194463 0.059721108 0)
(0.85522809 0.058927214 0)
(0.82902761 0.058131584 0)
(0.80334725 0.057334766 0)
(0.77819035 0.056537276 0)
(0.75355958 0.055739602 0)
(0.72945694 0.054942203 0)
(0.7058838 0.054145504 0)
(0.68284092 0.053349902 0)
(0.66032847 0.052555759 0)
(0.63834605 0.051763405 0)
(0.61689276 0.050973132 0)
(0.59596715 0.050185194 0)
(0.57556729 0.049399802 0)
(0.55569072 0.048617123 0)
(0.53633454 0.047837285 0)
(0.51749532 0.04706038 0)
(0.49916919 0.046286479 0)
(0.48135186 0.04551564 0)
(0.46403868 0.04474792 0)
(0.44722485 0.043983375 0)
(0.43090552 0.043222084 0)
(0.4150761 0.042464247 0)
(0.39973249 0.041710308 0)
(0.38487109 0.040961254 0)
(0.37048894 0.0402192 0)
(0.35658355 0.039487292 0)
(0.34315119 0.038766353 0)
(0.33017649 0.038049974 0)
(0.31762598 0.03731046 0)
(1.7635251 0.088206984 0)
(1.7267551 0.087640214 0)
(1.6901803 0.087052777 0)
(1.6538165 0.086445771 0)
(1.617684 0.085818999 0)
(1.581795 0.085172831 0)
(1.5461621 0.084507861 0)
(1.510799 0.083824697 0)
(1.4757201 0.083123945 0)
(1.4409401 0.082406222 0)
(1.4064738 0.08167216 0)
(1.3723359 0.080922419 0)
(1.3385411 0.080157685 0)
(1.3051039 0.07937868 0)
(1.2720382 0.078586159 0)
(1.2393577 0.077780903 0)
(1.2070758 0.076963715 0)
(1.1752052 0.076135413 0)
(1.1437581 0.075296826 0)
(1.1127463 0.074448787 0)
(1.0821809 0.073592125 0)
(1.0520723 0.072727663 0)
(1.0224304 0.071856215 0)
(0.99326435 0.070978578 0)
(0.96458247 0.07009553 0)
(0.9363925 0.069207829 0)
(0.90870139 0.068316207 0)
(0.88151536 0.06742137 0)
(0.85483991 0.066523996 0)
(0.82867981 0.06562473 0)
(0.8030391 0.064724186 0)
(0.77792113 0.063822945 0)
(0.75332857 0.062921555 0)
(0.72926343 0.062020528 0)
(0.70572707 0.061120344 0)
(0.68272025 0.060221445 0)
(0.66024315 0.059324237 0)
(0.63829538 0.058429084 0)
(0.61687602 0.057536312 0)
(0.59598362 0.056646196 0)
(0.57561624 0.05575896 0)
(0.55577143 0.054874778 0)
(0.53644624 0.053993767 0)
(0.51763724 0.053116005 0)
(0.49934055 0.052241542 0)
(0.48155185 0.051370428 0)
(0.46426651 0.050502739 0)
(0.4474797 0.049638609 0)
(0.43118665 0.04877829 0)
(0.41538288 0.047922259 0)
(0.40006448 0.047071371 0)
(0.38522825 0.046227102 0)
(0.37087167 0.045391668 0)
(0.356992 0.044567541 0)
(0.34358316 0.043753429 0)
(0.33062256 0.042933638 0)
(1.7614501 0.098595398 0)
(1.7247487 0.097960077 0)
(1.6882415 0.097301703 0)
(1.6519446 0.096621515 0)
(1.6158782 0.095919314 0)
(1.5800545 0.095195434 0)
(1.5444862 0.094450511 0)
(1.5091871 0.093685223 0)
(1.4741713 0.092900262 0)
(1.4394537 0.092096335 0)
(1.405049 0.091274167 0)
(1.370972 0.090434505 0)
(1.3372374 0.089578132 0)
(1.3038595 0.088705861 0)
(1.2708524 0.08781854 0)
(1.2382298 0.086917046 0)
(1.2060049 0.086002278 0)
(1.1741906 0.085075153 0)
(1.1427991 0.084136598 0)
(1.1118421 0.083187543 0)
(1.0813307 0.082228916 0)
(1.0512753 0.081261638 0)
(1.0216858 0.080286615 0)
(0.99257134 0.079304738 0)
(0.96394025 0.078316877 0)
(0.93580024 0.077323877 0)
(0.90815827 0.076326554 0)
(0.88102055 0.075325695 0)
(0.85439258 0.074322055 0)
(0.82827913 0.073316354 0)
(0.80268423 0.072309275 0)
(0.77761124 0.071301466 0)
(0.75306283 0.070293535 0)
(0.72904101 0.069286053 0)
(0.70554713 0.068279552 0)
(0.68258198 0.067274522 0)
(0.66014572 0.066271412 0)
(0.63823796 0.065270628 0)
(0.61685779 0.064272522 0)
(0.59600374 0.063277394 0)
(0.57567386 0.062285486 0)
(0.5558657 0.061296972 0)
(0.53657628 0.060311967 0)
(0.51780216 0.059330536 0)
(0.49953944 0.05835272 0)
(0.48178379 0.057378569 0)
(0.46453059 0.056408196 0)
(0.44777506 0.055441831 0)
(0.4315125 0.054479907 0)
(0.41573858 0.053523198 0)
(0.40044967 0.052572963 0)
(0.3856429 0.051631158 0)
(0.3713159 0.050699977 0)
(0.35746509 0.049780546 0)
(0.34407951 0.048867273 0)
(0.33113066 0.047930946 0)
(1.7590796 0.10925271 0)
(1.7224564 0.10854738 0)
(1.6860265 0.10781656 0)
(1.6498058 0.10706154 0)
(1.6138148 0.10628217 0)
(1.5780656 0.10547877 0)
(1.5425711 0.10465202 0)
(1.5073448 0.10380266 0)
(1.4724011 0.10293147 0)
(1.4377546 0.10203925 0)
(1.4034202 0.10112682 0)
(1.3694126 0.10019503 0)
(1.3357466 0.099244741 0)
(1.3024364 0.098276872 0)
(1.2694961 0.097292368 0)
(1.2369395 0.096292202 0)
(1.2047797 0.095277375 0)
(1.1730297 0.094248905 0)
(1.1417015 0.093207819 0)
(1.110807 0.092155148 0)
(1.0803571 0.091091922 0)
(1.0503625 0.090019159 0)
(1.0208328 0.088937865 0)
(0.9917771 0.087849027 0)
(0.96320392 0.086753606 0)
(0.93512087 0.085652539 0)
(0.90753493 0.084546729 0)
(0.88045229 0.083437046 0)
(0.85387845 0.082324326 0)
(0.82781817 0.081209364 0)
(0.80227549 0.080092916 0)
(0.77725377 0.078975697 0)
(0.75275567 0.077858379 0)
(0.7287832 0.076741593 0)
(0.70533775 0.075625924 0)
(0.68242006 0.074511915 0)
(0.66003031 0.073400057 0)
(0.63816813 0.072290795 0)
(0.61683257 0.071184514 0)
(0.59602219 0.070081539 0)
(0.575735 0.068982123 0)
(0.55596853 0.06788645 0)
(0.53671979 0.066794632 0)
(0.51798533 0.065706731 0)
(0.49976123 0.064622784 0)
(0.48204318 0.063542861 0)
(0.46482657 0.062467128 0)
(0.4481067 0.061395928 0)
(0.43187899 0.060329888 0)
(0.41613934 0.05927007 0)
(0.40088442 0.058218134 0)
(0.38611159 0.057176469 0)
(0.37181821 0.056147057 0)
(0.35799858 0.055128568 0)
(0.34463384 0.054106998 0)
(1.7563947 0.12018241 0)
(1.7198599 0.11940561 0)
(1.6835173 0.11860079 0)
(1.6473828 0.11776929 0)
(1.6114769 0.116911 0)
(1.575812 0.11602626 0)
(1.5404007 0.11511577 0)
(1.5052567 0.11418038 0)
(1.4703943 0.11322092 0)
(1.4358282 0.11223831 0)
(1.4015731 0.11123344 0)
(1.367644 0.11020727 0)
(1.3340553 0.10916076 0)
(1.3008215 0.10809493 0)
(1.2679568 0.10701083 0)
(1.2354746 0.10590953 0)
(1.2033884 0.10479214 0)
(1.1717109 0.10365977 0)
(1.1404542 0.10251356 0)
(1.1096302 0.10135464 0)
(1.0792499 0.10018415 0)
(1.0493237 0.099003207 0)
(1.0198614 0.097812917 0)
(0.99087213 0.096614367 0)
(0.96236427 0.095408614 0)
(0.93434549 0.094196688 0)
(0.90682275 0.092979581 0)
(0.87980223 0.091758251 0)
(0.85328944 0.090533615 0)
(0.82728912 0.089306548 0)
(0.80180533 0.088077879 0)
(0.77684141 0.086848394 0)
(0.75240003 0.085618832 0)
(0.72848321 0.084389883 0)
(0.70509231 0.08316219 0)
(0.68222811 0.081936346 0)
(0.65989078 0.08071289 0)
(0.63807993 0.079492304 0)
(0.61679463 0.078275007 0)
(0.59603341 0.077061348 0)
(0.57579427 0.075851596 0)
(0.55607471 0.074645945 0)
(0.53687175 0.07344451 0)
(0.51818189 0.072247354 0)
(0.50000123 0.071054528 0)
(0.48232547 0.069866137 0)
(0.46515006 0.068682423 0)
(0.4484704 0.067503852 0)
(0.43228208 0.066331246 0)
(0.41658126 0.065165942 0)
(0.40136499 0.064009947 0)
(0.38663071 0.062865963 0)
(0.37237474 0.061735549 0)
(0.35858678 0.060612445 0)
(0.34524133 0.059471005 0)
(1.7533757 0.13138793 0)
(1.7169399 0.13053821 0)
(1.6806951 0.12965783 0)
(1.6446574 0.12874819 0)
(1.6088469 0.12780924 0)
(1.5732763 0.12684132 0)
(1.5379582 0.12584522 0)
(1.5029064 0.1248218 0)
(1.4681351 0.12377203 0)
(1.433659 0.12269689 0)
(1.3994929 0.12159739 0)
(1.3656515 0.12047458 0)
(1.3321496 0.11932954 0)
(1.2990014 0.11816337 0)
(1.2662211 0.11697724 0)
(1.2338224 0.11577232 0)
(1.2018185 0.11454982 0)
(1.1702221 0.11331097 0)
(1.1390455 0.11205701 0)
(1.1083004 0.11078919 0)
(1.0779979 0.10950874 0)
(1.0481483 0.1082169 0)
(1.0187614 0.10691486 0)
(0.9898464 0.10560382 0)
(0.96141162 0.10428494 0)
(0.93346472 0.10295933 0)
(0.90601264 0.1016281 0)
(0.87906158 0.10029227 0)
(0.85261704 0.098952863 0)
(0.82668375 0.097610824 0)
(0.80126577 0.096267063 0)
(0.77636644 0.094922438 0)
(0.75198844 0.093577755 0)
(0.72813378 0.092233769 0)
(0.70480384 0.09089118 0)
(0.68199938 0.089550634 0)
(0.65972058 0.088212716 0)
(0.63796705 0.08687795 0)
(0.61673784 0.085546786 0)
(0.59603147 0.084219601 0)
(0.57584594 0.082896682 0)
(0.55617871 0.081578232 0)
(0.53702678 0.080264377 0)
(0.51838665 0.078955193 0)
(0.50025441 0.077650758 0)
(0.48262581 0.07635123 0)
(0.46549639 0.075056945 0)
(0.44886166 0.073768511 0)
(0.43271745 0.072486927 0)
(0.41706022 0.071213756 0)
(0.40188738 0.069951251 0)
(0.3871963 0.068702266 0)
(0.37298066 0.06746755 0)
(0.35922267 0.066231435 0)
(1.7500019 0.14287254 0)
(1.7136763 0.14194846 0)
(1.6775406 0.14099098 0)
(1.6416104 0.14000157 0)
(1.6059062 0.13898021 0)
(1.5704406 0.13792731 0)
(1.5352263 0.13684368 0)
(1.5002771 0.13573027 0)
(1.4656071 0.13458813 0)
(1.4312311 0.13341833 0)
(1.3971639 0.132222 0)
(1.3634202 0.13100029 0)
(1.3300147 0.12975437 0)
(1.2969617 0.12848547 0)
(1.2642754 0.12719485 0)
(1.2319694 0.1258838 0)
(1.2000569 0.12455365 0)
(1.1685508 0.12320572 0)
(1.1374632 0.12184138 0)
(1.1068057 0.12046197 0)
(1.0765896 0.11906886 0)
(1.0468251 0.11766336 0)
(1.017522 0.1162468 0)
(0.98868945 0.11482048 0)
(0.9603358 0.11338564 0)
(0.93246869 0.11194352 0)
(0.90509506 0.1104953 0)
(0.8782211 0.10904211 0)
(0.85185229 0.10758505 0)
(0.82599338 0.10612516 0)
(0.80064842 0.10466341 0)
(0.77582075 0.10320075 0)
(0.75151305 0.10173806 0)
(0.72772733 0.10027614 0)
(0.70446497 0.098815767 0)
(0.68172674 0.097357635 0)
(0.65951281 0.095902378 0)
(0.63782279 0.094450561 0)
(0.61665573 0.09300267 0)
(0.59601012 0.091559105 0)
(0.57588394 0.090120177 0)
(0.55627465 0.088686104 0)
(0.5371792 0.087257028 0)
(0.5185941 0.085833048 0)
(0.50051546 0.084414288 0)
(0.4829391 0.08300098 0)
(0.46586064 0.081593576 0)
(0.44927578 0.080192831 0)
(0.43318056 0.078799889 0)
(0.41757178 0.077416443 0)
(0.40244723 0.076044814 0)
(0.38780392 0.074687683 0)
(0.37362992 0.073343997 0)
(0.35990052 0.071984542 0)
(1.7462518 0.15463921 0)
(1.7100483 0.15363938 0)
(1.6740332 0.1526033 0)
(1.6382223 0.15153249 0)
(1.6026356 0.15042701 0)
(1.5672862 0.14928732 0)
(1.5321867 0.14811428 0)
(1.4973509 0.14690892 0)
(1.4627931 0.14567236 0)
(1.4285278 0.14440579 0)
(1.3945699 0.14311043 0)
(1.3609342 0.14178753 0)
(1.3276352 0.1404384 0)
(1.2946875 0.13906437 0)
(1.262105 0.13766681 0)
(1.2299015 0.13624713 0)
(1.1980901 0.13480675 0)
(1.1666836 0.13334714 0)
(1.1356943 0.13186977 0)
(1.1051337 0.13037609 0)
(1.0750129 0.12886757 0)
(1.0453424 0.12734567 0)
(1.0161318 0.1258118 0)
(0.98739026 0.12426738 0)
(0.95912614 0.12271376 0)
(0.93134708 0.12115227 0)
(0.90405999 0.11958419 0)
(0.87727108 0.11801076 0)
(0.8509858 0.11643315 0)
(0.82520891 0.1148525 0)
(0.79994445 0.11326986 0)
(0.77519578 0.11168626 0)
(0.75096556 0.11010264 0)
(0.72725581 0.10851989 0)
(0.70406791 0.10693883 0)
(0.68140264 0.10536021 0)
(0.65926017 0.10378473 0)
(0.63764009 0.10221297 0)
(0.61654144 0.10064548 0)
(0.59596271 0.099082673 0)
(0.57590184 0.097524886 0)
(0.55635628 0.095972358 0)
(0.53732296 0.094425257 0)
(0.51879839 0.092883721 0)
(0.50077873 0.091347931 0)
(0.48325987 0.089818219 0)
(0.46623757 0.088295172 0)
(0.4497077 0.086779703 0)
(0.43366653 0.085273039 0)
(0.41811117 0.083776869 0)
(0.40303969 0.082293256 0)
(0.38844814 0.080824003 0)
(0.37431528 0.079363902 0)
(1.7421031 0.16669078 0)
(1.7060341 0.16561386 0)
(1.6701519 0.1644977 0)
(1.6344722 0.16334392 0)
(1.5990151 0.16215265 0)
(1.5637935 0.1609244 0)
(1.5288204 0.15966009 0)
(1.4941095 0.15836082 0)
(1.459675 0.15702783 0)
(1.4255316 0.15566237 0)
(1.391694 0.15426579 0)
(1.358177 0.15283947 0)
(1.3249953 0.1513848 0)
(1.2921633 0.14990324 0)
(1.259695 0.14839628 0)
(1.2276041 0.14686545 0)
(1.1959038 0.1453123 0)
(1.1646069 0.14373839 0)
(1.1337255 0.14214532 0)
(1.1032713 0.14053467 0)
(1.0732553 0.13890803 0)
(1.0436879 0.13726695 0)
(1.0145789 0.13561298 0)
(0.98593733 0.13394763 0)
(0.9577715 0.13227238 0)
(0.93008906 0.13058865 0)
(0.90289695 0.12889783 0)
(0.87620134 0.12720125 0)
(0.85000769 0.12550019 0)
(0.82432076 0.12379586 0)
(0.79914459 0.12208942 0)
(0.77448253 0.12038195 0)
(0.75033725 0.11867448 0)
(0.72671077 0.11696797 0)
(0.70360448 0.1152633 0)
(0.68101914 0.11356128 0)
(0.65895494 0.11186265 0)
(0.63741146 0.11016807 0)
(0.61638772 0.10847807 0)
(0.59588219 0.10679314 0)
(0.5758928 0.10511363 0)
(0.55641696 0.10343981 0)
(0.53745162 0.10177187 0)
(0.51899329 0.10011001 0)
(0.50103819 0.098454492 0)
(0.48358231 0.096805763 0)
(0.46662159 0.095164577 0)
(0.45015202 0.093532004 0)
(0.4341701 0.09190931 0)
(0.41867313 0.090297925 0)
(0.40365917 0.088699149 0)
(0.38912198 0.087112111 0)
(0.37503023 0.085526389 0)
(1.7375325 0.17902977 0)
(1.7016111 0.17787448 0)
(1.6658747 0.17667685 0)
(1.6303389 0.17543857 0)
(1.5950238 0.17415988 0)
(1.5599424 0.17284134 0)
(1.5251078 0.17148394 0)
(1.4905337 0.17008887 0)
(1.4562343 0.16865744 0)
(1.4222243 0.16719102 0)
(1.3885185 0.16569107 0)
(1.3551316 0.16415907 0)
(1.3220783 0.16259656 0)
(1.289373 0.1610051 0)
(1.2570297 0.1593863 0)
(1.225062 0.15774183 0)
(1.1934833 0.15607334 0)
(1.1623062 0.15438253 0)
(1.1315429 0.15267112 0)
(1.101205 0.15094081 0)
(1.0713036 0.1491933 0)
(1.041849 0.14743028 0)
(1.012851 0.1456534 0)
(0.98431863 0.1438643 0)
(0.95626018 0.14206456 0)
(0.92868332 0.14025572 0)
(0.90159493 0.13843927 0)
(0.87500122 0.13661664 0)
(0.84890763 0.13478921 0)
(0.82331891 0.13295827 0)
(0.7982391 0.13112508 0)
(0.77367155 0.12929081 0)
(0.74961895 0.12745655 0)
(0.72608331 0.12562333 0)
(0.70306603 0.12379211 0)
(0.68056786 0.12196376 0)
(0.65858899 0.12013906 0)
(0.63712899 0.11831871 0)
(0.61618688 0.11650331 0)
(0.5957611 0.11469335 0)
(0.57584957 0.11288923 0)
(0.55644968 0.11109125 0)
(0.53755836 0.10929966 0)
(0.51917218 0.10751471 0)
(0.50128743 0.10573675 0)
(0.48390025 0.1039664 0)
(0.46700674 0.10220458 0)
(0.45060304 0.10045257 0)
(0.43468569 0.098711595 0)
(0.41925196 0.096982572 0)
(0.40429901 0.095265359 0)
(0.3898173 0.093554509 0)
(1.7325162 0.19165845 0)
(1.6967559 0.19042367 0)
(1.6611787 0.18914323 0)
(1.6258001 0.187819 0)
(1.5906401 0.18645131 0)
(1.5557118 0.18504082 0)
(1.5210284 0.18358857 0)
(1.4866036 0.18209583 0)
(1.4524517 0.18056401 0)
(1.4185873 0.17899459 0)
(1.3850252 0.17738915 0)
(1.3517801 0.17574927 0)
(1.3188668 0.17407663 0)
(1.2862996 0.17237292 0)
(1.2540926 0.17063988 0)
(1.2222593 0.16887927 0)
(1.190813 0.16709291 0)
(1.1597665 0.16528261 0)
(1.1291318 0.16345022 0)
(1.0989207 0.16159756 0)
(1.0691441 0.15972646 0)
(1.0398123 0.15783873 0)
(1.0109351 0.15593615 0)
(0.9825216 0.15402047 0)
(0.95458002 0.15209339 0)
(0.92711801 0.15015656 0)
(0.90014247 0.14821158 0)
(0.87365957 0.14625998 0)
(0.84767478 0.14430324 0)
(0.82219283 0.14234276 0)
(0.79721777 0.14037988 0)
(0.77275295 0.13841584 0)
(0.74880106 0.13645183 0)
(0.7253641 0.13448895 0)
(0.70244349 0.13252822 0)
(0.68003998 0.13057057 0)
(0.65815375 0.12861685 0)
(0.63678437 0.12666779 0)
(0.61593084 0.12472405 0)
(0.59559159 0.12278615 0)
(0.5757645 0.12085451 0)
(0.55644698 0.1189295 0)
(0.53763595 0.11701141 0)
(0.51932805 0.11510058 0)
(0.50151967 0.11319748 0)
(0.48420712 0.11130287 0)
(0.46738672 0.10941793 0)
(0.45105467 0.10754417 0)
(0.43520738 0.10568276 0)
(0.41984162 0.10383377 0)
(0.40495249 0.10199568 0)
(0.39052747 0.10016104 0)
(1.7270294 0.20457876 0)
(1.6914445 0.2032635 0)
(1.6560405 0.20189904 0)
(1.620833 0.20048748 0)
(1.5858417 0.19902931 0)
(1.55108 0.19752527 0)
(1.5165611 0.19597646 0)
(1.4822986 0.19438426 0)
(1.448307 0.19275016 0)
(1.4146009 0.19107576 0)
(1.381195 0.18936274 0)
(1.3481042 0.18761284 0)
(1.315343 0.18582783 0)
(1.2829259 0.18400956 0)
(1.2508668 0.18215988 0)
(1.2191795 0.1802807 0)
(1.1878771 0.17837395 0)
(1.1569723 0.1764416 0)
(1.1264773 0.1744856 0)
(1.0964037 0.17250793 0)
(1.0667624 0.17051053 0)
(1.0375639 0.16849534 0)
(1.0088178 0.16646428 0)
(0.98053317 0.16441919 0)
(0.95271829 0.16236192 0)
(0.92538079 0.16029422 0)
(0.89852756 0.1582178 0)
(0.87216475 0.15613432 0)
(0.84629784 0.15404534 0)
(0.82093155 0.15195236 0)
(0.79606994 0.14985681 0)
(0.77171635 0.14776004 0)
(0.74787348 0.14566331 0)
(0.72454334 0.14356779 0)
(0.70172734 0.14147457 0)
(0.67942625 0.13938465 0)
(0.65764022 0.13729893 0)
(0.63636883 0.1352182 0)
(0.61561107 0.13314315 0)
(0.59536534 0.13107435 0)
(0.57562953 0.12901229 0)
(0.55640101 0.12695735 0)
(0.53767677 0.1249099 0)
(0.51945348 0.12287038 0)
(0.50172771 0.12083938 0)
(0.48449599 0.11881786 0)
(0.46775486 0.11680726 0)
(0.45150054 0.11480943 0)
(0.43572894 0.11282548 0)
(0.42043609 0.11085403 0)
(0.40561552 0.1088926 0)
(0.39125094 0.10693702 0)
(1.7210464 0.21779234 0)
(1.6856519 0.21639584 0)
(1.6504358 0.21494622 0)
(1.6154139 0.21344607 0)
(1.5806057 0.21189602 0)
(1.5460246 0.21029691 0)
(1.5116839 0.20864994 0)
(1.4775975 0.20695655 0)
(1.4437796 0.20521834 0)
(1.410245 0.20343704 0)
(1.3770084 0.20161444 0)
(1.3440846 0.19975241 0)
(1.3114883 0.19785285 0)
(1.2792337 0.19591775 0)
(1.2473349 0.19394909 0)
(1.2158055 0.19194893 0)
(1.1846588 0.18991933 0)
(1.1539074 0.18786239 0)
(1.1235635 0.1857802 0)
(1.0936387 0.18367487 0)
(1.0641439 0.18154848 0)
(1.0350894 0.1794031 0)
(1.006485 0.17724077 0)
(0.97833973 0.17506347 0)
(0.9506618 0.17287316 0)
(0.92345883 0.17067172 0)
(0.89673773 0.16846097 0)
(0.87050464 0.16624267 0)
(0.84476502 0.16401851 0)
(0.81952361 0.16179008 0)
(0.79478446 0.1595589 0)
(0.77055092 0.15732642 0)
(0.74682568 0.15509397 0)
(0.72361078 0.15286281 0)
(0.70090762 0.15063411 0)
(0.67871695 0.14840892 0)
(0.65703895 0.1461882 0)
(0.63587318 0.1439728 0)
(0.61521861 0.14176346 0)
(0.59507364 0.1395608 0)
(0.57543615 0.13736534 0)
(0.55630351 0.13517755 0)
(0.53767275 0.13299787 0)
(0.51954065 0.13082681 0)
(0.50190396 0.12866512 0)
(0.48475948 0.12651395 0)
(0.46810408 0.12437505 0)
(0.45193388 0.12225068 0)
(0.43624368 0.12014202 0)
(0.42102848 0.11804471 0)
(0.40628197 0.11595378 0)
(0.39198208 0.11387018 0)
(1.7145411 0.23130041 0)
(1.6793526 0.22982218 0)
(1.6443396 0.22828642 0)
(1.6095184 0.2266965 0)
(1.5749081 0.22505328 0)
(1.5405224 0.2233577 0)
(1.5063744 0.22161104 0)
(1.4724783 0.21981483 0)
(1.4388482 0.21797079 0)
(1.4054989 0.21608074 0)
(1.3724452 0.21414663 0)
(1.3397019 0.21217043 0)