/*--------------------------------*- C++ -*----------------------------------*\
| =========                 |                                                 |
| \\      /  F ield         | OpenFOAM: The Open Source CFD Toolbox           |
|  \\    /   O peration     | Version:  2312                                  |
|   \\  /    A nd           | Website:  www.openfoam.com                      |
|    \\/     M anipulation  |                                                 |
\*---------------------------------------------------------------------------*/
FoamFile
{
    version     2.0;
    format      ascii;
    arch        "LSB;label=32;scalar=64";
    class       volScalarField;
    location    "0.1";
    object      CH4;
}
// * * * * * * * * * * * * * * * * * * * * * * * * * * * * * * * * * * * * * //

dimensions      [0 0 0 0 0 0 0];

internalField   nonuniform List<scalar> 
3257
(
0.015173581
0.014824542
0.014482611
0.01414775
0.01381994
0.013499182
0.013185482
0.012878849
0.012579285
0.012286793
0.012001369
0.011723012
0.011451714
0.011187469
0.010930267
0.010680099
0.010436953
0.010200816
0.0099716777
0.0097495239
0.0095343421
0.0093261194
0.0091248432
0.0089305014
0.0087430825
0.0085625755
0.0083889703
0.0082222578
0.00806243
0.0079094797
0.0077634014
0.0076241904
0.007491844
0.0073663603
0.0072477395
0.0071359831
0.0070310945
0.0069330787
0.0068419425
0.0067576949
0.0066803468
0.006609911
0.0065464028
0.0064898397
0.0064402418
0.0063976318
0.0063620352
0.0063334808
0.0063120009
0.0062976332
0.0062904226
0.015203933
0.014853786
0.01451076
0.01417483
0.013845983
0.013524223
0.013209558
0.012901996
0.01260154
0.012308189
0.012021943
0.011742795
0.011470739
0.011205768
0.01094787
0.010697035
0.010453251
0.010216505
0.0099867829
0.0097640717
0.0095483575
0.0093396269
0.0091378664
0.0089430632
0.0087552049
0.0085742802
0.0084002781
0.0082331889
0.0080730041
0.007919716
0.0077733184
0.0076338063
0.0075011764
0.0073754265
0.0072565563
0.007144567
0.0070394615
0.0069412446
0.0068499229
0.0067655049
0.0066880012
0.0066174246
0.0065537901
0.006497115
0.006447419
0.0064047244
0.006369056
0.0063404411
0.0063189095
0.0063044958
0.0062972534
0.015261126
0.014908795
0.014563665
0.014225708
0.013894905
0.013571262
0.013254785
0.012945479
0.012643346
0.012348385
0.012060592
0.01177996
0.01150648
0.011240143
0.010980937
0.010728849
0.010483865
0.01024597
0.01001515
0.0097913893
0.0095746728
0.0093649853
0.0091623122
0.0089666393
0.0087779529
0.0085962403
0.0084214896
0.0082536898
0.0080928314
0.0079389056
0.0077919054
0.0076518249
0.0075186597
0.007392407
0.0072730657
0.0071606363
0.0070551211
0.0069565243
0.0068648518
0.0067801118
0.0067023143
0.0066314718
0.0065675988
0.0065107122
0.0064608315
0.0064179787
0.0063821783
0.0063534574
0.0063318449
0.0063173742
0.0063101006
0.015341844
0.014986423
0.014638321
0.014297501
0.013963944
0.013637648
0.013318618
0.013006857
0.012702364
0.012405135
0.012115164
0.011832441
0.011556956
0.011288695
0.011027645
0.01077379
0.010527114
0.0102876
0.010055231
0.0098299893
0.009611858
0.0094008199
0.0091968583
0.0089999571
0.008810101
0.0086272754
0.0084514668
0.0082826628
0.0081208522
0.007966025
0.0078181727
0.0076772882
0.007543366
0.0074164021
0.0072963944
0.0071833424
0.0070772475
0.0069781131
0.0068859443
0.0068007486
0.0067225355
0.0066513166
0.0065871062
0.0065299207
0.0064797791
0.0064367032
0.0064007172
0.0063718479
0.0063501243
0.006335579
0.0063282673
0.015442929
0.015083648
0.014731831
0.014387434
0.014050433
0.013720822
0.013398603
0.013083774
0.012776332
0.01247627
0.012183576
0.01189824
0.011620247
0.01134958
0.011086223
0.010830158
0.010581364
0.010339823
0.010105515
0.0098784195
0.0096585165
0.0094457866
0.0092402108
0.0090417706
0.0088504485
0.0086662278
0.0084890931
0.00831903
0.0081560254
0.0080000676
0.0078511465
0.0077092535
0.0075743814
0.0074465252
0.0073256812
0.0072118479
0.0071050255
0.0070052163
0.0069124246
0.006826657
0.0067479222
0.0066762311
0.0066115973
0.0065540367
0.006503568
0.0064602123
0.0064239937
0.0063949388
0.006373076
0.0063584377
0.006351079
0.015561394
0.015197604
0.014841445
0.014492866
0.014151838
0.01381835
0.013492401
0.013173985
0.012863093
0.012559715
0.012263837
0.011975442
0.011694513
0.01142103
0.011154972
0.010896318
0.010645045
0.01040113
0.01016455
0.0099352813
0.0097133017
0.0094985886
0.0092911202
0.0090908753
0.0088978339
0.0087119769
0.0085332865
0.008361746
0.0081973403
0.0080400558
0.0078898803
0.0077468034
0.0076108164
0.0074819125
0.0073600867
0.007245336
0.0071376594
0.0070370579
0.0069435348
0.0068570956
0.0067777481
0.0067055026
0.0066403717
0.0065823709
0.006531518
0.0064878341
0.0064513426
0.0064220699
0.006400044
0.0063852966
0.0063778831
0.015694449
0.015325609
0.014964585
0.014611321
0.014265779
0.013927946
0.013597816
0.013275377
0.012960617
0.012653521
0.01235407
0.012062244
0.011778021
0.011501378
0.011232289
0.01097073
0.010716672
0.010470091
0.01023096
0.0099992508
0.0097749385
0.0095579973
0.0093484022
0.0091461293
0.0089511555
0.0087634591
0.0085830197
0.0084098181
0.008243837
0.0080850604
0.0079334741
0.0077890657
0.0076518245
0.0075217421
0.0073988118
0.007283029
0.0071743912
0.0070728983
0.0069785522
0.0068913574
0.0068113207
0.0067384514
0.0066727613
0.0066142651
0.0065629803
0.0065189271
0.0064821288
0.0064526111
0.0064304018
0.006415532
0.0064080568
0.015839506
0.015465175
0.015098861
0.014740498
0.014390045
0.014047484
0.013712802
0.013385984
0.013067013
0.012755868
0.012452527
0.012156965
0.011869154
0.011589068
0.011316676
0.01105195
0.010794859
0.010545372
0.010303459
0.010069089
0.0098422331
0.009622862
0.0094109473
0.009206462
0.00900938
0.0088196767
0.0086373288
0.0084623146
0.0082946141
0.0081342089
0.0079810825
0.0078352205
0.0076966102
0.0075652412
0.0074411049
0.0073241951
0.0072145079
0.0071120417
0.007016797
0.0069287772
0.0068479878
0.0067744373
0.0067081367
0.0066490998
0.0065973433
0.0065528871
0.0065157537
0.0064859687
0.0064635593
0.006448556
0.0064410137
0.015994186
0.015614013
0.015242068
0.014878279
0.014522598
0.014175002
0.013835474
0.013503993
0.013180536
0.012865079
0.012557593
0.012258049
0.011966415
0.011682659
0.011406748
0.011138646
0.01087832
0.010625735
0.010380855
0.010143648
0.0099140786
0.0096921153
0.009477726
0.0092708802
0.0090715486
0.0088797035
0.0086953187
0.0085183697
0.0083488337
0.0081866899
0.0080319195
0.0078845056
0.0077444334
0.0076116905
0.0074862665
0.0073681534
0.0072573456
0.0071538399
0.0070576357
0.0069687348
0.0068871419
0.006812864
0.0067459115
0.0066862972
0.0066340372
0.0065891507
0.0065516598
0.0065215895
0.0064989666
0.0064838208
0.0064762071
0.016156319
0.015770034
0.015392197
0.015022729
0.014661576
0.014308709
0.013964107
0.013627743
0.013299589
0.012979615
0.012667788
0.012364073
0.012068434
0.011780833
0.011501233
0.011229594
0.010965877
0.010710044
0.010462055
0.010221872
0.0099894581
0.0097647766
0.009547792
0.0093384704
0.0091367791
0.0089426873
0.0087561656
0.0085771866
0.0084057249
0.0082417569
0.0080852612
0.0079362187
0.0077946124
0.0076604276
0.0075336522
0.0074142761
0.0073022922
0.0071976957
0.0071004844
0.0070106589
0.0069282225
0.0068531814
0.0067855448
0.0067253246
0.0066725364
0.0066271984
0.0065893324
0.0065589628
0.0065361161
0.006520821
0.0065131323
0.016323938
0.015931344
0.015547425
0.015172092
0.014805288
0.014446979
0.014097136
0.013755727
0.013422721
0.01309808
0.012781767
0.012473742
0.012173964
0.011882389
0.011598976
0.01132368
0.011056458
0.010797266
0.010546062
0.010302802
0.010067446
0.0098399525
0.0096202833
0.0094084004
0.0092042679
0.0090078514
0.0088191186
0.0086380391
0.0084645844
0.0082987285
0.0081404473
0.0079897192
0.007846525
0.0077108479
0.0075826735
0.0074619903
0.007348789
0.0072430634
0.0071448097
0.0070540272
0.0069707179
0.0068948869
0.0068265422
0.0067656952
0.0067123602
0.0066665552
0.0066283012
0.0065976221
0.0065745438
0.0065590945
0.0065513284
0.016495276
0.016096242
0.015706112
0.015324792
0.014952217
0.014588348
0.014233151
0.01388659
0.013548626
0.013219217
0.012898321
0.012585891
0.012281882
0.011986246
0.011698935
0.011419901
0.011149095
0.010886469
0.010631977
0.010385571
0.010147205
0.0099168366
0.0096944214
0.0094799186
0.0092732887
0.009074494
0.0088834991
0.0087002703
0.0085247766
0.0083569888
0.0081968805
0.0080444276
0.0078996085
0.0077624041
0.0076327983
0.0075107773
0.0073963303
0.0072894492
0.0071901289
0.0070983671
0.0070141646
0.0069375254
0.0068684564
0.006806968
0.0067530739
0.0067067912
0.0066681403
0.0066371448
0.0066138299
0.006598223
0.0065903779
0.016668757
0.01626321
0.015866797
0.015479418
0.015101004
0.01473151
0.014370895
0.014019119
0.013676137
0.013341902
0.013016366
0.012699477
0.012391185
0.012091436
0.011800178
0.011517358
0.011242923
0.010976819
0.010718996
0.010469403
0.010227989
0.0099947068
0.0097695094
0.0095523519
0.0093431913
0.0091419866
0.0089486991
0.0087632922
0.0085857318
0.008415986
0.0082540258
0.0080998246
0.0079533585
0.0078146062
0.0076835493
0.0075601724
0.0074444627
0.0073364105
0.0072360091
0.0071432548
0.0070581472
0.0069806889
0.006910886
0.0068487478
0.0067942872
0.0067475206
0.0067084678
0.0066771519
0.0066535976
0.0066378312
0.0066299062
0.016842987
0.016430903
0.016028184
0.015634724
0.015250448
0.014875307
0.014509253
0.014152241
0.013804221
0.013465139
0.013134943
0.012813576
0.012500981
0.012197102
0.011901879
0.011615256
0.011337174
0.011067576
0.010806406
0.01055361
0.010309133
0.010072922
0.0098449286
0.0096251028
0.0094133984
0.0092097712
0.0090141791
0.0088265825
0.0086469443
0.0084752301
0.0083114081
0.0081554491
0.008007327
0.0078670184
0.0077345027
0.0076097626
0.0074927834
0.0073835538
0.0072820656
0.0071883137
0.0071022963
0.0070240149
0.0069534743
0.0068906832
0.0068356534
0.0067884007
0.0067489443
0.0067173066
0.0066935119
0.0066775856
0.0066695805
0.017016742
0.016598142
0.016189137
0.015789615
0.015399496
0.015018723
0.014647247
0.014285014
0.013931968
0.013588054
0.01325321
0.012927376
0.01261049
0.012302489
0.012003311
0.011712893
0.011431173
0.011158089
0.01089358
0.010637587
0.010390052
0.01015092
0.0099201351
0.009697646
0.0094834026
0.0092773571
0.0090794643
0.0088896818
0.0087079694
0.00853429
0.0083686092
0.0082108954
0.0080611201
0.0079192577
0.0077852856
0.0076591845
0.0075409381
0.0074305332
0.0073279602
0.0072332125
0.007146287
0.0070671841
0.0069959076
0.0069324649
0.0068768673
0.0068291297
0.0067892708
0.0067573125
0.0067332782
0.0067171926
0.0067091079
0.017188958
0.016763901
0.016348668
0.015943139
0.015547228
0.015160875
0.014784024
0.014416616
0.01405859
0.013709884
0.013370433
0.01304017
0.012719029
0.012406943
0.012103843
0.011809662
0.011524334
0.011247791
0.01097997
0.010720807
0.01047024
0.010228209
0.0099946553
0.0097695241
0.0095527615
0.0093443168
0.0091441415
0.0089521901
0.0087684196
0.0085927903
0.0084252651
0.0082658101
0.0081143944
0.0079709903
0.0078355732
0.0077081218
0.007588618
0.0074770472
0.007373398
0.0072776625
0.0071898363
0.0071099186
0.0070379122
0.0069738236
0.0069176631
0.0068694449
0.0068291872
0.0067969112
0.0067726398
0.0067563966
0.006748233
0.017358717
0.016927299
0.016505926
0.016094475
0.015692856
0.015301002
0.014918851
0.014546341
0.014183404
0.013829974
0.01348598
0.01315135
0.012826014
0.012509898
0.012202929
0.011905037
0.01161615
0.011336196
0.011065108
0.010802817
0.010549258
0.010304366
0.010068081
0.0098403428
0.0096210945
0.0094102822
0.0092078545
0.0090137627
0.0088279612
0.0086504076
0.0084810623
0.0083198889
0.0081668543
0.0080219288
0.0078850857
0.0077563018
0.0076355574
0.0075228361
0.0074181251
0.0073214151
0.0072327005
0.0071519791
0.0070792529
0.0070145273
0.0069578118
0.00690912
0.0068684692
0.0068358803
0.0068113755
0.0067949772
0.0067867362
0.017525242
0.017087581
0.016660186
0.016242926
0.015835706
0.015438454
0.015051104
0.014673588
0.014305833
0.013947767
0.013599314
0.013260398
0.012930944
0.012610872
0.012300107
0.011998571
0.01170619
0.011422888
0.011148591
0.01088323
0.010626733
0.010379033
0.010140065
0.0099097667
0.0096880774
0.00947494
0.0092703001
0.0090741063
0.0088863102
0.0087068666
0.0085357337
0.0083728727
0.0082182483
0.0080718285
0.007933585
0.0078034926
0.0076815299
0.007567679
0.0074619255
0.0073642588
0.007274672
0.0071931619
0.0071197293
0.0070543787
0.0069971188
0.0069479624
0.0069069263
0.0068740307
0.0068492973
0.0068327471
0.0068244304
0.017687876
0.017244118
0.01681084
0.016387905
0.015975213
0.015572688
0.015180259
0.014797851
0.014425388
0.014062792
0.013709982
0.013366879
0.013033399
0.012709462
0.012394986
0.012089889
0.011794093
0.011507517
0.011230085
0.010961721
0.010702352
0.010451906
0.010210316
0.0099775141
0.009753438
0.0095380271
0.0093312241
0.0091329748
0.0089432282
0.0087619366
0.0085890556
0.0084245443
0.0082683652
0.0081204845
0.0079808716
0.0078494999
0.0077263461
0.0076113908
0.0075046183
0.0074060165
0.0073155773
0.0072332964
0.0071591735
0.0070932124
0.0070354208
0.0069858108
0.0069443986
0.0069112038
0.0068862474
0.0068695494
0.0068611589
0.017846077
0.017396387
0.016957383
0.016528926
0.01611091
0.015703254
0.015305881
0.014918712
0.014541667
0.014174662
0.013817612
0.013470432
0.013133034
0.012805334
0.012487245
0.012178681
0.011879559
0.011589796
0.01130931
0.011038023
0.010775857
0.010522737
0.010278592
0.010043352
0.0098169517
0.0095993265
0.0093904166
0.0091901652
0.0089985187
0.008815427
0.0086408433
0.0084747246
0.0083170313
0.0081677276
0.0080267811
0.0078941634
0.0077698497
0.007653819
0.0075460542
0.007446542
0.007355273
0.0072722419
0.0071974474
0.0071308922
0.0070725834
0.0070225324
0.0069807546
0.0069472691
0.0069220962
0.0069052548
0.0068967928
0.017999407
0.017543964
0.017099409
0.016665597
0.016242417
0.015829785
0.015427619
0.015035834
0.014654345
0.014283064
0.013921901
0.013570765
0.013229568
0.012898217
0.012576622
0.012264695
0.011962347
0.011669491
0.011386042
0.011111918
0.010847038
0.010591323
0.0103447
0.010107094
0.009878437
0.0096586626
0.0094477079
0.0092455134
0.0090520229
0.008867184
0.0086909478
0.008523269
0.0083641061
0.0082134214
0.0080711807
0.0079373539
0.0078119146
0.0076948405
0.0075861131
0.0074857177
0.0073936439
0.0073098852
0.0072344395
0.0071673085
0.0071084984
0.00705802
0.0070158881
0.0069821213
0.0069567391
0.0069397591
0.0069312281
0.018147517
0.017686514
0.017236593
0.016797605
0.016369436
0.015951995
0.015545195
0.015148948
0.014763163
0.014387748
0.014022609
0.01366765
0.013322778
0.012987897
0.012662913
0.012347733
0.012042265
0.011746418
0.011460104
0.011183236
0.010915731
0.010657506
0.010408485
0.01016859
0.0099377509
0.0097158975
0.0095029647
0.0092988903
0.009103616
0.0089170869
0.0087392521
0.0085700641
0.0084094796
0.0082574589
0.0081139663
0.00797897
0.0078524422
0.007734359
0.0076247007
0.0075234514
0.0074305996
0.0073461377
0.0072700626
0.0072023752
0.0071430811
0.00709219
0.0070497164
0.0070156782
0.0069900943
0.0069729808
0.0069643836
0.018290141
0.01782378
0.017368689
0.016924715
0.016491738
0.016069662
0.015658398
0.015257851
0.014867926
0.014488527
0.014119555
0.013760911
0.013412496
0.013074212
0.012745961
0.012427645
0.012119168
0.011820438
0.01153136
0.011251847
0.01098181
0.010721165
0.010469831
0.010227729
0.009994785
0.0097709266
0.0095560859
0.0093501985
0.0091532036
0.0089650443
0.0087856676
0.008615024
0.0084530684
0.0082997593
0.0081550595
0.0080189355
0.007891358
0.007772302
0.0076617462
0.0075596739
0.0074660722
0.0073809327
0.0073042512
0.007236028
0.0071762677
0.0071249795
0.0070821771
0.007047878
0.0070221003
0.0070048588
0.006996198
0.018427087
0.017955577
0.017495518
0.017046753
0.016609156
0.016182629
0.015767074
0.015362395
0.014968492
0.014585263
0.014212607
0.01385042
0.0134986
0.013157045
0.012825652
0.012504321
0.012192952
0.011891449
0.011599714
0.011317657
0.011045185
0.010782213
0.010528655
0.01028443
0.010049462
0.0098236749
0.0096069992
0.009399368
0.0092007183
0.0090109911
0.0088301313
0.0086580878
0.0084948135
0.0083402654
0.0081944045
0.0080571961
0.0079286093
0.0078086179
0.0076971994
0.0075943359
0.0075000135
0.0074142229
0.007336959
0.0072682211
0.0072080132
0.0071563439
0.0071132262
0.0070786769
0.0070527138
0.0070353497
0.0070266283
0.018558225
0.018081778
0.01761696
0.017163604
0.016721582
0.016290789
0.015871123
0.015462483
0.015064766
0.014677866
0.014301678
0.013936095
0.01358101
0.013236318
0.012901913
0.01257769
0.012263548
0.011959384
0.011665102
0.011380604
0.011105798
0.010840593
0.010584902
0.010338641
0.010101731
0.0098740938
0.0096556578
0.0094463537
0.0092461164
0.0090548851
0.0088726026
0.0086992162
0.0085346769
0.0083789402
0.0082319657
0.0080937171
0.0079641625
0.007843274
0.0077310284
0.0076274063
0.0075323932
0.0074459785
0.0073681565
0.0072989256
0.0072382892
0.007186255
0.0071428357
0.0071080474
0.0070819071
0.0070644263
0.0070556471
0.018683478
0.018202313
0.017732946
0.017275206
0.016828955
0.016394083
0.015970487
0.01555806
0.015156696
0.014766286
0.014386719
0.014017888
0.01365968
0.013311988
0.012974701
0.012647712
0.012330916
0.012024209
0.011727489
0.011440656
0.011163616
0.010896275
0.010638542
0.010390333
0.010151565
0.0099221573
0.0097020367
0.0094911317
0.0092893752
0.0090967044
0.0089130604
0.0087383888
0.008572639
0.008415765
0.0082677249
0.0081284811
0.0079980004
0.0078762539
0.0077632169
0.0076588695
0.0075631958
0.0074761846
0.0073978291
0.0073281273
0.0072670815
0.0072146991
0.0071709919
0.0071359757
0.0071096668
0.007092075
0.007083241
0.01880282
0.018317154
0.017843454
0.017381537
0.016931255
0.016492496
0.016065151
0.015649111
0.015244267
0.014850507
0.014467718
0.014095786
0.013734598
0.013384042
0.013044005
0.012714377
0.012395048
0.012085912
0.011786865
0.011497804
0.011218631
0.01094925
0.010689569
0.0104395
0.010198957
0.0099678596
0.0097461305
0.0095336969
0.0093304898
0.0091364446
0.0089515007
0.0087756019
0.0086086963
0.0084507365
0.0083016791
0.0081614852
0.0080301206
0.007907555
0.007793763
0.0076887234
0.0075924196
0.0075048394
0.0074259753
0.0073558244
0.0072943886
0.0072416745
0.0071976934
0.0071624605
0.0071359915
0.0071182944
0.0071094086
0.018916259
0.018426317
0.017948502
0.017482617
0.017028504
0.016586045
0.016155132
0.015735653
0.015327496
0.014930546
0.014544687
0.014169803
0.013805777
0.013452494
0.013109838
0.012777696
0.012455955
0.012144507
0.011843243
0.01155206
0.011270855
0.010999531
0.010737994
0.010486153
0.010243919
0.010011212
0.0097879502
0.0095740603
0.0093694711
0.0091741163
0.0089879338
0.0088108659
0.0086428593
0.0084838649
0.0083338384
0.0081927396
0.0080605329
0.0079371874
0.0078226763
0.0077169777
0.007620074
0.0075319522
0.0074526042
0.0073820263
0.0073202197
0.0072671903
0.0072229491
0.0071875107
0.00716089
0.0071430934
0.0071341587
0.019023844
0.018529858
0.018048149
0.017578501
0.017120751
0.016674779
0.016240476
0.015817728
0.015406423
0.015006442
0.014617666
0.014239977
0.013873255
0.01351738
0.013172235
0.012837704
0.012513671
0.012200024
0.011896654
0.011603453
0.011320317
0.011047147
0.010783845
0.010530318
0.010286478
0.010052239
0.009827521
0.0096122463
0.009406343
0.0092097431
0.009022383
0.0088442035
0.0086751499
0.008515172
0.0083642241
0.008222265
0.008089258
0.0079651711
0.0078499767
0.0077436519
0.0076461783
0.0075575423
0.0074777347
0.0074067515
0.0073445931
0.0072912649
0.0072467772
0.0072111442
0.0071843802
0.0071664898
0.0071575091
0.019125686
0.018627893
0.018142493
0.017669278
0.017208079
0.016758773
0.016321253
0.015895406
0.015481114
0.015078259
0.014686717
0.014306367
0.013937087
0.013578754
0.013231249
0.012894451
0.012568244
0.012252512
0.011947143
0.011652028
0.011367061
0.011092138
0.010827162
0.010572037
0.010326672
0.010090981
0.0098648798
0.0096482912
0.0094411408
0.0092433593
0.0090548817
0.0088756473
0.0087056002
0.0085446891
0.0083928669
0.0082500916
0.0081163253
0.0079915352
0.0078756927
0.007768774
0.0076707601
0.0075816365
0.0075013936
0.0074300264
0.0073675349
0.0073139239
0.0072692032
0.0072333865
0.0072064874
0.0071885087
0.0071794849
0.018720578
0.018231669
0.017755061
0.017290587
0.016838122
0.016397556
0.015968773
0.015551654
0.015146076
0.014751916
0.014369047
0.013997346
0.013636687
0.013286947
0.012948004
0.012619739
0.012302033
0.011994772
0.011697845
0.011411143
0.011134561
0.010867999
0.010611361
0.010364552
0.010127484
0.0099000738
0.0096822406
0.0094739091
0.0092750084
0.0090854722
0.0089052387
0.0087342506
0.0085724555
0.0084198054
0.0082762571
0.0081417718
0.0080163158
0.0078998597
0.0077923789
0.0076938537
0.0076042689
0.0075236142
0.007451884
0.0073890777
0.0073351996
0.007290259
0.0072542692
0.007227243
0.0072091816
0.0072001175
0.018808121
0.01831582
0.017835975
0.017368393
0.016912937
0.016469488
0.01603793
0.015618139
0.01520999
0.014813355
0.014428107
0.014054118
0.013691261
0.01333941
0.01299844
0.01266823
0.012348658
0.01203961
0.01174097
0.011452628
0.011174479
0.010906419
0.010648349
0.010400175
0.010161806
0.0099331581
0.0097141482
0.0095046999
0.0093047411
0.0091142041
0.0089330258
0.0087611481
0.0085985173
0.0084450845
0.0083008054
0.0081656405
0.0080395551
0.0079225192
0.0078145074
0.0077154991
0.0076254787
0.0075444352
0.0074723624
0.0074092592
0.0073551294
0.0073099818
0.0072738292
0.0072466838
0.0072285449
0.0072194432
0.018890551
0.018395052
0.017912143
0.017441622
0.016983339
0.016537171
0.016102994
0.015680682
0.015270107
0.014871139
0.014483647
0.014107501
0.013742571
0.013388728
0.013045847
0.012713802
0.012392471
0.012081736
0.01178148
0.011491592
0.011211963
0.010942489
0.010683069
0.010433607
0.010194011
0.0099641944
0.009744074
0.0095335717
0.0093326142
0.0091411326
0.0089590627
0.0087863453
0.0086229258
0.0084687542
0.0083237855
0.0081879794
0.0080613002
0.0079437172
0.0078352045
0.0077357408
0.0076453097
0.0075638997
0.0074915042
0.0074281215
0.0073737549
0.0073284127
0.0072921073
0.0072648503
0.0072466391
0.0072375025
0.018967987
0.01846949
0.017983699
0.017510409
0.017049463
0.016600732
0.016164089
0.015739404
0.015326545
0.01492538
0.014535775
0.014157598
0.013790717
0.013435
0.013090319
0.012756546
0.012433559
0.012121236
0.011819459
0.011528115
0.011247093
0.010976286
0.010715594
0.010464919
0.010224167
0.0099932496
0.009772083
0.0095605877
0.0093586892
0.0091663175
0.0089834076
0.008809899
0.0086457364
0.0084908688
0.0083452504
0.0082088402
0.0080816017
0.0079635036
0.0078545191
0.0077546266
0.007663809
0.0075820544
0.0075093554
0.00744571
0.0073911209
0.0073455962
0.0073091477
0.0072817865
0.0072635079
0.0072543391
0.019040588
0.018539286
0.01805079
0.017574898
0.017111449
0.01666031
0.016221348
0.015794432
0.015379427
0.014976198
0.014584608
0.014204523
0.013835808
0.01347833
0.013131957
0.012796562
0.012472018
0.012158202
0.011854995
0.011562281
0.011279949
0.011007891
0.010746003
0.010494187
0.010252347
0.010020395
0.0097982439
0.0095858147
0.009383031
0.0091898222
0.009006122
0.0088318693
0.0086670076
0.0085114854
0.008365256
0.0082282776
0.0081005132
0.0079819307
0.0078725028
0.0077722073
0.0076810266
0.0075989481
0.0075259643
0.0074620724
0.0074072748
0.0073615791
0.0073249969
0.0072975386
0.0072791974
0.0072699988
0.019108531
0.018604603
0.018113574
0.017635243
0.017169446
0.016716046
0.01627491
0.015845902
0.015428884
0.015023719
0.014630267
0.014248392
0.013877957
0.013518827
0.013170868
0.01283395
0.012507945
0.012192728
0.01188818
0.011594181
0.01131062
0.011037386
0.010774376
0.010521488
0.010278628
0.010045703
0.0098226285
0.0096093221
0.0094057073
0.0092117123
0.0090272701
0.0088523185
0.0086868003
0.0085306634
0.0083838603
0.0082463484
0.0081180902
0.007999053
0.0078892091
0.0077885354
0.007697014
0.007614632
0.0075413811
0.0074772583
0.0074222657
0.0073764102
0.0073397032
0.0073121545
0.0072937554
0.0072845294
0.019171996
0.018665613
0.018172215
0.017691601
0.017223606
0.016768091
0.016324919
0.015893952
0.015475049
0.015068071
0.014672876
0.014289326
0.01391728
0.013556603
0.013207158
0.012868814
0.012541441
0.012224914
0.011919108
0.011623906
0.011339192
0.011064858
0.010800795
0.010546904
0.010303086
0.010069251
0.0098453099
0.0096311814
0.0094267874
0.0092320553
0.0090469173
0.0088713105
0.008705177
0.0085484637
0.0084011227
0.0082631108
0.0081343898
0.0080149265
0.0079046926
0.0078036646
0.0077118243
0.007629158
0.0075556573
0.0074913186
0.0074361437
0.0073901392
0.007353316
0.0073256836
0.007307231
0.0072979798
0.019231168
0.018722492
0.018226881
0.017744134
0.017274085
0.016816593
0.016371519
0.015938721
0.015518058
0.015109385
0.014712562
0.014327446
0.013953895
0.013591772
0.013240939
0.012901262
0.012572611
0.012254856
0.011947875
0.011651548
0.011365757
0.011090392
0.010825345
0.010570515
0.010325802
0.010091114
0.0098663628
0.0096514647
0.0094463415
0.0092509195
0.0090651303
0.0088889102
0.0087222006
0.008564948
0.0084171035
0.0082786236
0.0081494695
0.0080296075
0.0079190088
0.0078176496
0.0077255109
0.007642579
0.0075688448
0.0075043047
0.0074489597
0.0074028164
0.0073658853
0.0073381753
0.0073196735
0.0073103994
0.019286233
0.018775418
0.018277742
0.017793006
0.017321042
0.016861706
0.016414858
0.015980353
0.015558047
0.015147795
0.014749452
0.014362875
0.013987921
0.013624449
0.013272321
0.012931401
0.012601556
0.012282657
0.011974579
0.0116772
0.011390404
0.011114077
0.010848112
0.010592404
0.010346855
0.01011137
0.0098858618
0.0096702448
0.0094644401
0.0092683736
0.0090819758
0.0089051826
0.0087379348
0.008580178
0.0084318632
0.008292946
0.0081633873
0.0080431529
0.0079322134
0.0078305448
0.0077381277
0.0076549478
0.007580996
0.0075162681
0.0074607649
0.0074144925
0.0073774613
0.0073496797
0.0073311327
0.0073218378
0.019337375
0.018824567
0.018324969
0.017838381
0.017364634
0.016903582
0.016455082
0.016018988
0.015595153
0.015183431
0.014783674
0.014395738
0.014019477
0.013654749
0.013301415
0.012959336
0.01262838
0.012308415
0.011999315
0.011700957
0.011413224
0.011136
0.010869178
0.010612652
0.010366323
0.010130096
0.0099038815
0.009687594
0.0094811537
0.0092844858
0.0090975204
0.0089201926
0.0087524426
0.0085942156
0.008445462
0.0083061369
0.0081762008
0.008055619
0.0079443618
0.0078424047
0.0077497281
0.0076663173
0.0075921629
0.0075272602
0.0074716099
0.0074252178
0.0073880939
0.0073602465
0.007341658
0.0073323444
0.019384776
0.018870115
0.018368731
0.017880422
0.017405018
0.016942373
0.016492339
0.016054769
0.015629514
0.015216425
0.014815355
0.014426155
0.01404868
0.013682786
0.01332833
0.012985176
0.012653186
0.01233223
0.012022179
0.011722911
0.011434305
0.011156248
0.010888628
0.010631341
0.010384286
0.010147368
0.0099204959
0.0097035841
0.009496552
0.0092993241
0.00911183
0.0089340043
0.0087657867
0.0086071217
0.0084579594
0.0083182545
0.0081879669
0.0080670617
0.0079555088
0.0078532833
0.0077603652
0.0076767396
0.0076023968
0.0075373318
0.007481545
0.007435042
0.0073978326
0.0073699247
0.0073512985
0.007341968
0.019428618
0.018912236
0.018409194
0.017919289
0.01744235
0.016978227
0.016526772
0.016087834
0.015661262
0.015246908
0.014844619
0.014454248
0.014075647
0.013708671
0.013353176
0.013009023
0.012676075
0.012354199
0.012043266
0.011743152
0.011453737
0.011174905
0.010906545
0.010648551
0.010400822
0.010163261
0.0099357778
0.0097182857
0.0095107035
0.0093129551
0.0091249696
0.008946681
0.0087780285
0.0086189565
0.0084694142
0.0083293562
0.0081987419
0.0080775361
0.0079657083
0.0078632334
0.007770091
0.0076862661
0.0076117484
0.0075465329
0.0074906198
0.0074440143
0.0074067261
0.0073787627
0.0073601022
0.0073507566
0.019469077
0.018951099
0.018446522
0.017955141
0.017476783
0.017011294
0.016558523
0.01611832
0.015690531
0.015275005
0.01487159
0.014480135
0.014100493
0.013732515
0.013376058
0.013030981
0.012697145
0.012374418
0.012062668
0.011761771
0.011471606
0.011192055
0.010923009
0.010664359
0.010416005
0.010177848
0.0099497984
0.009731768
0.0095236754
0.0093254441
0.0091370026
0.0089582845
0.0087892285
0.0086297786
0.0084798838
0.0083394981
0.0082085807
0.008087096
0.0079750132
0.0078723069
0.0077789566
0.0076949468
0.0076202672
0.0075549125
0.0074988825
0.0074521824
0.0074148218
0.0073868078
0.0073681162
0.0073587573
0.019506326
0.018986871
0.018480876
0.017988134
0.017508465
0.017041716
0.016587733
0.016146362
0.015717449
0.015300842
0.014896387
0.014503932
0.014123328
0.013754427
0.013397081
0.013051151
0.012716495
0.01239298
0.012080476
0.011778854
0.011487995
0.011207781
0.010938099
0.010678843
0.01042991
0.010191202
0.0099626274
0.0097440986
0.0095355334
0.0093368549
0.009147991
0.0089688751
0.0087994454
0.0086396456
0.0084894242
0.008348735
0.0082175368
0.0080957938
0.0079834749
0.0078805545
0.0077870117
0.0077028309
0.0076280015
0.0075625181
0.0075063804
0.0074595932
0.0074221661
0.0073941061
0.0073753865
0.0073660158
0.019540533
0.019019714
0.018512412
0.018018416
0.017537543
0.017069635
0.016614535
0.01617209
0.015742143
0.01532454
0.014919127
0.014525752
0.014144263
0.01377451
0.013416347
0.013069629
0.012734218
0.012409978
0.012096777
0.011794487
0.011502988
0.011222161
0.010951893
0.010692077
0.010442609
0.010203392
0.0099743324
0.0097553431
0.0095463412
0.0093472493
0.0091579952
0.0089785115
0.0088087364
0.0086486131
0.0084980898
0.00835712
0.0082256623
0.0081036805
0.0079911434
0.0078880251
0.0077943045
0.0077099658
0.0076349982
0.0075693962
0.0075131592
0.0074662921
0.0074288041
0.0074007023
0.0073819576
0.0073725767
0.019571859
0.019049784
0.018541282
0.018046136
0.017564159
0.017095187
0.016639063
0.016195631
0.015764734
0.015346217
0.014939925
0.014545705
0.014163402
0.013792867
0.013433952
0.013086512
0.012750406
0.012425498
0.012111656
0.011808753
0.011516664
0.011235272
0.010964465
0.010704132
0.010454172
0.010214485
0.009984979
0.0097655651
0.0095561605
0.0093566875
0.0091670733
0.0089872505
0.0088171567
0.0086567349
0.0085059331
0.0083647045
0.0082330074
0.0081108054
0.0079980671
0.0078947662
0.0078008817
0.0077163975
0.0076413027
0.0075755915
0.0075192633
0.0074723228
0.0074347793
0.0074066397
0.0073878726
0.007378483
0.019600463
0.019077232
0.018567631
0.018071436
0.01758845
0.017118506
0.016661445
0.016217109
0.015785341
0.015365987
0.01495889
0.014563895