/*--------------------------------*- C++ -*----------------------------------*\
| =========                 |                                                 |
| \\      /  F ield         | OpenFOAM: The Open Source CFD Toolbox           |
|  \\    /   O peration     | Version:  2312                                  |
|   \\  /    A nd           | Website:  www.openfoam.com                      |
|    \\/     M anipulation  |                                                 |
\*---------------------------------------------------------------------------*/
FoamFile
{
    version     2.0;
    format      ascii;
    arch        "LSB;label=32;scalar=64";
    class       volScalarField;
    location    "0.1";
    object      CO2;
}
// * * * * * * * * * * * * * * * * * * * * * * * * * * * * * * * * * * * * * //

dimensions      [0 0 0 0 0 0 0];

internalField   nonuniform List<scalar> 
3257
(
0.0073652168
0.0072316711
0.0071000303
0.0069702819
0.0068424579
0.0067165993
0.0065927486
0.0064709479
0.0063512383
0.0062336602
0.006118253
0.0060050552
0.0058941045
0.0057854379
0.0056790916
0.0055751011
0.0054735013
0.0053743265
0.0052776102
0.0051833855
0.0050916849
0.0050025404
0.0049159834
0.0048320447
0.0047507548
0.0046721435
0.0045962403
0.0045230739
0.0044526729
0.004385065
0.0043202777
0.0042583379
0.0041992721
0.004143106
0.0040898653
0.0040395748
0.0039922591
0.0039479421
0.0039066474
0.0038683982
0.003833217
0.0038011263
0.0037721477
0.0037463029
0.0037236131
0.0037040993
0.0036877822
0.0036746826
0.0036648218
0.0036582219
0.0036549074
0.0073791492
0.0072451794
0.0071131129
0.0069829449
0.006854711
0.006728454
0.0066042171
0.0064820424
0.0063619713
0.0062440439
0.0061282994
0.0060147762
0.0059035117
0.0057945427
0.0056879051
0.0055836341
0.0054817646
0.0053823303
0.0052853647
0.0051909006
0.0050989703
0.0050096056
0.0049228375
0.0048386969
0.0047572139
0.0046784181
0.0046023389
0.0045290048
0.0044584442
0.0043906847
0.0043257536
0.0042636777
0.0042044833
0.0041481961
0.0040948416
0.0040444444
0.0039970291
0.0039526196
0.0039112393
0.0038729112
0.003837658
0.0038055019
0.0037764646
0.0037505675
0.0037278319
0.0037082784
0.0036919274
0.0036787989
0.0036689118
0.0036622835
0.003658927
0.0074053402
0.0072705237
0.0071376369
0.0070066724
0.0068776657
0.0067506596
0.0066256972
0.0065028206
0.0063820706
0.0062634873
0.0061471092
0.0060329745
0.0059211201
0.0058115823
0.0057043965
0.0055995977
0.0054972199
0.0053972968
0.0052998613
0.0052049458
0.0051125822
0.0050228017
0.0049356352
0.0048511131
0.0047692651
0.0046901206
0.0046137085
0.0045400571
0.0044691945
0.004401148
0.0043359446
0.0042736109
0.0042141729
0.0041576561
0.0041040857
0.0040534864
0.0040058823
0.0039612972
0.0039197544
0.0038812768
0.0038458869
0.0038136067
0.003784458
0.0037584621
0.0037356399
0.0037160122
0.0036995994
0.0036864216
0.003676498
0.0036698462
0.0036664758
0.0074423141
0.0073063003
0.007172254
0.0070401658
0.0069100704
0.0067820098
0.0066560267
0.0065321625
0.0064104577
0.0062909514
0.0061736819
0.0060586865
0.0059460015
0.0058356627
0.0057277048
0.0056221621
0.0055190682
0.005418456
0.0053203578
0.0052248055
0.0051318304
0.0050414632
0.0049537343
0.0048686735
0.0047863101
0.004706673
0.0046297906
0.0045556909
0.0044844014
0.0044159492
0.0043503608
0.0042876625
0.0042278799
0.0041710384
0.0041171627
0.0040662772
0.004018406
0.0039735725
0.0039317998
0.0038931106
0.0038575272
0.0038250716
0.0037957653
0.0037696295
0.0037466851
0.0037269528
0.0037104529
0.0036972054
0.0036872298
0.0036805434
0.0036771548
0.0074886263
0.0073511176
0.0072156228
0.0070821311
0.0069506759
0.0068212987
0.0066940411
0.0065689439
0.0064460467
0.0063253878
0.0062070047
0.0060909339
0.0059772111
0.005865871
0.0057569478
0.005650475
0.0055464852
0.0054450108
0.0053460833
0.005249734
0.0051559933
0.0050648915
0.0049764582
0.0048907226
0.0048077134
0.0047274589
0.004649987
0.0045753253
0.0045035005
0.0044345395
0.0043684682
0.0043053126
0.0042450978
0.0041878487
0.0041335899
0.0040823455
0.004034139
0.0039889936
0.0039469324
0.0039079776
0.0038721515
0.0038394757
0.0038099716
0.0037836604
0.0037605628
0.0037406993
0.0037240903
0.0037107557
0.0037007149
0.0036939851
0.0036905739
0.0075429139
0.0074036599
0.0072664732
0.0071313415
0.0069982976
0.0068673818
0.0067386348
0.0066120964
0.0064878052
0.0063657988
0.0062461135
0.006128785
0.0060138481
0.0059013365
0.0057912837
0.005683722
0.0055786834
0.0054761994
0.0053763006
0.0052790175
0.0051843799
0.0050924171
0.0050031581
0.0049166313
0.0048328649
0.0047518864
0.0046737232
0.004598402
0.0045259493
0.0044563912
0.0043897533
0.0043260608
0.0042653386
0.0042076112
0.0041529027
0.0041012367
0.0040526365
0.0040071251
0.003964725
0.0039254584
0.0038893472
0.0038564128
0.0038266766
0.0038001594
0.0037768819
0.0037568645
0.0037401274
0.0037266906
0.0037165734
0.0037097927
0.0037063553
0.0076039024
0.0074626952
0.0073236144
0.0071866465
0.0070518233
0.0069191841
0.0067887685
0.0066606153
0.0065347621
0.0064112452
0.0062901002
0.0061713616
0.0060550631
0.0059412377
0.0058299174
0.005721134
0.0056149185
0.0055113012
0.005410312
0.0053119805
0.0052163355
0.0051234057
0.005033219
0.0049458034
0.004861186
0.0047793938
0.0047004533
0.0046243908
0.0045512321
0.0044810026
0.0044137274
0.0043494312
0.0042881384
0.0042298729
0.0041746584
0.0041225182
0.0040734751
0.0040275517
0.0039847704
0.0039451529
0.0039087209
0.0038754957
0.0038454983
0.0038187493
0.0037952695
0.0037750789
0.0037581979
0.0037446462
0.003734443
0.0037276052
0.0037241383
0.00767041
0.0075270806
0.007385941
0.0072469768
0.0071102188
0.0069757053
0.0068434748
0.0067135649
0.0065860121
0.0064608516
0.0063381178
0.0062178441
0.0061000632
0.0059848069
0.0058721064
0.0057619921
0.0056544942
0.005549642
0.0054474644
0.00534799
0.0052512469
0.0051572626
0.0050660644
0.0049776792
0.0048921335
0.0048094536
0.0047296652
0.0046527938
0.0045788646
0.0045079023
0.0044399314
0.0043749762
0.0043130603
0.0042542074
0.0041984404
0.0041457824
0.0040962557
0.0040498826
0.0040066849
0.0039666843
0.003929902
0.0038963592
0.0038660765
0.0038390746
0.0038153738
0.0037949942
0.003777956
0.0037642788
0.0037539818
0.0037470817
0.003743583
0.0077413496
0.0075957639
0.0074524349
0.0073113472
0.007172531
0.0070360232
0.0069018613
0.0067700816
0.0066407194
0.006513809
0.0063893833
0.0062674748
0.0061481148
0.0060313341
0.0059171629
0.0058056304
0.0056967656
0.005590597
0.0054871524
0.0053864594
0.005288545
0.005193436
0.0051011587
0.0050117392
0.0049252031
0.0048415759
0.0047608825
0.0046831477
0.0046083959
0.0045366514
0.0044679379
0.004402279
0.0043396979
0.0042802176
0.0042238608
0.0041706497
0.0041206066
0.0040737531
0.0040301108
0.003989701
0.0039525447
0.0039186626
0.0038880754
0.0038608033
0.0038368665
0.0038162851
0.0037990791
0.003785268
0.003774871
0.0037679044
0.0037643717
0.0078157293
0.0076677848
0.0075221661
0.0073788577
0.0072378883
0.0070992941
0.0069631112
0.0068293747
0.0066981188
0.0065693764
0.0064431794
0.006319559
0.0061985453
0.006080168
0.0059644559
0.0058514375
0.0057411405
0.0056335923
0.0055288196
0.0054268491
0.0053277069
0.0052314186
0.0051380097
0.0050475054
0.0049599304
0.0048753094
0.0047936666
0.0047150259
0.0046394112
0.0045668457
0.0044973529
0.0044309555
0.0043676762
0.0043075375
0.0042505614
0.0041967699
0.0041461846
0.0040988269
0.0040547179
0.0040138786
0.0039763296
0.0039420915
0.0039111846
0.0038836289
0.0038594445
0.0038386514
0.0038212692
0.0038073176
0.0037968156
0.0037897794
0.0037862113
0.0078926504
0.0077422728
0.0075942919
0.0074486918
0.0073055003
0.0071647525
0.0070264833
0.0068907266
0.0067575152
0.0066268808
0.0064988542
0.0063734652
0.006250743
0.0061307158
0.0060134115
0.0058988573
0.0057870797
0.0056781052
0.0055719594
0.0054686679
0.0053682557
0.0052707477
0.0051761682
0.0050845416
0.0049958919
0.0049102426
0.0048276173
0.0047480391
0.0046715311
0.0045981161
0.0045278165
0.0044606546
0.0043966526
0.0043358322
0.0042782151
0.0042238227
0.0041726761
0.0041247964
0.0040802042
0.0040389202
0.0040009648
0.0039663581
0.0039351201
0.003907271
0.0038828303
0.003861818
0.0038442536
0.0038301566
0.0038195461
0.0038124379
0.0038088332
0.0079713052
0.0078184453
0.0076680541
0.0075201151
0.0073746556
0.0072317093
0.00709131
0.0069534904
0.006818282
0.0066857153
0.0065558198
0.0064286241
0.0063041561
0.0061824431
0.0060635115
0.0059473875
0.0058340965
0.0057236638
0.0056161141
0.0055114717
0.0054097608
0.0053110052
0.0052152284
0.0051224538
0.0050327043
0.004946003
0.0048623723
0.0047818349
0.0047044128
0.0046301282
0.0045590029
0.0044910586
0.0044263168
0.0043647987
0.0043065254
0.0042515178
0.0041997967
0.0041513826
0.0041062959
0.0040645568
0.0040261852
0.0039912013
0.0039596247
0.0039314751
0.0039067722
0.0038855356
0.0038677848
0.0038535392
0.0038428177
0.0038356359
0.003831994
0.008050973
0.0078956039
0.0077427757
0.0075924719
0.0074447187
0.0072995489
0.007156995
0.0070170884
0.0068798595
0.0067453375
0.0066135506
0.0064845263
0.0063582912
0.0062348714
0.0061142922
0.0059965786
0.005881755
0.0057698454
0.0056608735
0.0055548627
0.0054518361
0.0053518164
0.0052548263
0.0051608882
0.0050700243
0.0049822566
0.004897607
0.004816097
0.0047377483
0.0046625821
0.0045906197
0.0045218821
0.0044563902
0.0043941646
0.004335226
0.0042795947
0.0042272911
0.0041783352
0.004132747
0.0040905464
0.004051753
0.0040163866
0.0039844666
0.0039560126
0.003931044
0.0039095801
0.0038916404
0.0038772442
0.0038664103
0.0038591542
0.0038554745
0.0081310161
0.0079731305
0.0078178577
0.0076651813
0.0075151268
0.0073677258
0.0072230096
0.0070810084
0.0069417512
0.0068052662
0.0066715804
0.0065407199
0.0064127102
0.0062875762
0.0061653421
0.0060460316
0.0059296682
0.0058162746
0.0057058737
0.0055984876
0.0054941385
0.0053928483
0.0052946386
0.0051995309
0.0051075465
0.0050187066
0.0049330323
0.0048505444
0.0047712638
0.0046952111
0.0046224067
0.0045528713
0.0044866249
0.0044236878
0.0043640799
0.0043078213
0.0042549318
0.0042054309
0.0041593384
0.0041166736
0.0040774561
0.0040417051
0.0040094399
0.0039806798
0.0039554439
0.0039337516
0.0039156221
0.0039010746
0.0038901279
0.0038827972
0.0038790798
0.0082108746
0.008050482
0.0078927737
0.0077377332
0.0075853854
0.0074357607
0.0072888892
0.0071448
0.0070035209
0.0068650786
0.0067294992
0.0065968075
0.0064670279
0.0063401839
0.0062162989
0.0060953953
0.0059774954
0.005862621
0.0057507939
0.0056420352
0.0055363661
0.0054338075
0.0053343802
0.0052381047
0.0051450016
0.0050550911
0.0049683936
0.0048849291
0.0048047178
0.0047277797
0.0046541345
0.0045838021
0.0045168021
0.0044531543
0.0043928781
0.0043359929
0.0042825181
0.004232473
0.0041858768
0.0041427485
0.0041031074
0.0040669724
0.0040343625
0.0040052967
0.0039797942
0.0039578739
0.003939555
0.0039248566
0.0039137974
0.0039063923
0.0039026374
0.0082900614
0.0081271864
0.0079670658
0.0078096837
0.0076550642
0.0075032364
0.0073542295
0.0072080712
0.0070647882
0.0069244062
0.0067869498
0.0066524428
0.0065209084
0.0063923691
0.0062668469
0.0061443633
0.0060249395
0.0059085964
0.0057953545
0.005685234
0.0055782553
0.0054744382
0.0053738026
0.0052763683
0.0051821548
0.0050911817
0.0050034686
0.0049190348
0.0048378996
0.0047600825
0.0046856025
0.004614479
0.004546731
0.0044823776
0.0044214378
0.0043639305
0.0043098748
0.0042592894
0.0042121932
0.0041686049
0.0041285433
0.0040920272
0.0040590752
0.0040297063
0.0040039391
0.0039817927
0.0039632861
0.0039484381
0.0039372674
0.0039297888
0.0039259967
0.008368157
0.0082028366
0.0080403395
0.0078806502
0.007723792
0.0075697932
0.0074186816
0.0072704839
0.0071252256
0.0069829311
0.006843624
0.006707327
0.006574062
0.0064438506
0.0063167135
0.0061926714
0.0060717442
0.0059539519
0.0058393139
0.0057278497
0.0056195785
0.0055145193
0.0054126911
0.0053141127
0.0052188032
0.0051267811
0.0050380652
0.0049526743
0.004870627
0.0047919419
0.0047166377
0.0046447329
0.0045762462
0.0045111961
0.0044496011
0.0043914796
0.0043368502
0.0042857314
0.0042381415
0.004194099
0.0041536224
0.0041167301
0.0040834405
0.0040537724
0.0040277442
0.0040053747
0.0039866829
0.0039716874
0.0039604069
0.0039528559
0.0039490274
0.0084448042
0.008277086
0.0081122586
0.0079503066
0.0077912529
0.0076351245
0.0074819483
0.0073317498
0.0071845534
0.0070403823
0.0068992591
0.0067612052
0.0066262417
0.0064943888
0.0063656664
0.006240094
0.0061176906
0.0059984751
0.0058824662
0.0057696821
0.0056601413
0.0055538619
0.0054508621
0.0053511599
0.0052547734
0.0051617205
0.0050720194
0.004985688
0.0049027443
0.0048232063
0.004747092
0.0046744195
0.0046052068
0.004539472
0.004477233
0.0044185079
0.0043633148
0.0043116718
0.0042635968
0.0042191081
0.0041782237
0.0041409618
0.0041073407
0.0040773787
0.0040510943
0.0040285058
0.0040096322
0.0039944922
0.003983104
0.0039754821
0.0039716179
0.0085197025
0.0083496433
0.0081825403
0.0080183787
0.0078571807
0.0076989723
0.0075437794
0.0073916263
0.0072425363
0.0070965317
0.0069536337
0.0068138629
0.0066772392
0.0065437818
0.0064135096
0.0062864411
0.0061625943
0.0060419872
0.0059246375
0.0058105626
0.0056997801
0.0055923072
0.0054881612
0.0053873596
0.0052899194
0.0051958581
0.0051051929
0.0050179412
0.0049341203
0.0048537476
0.0047768407
0.0047034169
0.0046334938
0.0045670889
0.0045042198
0.004444904
0.0043891593
0.0043370034
0.0042884538
0.0042435285
0.0042022453
0.004164622
0.0041306766
0.0041004273
0.0040738922
0.0040510898
0.0040320386
0.0040167573
0.0040052641
0.0039975732
0.0039936742
0.0085926031
0.008420267
0.0082509504
0.0080846393
0.0079213551
0.007761123
0.0076039676
0.0074499124
0.0072989795
0.0071511901
0.0070065645
0.0068651222
0.0067268819
0.0065918622
0.0064600807
0.0063315551
0.0062063025
0.0060843398
0.0059656839
0.0058503514
0.0057383589
0.005629723
0.0055244602
0.005422587
0.00532412
0.0052290757
0.0051374709
0.0050493221
0.0049646462
0.0048834599
0.0048057803
0.0047316241
0.0046610084
0.0045939503
0.0045304669
0.0044705754
0.0044142931
0.0043616372
0.0043126251
0.0042672744
0.0042256024
0.004187627
0.0041533657
0.0041228366
0.0040960575
0.0040730468
0.0040538228
0.0040384041
0.0040268088
0.0040190509
0.0040151182
0.008663304
0.0084887609
0.0083172986
0.0081489037
0.007983597
0.0078214027
0.0076623445
0.0075064446
0.0073537244
0.0072042038
0.0070579023
0.0069148382
0.0067750296
0.0066384938
0.0065052476
0.0063753078
0.0062486905
0.0061254119
0.006005488
0.0058889345
0.0057757672
0.005666002
0.0055596546
0.0054567408
0.0053572765
0.0052612775
0.0051687599
0.0050797398
0.0049942334
0.0049122568
0.0048338264
0.0047589588
0.0046876703
0.0046199777
0.0045558976
0.0044954468
0.0044386422
0.0043855008
0.0043360395
0.0042902756
0.0042482263
0.0042099089
0.0041753411
0.0041445403
0.0041175245
0.0040943118
0.0040749202
0.0040593684
0.0040476742
0.0040398515
0.0040358863
0.0087316451
0.0085549697
0.0083814341
0.0082110256
0.0080437643
0.0078796737
0.0077187763
0.0075610933
0.0074066451
0.0072554507
0.0071075286
0.0069628963
0.0068215707
0.0066835684
0.0065489054
0.0064175973
0.0062896597
0.0061651078
0.0060439567
0.0059262215
0.0058119173
0.0057010589
0.0055936616
0.0054897404
0.0053893106
0.0052923873
0.005198986
0.0051091221
0.0050228114
0.0049400695
0.0048609123
0.0047853557
0.0047134157
0.0046451087
0.0045804508
0.0045194585
0.0044621482
0.0044085367
0.0043586406
0.0043124767
0.0042700621
0.0042314139
0.0041965494
0.0041654859
0.0041382412
0.004114833
0.0040952796
0.0040795992
0.0040678096
0.0040599245
0.004055928
0.0087975035
0.0086187739
0.008443241
0.0082708926
0.0081017483
0.0079358304
0.0077731605
0.007613759
0.0074576451
0.0073048372
0.0071553526
0.007009208
0.0068664196
0.006727003
0.0065909733
0.0064583455
0.0063291341
0.0062033537
0.0060810185
0.0059621431
0.0058467415
0.0057348282
0.0056264175
0.0055215239
0.005420162
0.0053223464
0.005228092
0.0051374136
0.0050503264
0.0049668456
0.0048869865
0.0048107647
0.0047381957
0.0046692954
0.0046040797
0.0045425646
0.0044847662
0.0044307008
0.0043803849
0.0043338351
0.004291068
0.0042521006
0.0042169498
0.004185633
0.0041581675
0.0041345711
0.0041148616
0.0040990574
0.0040871761
0.0040792311
0.0040752046
0.0088607896
0.0086800866
0.0085026348
0.0083284227
0.0081574692
0.0079897955
0.0078254223
0.007664369
0.007506654
0.0073522948
0.0072013078
0.0070537091
0.0069095138
0.0067687368
0.0066313925
0.006497495
0.0063670581
0.0062400956
0.0061166211
0.0059966482
0.0058801906
0.0057672618
0.0056578757
0.0055520461
0.0054497869
0.0053511122
0.0052560363
0.0051645737
0.0050767388
0.0049925465
0.0049120116
0.0048351492
0.0047619746
0.0046925031
0.0046267502
0.0045647316
0.0045064632
0.004451961
0.0044012411
0.0043543197
0.0043112134
0.0042719388
0.0042365127
0.0042049521
0.0041772743
0.0041534969
0.0041336376
0.0041177145
0.0041057453
0.0040977429
0.0040936878
0.0089214428
0.0087388487
0.0085595584
0.0083835607
0.0082108735
0.0080415171
0.0078755111
0.0077128743
0.0075536241
0.0073977772
0.0072453494
0.0070963557
0.0069508109
0.0068087287
0.006670123
0.0065350071
0.0064033941
0.0062752971
0.0061507289
0.0060297026
0.0059122311
0.0057983275
0.0056880047
0.0055812762
0.0054781554
0.0053786557
0.0052827909
0.005190575
0.005102022
0.0050171463
0.0049359623
0.0048584847
0.0047847283
0.0047147081
0.0046484393
0.0045859372
0.0045272175
0.0044722957
0.0044211877
0.0043739097
0.0043304777
0.0042909082
0.0042552179
0.0042234235
0.0041955422
0.0041715913
0.0041515884
0.0041355515
0.0041234981
0.0041154411
0.0041113586
0.0089794277
0.0087950257
0.0086139787
0.0084362746
0.0082619303
0.0080909652
0.007923398
0.0077592466
0.0075985278
0.0074412576
0.0072874511
0.0071371227
0.0069902862
0.0068469548
0.0067071417
0.0065708593
0.0064381203
0.0063089369
0.0061833214
0.0060612863
0.0059428437
0.0058280062
0.0057167863
0.0056091967
0.0055052503
0.0054049602
0.0053083395
0.0052154018
0.0051261607
0.0050406302
0.0049588241
0.0048807569
0.0048064429
0.004735897
0.0046691338
0.0046061685
0.0045470162
0.0044916925
0.0044402128
0.0043925931
0.0043488492
0.0043089974
0.0042730541
0.004241036
0.0042129599
0.004188843
0.0041687029
0.0041525573
0.0041404236
0.0041323146
0.0041282062
0.0090347308
0.0088486045
0.0086658835
0.0084865531
0.0083106288
0.0081381292
0.0079690723
0.0078034755
0.0076413551
0.0074827262
0.0073276035
0.0071760005
0.0070279305
0.0068834062
0.0067424397
0.0066050432
0.0064712284
0.0063410071
0.006214391
0.0060913917
0.0059720211
0.0058562911
0.0057442137
0.005635801
0.0055310654
0.0054300196
0.0053326762
0.0052390484
0.0051491494
0.0050629927
0.0049805918
0.0049019608
0.0048271138
0.004756065
0.0046888291
0.0046254209
0.0045658551
0.0045101471
0.0044583122
0.0044103659
0.0043663239
0.0043262024
0.0042900175
0.0042577856
0.0042295236
0.0042052484
0.0041849774
0.0041687282
0.0041565182
0.0041483599
0.0041442268
0.0090873568
0.0088995899
0.0087152788
0.0085344026
0.0083569752
0.008183015
0.0080125397
0.0078455664
0.0076821108
0.0075221877
0.0073658109
0.0072129935
0.0070637481
0.0069180868
0.006776021
0.0066375624
0.0065027221
0.0063715112
0.0062439409
0.0061200223
0.0059997667
0.0058831855
0.00577029
0.0056610921
0.0055556037
0.0054538369
0.0053558041
0.0052615179
0.0051709911
0.0050842368
0.0050012684
0.0049220994
0.0048467436
0.0047752151
0.0047075282
0.0046436972
0.004583737
0.0045276624
0.0044754885
0.0044272307
0.0043829045
0.0043425258
0.0043061105
0.004273675
0.0042452358
0.0042208099
0.0042004143
0.0041840667
0.0041717842
0.0041635792
0.0041594229
0.0091373231
0.0089480035
0.0087621869
0.0085798452
0.0084009907
0.0082256428
0.0080538195
0.0078855378
0.0077208129
0.0075596592
0.00740209
0.0072481177
0.0070977545
0.0069510116
0.0068079003
0.0066684312
0.0065326151
0.0064004627
0.0062719843
0.0061471908
0.0060260928
0.0059087012
0.0057950271
0.0056850817
0.0055788765
0.0054764232
0.0053777338
0.0052828205
0.0051916959
0.0051043725
0.0050208636
0.0049411822
0.0048653419
0.0047933566
0.00472524
0.0046610066
0.0046006706
0.0045442469
0.0044917503
0.004443196
0.0043985993
0.0043579758
0.0043213414
0.0042887122
0.0042601046
0.0042355354
0.0042150216
0.0041985805
0.0041862294
0.0041779804
0.0041738021
0.0091846484
0.0089938911
0.0088066463
0.0086229167
0.0084427091
0.0082660448
0.0080929426
0.0079234193
0.00775749
0.0075951685
0.0074364675
0.0072813992
0.0071299748
0.0069822052
0.006838101
0.0066976725
0.0065609299
0.0064278831
0.0062985423
0.0061729177
0.0060510194
0.0059328579
0.0058184439
0.0057077881
0.0056009017
0.005497796
0.0053984825
0.0053029732
0.0052112802
0.005123416
0.0050393931
0.0049592247
0.0048829238
0.0048105041
0.0047419792
0.0046773631
0.0046166701
0.0045599146
0.0045071113
0.0044582752
0.0044134214
0.0043725654
0.0043357229
0.0043029098
0.0042741425
0.0042494374
0.0042288115
0.004212282
0.0041998661
0.0041915756
0.0041873767
0.0090372954
0.0088487112
0.0086636652
0.0084821748
0.0083042631
0.0081299494
0.0079592501
0.0077921799
0.0076287521
0.007468979
0.0073128721
0.0071604422
0.0070116997
0.0068666547
0.0067253168
0.0065876958
0.0064538012
0.0063236427
0.00619723
0.0060745728
0.0059556812
0.0058405654
0.0057292358
0.0056217031
0.0055179784
0.0054180729
0.0053219981
0.0052297658
0.0051413882
0.0050568777
0.004976247
0.0048995091
0.0048266771
0.0047577647
0.0046927856
0.0046317537
0.0045746834
0.0045215891
0.0044724857
0.0044273882
0.0043863117
0.004349272
0.0043162846
0.0042873659
0.0042625322
0.0042418003
0.0042251873
0.0042127102
0.0042043807
0.0042001626
0.0090783447
0.0088884482
0.0087021466
0.00851944
0.0083403479
0.0081648882
0.0079930767
0.0078249277
0.0076604538
0.0074996668
0.0073425777
0.0071891968
0.007039534
0.0068935988
0.0067514006
0.0066129484
0.0064782515
0.0063473191
0.0062201603
0.0060967847
0.0059772018
0.0058614215
0.0057494539
0.0056413093
0.0055369983
0.0054365319
0.0053399214
0.0052471783
0.0051583145
0.005073342
0.0049922734
0.0049151214
0.0048418989
0.0047726194
0.0047072963
0.0046459434
0.0045885749
0.0045352051
0.0044858486
0.0044405202
0.0043992351
0.0043620086
0.0043288565
0.0042997946
0.0042748394
0.0042540073
0.0042373156
0.0042247809
0.004216415
0.0042121788
0.0091170355
0.0089259072
0.0087384182
0.0085545622
0.0083743551
0.0081978135
0.0080249522
0.0078557848
0.0076903234
0.0075285793
0.0073705628
0.007216284
0.0070657521
0.0069189762
0.0067759653
0.006636728
0.0065012731
0.0063696094
0.0062417457
0.0061176911
0.0059974549
0.0058810465
0.0057684756
0.0056597524
0.0055548871
0.0054538905
0.0053567734
0.0052635472
0.0051742235
0.0050888141
0.0050073313
0.0049297876
0.0048561958
0.0047865689
0.0047209205
0.0046592641
0.0046016136
0.0045479832
0.0044983874
0.0044528408
0.0044113585
0.0043739556
0.0043406478
0.0043114508
0.0042863809
0.0042654545
0.0042486886
0.0042360998
0.0042277
0.0042234469
0.0091534304
0.0089611495
0.0087725431
0.0085876039
0.0084063461
0.008228785
0.0080549345
0.0078848074
0.0077184154
0.0075557691
0.0073968787
0.0072417533
0.0070904021
0.0069428337
0.0067990564
0.0066590787
0.0065229089
0.0063905554
0.0062620267
0.0061373315
0.0060164787
0.0058994775
0.0057863374
0.005677068
0.0055716795
0.0054701822
0.0053725869
0.0052789045
0.0051891465
0.0051033245
0.0050214506
0.004943537
0.0048695964
0.0047996417
0.004733686
0.0046717429
0.0046138262
0.0045599498
0.0045101281
0.0044643756
0.0044227071
0.0043851379
0.0043516832
0.0043223589
0.004297181
0.0042761659
0.0042593303
0.0042466908
0.0042382593
0.0042339905
0.0091876053
0.0089942452
0.0088045896
0.0086186322
0.0084363863
0.0082578662
0.0080830851
0.0079120553
0.0077447878
0.0075812928
0.0074215799
0.007265658
0.0071135357
0.0069652212
0.0068207226
0.0066800477
0.0065432047
0.0064102016
0.0062810465
0.0061557479
0.0060343142
0.0059167545
0.0058030779
0.0056932939
0.0055874122
0.005485443
0.0053873969
0.0052932845
0.005203117
0.0051169061
0.0050346633
0.004956401
0.0048821315
0.0048118676
0.0047456223
0.004683409
0.0046252412
0.0045711329
0.0045210982
0.0044751516
0.0044333079
0.0043955819
0.004361989
0.0043325449
0.0043072654
0.0042861669
0.0042692659
0.0042565791
0.0042481181
0.0042438348
0.0092196401
0.0090252695
0.0088346304
0.0086477176
0.0084645442
0.0082851237
0.0081094689
0.0079375913
0.0077695015
0.0076052093
0.0074447239
0.0072880536
0.0071352068
0.0069861911
0.0068410145
0.0066996844
0.0065622085
0.0064285946
0.0062988505
0.0061729843
0.0060510043
0.0059329193
0.0058187379
0.0057084696
0.0056021239
0.0054997106
0.0054012401
0.0053067229
0.0052161701
0.0051295929
0.005047003
0.0049684124
0.0048938332
0.0048232782
0.0047567602
0.0046942924
0.0046358884
0.0045815618
0.0045313267
0.0044851975
0.0044431888
0.0044053154
0.0043715926
0.0043420359
0.0043166611
0.0042954844
0.0042785222
0.0042657912
0.0042573028
0.0042530061
0.0092496166
0.0090543006
0.0088627408
0.0086749331
0.0084908906
0.0083106263
0.0081341524
0.0079614801
0.0077926193
0.0076275796
0.0074663696
0.0073089974
0.0071554709
0.0070057975
0.0068599846
0.0067180396
0.0065799697
0.0064457824
0.0063154853
0.0061890862
0.0060665932
0.0059480147
0.0058333593
0.005722636
0.0056158542
0.0055130236
0.0054141543
0.0053192568
0.0052283418
0.0051414204
0.0050585041
0.0049796048
0.0049047346
0.0048339059
0.0047671316
0.0047044246
0.0046457985
0.0045912667
0.0045408433
0.0044945425
0.0044523788
0.0044143671
0.0043805223
0.00435086
0.0043253958
0.0043041458
0.0042871264
0.0042743542
0.0042658407
0.0042615316
0.0092776178
0.0090814183
0.0088889978
0.0087003533
0.0085154978
0.0083344441
0.0081572038
0.0079837876
0.0078142053
0.0076484658
0.0074865774
0.0073285479
0.0071743848
0.0070240954
0.0068776865
0.0067351653
0.0065965388
0.0064618141
0.0063309987
0.0062041
0.006081126
0.0059620847
0.0058469846
0.0057358346
0.0056286437
0.0055254217
0.0054261782
0.0053309237
0.0052396687
0.0051524243
0.0050692017
0.0049900127
0.0049148693
0.0048437838
0.0047767688
0.0047138374
0.0046550027
0.0046002784
0.0045496783
0.0045032165
0.0044609075
0.0044227659
0.0043888068
0.0043590455
0.0043334977
0.0043121792
0.0042951065
0.004282296
0.0042737593
0.0042694387
0.0093037271
0.009106703
0.0089134792
0.0087240536
0.008538439
0.0083566479
0.0081786917
0.0080045806
0.007834324
0.0076679304
0.007505408
0.0073467641
0.0071920059
0.0070411403
0.0068941741
0.0067511139
0.0066119667
0.0064767392
0.0063454387
0.0062180724
0.006094648
0.0059751735
0.005859657
0.0057481073
0.0056405334
0.0055369446
0.0054373506
0.0053417617
0.0052501882
0.005162641
0.0050791314
0.0049996709
0.0049242713
0.0048529451
0.0047857046
0.0047225627
0.0046635327
0.004608628
0.0045578622
0.0045112496
0.0044688045
0.0044305414
0.0043964753
0.0043666214
0.0043409954
0.004319613
0.0043024906
0.0042896445
0.0042810865
0.0042767555
0.0093280279
0.0091302355
0.0089362631
0.0087461094
0.0085597873
0.0083773088
0.0081986849
0.0080239257
0.0078530401
0.0076860364
0.0075229223
0.007363705
0.0072083914
0.007056988
0.0069095013
0.0067659379
0.0066263043
0.0064906072
0.0063588534
0.0062310502
0.0061072049
0.0059873254
0.0058714197
0.0057594963
0.0056515641
0.0055476323
0.0054477104
0.0053518086
0.0052599371
0.0051721067
0.0050883285
0.0050086139
0.0049329747
0.0048614231
0.0047939716
0.0047306328
0.00467142
0.0046163464
0.0045654257
0.004518672
0.0044760995
0.0044377227
0.0044035566
0.0043736164
0.0043479174
0.0043264755
0.0043093068
0.0042964278
0.0042878503
0.0042835098
0.0093506029
0.0091520958
0.008957427
0.008766596
0.0085796154
0.0083964972
0.0082172519
0.0080418893
0.007870418
0.0077028461
0.0075391809
0.0073794295
0.0072235983
0.0070716937
0.0069237221
0.0067796895
0.0066396024
0.0065034673
0.0063712908
0.0062430799
0.0061188419
0.0059985844
0.0058823154
0.0057700432
0.0056617765
0.0055575244
0.0054572963
0.0053611023
0.0052689524
0.0051808574
0.0050968282
0.0050168762
0.0049410132
0.0048692511
0.0048016023
0.0047380795
0.0046786958
0.0046234644
0.004572399
0.0045255135
0.0044828221
0.0044443393
0.0044100798
0.0043800589
0.0043542919
0.0043327947
0.0043155831
0.0043026737
0.0042940784
0.0042897293
0.0093715341
0.0091723632
0.0089770476
0.0087855876
0.0085979955
0.008414283
0.0082344603
0.0080585369
0.0078865213
0.0077184212
0.0075542437
0.0073939956
0.0072376831
0.0070853123
0.0069368893
0.0067924202
0.006651911
0.0065153681
0.006382798
0.0062542075
0.0061296037
0.0060089941
0.0058923866
0.0057797893
0.0056712108
0.0055666601
0.0054661465
0.00536968
0.0052772705
0.0051889287
0.0051046654
0.005024492
0.0049484201
0.0048764615
0.0048086287
0.0047449343
0.0046853912
0.0046300126
0.0045788122
0.0045318038
0.0044890014
0.0044504197
0.0044160733
0.0043859773
0.0043601471
0.0043385983
0.0043213471
0.0043084095
0.0042997982
0.0042954412
0.0093909016
0.0091911154
0.0089952004
0.0088031573
0.0086149984
0.0084307348
0.0082503768
0.0080739333
0.0079014127
0.0077328225
0.0075681696
0.0074074604
0.0072507011
0.0070978975
0.0069490554
0.0068041808
0.0066632795
0.0065263576
0.0063934217
0.0062644782
0.0061395343
0.0060185973
0.0059016748
0.005788775
0.0056799064
0.0055750778
0.0054742985
0.0053775783
0.0052849271
0.0051963555
0.0051118743
0.0050314946
0.0049552281
0.0048830866
0.0048150825
0.0047512281
0.0046915365
0.0046360209
0.0045846947
0.0045375717
0.0044946661
0.0044559923
0.004421565
0.0043913992
0.0043655103
0.0043439138
0.0043266258
0.0043136624
0.0043050365
0.0043006724
0.0094087841
0.0092084287
0.0090119592
0.0088193768
0.0086306934
0.00844592
0.0082650664
0.0080881416
0.0079151535
0.0077461094
0.0075810162
0.00741988
0.0072627067
0.007109502
0.0069602715
0.0068150209
0.0066737559
0.0065364827
0.0064032073
0.0062739363
0.0061486767
0.0060274357
0.0059102208
0.0057970401
0.005687902
0.0055828153
0.0054817891
0.0053848331
0.0052919573
0.0052031721
0.0051184882
0.0050379168
0.0049614694
0.0048891578
0.0048209942
0.0047569912
0.0046971615
0.0046415183
0.0045900752
0.0045428458
0.0044998442
0.0044610849
0.0044265824
0.0043963518
0.0043704083
0.0043487677
0.0043314457
0.0043184587
0.0043098196
0.0043054492
0.0094252584
0.0092243773
0.0090273959
0.0088343157
0.0086451483
0.0084599041
0.008278593
0.0081012234
0.0079278033
0.0077583399
0.0075928397
0.0074313088
0.0072737528
0.0071201771
0.0069705874
0.0068249889
0.0066833875
0.0065457889
0.0064121992
0.006282625
0.0061570729
0.0060355502
0.0059180643
0.0058046233
0.0056952353