/*--------------------------------*- C++ -*----------------------------------*\
| =========                 |                                                 |
| \\      /  F ield         | OpenFOAM: The Open Source CFD Toolbox           |
|  \\    /   O peration     | Version:  2312                                  |
|   \\  /    A nd           | Website:  www.openfoam.com                      |
|    \\/     M anipulation  |                                                 |
\*---------------------------------------------------------------------------*/
FoamFile
{
    version     2.0;
    format      ascii;
    arch        "LSB;label=32;scalar=64";
    class       volScalarField;
    location    "0.1";
    object      f_Bilger;
}
// * * * * * * * * * * * * * * * * * * * * * * * * * * * * * * * * * * * * * //

dimensions      [0 0 0 0 0 0 0];

internalField   nonuniform List<scalar> 
3257
(
0.017859085
0.01746138
0.017071481
0.01668934
0.01631495
0.015948328
0.015589495
0.015238476
0.014895287
0.014559946
0.014232466
0.013912855
0.013601124
0.013297277
0.013001318
0.012713252
0.012433078
0.012160798
0.011896411
0.011639916
0.011391313
0.011150601
0.010917777
0.010692842
0.010475795
0.010266636
0.010065365
0.0098719838
0.009686495
0.0095089016
0.0093392078
0.0091774192
0.0090235423
0.008877585
0.0087395566
0.0086094679
0.0084873311
0.0083731601
0.0082669704
0.0081687793
0.0080786059
0.0079964714
0.007922399
0.007856414
0.0077985443
0.0077488202
0.0077072749
0.0076739446
0.0076488695
0.0076320954
0.0076236761
0.017894525
0.017495557
0.017104408
0.016721045
0.016345469
0.015977699
0.015617761
0.015265676
0.014921462
0.014585136
0.014256708
0.013936189
0.013623585
0.013318901
0.01302214
0.012733304
0.012452394
0.012179409
0.011914347
0.011657208
0.011407988
0.011166687
0.010933302
0.010707832
0.010490274
0.01028063
0.010078897
0.0098850784
0.0096991741
0.0095211873
0.0093511217
0.009188982
0.0090347745
0.0088885066
0.0087501871
0.0086198263
0.0084974362
0.0083830301
0.0082766234
0.008178233
0.0080878777
0.0080055784
0.0079313581
0.0078652419
0.0078072573
0.007757434
0.0077158044
0.007682403
0.0076572664
0.0076404352
0.0076319658
0.01796127
0.01755981
0.017166258
0.016780577
0.016402764
0.016032837
0.015670821
0.015316736
0.014970598
0.014632421
0.014302216
0.013979988
0.013665744
0.013359487
0.013061217
0.012770935
0.012488639
0.012214327
0.011947995
0.011689641
0.011439261
0.011196851
0.010962407
0.010735927
0.010517408
0.010306848
0.010104245
0.0099095993
0.0097229108
0.0095441812
0.0093734131
0.0092106105
0.0090557784
0.0089089235
0.0087700538
0.0086391789
0.0085163098
0.0084014594
0.0082946424
0.0081958751
0.0081051759
0.0080225651
0.0079480654
0.0078817015
0.0078235004
0.0077734918
0.0077317076
0.007698182
0.0076729513
0.0076560548
0.0076475491
0.018055473
0.017650487
0.01725354
0.016864586
0.01648362
0.016110655
0.015745714
0.015388813
0.015039966
0.014699185
0.014366476
0.014041843
0.01372529
0.013416816
0.01311642
0.012824099
0.012539849
0.012263665
0.011995542
0.011735474
0.011483455
0.01123948
0.011003542
0.010775637
0.010555759
0.010343905
0.010140073
0.0099442582
0.0097564612
0.0095766814
0.0094049202
0.00924118
0.0090854647
0.0089377795
0.0087981315
0.008666529
0.0085429822
0.0084275032
0.0083201055
0.0082208049
0.0081296191
0.0080465677
0.0079716728
0.0079049586
0.0078464518
0.0077961816
0.0077541798
0.0077204805
0.0076951195
0.0076781357
0.0076695853
0.018173449
0.017764057
0.017362866
0.016969824
0.016584917
0.016208157
0.015839561
0.015479142
0.015126911
0.014782874
0.014447036
0.014119397
0.013799956
0.01348871
0.013185654
0.012890783
0.012604088
0.012325562
0.012055196
0.011792982
0.011538912
0.011292976
0.011055166
0.010825474
0.010603894
0.01039042
0.010185045
0.0099877652
0.0097985781
0.0096174814
0.0094444744
0.009279558
0.0091227345
0.0089740076
0.0088333828
0.0087008673
0.0085764701
0.008460202
0.0083520756
0.0082521056
0.008160309
0.0080767046
0.0080013138
0.0079341602
0.00787527
0.0078246719
0.0077823975
0.0077484805
0.0077229565
0.0077058638
0.007697258
0.018311714
0.017897176
0.017491026
0.017093202
0.016703688
0.01632249
0.015949619
0.015585086
0.015228896
0.014881052
0.014541553
0.014210395
0.013887575
0.013573085
0.013266915
0.012969057
0.012679498
0.012398229
0.012125236
0.011860508
0.011604032
0.011355798
0.011115793
0.010884007
0.010660431
0.010445054
0.01023787
0.010038872
0.0098480538
0.0096654115
0.0094909424
0.0093246454
0.0091665209
0.009016571
0.0088747994
0.008741212
0.0086158162
0.0084986214
0.0083896392
0.0082888833
0.0081963695
0.0081121157
0.0080361426
0.0079684731
0.0079091329
0.0078581501
0.0078155558
0.0077813834
0.0077556683
0.0077384479
0.0077297775
0.018467013
0.018046712
0.017635005
0.017231826
0.016837149
0.016450976
0.016073314
0.015704169
0.01534354
0.014991425
0.01464782
0.014312716
0.013986105
0.013667974
0.01335831
0.013057099
0.012764326
0.012479976
0.012204032
0.01193648
0.011677303
0.011426486
0.011184015
0.010949876
0.010724055
0.010506542
0.010297324
0.010096393
0.0099037406
0.0097193601
0.0095432466
0.0093753967
0.0092158088
0.009064483
0.0089214214
0.0087866278
0.0086601084
0.0085418711
0.0084319261
0.0083302858
0.008236965
0.0081519806
0.0080753524
0.0080071026
0.007947256
0.0078958404
0.0078528864
0.0078184269
0.0077924968
0.0077751331
0.0077663903
0.018636326
0.01820976
0.017792011
0.017383004
0.016982709
0.016591124
0.016208248
0.015834081
0.01546862
0.015111856
0.01476378
0.014424379
0.014093638
0.01377154
0.013458069
0.013153205
0.012856929
0.012569221
0.012290061
0.01201943
0.011757307
0.011503674
0.011258513
0.011021807
0.010793538
0.010573692
0.010362255
0.010159215
0.0099645606
0.0097782829
0.0096003744
0.0094308292
0.0092696436
0.0091168157
0.0089723454
0.008836235
0.0087084887
0.008589113
0.0084781166
0.0083755106
0.0082813085
0.0081955265
0.008118183
0.0080492995
0.0079889002
0.0079370121
0.0078936654
0.0078588925
0.007832728
0.0078152078
0.0078063862
0.018816879
0.018383647
0.017959468
0.01754426
0.017137985
0.016740637
0.016352209
0.015972696
0.015602088
0.015240372
0.014887533
0.014543552
0.014208411
0.013882086
0.013564557
0.013255799
0.012955788
0.012664499
0.01238191
0.012107995
0.01184273
0.011586093
0.011338063
0.011098616
0.010867735
0.0106454
0.010431595
0.010226303
0.010029512
0.0098412091
0.0096613841
0.009490029
0.0093271375
0.0091727055
0.0090267311
0.0088892144
0.0087601579
0.0086395665
0.0085274473
0.00842381
0.008328667
0.008242033
0.0081639258
0.0080943657
0.0080333762
0.0079809838
0.0079372178
0.0079021105
0.0078756957
0.0078580088
0.0078491031
0.019006139
0.018565934
0.018135028
0.017713329
0.017300796
0.016897415
0.016503174
0.016118064
0.015742066
0.015375164
0.015017336
0.014668559
0.014328808
0.013998055
0.013676273
0.013363434
0.013059508
0.012764467
0.012478282
0.012200924
0.011932365
0.011672578
0.011421537
0.011179218
0.010945596
0.01072065
0.01050436
0.010296707
0.010097673
0.0099072448
0.0097254087
0.009552154
0.0093874722
0.0092313568
0.0090838036
0.0089448109
0.0088143793
0.0086925119
0.0085792142
0.0084744946
0.008378364
0.008290836
0.0082119271
0.008141657
0.0080800483
0.0080271266
0.0079829208
0.0079474626
0.0079207854
0.0079029237
0.00789393
0.019201811
0.018754411
0.018316559
0.017888159
0.017469164
0.017059553
0.01665931
0.016268416
0.015886852
0.015514592
0.015151609
0.014797875
0.014453359
0.014118029
0.013791852
0.013474794
0.013166821
0.0128679
0.012577996
0.012297077
0.012025111
0.011762066
0.011507912
0.01126262
0.011026163
0.010798516
0.010579654
0.010369556
0.010168202
0.0099755743
0.0097916567
0.009616436
0.009449901
0.009292043
0.0091428557
0.0090023351
0.00887048
0.0087472917
0.0086327743
0.0085269343
0.0084297814
0.008341328
0.0082615896
0.0081905847
0.0081283351
0.0080748658
0.008030205
0.0079943839
0.0079674353
0.0079493929
0.0079403084
0.019401836
0.018947089
0.018502146
0.018066904
0.01764131
0.017225336
0.016818962
0.016422162
0.01603491
0.015657176
0.015288926
0.014930127
0.014580742
0.014240734
0.013910063
0.013588692
0.013276582
0.012973693
0.012679988
0.012395428
0.012119977
0.011853599
0.01159626
0.011347927
0.01110857
0.010878159
0.010656667
0.010444068
0.010240339
0.01004546
0.0098594126
0.0096821799
0.0095137484
0.009354107
0.0092032472
0.009061163
0.0089278511
0.0088033111
0.0086875452
0.0085805587
0.0084823598
0.0083929595
0.0083123723
0.0082406157
0.0081777104
0.008123681
0.0080785548
0.0080423627
0.0080151367
0.0079969097
0.0079877324
0.019604373
0.019142196
0.018690081
0.018247917
0.017815646
0.017393234
0.016980655
0.016577878
0.016184869
0.015801594
0.015428013
0.015064086
0.014709772
0.014365026
0.014029806
0.013704068
0.013387767
0.013080859
0.012783303
0.012495054
0.012216073
0.011946318
0.011685752
0.011434339
0.011192042
0.01095883
0.010734671
0.010519537
0.010313402
0.010116242
0.009928035
0.0097487627
0.0095784087
0.0094169595
0.0092644043
0.009120735
0.0089859464
0.0088600362
0.0087430049
0.0086348563
0.0085355971
0.0084452372
0.0083637898
0.0082912714
0.008227702
0.008173105
0.0081275076
0.0080909396
0.0080634329
0.0080450192
0.0080357481
0.019807796
0.019338163
0.018878849
0.018429738
0.017990765
0.017561891
0.017143082
0.016734303
0.016335515
0.015946676
0.015567741
0.015198664
0.014839398
0.014489894
0.014150104
0.013819978
0.013499467
0.013188522
0.012887095
0.01259514
0.01231261
0.012039462
0.011775653
0.011521142
0.011275891
0.011039863
0.010813023
0.010595341
0.010386786
0.010187332
0.009996954
0.0098156309
0.0096433439
0.009480077
0.0093258171
0.0091805541
0.0090442806
0.0089169927
0.0087986893
0.0086893724
0.0085890473
0.0084977228
0.0084154108
0.0083421269
0.0082778899
0.0082227228
0.0081766519
0.0081397066
0.008111918
0.0080933169
0.0080839519
0.020010676
0.019533612
0.019067123
0.018611087
0.018165432
0.017730115
0.017305095
0.016890332
0.016485781
0.016091392
0.015707117
0.015332904
0.014968699
0.014614449
0.014270099
0.013935595
0.013610883
0.013295909
0.01299062
0.012694966
0.012408895
0.01213236
0.011865313
0.011607711
0.01135951
0.011120671
0.010891156
0.010670929
0.010459958
0.010258214
0.010065668
0.0098822977
0.0097080806
0.0095429988
0.0093870368
0.0092401824
0.0091024266
0.0089737632
0.0088541897
0.0087437065
0.0086423176
0.0085500303
0.0084668555
0.0083928075
0.0083279047
0.0082721688
0.0082256257
0.0081883041
0.0081602347
0.008141447
0.0081319884
0.020211772
0.019727346
0.019253748
0.018790849
0.018338573
0.01789687
0.017465696
0.017045001
0.016634736
0.016234848
0.015845279
0.015465973
0.015096871
0.014737915
0.014389044
0.014050199
0.01372132
0.01340235
0.013093231
0.012793907
0.012504324
0.012224429
0.01195417
0.011693501
0.011442374
0.011200745
0.010968574
0.010745823
0.010532455
0.010328438
0.010133741
0.0099483385
0.0097722061
0.0096053232
0.0094476722
0.0092992388
0.009160012
0.0090299839
0.0089091503
0.00879751
0.0086950657
0.0086018234
0.0085177928
0.0084429872
0.0083774241
0.0083211244
0.0082741133
0.008236419
0.0082080714
0.0081890991
0.0081795481
0.020410015
0.019918333
0.019437728
0.018968064
0.018509262
0.018061265
0.017624022
0.01719748
0.016781583
0.01637627
0.015981482
0.015597154
0.015223223
0.014859625
0.014506294
0.014163167
0.013830179
0.013507267
0.013194369
0.012891425
0.012598376
0.012315165
0.012041737
0.011778041
0.011524026
0.011279645
0.011044853
0.01081961
0.010603876
0.010397615
0.010200796
0.010013388
0.009835365
0.0096667045
0.0095073865
0.0093573947
0.0092167161
0.0090853413
0.0089632642
0.0088504823
0.0087469967
0.0086528122
0.0085679375
0.0084923848
0.0084261705
0.0083693151
0.0083218427
0.0082837812
0.0082551597
0.0082360058
0.0082263638
0.020604495
0.020105696
0.019618216
0.019141917
0.018676711
0.018222539
0.017779342
0.017347063
0.016925638
0.016515003
0.016115092
0.015725835
0.015347165
0.01497901
0.014621302
0.014273971
0.013936949
0.013610166
0.013293558
0.012987059
0.012690607
0.01240414
0.0121276
0.011860931
0.01160408
0.011356995
0.01111963
0.010891939
0.010673881
0.010465417
0.010266512
0.010077134
0.0098972545
0.0097268479
0.0095658926
0.0094143702
0.0092722659
0.0091395685
0.0090162703
0.0089023674
0.0087978595
0.0087027501
0.0086170468
0.0085407609
0.0084739078
0.0084165071
0.0083685824
0.008330161
0.0083012712
0.0082819395
0.0082722086
0.020794446
0.020288695
0.019794501
0.01931172
0.018840259
0.018380054
0.01793104
0.017493155
0.01706633
0.016650495
0.016245577
0.015851504
0.015468201
0.015095594
0.014733607
0.014382167
0.014041201
0.013710635
0.013390399
0.013080425
0.012780645
0.012490994
0.012211411
0.011941835
0.01168221
0.011432482
0.0111926
0.010962515
0.010742184
0.010531565
0.010330621
0.010139316
0.0099576206
0.0097855065
0.00962295
0.0094699308
0.0093264323
0.0091924417
0.0090679496
0.0089529507
0.0088474435
0.0087514302
0.0086649172
0.0085879148
0.0085204377
0.0084625045
0.0084141383
0.0083753656
0.0083462142
0.0083267092
0.0083168917
0.020979236
0.020466722
0.019965994
0.019476905
0.018999358
0.018533281
0.018078607
0.017635266
0.017203184
0.016782287
0.016372497
0.015973736
0.015585923
0.015208981
0.014842828
0.014487387
0.01414258
0.01380833
0.013484562
0.013171203
0.012868182
0.012575431
0.012292883
0.012020476
0.011758149
0.011505845
0.011263511
0.011031095
0.010808549
0.010595831
0.0103929
0.010199718
0.010016254
0.0098424762
0.0096783599
0.0095238827
0.0093790264
0.0092437761
0.0091181214
0.0090020554
0.0088955751
0.0087986818
0.0087113807
0.0086336811
0.0085655968
0.0085071457
0.0084583502
0.0084192362
0.0083898307
0.0083701577
0.0083602563
0.021158353
0.02063928
0.020132217
0.019637012
0.019153562
0.018681792
0.018221629
0.017772997
0.017335818
0.016910012
0.016495495
0.016092186
0.015699999
0.01531885
0.014948656
0.014589333
0.0142408
0.013902974
0.013575778
0.013259135
0.012952969
0.012657208
0.012371783
0.012096628
0.011831679
0.011576875
0.01133216
0.01109748
0.010872786
0.01065803
0.01045317
0.010258166
0.010072984
0.0098975923
0.009731962
0.0095760698
0.0094298954
0.0092934229
0.00916664
0.0090495384
0.0089421142
0.0088443673
0.0087563018
0.0086779263
0.0086092534
0.0085503004
0.008501089
0.0084616445
0.0084319933
0.0084121579
0.0084021755
0.021331389
0.020805977
0.020292792
0.019791676
0.019302522
0.01882525
0.018359781
0.017906035
0.017463928
0.017033375
0.016614289
0.016206582
0.015810165
0.01542495
0.015050847
0.01468777
0.014335633
0.013994349
0.013663838
0.013344017
0.013034808
0.012736137
0.012447928
0.012170114
0.011902628
0.011645405
0.011398387
0.011161518
0.010934743
0.010718016
0.010511289
0.010314523
0.01012768
0.0099507253
0.0097836303
0.009626369
0.0094789198
0.0093412649
0.0092133908
0.0090952879
0.0089869509
0.0088883787
0.0087995744
0.0087205456
0.0086513041
0.0085918664
0.0085422535
0.0085024902
0.0084726021
0.0084526103
0.0084425501
0.021498035
0.020966515
0.02044743
0.019940618
0.019445968
0.018963394
0.018492812
0.018034138
0.017587282
0.017152154
0.016728664
0.016316718
0.015916223
0.015527086
0.015149215
0.014782519
0.014426906
0.014082288
0.013748579
0.013425694
0.013113551
0.012812072
0.012521179
0.0122408
0.011970866
0.011711311
0.011462071
0.011223089
0.010994308
0.010775678
0.010567152
0.010368685
0.010180239
0.010001777
0.0098332696
0.0096746878
0.009526009
0.0093872139
0.0092582875
0.0091392191
0.0090300022
0.0089306346
0.0088411183
0.0087614601
0.0086916709
0.0086317666
0.0085817674
0.0085416975
0.0085115818
0.0084914399
0.0084813051
0.021658065
0.021120674
0.02059592
0.020083637
0.019583706
0.019096038
0.018620544
0.018157133
0.017705712
0.017266188
0.016838463
0.016422442
0.016018027
0.01562512
0.015243626
0.014873449
0.014514495
0.014166671
0.013829886
0.013504054
0.013189089
0.012884909
0.012591434
0.012308589
0.012036301
0.011774501
0.011523124
0.011282109
0.011051398
0.010830939
0.01062068
0.010420578
0.01023059
0.010050679
0.0098808118
0.00972096
0.0095710986
0.0094312069
0.0093012687
0.0091812721
0.0090712093
0.0089710771
0.0088808767
0.0088006138
0.0087302987
0.0086699464
0.0086195765
0.0085792126
0.008548879
0.0085285936
0.0085183875
0.021811326
0.021268309
0.020738123
0.020220597
0.019715607
0.019223058
0.018742855
0.018274904
0.017819108
0.017375368
0.016943584
0.016523656
0.016115481
0.01571896
0.015333991
0.014960476
0.014598316
0.014247417
0.013907683
0.013579024
0.013261352
0.012954581
0.012658628
0.012373416
0.012098869
0.011834916
0.011581489
0.011338524
0.011105961
0.010883746
0.010671826
0.010470153
0.010278686
0.010097384
0.0099262133
0.009765143
0.0096141471
0.0094732036
0.009342295
0.0092214082
0.0091105343
0.0090096693
0.0089188132
0.008837971
0.0087671521
0.0087063708
0.0086556462
0.0086150012
0.0085844594
0.0085640372
0.0085537632
0.02195773
0.021409333
0.020873958
0.020351423
0.019841599
0.019344384
0.018859679
0.018387388
0.017927407
0.017479636
0.017043969
0.016620303
0.016208533
0.015808553
0.01542026
0.015043551
0.014678325
0.014324482
0.013981926
0.013650563
0.0133303
0.013021049
0.012722726
0.012435249
0.01215854
0.011892525
0.011637135
0.011392304
0.011157968
0.010934072
0.010720561
0.010517386
0.010324503
0.01014187
0.0099694512
0.0098072148
0.0096551332
0.0095131832
0.0093813461
0.0092596077
0.0091479581
0.0090463922
0.0089549093
0.0088735133
0.0088022131
0.0087410223
0.0086899591
0.0086490461
0.008618306
0.0085977537
0.0085874153
0.022097244
0.021543717
0.021003397
0.020476091
0.019961659
0.019459995
0.018970997
0.018494564
0.018030591
0.017578972
0.0171396
0.016712367
0.016297164
0.015893884
0.015502418
0.01512266
0.014754507
0.014397855
0.014052605
0.013718658
0.013395922
0.013084304
0.012783716
0.012494076
0.012215303
0.01194732
0.011690056
0.011443441
0.011207413
0.010981912
0.010766882
0.010562272
0.010368036
0.010184132
0.010010521
0.0098471712
0.0096940529
0.0095511421
0.0094184187
0.0092958674
0.0091834776
0.0090812429
0.008989162
0.0089072381
0.0088354791
0.008773898
0.0087225126
0.0086813446
0.0086504161
0.0086297405
0.0086193412
0.02222988
0.021671476
0.021126461
0.020594622
0.020075809
0.019569911
0.019076827
0.01859645
0.018128676
0.017673393
0.017230493
0.016799863
0.016381392
0.015974967
0.015580479
0.015197818
0.014826877
0.014467549
0.014119731
0.013783325
0.013458231
0.013144358
0.012841613
0.012549912
0.012269172
0.011999313
0.011740262
0.011491949
0.011254307
0.011027276
0.010810798
0.010604821
0.010409296
0.01022418
0.010049434
0.0098850233
0.0097309175
0.0095870912
0.0094535235
0.0093301981
0.0092171033
0.009114232
0.009021582
0.0089391557
0.0088669604
0.0088050084
0.0087533167
0.0087119068
0.0086807999
0.0086600076
0.0086495508
0.02235569
0.021792675
0.021243216
0.02070708
0.020184109
0.01967419
0.019177222
0.018693099
0.018221711
0.017762947
0.017316694
0.016882835
0.016461257
0.016051845
0.015654485
0.015269064
0.014895471
0.014533599
0.014183342
0.013844596
0.013517262
0.013201244
0.012896449
0.012602788
0.012320176
0.012048534
0.011787784
0.011537855
0.011298679
0.011070193
0.010852338
0.01064506
0.01044831
0.010262042
0.010086216
0.0099207957
0.0097657507
0.009621054
0.0094866837
0.0093626225
0.0092488578
0.0091453818
0.0090521912
0.0089692879
0.0088966785
0.0088343745
0.0087823927
0.0087407536
0.0087094781
0.0086885758
0.0086780649
0.022474785
0.021907446
0.021353775
0.020813566
0.02028665
0.019772917
0.019272265
0.018784587
0.018309773
0.017847707
0.017398272
0.016961351
0.016536827
0.01612458
0.015724495
0.015336456
0.014960349
0.014596064
0.014243491
0.013902526
0.013573066
0.013255012
0.01294827
0.012652749
0.012368363
0.012095027
0.011832665
0.011581202
0.01134057
0.011110703
0.01089154
0.010683028
0.010485114
0.010297752
0.010120901
0.0099545237
0.0097985874
0.0096530649
0.0095179331
0.0093931738
0.0092787737
0.0091747241
0.0090810211
0.0089976658
0.0089246641
0.0088620271
0.0088097708
0.0087679153
0.0087364807
0.0087154749
0.0087049133
0.022015959
0.021458293
0.020914211
0.020383552
0.019866203
0.019362061
0.018871017
0.018392958
0.017927765
0.017475319
0.017035499
0.016608185
0.016193255
0.01579059
0.015400072
0.015021584
0.014655013
0.014300248
0.013957181
0.013625708
0.013305726
0.012997141
0.012699858
0.012413789
0.01213885
0.01187496
0.011622044
0.011380032
0.011148856
0.010928455
0.010718773
0.010519757
0.010331359
0.010153537
0.0099862519
0.0098294714
0.0096831665
0.0095473135
0.0094218933
0.0093068917
0.0092022993
0.0091081114
0.0090243286
0.0089509561
0.0088880044
0.008835489
0.0087934294
0.0087618452
0.0087407423
0.0087301333
0.02211848
0.021556939
0.02100916
0.020474949
0.019954177
0.019446734
0.018952508
0.018471381
0.018003233
0.017547942
0.017105382
0.016675432
0.016257966
0.015852863
0.015460002
0.015079265
0.014710534
0.014353696
0.014008642
0.013675265
0.013353462
0.013043133
0.012744184
0.012456525
0.012180069
0.011914734
0.011660444
0.011417126
0.011184713
0.010963141
0.010752353
0.010552294
0.010362916
0.010184175
0.010016033
0.0098584537
0.0097114092
0.0095748744
0.0094488295
0.0093332594
0.0092281541
0.0091335083
0.0090493219
0.0089755995
0.0089123511
0.0088595915
0.00881734
0.0087856152
0.0087644216
0.0087537683
0.022215027
0.021649835
0.021098558
0.020560988
0.020036982
0.019526423
0.019029193
0.018545173
0.018074238
0.017616262
0.017171118
0.016738681
0.016318824
0.015911421
0.01551635
0.01513349
0.014762721
0.014403928
0.014057
0.013721826
0.013398303
0.013086329
0.012785807
0.012496647
0.012218759
0.011952061
0.011696473
0.011451923
0.011218342
0.010995664
0.010783831
0.010582787
0.010392484
0.010212876
0.010043924
0.0098855915
0.0097378489
0.0096006706
0.0094740362
0.0093579298
0.0092523408
0.0091572633
0.0090726965
0.0089986445
0.0089351168
0.0088821276
0.0088396959
0.0088078396
0.0087865611
0.0087758667
0.022305742
0.02173713
0.021182562
0.020641826
0.020114772
0.019601277
0.01910122
0.018614475
0.018140915
0.017680411
0.017232835
0.016798057
0.016375947
0.015966379
0.015569227
0.015184368
0.014811679
0.014451045
0.014102351
0.013765485
0.013440341
0.013126817
0.012824815
0.012534239
0.012255002
0.011987019
0.011730209
0.011484497
0.011249814
0.011026094
0.010813276
0.010611305
0.01042013
0.010239705
0.010069989
0.0099109465
0.0097625461
0.0096247616
0.0094975718
0.0093809603
0.0092749159
0.009179432
0.0090945073
0.0090201455
0.0089563553
0.0089031507
0.00886055
0.0088285708
0.0088072133
0.0087964809
0.022390812
0.021818999
0.021261342
0.020717632
0.020187714
0.019671459
0.019168743
0.018679436
0.01820341
0.017740531
0.017290668
0.016853689
0.016429463
0.01601786
0.015618752
0.015232013
0.01485752
0.014495155
0.0141448
0.013806343
0.013479675
0.013164694
0.012861297
0.012569391
0.012288885
0.012019692
0.011761732
0.011514928
0.011279208
0.011054507
0.010840763
0.010637919
0.010445923
0.010264729
0.010094295
0.0099345841
0.0097855647
0.00964721
0.0095194979
0.0094024116
0.009295939
0.0092000733
0.0091148125
0.0090401597
0.0089761233
0.0089227169
0.0088799583
0.0088478644
0.0088264336
0.008815666
0.022470441
0.021895634
0.021335085
0.020788585
0.020255979
0.019737136
0.019231925
0.018740216
0.018261874
0.017796767
0.017344759
0.016905716
0.016479504
0.016065991
0.015665048
0.015276545
0.01490036
0.014536369
0.014184455
0.013844505
0.013516407
0.013200056
0.012895351
0.012602195
0.012320497
0.012050168
0.011791128
0.011543297
0.011306604
0.011080982
0.010866367
0.010662702
0.010469936
0.010288019
0.01011691
0.009956572
0.0098069714
0.0096680811
0.0095398787
0.0094223465
0.0093154722
0.0092192482
0.0091336721
0.0090587468
0.0089944799
0.0089408847
0.0088979786
0.008865778
0.0088442794
0.0088334794
0.022544843
0.021967236
0.02140398
0.02085487
0.020319748
0.01979848
0.019290933
0.018796974
0.018316465
0.017849272
0.017395255
0.016954278
0.016526207
0.016110906
0.015708243
0.015318089
0.014940316
0.014574803
0.014221429
0.013880079
0.01355064
0.013233006
0.012927075
0.012632747
0.012349931
0.012078537
0.011818483
0.01156969
0.011332084
0.011105597
0.010890166
0.010685732
0.010492242
0.010309648
0.010137907
0.0099769799
0.0098268342
0.0096874418
0.0095587796
0.0094408296
0.0093335787
0.0092370192
0.0091511481
0.0090759676
0.0090114854
0.008957714
0.0089146705
0.0088823708
0.0088608096
0.0088499798
0.022614232
0.022034008
0.021468224
0.020916675
0.020379202
0.019855668
0.019345938
0.018849876
0.018367342
0.017898198
0.017442303
0.01699952
0.01656971
0.016152736
0.015748466
0.015356767
0.014977512
0.014610574
0.014255834
0.013913174
0.013582481
0.013263647
0.012956567
0.012661143
0.012377281
0.01210489
0.011843887
0.011594193
0.011355732
0.011128436
0.01091224
0.010707086
0.010512919
0.01032969
0.010157356
0.0099958782
0.0098452222
0.0097053597
0.0095762672
0.0094579261
0.0093503231
0.0092534498
0.0091673028
0.0090918842
0.0090272008
0.0089732652
0.008930094
0.0088977027
0.0088760837
0.0088652268
0.022678823
0.022096158
0.021528016
0.020974192
0.020434526
0.019908878
0.019397112
0.018899087
0.018414664
0.0179437
0.017486054
0.017041585
0.016610152
0.016191619
0.015785848
0.015392708
0.015012068
0.014643801
0.014287785
0.013943902
0.013612037
0.013292081
0.012983929
0.012687481
0.01240264
0.012129318
0.011867429
0.011616891
0.011377632
0.011149579
0.010932669
0.010726841
0.010532041
0.010348219
0.010175331
0.010013338
0.0098622047
0.0097219028
0.0095924082
0.0094737018
0.0093657698
0.0092686035
0.0091821992
0.0091065584
0.0090416878
0.0089875994
0.0089443096
0.0089118336
0.0088901616
0.0088792801
0.022738831
0.022153892
0.021583555
0.021027612
0.020485904
0.019958288
0.019444626
0.018944775
0.018458593
0.017985935
0.017526657
0.017080618
0.016647675
0.016227688
0.01582052
0.015426037
0.015044106
0.0146746
0.014317396
0.013972372
0.013639415
0.013318413
0.013009261
0.012711857
0.012426104
0.012151913
0.011889196
0.011637873
0.011397867
0.011169108
0.010951531
0.010745075
0.010549684
0.010365308
0.010191903
0.010029429
0.0098778508
0.009737139
0.0096072692
0.009488222
0.0093799833
0.0092825439
0.0091958997
0.0091200521
0.0090550073
0.0090007771
0.0089573776
0.0089248234
0.008903103
0.0088921991
0.022794469
0.022207416
0.021635036
0.021077126
0.02053352
0.020004076
0.019488652
0.018987105
0.018499287
0.018025055
0.017564261
0.017116763
0.016682415
0.016261078
0.015852611
0.015456878
0.015073748
0.014703089
0.014344779
0.013998695
0.013664721
0.013342746
0.013032662
0.012734368
0.012447766
0.012172765
0.011909278
0.011657222
0.011416522
0.011187105
0.010968906
0.010761864
0.010565922
0.010381031
0.010207144
0.010044222
0.009892229
0.0097511353
0.009620916
0.0095015515
0.0093930271
0.0092953335
0.0092084664
0.0091324265
0.00906722
0.0090128583
0.0089693573
0.0089367314
0.0089149668
0.0089040429
0.022845948
0.022256931
0.021682657
0.021122921
0.020577556
0.020046417
0.01952936
0.019026239
0.018536905
0.018061213
0.017599013
0.017150161
0.016714511
0.01629192
0.015882248
0.015485357
0.015101112
0.014729384
0.014370046
0.014022977
0.013688059
0.013365179
0.01305423
0.012755109
0.012467718
0.012191964
0.01192776
0.011675023
0.011433677
0.011203648
0.010984871
0.010777284
0.010580831
0.010395459
0.010221124
0.010057785
0.0099054066
0.0097639577
0.0096334134
0.0095137539
0.0094049641
0.0093070343
0.00921996
0.0091437418
0.0090783854
0.0090239021
0.0089803076
0.0089476158
0.0089258112
0.0089148692
0.022893474
0.022302636
0.021726607
0.021165182
0.020618189
0.020085483
0.019566915
0.019062338
0.018571602
0.018094558
0.017631057
0.017180953
0.016744097
0.016320346
0.015909557
0.015511593
0.015126316
0.014753597
0.014393308
0.014045325
0.013709531
0.013385813
0.013074061
0.012774173
0.012486049
0.012209597
0.011944728
0.011691359
0.011449413
0.011218816
0.010999503
0.01079141
0.01059448
0.010408664
0.010233913
0.010070187
0.0099174496
0.0097756709
0.009644825
0.0095248916
0.0094158555
0.0093177067
0.0092304404
0.0091540569
0.0090885619
0.0090339663
0.0089902857
0.0089575337
0.0089356928
0.0089247349
0.022937247
0.022344724
0.021767075
0.02120409
0.020655596
0.020121443
0.01960148
0.019095559
0.018603528
0.018125236
0.017660535
0.017209273
0.016771304
0.016346481
0.015934661
0.015535705
0.015149475
0.014775839
0.01441467
0.014065842
0.013729238
0.013404744
0.013092249
0.01279165
0.012502848
0.012225749
0.011960264
0.01170631
0.011463808
0.011232685
0.011012874
0.010804312
0.010606943
0.010420713
0.010245576
0.010081491
0.0099284223
0.009786338
0.0096552126
0.0095350254
0.0094257612
0.0093274096
0.0092399657
0.0091634295
0.0090978064
0.0090431074
0.0089993476
0.0089665408
0.0089446673
0.0089336952
0.022977464
0.022383386
0.021804243
0.021239822
0.020689946
0.020154461
0.019633215
0.019126056
0.018632832
0.018153391
0.017687583
0.017235255
0.01679626
0.01637045
0.01595768
0.015557809
0.0151707
0.014796219
0.014434237
0.014084629
0.013747278
0.013422066
0.013108885
0.01280763
0.012518201
0.012240505
0.01197445
0.011719954
0.011476939
0.011245329
0.011025058
0.010816063
0.010618285
0.010431673
0.01025618
0.010091763
0.0099383872
0.0097960202
0.0096646362
0.0095442145
0.0094347394
0.0093362004
0.0092485923
0.0091719152
0.0091061741
0.0090513799
0.0090075477
0.0089746911
0.0089527883
0.0089418038
0.023014315
0.022418802
0.021838286
0.021272548
0.020721405
0.020184698
0.019662273
0.019153977
0.018659657
0.018179161
0.017712335
0.017259028
0.01681909
0.016392372
0.015978729
0.015578017
0.015190098
0.014814839
0.01445211
0.014101784
0.013763743
0.013437871
0.013124058
0.012822198
0.012532191
0.012253943
0.011987363
0.011732368
0.011488878
0.01125682
0.011036124
0.010826729
0.010628575
0.01044161
0.010265787
0.010101064
0.0099474048
0.0098047768
0.0096731542
0.009552516
0.0094428462
0.0093441344
0.0092563751
0.0091795681
0.0091137185
0.0090588369
0.0090149385
0.0089820367
0.0089601078
0.0089491128
0.023047981
0.02245115
0.021869378
0.021302436
0.020750134
0.020212309
0.019688805
0.019179467
0.018684143
0.018202678
0.017734921
0.017280717
0.016839915
0.016412365
0.01599792
0.015596437
0.015207776
0.014831802
0.014468386
0.014117401
0.013778727
0.013452248
0.013137853
0.012835436
0.012544898
0.012266142
0.01199908
0.011743625
0.011499698
0.011267226
0.01104614
0.010836375
0.010637875
0.010450585
0.010274459
0.010109454
0.0099555334
0.009812665
0.0096808226
0.0095599849
0.009450136
0.0093512651
0.0092633666
0.0091864403
0.0091204911
0.0090655295
0.0090215707
0.0089886282