/*--------------------------------*- C++ -*----------------------------------*\
| =========                 |                                                 |
| \\      /  F ield         | OpenFOAM: The Open Source CFD Toolbox           |
|  \\    /   O peration     | Version:  2312                                  |
|   \\  /    A nd           | Website:  www.openfoam.com                      |
|    \\/     M anipulation  |                                                 |
\*---------------------------------------------------------------------------*/
FoamFile
{
    version     2.0;
    format      ascii;
    arch        "LSB;label=32;scalar=64";
    class       volScalarField;
    location    "0.1";
    object      Ma;
}
// * * * * * * * * * * * * * * * * * * * * * * * * * * * * * * * * * * * * * //

dimensions      [0 0 0 0 0 0 0];

internalField   nonuniform List<scalar> 
3257
(
0.0022102455
0.0021788627
0.0021477964
0.0021170675
0.0020866953
0.0020566982
0.002027094
0.0019979001
0.0019691331
0.0019408095
0.0019129452
0.0018855559
0.0018586569
0.0018322633
0.00180639
0.001781052
0.0017562641
0.0017320409
0.0017083974
0.0016853485
0.0016629091
0.0016410945
0.0016199199
0.0015994011
0.0015795536
0.0015603935
0.0015419371
0.0015242006
0.0015072008
0.0014909546
0.0014754791
0.0014607916
0.0014469096
0.0014338512
0.0014216345
0.0014102782
0.0013998013
0.0013902236
0.0013815658
0.0013738498
0.0013670991
0.0013613394
0.0013565996
0.0013529132
0.0013503199
0.0013488635
0.0013485889
0.001349588
0.0013521645
0.0013568214
0.0013619587
0.0021462279
0.0021158563
0.0020858088
0.0020561049
0.0020267625
0.0019977991
0.0019692315
0.0019410761
0.001913349
0.0018860655
0.001859241
0.0018328902
0.001807028
0.0017816687
0.0017568268
0.0017325165
0.0017087522
0.001685548
0.0016629183
0.0016408776
0.0016194404
0.0015986215
0.0015784358
0.0015588985
0.0015400248
0.0015218305
0.0015043313
0.0014875434
0.0014714829
0.0014561664
0.0014416107
0.0014278326
0.0014148495
0.0014026787
0.0013913381
0.0013808457
0.0013712201
0.0013624804
0.0013546463
0.0013477385
0.0013417789
0.0013367906
0.0013327988
0.0013298309
0.0013279179
0.0013270891
0.0013273571
0.0013287287
0.0013313742
0.001335837
0.001341324
0.0021040059
0.0020742198
0.0020447675
0.0020156673
0.0019869364
0.0019585913
0.001930648
0.0019031223
0.0018760293
0.0018493839
0.0018232007
0.001797494
0.0017722777
0.0017475659
0.0017233724
0.0016997107
0.0016765947
0.0016540381
0.0016320546
0.0016106582
0.0015898629
0.0015696828
0.0015501324
0.0015312261
0.0015129788
0.0014954055
0.0014785213
0.0014623416
0.001446882
0.0014321582
0.0014181861
0.0014049818
0.0013925614
0.0013809411
0.0013701375
0.0013601669
0.0013510459
0.0013427914
0.0013354203
0.0013289494
0.0013233958
0.0013187767
0.0013151087
0.0013124082
0.0013106908
0.001309966
0.0013102228
0.0013114373
0.001313716
0.0013174896
0.0013220648
0.0020654594
0.0020361693
0.0020072242
0.0019786416
0.0019504376
0.0019226279
0.0018952276
0.0018682518
0.0018417148
0.0018156307
0.0017900135
0.0017648766
0.0017402336
0.0017160975
0.0016924816
0.0016693989
0.0016468625
0.0016248854
0.0016034808
0.0015826618
0.0015624419
0.0015428344
0.0015238531
0.0015055118
0.0014878244
0.0014708052
0.0014544684
0.0014388285
0.0014239001
0.0014096979
0.0013962365
0.0013835308
0.0013715954
0.0013604449
0.001350094
0.0013405568
0.0013318475
0.0013239799
0.0013169673
0.0013108223
0.0013055568
0.0013011817
0.0012977059
0.0012951368
0.0012934788
0.0012927299
0.00129287
0.0012938704
0.0012958211
0.0012991
0.0013031
0.0020299882
0.002001109
0.001972588
0.0019444415
0.0019166847
0.0018893323
0.0018623988
0.0018358981
0.001809844
0.0017842497
0.0017591283
0.0017344926
0.0017103552
0.0016867287
0.0016636255
0.0016410578
0.0016190379
0.0015975781
0.0015766909
0.0015563885
0.0015366836
0.0015175887
0.0014991167
0.0014812806
0.0014640932
0.0014475678
0.0014317178
0.0014165563
0.0014020969
0.0013883529
0.0013753375
0.0013630641
0.0013515454
0.0013407944
0.0013308233
0.0013216441
0.0013132682
0.001305706
0.0012989675
0.0012930611
0.0012879941
0.0012837719
0.0012803979
0.0012778728
0.0012761947
0.0012753559
0.0012753337
0.0012760999
0.0012777323
0.001280567
0.0012840834
0.0019977307
0.0019691772
0.0019409962
0.0019132033
0.0018858126
0.0018588381
0.0018322931
0.001806191
0.0017805444
0.0017553658
0.0017306675
0.0017064615
0.0016827596
0.0016595734
0.0016369145
0.0016147945
0.0015932247
0.0015722166
0.0015517817
0.0015319315
0.0015126776
0.0014940317
0.0014760056
0.0014586113
0.0014418606
0.0014257657
0.0014103386
0.0013955914
0.0013815362
0.0013681849
0.0013555492
0.0013436407
0.0013324704
0.0013220491
0.001312387
0.0013034935
0.0012953772
0.0012880459
0.001281506
0.0012757625
0.0012708188
0.0012666764
0.0012633343
0.0012607892
0.0012590354
0.0012580625
0.001257848
0.0012583648
0.0012596776
0.0012620816
0.001265136
0.0019684743
0.0019401663
0.0019122467
0.0018847298
0.0018576289
0.0018309571
0.0018047269
0.0017789506
0.0017536401
0.0017288069
0.0017044625
0.001680618
0.0016572844
0.0016344723
0.0016121926
0.0015904557
0.0015692723
0.0015486528
0.0015286078
0.0015091478
0.0014902835
0.0014720255
0.0014543845
0.0014373713
0.0014209968
0.0014052718
0.0013902071
0.0013758134
0.0013621013
0.0013490813
0.0013367635
0.0013251576
0.001314273
0.0013041183
0.0012947015
0.0012860299
0.0012781095
0.0012709455
0.0012645414
0.0012588993
0.0012540197
0.0012499009
0.0012465391
0.0012439283
0.0012420605
0.0012409243
0.001240498
0.0012407559
0.0012417507
0.0012437381
0.0012463509
0.0019419739
0.0019138374
0.0018861059
0.001858793
0.001831911
0.0018054719
0.0017794875
0.0017539691
0.0017289277
0.001704374
0.0016803186
0.0016567715
0.0016337429
0.0016112425
0.0015892803
0.0015678657
0.0015470085
0.0015267181
0.001507004
0.0014878758
0.0014693431
0.0014514153
0.0014341021
0.0014174131
0.001401358
0.0013859462
0.0013711873
0.0013570905
0.0013436652
0.0013309201
0.0013188638
0.0013075042
0.001296849
0.0012869048
0.0012776778
0.0012691728
0.001261394
0.0012543439
0.001248024
0.0012424339
0.0012375717
0.0012334336
0.0012300136
0.0012273041
0.0012252957
0.0012239765
0.001223326
0.0012233203
0.0012240007
0.0012255858
0.0012277754
0.0019180017
0.0018899683
0.0018623575
0.0018351819
0.0018084529
0.0017821816
0.0017563789
0.0017310551
0.0017062203
0.0016818845
0.001658057
0.0016347473
0.0016119644
0.0015897172
0.0015680145
0.001546865
0.0015262774
0.00150626
0.0014868214
0.00146797
0.0014497143
0.0014320626
0.0014150236
0.0013986055
0.0013828166
0.0013676654
0.0013531599
0.0013393081
0.0013261177
0.001313596
0.00130175
0.0012905862
0.0012801102
0.0012703271
0.0012612411
0.0012528552
0.0012451716
0.001238191
0.0012319128
0.0012263347
0.001221453
0.0012172622
0.001213755
0.0012109226
0.0012087547
0.001207239
0.0012063569
0.0012060859
0.0012064569
0.0012076528
0.0012094348
0.0018963351
0.0018683424
0.0018407904
0.0018136909
0.0017870544
0.001760891
0.0017352106
0.0017100228
0.0016853368
0.0016611616
0.0016375056
0.0016143772
0.0015917847
0.001569736
0.0015482389
0.001527301
0.00150693
0.0014871333
0.0014679183
0.0014492924
0.0014312629
0.001413837
0.0013970222
0.0013808254
0.0013652539
0.0013503147
0.0013360145
0.0013223599
0.0013093572
0.0012970124
0.0012853308
0.0012743174
0.0012639763
0.0012543108
0.0012453236
0.0012370161
0.0012293885
0.0012224401
0.0012161685
0.00121057
0.0012056395
0.0012013701
0.0011977536
0.0011947802
0.0011924393
0.0011907185
0.0011896004
0.0011890644
0.001189132
0.0011899513
0.0011913388
0.0018767571
0.0018487485
0.0018211994
0.0017941203
0.0017675209
0.0017414106
0.0017157984
0.0016906929
0.0016661024
0.001642035
0.0016184983
0.0015954997
0.0015730464
0.0015511456
0.0015298039
0.0015090281
0.0014888247
0.0014692001
0.0014501607
0.0014317127
0.0014138623
0.0013966158
0.001379979
0.0013639581
0.0013485589
0.0013337872
0.0013196483
0.0013061477
0.0012932902
0.0012810803
0.0012695221
0.0012586189
0.0012483736
0.0012387879
0.001229863
0.0012215987
0.001213994
0.0012070466
0.0012007528
0.0011951077
0.0011901049
0.0011857367
0.0011819941
0.0011788666
0.0011763432
0.0011744117
0.0011730558
0.0011722567
0.0011720273
0.0011724818
0.0011734866
0.001859059
0.001830984
0.0018033871
0.0017762783
0.0017496662
0.0017235594
0.001697966
0.0016728939
0.0016483503
0.0016243426
0.0016008773
0.0015779611
0.0015556002
0.0015338007
0.0015125684
0.001491909
0.0014718281
0.0014523309
0.0014334229
0.0014151091
0.0013973947
0.0013802846
0.0013637838
0.0013478971
0.0013326291
0.0013179844
0.0013039671
0.0012905813
0.0012778307
0.0012657183
0.001254247
0.0012434187
0.0012332349
0.001223696
0.0012148019
0.0012065511
0.0011989412
0.0011919689
0.0011856292
0.0011799161
0.0011748225
0.0011703397
0.0011664581
0.0011631669
0.0011604546
0.0011583091
0.0011567154
0.0011556562
0.0011551367
0.0011552376
0.0011558703
0.0018430421
0.0018148556
0.0017871662
0.0017599828
0.0017333133
0.0017071654
0.0016815465
0.0016564636
0.0016319231
0.0016079313
0.0015844941
0.0015616172
0.0015393058
0.0015175653
0.0014964003
0.0014758157
0.0014558159
0.0014364053
0.0014175882
0.0013993687
0.0013817507
0.0013647382
0.001348335
0.0013325446
0.0013173706
0.0013028163
0.0012888848
0.0012755789
0.0012629009
0.0012508528
0.001239436
0.0012286514
0.0012184992
0.0012089786
0.0012000882
0.0011918255
0.001184187
0.001177168
0.0011707629
0.0011649647
0.0011597654
0.0011551558
0.0011511257
0.0011476639
0.0011447588
0.0011423981
0.0011405678
0.0011392522
0.0011384495
0.001138208
0.0011384782
0.0018285189
0.0018001816
0.0017723601
0.0017450625
0.0017182961
0.0016920675
0.0016663836
0.0016412502
0.0016166733
0.0015926583
0.0015692101
0.0015463336
0.0015240332
0.0015023131
0.0014811773
0.0014606297
0.0014406736
0.0014213125
0.0014025497
0.0013843881
0.0013668308
0.0013498805
0.00133354
0.0013178118
0.0013026983
0.0012882017
0.0012743238
0.0012610664
0.0012484306
0.0012364173
0.0012250267
0.0012142586
0.001204112
0.0011945851
0.0011856753
0.0011773792
0.0011696921
0.0011626086
0.0011561222
0.001150225
0.0011449084
0.0011401627
0.0011359771
0.0011323402
0.00112924
0.0011266642
0.0011245995
0.0011230321
0.0011219533
0.0011213802
0.0011212968
0.0018153146
0.0017867925
0.0017588045
0.0017313583
0.00170446
0.001678116
0.001652332
0.0016271133
0.001602465
0.0015783917
0.0015548975
0.0015319866
0.0015096624
0.0014879283
0.0014667874
0.0014462426
0.0014262965
0.0014069514
0.0013882097
0.0013700734
0.0013525445
0.0013356247
0.0013193157
0.001303619
0.0012885359
0.0012740675
0.0012602147
0.001246978
0.0012343575
0.0012223531
0.0012109639
0.0012001885
0.001190025
0.0011804706
0.0011715217
0.0011631739
0.0011554218
0.0011482591
0.0011416783
0.0011356711
0.0011302282
0.0011253394
0.0011209934
0.0011171786
0.0011138827
0.001111093
0.0011087972
0.0011069827
0.0011056353
0.0011047411
0.0011043127
0.001803268
0.0017745318
0.001746348
0.0017187232
0.0016916631
0.0016651732
0.0016392586
0.0016139239
0.0015891733
0.0015650108
0.0015414397
0.0015184634
0.0014960845
0.0014743056
0.0014531289
0.0014325565
0.00141259
0.001393231
0.0013744807
0.0013563404
0.0013388109
0.0013218931
0.0013055876
0.001289895
0.0012748156
0.0012603494
0.0012464962
0.0012332557
0.0012206269
0.0012086086
0.001197199
0.0011863958
0.0011761961
0.0011665961
0.0011575914
0.0011491767
0.0011413458
0.0011340916
0.0011274062
0.0011212804
0.0011157044
0.0011106674
0.001106158
0.001102164
0.0010986727
0.0010956715
0.0010931483
0.0010910921
0.0010894836
0.0010882789
0.0010875135
0.0017922316
0.001763257
0.0017348524
0.0017070237
0.001679776
0.0016531141
0.0016270424
0.0016015649
0.0015766851
0.0015524063
0.0015287312
0.0015056621
0.0014832013
0.0014613503
0.0014401106
0.0014194835
0.0013994697
0.00138007
0.0013612847
0.0013431142
0.0013255584
0.0013086172
0.0012922904
0.0012765776
0.001261478
0.0012469909
0.0012331151
0.0012198491
0.0012071912
0.0011951392
0.0011836905
0.0011728417
0.0011625891
0.0011529281
0.0011438535
0.0011353592
0.0011274383
0.001120083
0.0011132846
0.0011070335
0.0011013194
0.001096131
0.0010914564
0.0010872831
0.0010835982
0.0010803885
0.0010776423
0.00107535
0.0010734881
0.0010719833
0.001070889
0.0017820721
0.001752839
0.0017241928
0.001696139
0.001668682
0.0016418259
0.0016155745
0.0015899313
0.0015648992
0.0015404806
0.0015166777
0.0014934921
0.0014709253
0.0014489782
0.0014276516
0.0014069458
0.001386861
0.0013673969
0.0013485532
0.0013303293
0.0013127243
0.0012957374
0.0012793673
0.0012636127
0.0012484721
0.0012339437
0.0012200255
0.0012067152
0.0011940102
0.0011819074
0.0011704032
0.0011594936
0.0011491741
0.0011394391
0.0011302829
0.0011216984
0.0011136783
0.001106214
0.0010992964
0.0010929151
0.0010870595
0.0010817177
0.0010768774
0.0010725258
0.0010686495
0.0010652351
0.0010622708
0.0010597484
0.0010576408
0.0010558465
0.001054431
0.0017726702
0.0017431624
0.0017142579
0.0016859615
0.001658277
0.0016312081
0.0016047581
0.0015789298
0.0015537254
0.0015291469
0.0015051957
0.001481873
0.0014591794
0.0014371154
0.0014156808
0.0013948754
0.0013746986
0.0013551494
0.0013362266
0.0013179289
0.0013002547
0.0012832022
0.0012667694
0.0012509542
0.0012357541
0.0012211667
0.0012071891
0.0011938181
0.0011810503
0.0011688817
0.0011573082
0.0011463249
0.0011359264
0.0011261066
0.0011168589
0.0011081759
0.0011000492
0.0010924699
0.0010854282
0.0010789134
0.0010729141
0.0010674181
0.0010624127
0.0010578847
0.0010538202
0.0010502053
0.0010470283
0.001044282
0.0010419366
0.0010398633
0.0010381344
0.0017639202
0.0017341251
0.0017049488
0.0016763958
0.0016484692
0.0016211724
0.0015945079
0.0015684781
0.0015430848
0.0015183292
0.0014942124
0.0014707349
0.0014478967
0.0014256975
0.0014041368
0.0013832136
0.0013629265
0.0013432739
0.0013242541
0.0013058647
0.0012881037
0.0012709683
0.0012544559
0.0012385635
0.001223288
0.0012086261
0.0011945741
0.0011811281
0.001168284
0.0011560371
0.0011443824
0.0011333144
0.0011228269
0.0011129133
0.0011035663
0.0010947777
0.0010865387
0.0010788399
0.0010716708
0.0010650202
0.0010588763
0.0010532264
0.0010480574
0.0010433555
0.0010391065
0.001035296
0.0010319119
0.0010289482
0.001026373
0.0010240313
0.0010219965
0.0017557293
0.0017256374
0.0016961792
0.0016673586
0.0016391784
0.0016116413
0.0015847495
0.0015585049
0.0015329088
0.0015079619
0.0014836648
0.0014600174
0.0014370192
0.0014146695
0.001392967
0.0013719101
0.001351497
0.0013317254
0.0013125927
0.0012940962
0.0012762329
0.0012589996
0.0012423928
0.0012264089
0.0012110441
0.0011962943
0.0011821551
0.001168622
0.0011556901
0.001143354
0.0011316081
0.0011204461
0.0011098614
0.0010998467
0.0010903938
0.0010814944
0.0010731388
0.0010653172
0.0010580184
0.001051231
0.0010449426
0.0010391399
0.0010338094
0.0010289369
0.0010245077
0.0010205067
0.0010169216
0.0010137471
0.0010109502
0.0010083509
0.0010060178
0.001748017
0.0017176217
0.0016878742
0.0016587779
0.0016303351
0.0016025482
0.001575419
0.0015489488
0.0015231385
0.0014979886
0.0014734989
0.0014496691
0.0014264981
0.0014039846
0.001382127
0.001360923
0.0013403703
0.001320466
0.0013012071
0.00128259
0.0012646113
0.001247267
0.0012305531
0.0012144653
0.0011989991
0.0011841498
0.0011699125
0.0011562818
0.0011432523
0.0011308179
0.0011189725
0.001107709
0.0010970203
0.0010868984
0.0010773349
0.0010683204
0.0010598452
0.0010518986
0.0010444692
0.0010375448
0.0010311126
0.0010251591
0.00101967
0.0010146307
0.0010100259
0.00100584
0.0010020601
0.00099868176
0.00099567119
0.00099282498
0.00099020122
0.001740714
0.0017100114
0.0016799696
0.0016505919
0.0016218801
0.0015938363
0.0015664618
0.0015397576
0.0015137243
0.0014883618
0.0014636696
0.0014396469
0.0014162924
0.0013936042
0.0013715802
0.0013502177
0.0013295139
0.0013094654
0.0012900685
0.0012713193
0.0012532138
0.0012357473
0.0012189154
0.001202713
0.0011871353
0.0011721767
0.0011578319
0.0011440948
0.0011309595
0.0011184193
0.0011064673
0.0010950962
0.0010842981
0.0010740645
0.0010643864
0.0010552541
0.0010466571
0.0010385844
0.001031024
0.0010239634
0.0010173891
0.0010112871
0.0010056428
0.0010004409
0.00099566572
0.00099130082
0.00098733262
0.0009837574
0.00098054139
0.00097745907
0.00097455217
0.0017337616
0.0017027497
0.0016724111
0.0016427484
0.0016137634
0.0015854576
0.0015578322
0.0015308877
0.0015046244
0.0014790418
0.0014541392
0.0014299154
0.0014063685
0.0013834965
0.0013612967
0.0013397662
0.0013189016
0.001298699
0.0012791544
0.0012602634
0.0012420213
0.0012244232
0.0012074639
0.001191138
0.0011754399
0.0011603638
0.0011459036
0.0011320528
0.0011188048
0.0011061525
0.0010940884
0.0010826047
0.001071693
0.0010613442
0.0010515488
0.0010422967
0.0010335769
0.0010253778
0.001017687
0.0010104915
0.0010037774
0.00099753003
0.00099173433
0.00098637453
0.00098143426
0.00097689644
0.00097274669
0.00096898169
0.00096556842
0.00096226085
0.00095907839
0.0017271106
0.0016957895
0.0016651532
0.001635204
0.0016059434
0.0015773725
0.0015494923
0.0015223031
0.0014958047
0.0014699964
0.0014448773
0.0014204456
0.0013966994
0.0013736363
0.0013512531
0.0013295467
0.0013085131
0.0012881484
0.0012684478
0.0012494067
0.00123102
0.0012132821
0.0011961876
0.0011797306
0.001163905
0.0011487044
0.0011341222
0.0011201516
0.0011067853
0.0010940158
0.0010818352
0.0010702351
0.0010592065
0.00104874
0.0010388257
0.0010294527
0.0010206097
0.0010122847
0.0010044648
0.00099713638
0.00099028513
0.00098389596
0.00097795314
0.00097244038
0.0009673407
0.00096263628
0.00095831185
0.00095436428
0.00095076194
0.00094724
0.00094378955
0.00172072
0.0016890915
0.0016581584
0.0016279228
0.0015983858
0.0015695485
0.0015414114
0.0015139745
0.0014872376
0.0014611997
0.0014358594
0.001411215
0.001387264
0.0013640038
0.0013414312
0.0013195424
0.0012983335
0.0012777997
0.0012579365
0.0012387385
0.0012202003
0.0012023161
0.0011850799
0.0011684854
0.0011525261
0.0011371952
0.0011224858
0.0011083904
0.0010949014
0.0010820109
0.0010697103
0.0010579908
0.0010468432
0.0010362574
0.001026223
0.0010167289
0.0010077632
0.00099931342
0.00099136616
0.00098390738
0.00097692224
0.00097039514
0.0009643098
0.00095864931
0.00095339609
0.00094853155
0.00094403942
0.00093991658
0.00093613332
0.0009324079
0.00092869704
0.0017145566
0.0016826238
0.0016513962
0.0016208758
0.0015910633
0.0015619595
0.0015335647
0.0015058789
0.0014789015
0.0014526313
0.0014270668
0.001402206
0.0013780462
0.0013545847
0.0013318178
0.0013097416
0.001288352
0.0012676439
0.0012476124
0.001228252
0.0012095568
0.0011915207
0.0011741375
0.0011574004
0.0011413025
0.0011258368
0.0011109958
0.0010967717
0.0010831565
0.0010701418
0.0010577187
0.001045878
0.0010346099
0.001023904
0.0010137494
0.0010041345
0.00099504714
0.00098647419
0.0009784019
0.00097081572
0.00096370031
0.00095703952
0.0009508165
0.00094501375
0.00093961303
0.00093459499
0.00092994223
0.00092565145
0.00092169537
0.00091777737
0.00091381367
0.0017085939
0.0016763611
0.0016448426
0.0016140401
0.001583954
0.001554585
0.0015259332
0.0014979984
0.0014707798
0.001444276
0.0014184854
0.0013934058
0.0013690345
0.0013453684
0.0013224037
0.0013001364
0.001278562
0.0012576754
0.0012374713
0.001217944
0.0011990874
0.0011808951
0.0011633606
0.0011464767
0.0011302364
0.0011146322
0.0010996563
0.0010853005
0.0010715565
0.0010584155
0.0010458682
0.001033905
0.0010225156
0.0010116894
0.001001415
0.00099168043
0.00098247288
0.00097377895
0.00096558439
0.00095787416
0.00095063241
0.00094384245
0.00093748685
0.00093154747
0.00092600542
0.00092084055
0.00091603432
0.00091158295
0.00090746206
0.00090336236
0.00089915339
0.0017028112
0.0016702836
0.0016384787
0.0016073979
0.0015770414
0.0015474096
0.0015185025
0.0014903196
0.0014628602
0.0014361227
0.0014101053
0.0013848058
0.0013602212
0.0013363484
0.0013131836
0.0012907224
0.0012689603
0.001247892
0.001227512
0.0012078145
0.001188793
0.0011704411
0.0011527519
0.0011357182
0.0011193324
0.0011035869
0.0010884736
0.001073984
0.0010601093
0.0010468406
0.0010341681
0.0010220818
0.0010105712
0.00099962517
0.00098923191
0.00097937902
0.00097005335
0.00096124102
0.00095292731
0.00094509669
0.0009377328
0.00093081841
0.00092433549
0.00091826526
0.00091258814
0.0009072832
0.00090233067
0.00089772606
0.0008934483
0.00088917772
0.00088473105
0.0016971933
0.0016643762
0.0016322904
0.0016009359
0.0015703131
0.0015404218
0.001511262
0.0014828332
0.0014551343
0.0014281639
0.0014019201
0.0013764004
0.0013516019
0.0013275214
0.0013041549
0.0012814982
0.0012595463
0.0012382941
0.0012177359
0.0011978656
0.0011786769
0.0011601629
0.0011423166
0.0011251306
0.0011085972
0.0010927084
0.0010774559
0.001062831
0.0010488247
0.0010354274
0.0010226294
0.0010104201
0.00099878876
0.00098772382
0.00097721315
0.00096724391
0.00095780256
0.00094887475
0.00094044533
0.00093249826
0.00092501667
0.00091798277
0.00091137793
0.00090518271
0.00089937684
0.00089393859
0.00088884695
0.00088409645
0.00087966961
0.00087523892
0.00087056209
0.0016586284
0.0016262673
0.0015946448
0.0015637604
0.0015336138
0.0015042049
0.001475533
0.001447597
0.0014203954
0.0013939262
0.001368187
0.0013431749
0.0013188865
0.0012953178
0.0012724646
0.0012503219
0.0012288845
0.0012081465
0.0011881019
0.0011687442
0.0011500664
0.0011320613
0.0011147215
0.0010980391
0.0010820058
0.0010666131
0.0010518521
0.0010377135
0.0010241876
0.0010112642
0.00099893259
0.0009871815
0.0009759991
0.00096537288
0.00095528963
0.00094573537
0.00093669532
0.00092815387
0.00092009451
0.00091249983
0.00090535148
0.00089863022
0.00089231594
0.00088638767
0.00088082288
0.00087559928
0.00087071021
0.00086614195
0.00086156183
0.00085666235
0.0016530313
0.0016204025
0.0015885182
0.0015573778
0.0015269808
0.0014973269
0.0014684155
0.0014402454
0.0014128151
0.0013861226
0.0013601654
0.0013349407
0.001310445
0.0012866745
0.0012636248
0.0012412909
0.0012196677
0.0011987493
0.0011785295
0.0011590018
0.0011401592
0.0011219945
0.0011045
0.0010876677
0.0010714893
0.001055956
0.0010410588
0.001026788
0.0010131339
0.0010000858
0.00098763288
0.00097576349
0.00096446546
0.00095372594
0.00094353131
0.00093386721
0.00092471843
0.00091606887
0.00090790155
0.00090019852
0.00089294088
0.00088610876
0.00087968138
0.00087363705
0.00086795245
0.00086260403
0.00085758364
0.00085288145
0.00084816248
0.00084304786
0.0016475807
0.0016146919
0.0015825525
0.0015511621
0.0015205202
0.0014906263
0.0014614797
0.0014330792
0.0014054233
0.0013785101
0.0013523372
0.0013269016
0.0013022
0.0012782286
0.0012549831
0.0012324585
0.0012106497
0.0011895508
0.0011691557
0.0011494578
0.0011304502
0.0011121255
0.0010944761
0.0010774938
0.0010611702
0.0010454964
0.0010304633
0.001016061
0.0010022795
0.00098910793
0.00097653516
0.0009645493
0.00095313784
0.00094228757
0.00093198452
0.0009222139
0.00091296007
0.0009042065
0.00089593569
0.00088812917
0.00088076747
0.00087383009
0.00086729557
0.00086114149
0.00085534377
0.00084987758
0.00084473306
0.00083990426
0.00083505691
0.0008297346
0.0016422739
0.0016091331
0.001576746
0.0015451124
0.0015142315
0.0014841029
0.001454726
0.0014260995
0.0013982219
0.0013710913
0.0013447054
0.0013190614
0.0012941559
0.0012699854
0.0012465453
0.0012238311
0.0012018375
0.0011805588
0.0011599889
0.0011401212
0.0011209489
0.0011024645
0.0010846604
0.0010675285
0.0010510603
0.0010352468
0.0010200786
0.0010055458
0.00099163818
0.00097834474
0.00096565401
0.00095355385
0.00094203146
0.00093107328
0.00092066497
0.00091079137
0.00090143639
0.00089258303
0.00088421331
0.00087630822
0.00086884772
0.00086181068
0.00085517496
0.0008489174
0.00084301315
0.00083743615
0.00083217463
0.00082722633
0.00082226091
0.00081673836
0.0016371103
0.001603726
0.0015710988
0.0015392289
0.0015081156
0.0014777584
0.0014481564
0.0014193087
0.0013912137
0.0013638697
0.0013372743
0.0013114248
0.0012863182
0.0012619507
0.0012383182
0.001215416
0.001193239
0.0011717817
0.0011510381
0.0011310016
0.0011116654
0.0010930223
0.0010750645
0.0010577839
0.001041172
0.0010252198
0.0010099178
0.00099525606
0.00098122403
0.00096781062
0.00095500412
0.00094279214
0.00093116158
0.00092009857
0.0009095884
0.00089961551
0.0008901634
0.0008812146
0.00087275062
0.00086475193
0.00085719789
0.00085006677
0.00084333574
0.00083698089
0.00083097662
0.00082529567
0.00081992416
0.00081486328
0.00080978995
0.00080407455
0.0016320909
0.0015984714
0.0015656124
0.0015335137
0.0015021748
0.0014715952
0.0014417741
0.0014127105
0.001384403
0.0013568498
0.0013300488
0.0013039975
0.0012786928
0.0012541312
0.0012303087
0.0012072209
0.0011848626
0.0011632285
0.0011423128
0.001122109
0.0011026104
0.0010838098
0.0010656997
0.0010482718
0.0010315178
0.0010154284
0.00099999437
0.00098520546
0.00097105106
0.00095751994
0.00094460016
0.0009322791
0.00092054338
0.00090937881
0.00089877035
0.00088870202
0.0008791569
0.00087011707
0.00086156353
0.00085347621
0.00084583391
0.00083861424
0.0008317937
0.00082534765
0.00081924975
0.00081347157
0.00080799699
0.00080283022
0.00079765897
0.00079175807
0.0016272177
0.0015933719
0.001560289
0.0015279693
0.001496412
0.0014656167
0.0014355827
0.0014063089
0.0013777941
0.0013500367
0.0013230346
0.0012967855
0.0012712865
0.0012465341
0.0012225247
0.0011992539
0.0011767168
0.0011549083
0.0011338226
0.0011134535
0.0010937945
0.0010748384
0.0010565777
0.0010390044
0.00102211
0.0010058856
0.00099032146
0.00097540758
0.0009611332
0.0009474869
0.00093445659
0.00092202942
0.00091019175
0.00089892908
0.00088822601
0.00087806619
0.00086843228
0.00085930588
0.0008506675
0.00084249653
0.00083477117
0.00082746843
0.00082056411
0.00081403283
0.00080784753
0.00080197872
0.00079640787
0.00079114165
0.00078588228
0.00077980321
0.0016224935
0.0015884302
0.001555132
0.0015225991
0.0014908309
0.0014598269
0.0014295865
0.0014001087
0.0013713923
0.0013434359
0.0013162376
0.0012897951
0.0012641058
0.0012391666
0.0012149738
0.0011915233
0.0011688105
0.0011468303
0.0011255773
0.0011050455
0.0010852283
0.0010661189
0.00104771
0.0010299935
0.0010129611
0.00099660381
0.00098091209
0.00096587578
0.00095148405
0.00093772539
0.00092458753
0.00091205742
0.00090012117
0.00088876399
0.00087797013
0.00086772287
0.00085800442
0.00084879594
0.00084007743
0.00083182773
0.00082402448
0.00081664404
0.00080966154
0.00080305088
0.00079678428
0.00079083125
0.00078517079
0.00077981133
0.00077447345
0.00076822348
0.0016179217
0.0015836498
0.0015501449
0.001517407
0.0014854355
0.0014542301
0.0014237901
0.0013941146
0.0013652027
0.0013370529
0.0013096636
0.0012830327
0.0012571578
0.001232036
0.0012076637
0.0011840373
0.0011611522
0.0011390037
0.0011175864
0.0010968947
0.0010769223
0.0010576624
0.0010391078
0.0010212508
0.001004083
0.00098759553
0.00097177893
0.00095662298
0.00094211682
0.00092824883
0.00091500661
0.00090237691
0.00089034561
0.00087889762
0.00086801687
0.00085768625
0.00084788757
0.00083860149
0.00082980754
0.00082148399
0.00081360791
0.00080615505
0.00079909986
0.00079241551
0.00078607352
0.00078004249
0.00077429897
0.00076885221
0.00076344518
0.00075703158
0.001613506
0.0015790346
0.0015453316
0.0015123969
0.00148023
0.0014488306
0.0014181981
0.0013883317
0.0013592306
0.0013308934
0.0013033187
0.0012765047
0.0012504492
0.0012251493
0.0012006021
0.0011768038
0.0011537503
0.0011314372
0.0011098592
0.001089011
0.0010688865
0.0010494792
0.001030782
0.0010127874
0.00099548722
0.00097887261
0.00096293413
0.00094766161
0.00093304417
0.00091907011
0.00090572689
0.0008930011
0.00088087839
0.00086934339
0.00085837971
0.00084796986
0.00083809523
0.00082873603
0.00081987126
0.00081147867
0.00080353474
0.0007960146
0.00078889205
0.00078213954
0.0007757279
0.00076962489
0.00076380469
0.00075827631
0.00075280928
0.00074623926
0.0016092502
0.0015745885
0.0015406961
0.001507573
0.0014752187
0.001443633
0.0014128153
0.0013827649
0.0013534811
0.0013249628
0.0012972087
0.0012702172
0.0012439863
0.0012185136
0.0011937961
0.0011698305
0.001146613
0.0011241392
0.0011024045
0.0010814035
0.0010611305
0.0010415793
0.001022743
0.0010046142
0.00098718485
0.00097044634
0.00095438927
0.00093900351
0.00092427816
0.00091020145
0.00089676077
0.00088394252
0.00087173213
0.00086011399
0.00084907138
0.00083858644
0.00082864014
0.00081921224
0.00081028122
0.0008018243
0.00079381738
0.00078623497
0.00077905023
0.0007722349
0.00076575915
0.00075958996
0.00075369928
0.0007480947
0.00074257654
0.0007358573
0.0016051584
0.0015703154
0.0015362423
0.0015029392
0.0014704057
0.0014386414
0.001407646
0.0013774188
0.0013479592
0.0013192663
0.001291339
0.001264176
0.0012377755
0.0012121352
0.0011872526
0.0011631247
0.0011397477
0.0011171179
0.0010952306
0.001074081
0.0010536635
0.0010339722
0.0010150005
0.0009967411
0.00097918626
0.00096232741
0.00094615529
0.00093065983
0.00091583012
0.00090165439
0.00088811989
0.00087521291
0.00086291868
0.00085122131
0.00084010379
0.00082954789
0.00081953417
0.00081004192
0.00080104913
0.00079253248
0.00078446729
0.00077682747
0.00076958553
0.00076271253
0.00075617799
0.00074994818
0.00074399306
0.00073831739
0.00073275671
0.00072589543
0.0016012344
0.001566219
0.001531974
0.0014984994
0.0014657949
0.00143386
0.0014026945
0.0013722978
0.0013426695
0.0013138088
0.0012857148
0.0012583865
0.0012318223
0.0012060203
0.0011809781
0.001156693
0.0011331617
0.0011103806
0.0010883454
0.0010670516
0.001046494
0.0010266668
0.0010075636
0.00098917765
0.00097150116
0.0009545258
0.0009382424
0.00092264098
0.00090771066
0.00089343965
0.00087981513
0.00086682325
0.00085444904
0.00084267639
0.00083148798
0.00082086522
0.00081078826
0.00080123595
0.00079218577
0.00078361386
0.00077549498
0.00076780244
0.00076050811
0.00075358238
0.00074699414
0.00074070902
0.00073469529
0.00072895336
0.00072335846
0.00071636228
0.0015974816
0.001562303
0.0015278948
0.0014942573
0.0014613899
0.0014292925
0.0013979646
0.001367406
0.0013376162
0.0013085947
0.0012803408
0.0012528537
0.0012261321
0.0012001743
0.0011749783
0.0011505416
0.0011268613
0.0011039341
0.0010817561
0.0010603229
0.0010396297
0.0010196711
0.0010004409
0.00098193255
0.00096413855
0.00094705071
0.00093066002
0.00091495658
0.00089992957
0.00088556717
0.00087185651
0.00085878362
0.00084633336
0.00083448939
0.00082323409
0.00081254853
0.00080241246
0.00079280426
0.00078370094
0.00077507811
0.00076690995
0.0007591692
0.00075182709
0.00074485336
0.00073821629