/*--------------------------------*- C++ -*----------------------------------*\
| =========                 |                                                 |
| \\      /  F ield         | OpenFOAM: The Open Source CFD Toolbox           |
|  \\    /   O peration     | Version:  2312                                  |
|   \\  /    A nd           | Website:  www.openfoam.com                      |
|    \\/     M anipulation  |                                                 |
\*---------------------------------------------------------------------------*/
FoamFile
{
    version     2.0;
    format      ascii;
    arch        "LSB;label=32;scalar=64";
    class       volScalarField;
    location    "0.1";
    object      N2;
}
// * * * * * * * * * * * * * * * * * * * * * * * * * * * * * * * * * * * * * //

dimensions      [0 0 0 0 0 0 0];

internalField   nonuniform List<scalar> 
3257
(
0.75625191
0.75655822
0.75685853
0.75715286
0.75744122
0.7577236
0.75799997
0.75827032
0.75853464
0.75879291
0.75904513
0.75929128
0.75953137
0.75976538
0.75999332
0.76021517
0.76043095
0.76064064
0.76084426
0.76104179
0.76123325
0.76141863
0.76159793
0.76177115
0.76193829
0.76209937
0.76225436
0.76240328
0.76254611
0.76268287
0.76281354
0.76293812
0.76305661
0.763169
0.76327528
0.76337545
0.76346949
0.7635574
0.76363917
0.76371477
0.7637842
0.76384744
0.76390447
0.76395528
0.76399983
0.76403812
0.7640701
0.76409576
0.76411507
0.76412798
0.76413446
0.75622466
0.75653195
0.75683323
0.7571285
0.75741777
0.75770102
0.75797825
0.75824942
0.75851452
0.75877355
0.7590265
0.75927335
0.75951411
0.75974876
0.75997731
0.76019976
0.7604161
0.76062634
0.76083047
0.7610285
0.76122043
0.76140626
0.76158599
0.76175962
0.76192716
0.7620886
0.76224395
0.7623932
0.76253636
0.76267341
0.76280437
0.76292922
0.76304796
0.76316059
0.76326709
0.76336747
0.76346171
0.7635498
0.76363173
0.76370748
0.76377705
0.76384042
0.76389756
0.76394847
0.76399311
0.76403147
0.76406352
0.76408924
0.76410859
0.76412154
0.76412805
0.7561733
0.7564825
0.75678563
0.75708268
0.75737367
0.75765859
0.75793741
0.75821011
0.7584767
0.75873715
0.75899146
0.75923963
0.75948164
0.75971751
0.75994722
0.76017077
0.76038818
0.76059944
0.76080454
0.7610035
0.76119632
0.761383
0.76156355
0.76173795
0.76190623
0.76206837
0.76222439
0.76237428
0.76251803
0.76265566
0.76278715
0.76291251
0.76303173
0.76314481
0.76325174
0.76335251
0.76344711
0.76353554
0.76361778
0.76369383
0.76376366
0.76382727
0.76388462
0.76393572
0.76398053
0.76401903
0.7640512
0.76407701
0.76409643
0.76410944
0.76411597
0.7561008
0.75641271
0.75671845
0.75701803
0.75731144
0.75759869
0.75787976
0.75815463
0.7584233
0.75868575
0.75894199
0.759192
0.75943579
0.75967336
0.7599047
0.76012982
0.76034873
0.76056142
0.7607679
0.76096818
0.76116226
0.76135014
0.76153183
0.76170733
0.76187665
0.76203978
0.76219674
0.76234752
0.76249213
0.76263056
0.76276282
0.76288889
0.76300879
0.7631225
0.76323003
0.76333135
0.76342648
0.76351539
0.76359808
0.76367453
0.76374473
0.76380868
0.76386634
0.7639177
0.76396274
0.76400145
0.76403378
0.76405972
0.76407925
0.76409232
0.76409889
0.75601
0.75632531
0.75663431
0.75693703
0.75723348
0.75752364
0.75780752
0.7580851
0.75835637
0.75862132
0.75887996
0.75913228
0.75937829
0.75961799
0.75985137
0.76007846
0.76029924
0.76051373
0.76072193
0.76092386
0.76111951
0.76130889
0.76149202
0.76166889
0.76183951
0.76200389
0.76216203
0.76231394
0.76245961
0.76259905
0.76273226
0.76285924
0.76297998
0.76309449
0.76320276
0.76330479
0.76340057
0.76349008
0.76357333
0.76365029
0.76372096
0.76378533
0.76384337
0.76389507
0.76394041
0.76397936
0.7640119
0.76403801
0.76405766
0.76407082
0.76407742
0.75590359
0.75622285
0.75653567
0.75684207
0.75714206
0.75743564
0.7577228
0.75800354
0.75827785
0.75854573
0.75880718
0.75906221
0.75931081
0.759553
0.75978878
0.76001815
0.76024114
0.76045773
0.76066795
0.76087181
0.7610693
0.76126045
0.76144526
0.76162374
0.76179589
0.76196173
0.76212126
0.76227448
0.7624214
0.76256202
0.76269635
0.76282439
0.76294613
0.76306158
0.76317073
0.76327358
0.76337012
0.76346034
0.76354424
0.76362181
0.76369303
0.76375789
0.76381638
0.76386847
0.76391415
0.7639534
0.76398619
0.76401249
0.76403229
0.76404554
0.7640522
0.75578407
0.75610776
0.75642486
0.75673537
0.75703933
0.75733673
0.75762758
0.75791186
0.75818959
0.75846075
0.75872536
0.75898342
0.75923493
0.75947992
0.75971838
0.75995033
0.76017578
0.76039474
0.76060722
0.76081324
0.76101281
0.76120594
0.76139264
0.76157292
0.7617468
0.76191427
0.76207536
0.76223006
0.76237839
0.76252035
0.76265594
0.76278516
0.76290802
0.76302453
0.76313466
0.76323843
0.76333583
0.76342685
0.76351149
0.76358974
0.76366157
0.763727
0.76378598
0.76383852
0.76388459
0.76392417
0.76395723
0.76398376
0.76400371
0.76401708
0.76402379
0.75565376
0.75598227
0.75630401
0.75661901
0.75692729
0.75722885
0.75752371
0.75781185
0.75809329
0.75836802
0.75863607
0.75889743
0.75915211
0.75940014
0.75964153
0.75987628
0.76010442
0.76032596
0.76054091
0.7607493
0.76095112
0.76114641
0.76133518
0.76151743
0.76169318
0.76186244
0.76202523
0.76218155
0.76233141
0.76247482
0.76261178
0.76274231
0.76286639
0.76298405
0.76309526
0.76320004
0.76329838
0.76339027
0.76347571
0.76355469
0.76362721
0.76369324
0.76375277
0.7638058
0.76385229
0.76389223
0.76392559
0.76395235
0.76397249
0.76398598
0.76399275
0.7555148
0.75584844
0.75617513
0.75649489
0.75680777
0.75711376
0.75741289
0.75770514
0.75799053
0.75826907
0.75854077
0.75880565
0.75906372
0.75931499
0.75955949
0.75979724
0.76002824
0.76025253
0.76047011
0.76068102
0.76088525
0.76108285
0.76127381
0.76145816
0.76163592
0.76180709
0.76197169
0.76212973
0.76228123
0.76242619
0.76256463
0.76269654
0.76282193
0.76294081
0.76305317
0.76315903
0.76325837
0.76335119
0.76343749
0.76351726
0.76359049
0.76365718
0.7637173
0.76377084
0.76381778
0.7638581
0.76389179
0.76391881
0.76393914
0.76395275
0.76395958
0.75536914
0.75570814
0.75604
0.75636476
0.75668245
0.75699308
0.75729667
0.75759322
0.75788276
0.75816528
0.75844082
0.75870938
0.75897099
0.75922566
0.75947343
0.75971431
0.75994832
0.76017548
0.76039582
0.76060937
0.76081613
0.76101614
0.76120941
0.76139597
0.76157582
0.76174899
0.7619155
0.76207535
0.76222857
0.76237516
0.76251513
0.76264849
0.76277525
0.76289542
0.763009
0.76311598
0.76321637
0.76331017
0.76339737
0.76347797
0.76355196
0.76361932
0.76368006
0.76373414
0.76378155
0.76382228
0.7638563
0.76388359
0.76390412
0.76391787
0.76392477
0.75521854
0.75556308
0.75590028
0.75623019
0.75655285
0.75686827
0.75717647
0.75747747
0.75777128
0.75805792
0.75833742
0.75860979
0.75887506
0.75913325
0.75938439
0.7596285
0.75986562
0.76009576
0.76031895
0.76053523
0.76074461
0.76094711
0.76114277
0.7613316
0.76151363
0.76168887
0.76185735
0.76201907
0.76217407
0.76232234
0.7624639
0.76259877
0.76272695
0.76284845
0.76296328
0.76307143
0.76317291
0.76326772
0.76335585
0.76343731
0.76351208
0.76358015
0.76364152
0.76369616
0.76374406
0.76378521
0.76381958
0.76384715
0.76386788
0.76388177
0.76388874
0.75506459
0.75541479
0.75575744
0.75609261
0.75642034
0.75674065
0.75705357
0.75735911
0.75765729
0.75794813
0.75823167
0.75850793
0.75877694
0.75903872
0.75929331
0.75954074
0.75978103
0.76001421
0.76024032
0.76045939
0.76067144
0.7608765
0.7610746
0.76126576
0.76145001
0.76162737
0.76179786
0.7619615
0.76211831
0.76226831
0.7624115
0.76254791
0.76267754
0.76280041
0.76291651
0.76302586
0.76312845
0.7632243
0.76331338
0.76339572
0.76347128
0.76354008
0.76360209
0.76365731
0.76370572
0.76374729
0.76378202
0.76380987
0.76383082
0.76384484
0.76385188
0.75490871
0.75526462
0.75561279
0.75595328
0.75628614
0.7566114
0.75692909
0.75723922
0.75754182
0.75783693
0.75812456
0.75840476
0.75867755
0.75894297
0.75920105
0.75945183
0.75969533
0.7599316
0.76016067
0.76038257
0.76059732
0.76080497
0.76100554
0.76119907
0.76138557
0.76156507
0.7617376
0.76190318
0.76206184
0.76221358
0.76235842
0.76249639
0.76262749
0.76275174
0.76286914
0.7629797
0.76308342
0.76318031
0.76327037
0.76335359
0.76342996
0.76349949
0.76356216
0.76361796
0.76366688
0.76370889
0.76374397
0.76377211
0.76379327
0.76380744
0.76381455
0.75475215
0.75511379
0.7554675
0.75581333
0.75615134
0.75648157
0.75680405
0.75711879
0.75742583
0.75772521
0.75801696
0.75830111
0.7585777
0.75884678
0.75910836
0.75936251
0.75960924
0.75984861
0.76008064
0.76030538
0.76052286
0.76073311
0.76093616
0.76113206
0.76132082
0.76150248
0.76167707
0.7618446
0.7620051
0.7621586
0.76230511
0.76244464
0.76257722
0.76270286
0.76282156
0.76293334
0.76303819
0.76313614
0.76322716
0.76331128
0.76338847
0.76345873
0.76352206
0.76357845
0.76362787
0.76367031
0.76370576
0.76373418
0.76375556
0.76376987
0.76377706
0.75459601
0.75496336
0.75532259
0.75567374
0.75601689
0.75635208
0.75667932
0.75699866
0.75731013
0.75761377
0.75790962
0.75819772
0.7584781
0.75875082
0.7590159
0.75927341
0.75952336
0.75976582
0.76000081
0.76022839
0.76044858
0.76066142
0.76086696
0.76106522
0.76125625
0.76144006
0.76161669
0.76178617
0.76194852
0.76210377
0.76225193
0.76239304
0.76252709
0.76265411
0.76277412
0.76288711
0.7629931
0.76309209
0.76318409
0.76326909
0.76334709
0.76341809
0.76348208
0.76353905
0.76358898
0.76363186
0.76366767
0.76369638
0.76371797
0.76373242
0.76373968
0.75444124
0.75481426
0.75517894
0.75553538
0.75588362
0.75622371
0.75655568
0.75687958
0.75719544
0.75750331
0.75780322
0.75809523
0.75837937
0.7586557
0.75892425
0.75918508
0.75943824
0.75968376
0.75992169
0.76015207
0.76037496
0.76059038
0.76079837
0.76099898
0.76119225
0.76137819
0.76155686
0.76172827
0.76189245
0.76204944
0.76219925
0.7623419
0.76247742
0.76260582
0.76272711
0.76284131
0.76294843
0.76304846
0.76314142
0.7632273
0.76330611
0.76337784
0.76344248
0.76350003
0.76355046
0.76359377
0.76362993
0.76365893
0.76368074
0.76369533
0.76370266
0.75428866
0.75466726
0.75503734
0.75539897
0.75575223
0.75609716
0.75643379
0.75676218
0.75708237
0.7573944
0.75769832
0.75799419
0.75828204
0.75856192
0.7588339
0.75909802
0.75935432
0.75960286
0.75984369
0.76007685
0.76030239
0.76052035
0.76073077
0.7609337
0.76112917
0.76131723
0.76149789
0.76167121
0.76183721
0.76199591
0.76214734
0.76229153
0.76242849
0.76255825
0.76268081
0.7627962
0.76290442
0.76300548
0.76309939
0.76318615
0.76326575
0.7633382
0.76340348
0.7634616
0.76351253
0.76355626
0.76359278
0.76362205
0.76364407
0.7636588
0.7636662
0.75413899
0.75452306
0.75489842
0.75526516
0.75562333
0.75597301
0.75631422
0.75664702
0.75697145
0.75728757
0.75759542
0.75789507
0.75818656
0.75846994
0.75874528
0.75901262
0.75927201
0.75952352
0.75976719
0.76000308
0.76023122
0.76045167
0.76066448
0.76086968
0.76106733
0.76125745
0.76144009
0.76161527
0.76178304
0.76194343
0.76209645
0.76224215
0.76238053
0.76251162
0.76263543
0.76275199
0.7628613
0.76296337
0.76305821
0.76314582
0.7632262
0.76329936
0.76336527
0.76342395
0.76347537
0.76351951
0.76355637
0.76358592
0.76360814
0.76362301
0.76363048
0.7539928
0.75438222
0.75476274
0.75513446
0.75549744
0.75585175
0.75619743
0.75653454
0.75686312
0.75718323
0.75749493
0.75779827
0.75809331
0.75838011
0.75865873
0.75892922
0.75919164
0.75944605
0.7596925
0.75993105
0.76016174
0.76038463
0.76059977
0.76080719
0.76100696
0.7611991
0.76138366
0.76156068
0.76173019
0.76189222
0.7620468
0.76219397
0.76233374
0.76246613
0.76259117
0.76270887
0.76281924
0.7629223
0.76301805
0.76310649
0.76318764
0.76326148
0.76332801
0.76338723
0.76343913
0.76348368
0.76352087
0.76355069
0.76357311
0.76358811
0.76359564
0.75385059
0.75424521
0.75463075
0.75500732
0.75537498
0.7557338
0.75608383
0.75642513
0.75675774
0.75708174
0.75739718
0.75770412
0.75800262
0.75829275
0.75857456
0.75884812
0.75911348
0.75937071
0.75961987
0.75986101
0.76009418
0.76031945
0.76053685
0.76074645
0.76094828
0.76114239
0.76132883
0.76150763
0.76167882
0.76184246
0.76199856
0.76214716
0.76228827
0.76242194
0.76254816
0.76266698
0.76277838
0.7628824
0.76297904
0.7630683
0.76315018
0.7632247
0.76329183
0.76335158
0.76340394
0.76344889
0.76348641
0.76351649
0.7635391
0.76355423
0.76356182
0.75371274
0.7541124
0.75450282
0.75488408
0.75525628
0.75561948
0.75597372
0.75631908
0.75665562
0.75698338
0.75730245
0.75761288
0.75791474
0.75820809
0.758493
0.75876953
0.75903776
0.75929773
0.75954951
0.75979316
0.76002874
0.76025631
0.76047592
0.76068761
0.76089145
0.76108747
0.76127573
0.76145626
0.7616291
0.76179429
0.76195186
0.76210185
0.76224428
0.76237917
0.76250655
0.76262644
0.76273886
0.76284381
0.7629413
0.76303135
0.76311396
0.76318912
0.76325684
0.7633171
0.7633699
0.76341523
0.76345307
0.7634834
0.7635062
0.76352146
0.76352911
0.75357957
0.75398411
0.75437923
0.75476504
0.75514162
0.75550905
0.75586737
0.75621666
0.75655697
0.75688838
0.75721096
0.75752476
0.75782986
0.75812633
0.75841424
0.75869365
0.75896464
0.75922726
0.75948158
0.75972766
0.75996557
0.76019537
0.7604171
0.76063083
0.76083661
0.76103448
0.7612245
0.7614067
0.76158113
0.76174782
0.76190682
0.76205815
0.76220185
0.76233793
0.76246643
0.76258737
0.76270075
0.7628066
0.76290493
0.76299574
0.76307904
0.76315483
0.76322311
0.76328387
0.76333711
0.76338281
0.76342095
0.76345152
0.7634745
0.76348988
0.76349759
0.75345133
0.75386056
0.75426022
0.7546504
0.75503121
0.75540271
0.75576496
0.75611803
0.75646199
0.75679691
0.75712286
0.75743992
0.75774815
0.75804763
0.75833843
0.75862061
0.75889426
0.75915943
0.7594162
0.75966463
0.75990479
0.76013673
0.76036052
0.76057621
0.76078386
0.76098351
0.76117522
0.76135904
0.761535
0.76170315
0.76186352
0.76201615
0.76216106
0.7622983
0.76242787
0.76254981
0.76266413
0.76277085
0.76286998
0.76296153
0.7630455
0.76312189
0.76319071
0.76325196
0.76330561
0.76335166
0.7633901
0.76342091
0.76344406
0.76345955
0.76346732
0.75332818
0.75374192
0.75414594
0.75454033
0.75492519
0.7553006
0.75566662
0.75602333
0.7563708
0.7567091
0.7570383
0.75735848
0.75766972
0.75797208
0.75826566
0.75855051
0.75882672
0.75909435
0.75935347
0.75960416
0.75984647
0.76008048
0.76030624
0.76052382
0.76073326
0.76093463
0.76112798
0.76131334
0.76149078
0.76166032
0.76182201
0.76197589
0.76212198
0.76226032
0.76239093
0.76251384
0.76262906
0.76273662
0.76283651
0.76292877
0.76301338
0.76309036
0.7631597
0.7632214
0.76327545
0.76332185
0.76336057
0.7633916
0.76341492
0.76343051
0.76343834
0.75321023
0.75362831
0.75403649
0.75443491
0.75482367
0.75520282
0.75557246
0.75593266
0.75628348
0.75662502
0.75695733
0.75728051
0.75759463
0.75789977
0.75819601
0.75848342
0.75876208
0.75903206
0.75929344
0.75954629
0.75979068
0.76002667
0.76025432
0.76047371
0.76068488
0.76088789
0.7610828
0.76126966
0.76144851
0.76161939
0.76178235
0.76193742
0.76208464
0.76222404
0.76235564
0.76247948
0.76259556
0.76270392
0.76280456
0.76289749
0.76298272
0.76306025
0.76313009
0.76319223
0.76324667
0.76329339
0.76333238
0.76336362
0.7633871
0.7634028
0.76341068
0.75309757
0.75351978
0.75393196
0.75433422
0.75472669
0.75510943
0.75548253
0.75584606
0.75620009
0.75654472
0.75688002
0.75720606
0.75752294
0.75783073
0.75812951
0.75841937
0.75870038
0.75897262
0.75923616
0.75949108
0.75973744
0.75997533
0.7602048
0.76042591
0.76063873
0.76084332
0.76103973
0.76122801
0.76140821
0.76158037
0.76174454
0.76190076
0.76204906
0.76218947
0.76232203
0.76244675
0.76256366
0.76267278
0.76277412
0.7628677
0.76295352
0.76303159
0.76310191
0.76316447
0.76321927
0.7632663
0.76330555
0.76333699
0.76336062
0.76337643
0.76338435
0.75299021
0.75341636
0.75383234
0.75423827
0.75463428
0.75502044
0.75539684
0.75576354
0.75612064
0.75646822
0.75680636
0.75713514
0.75745465
0.75776497
0.75806618
0.75835838
0.75864163
0.75891601
0.75918162
0.75943851
0.75968677
0.75992646
0.76015766
0.76038043
0.76059483
0.76080092
0.76099876
0.76118839
0.76136989
0.76154327
0.7617086
0.76186591
0.76201524
0.76215662
0.76229009
0.76241565
0.76253335
0.76264321
0.76274522
0.76283942
0.7629258
0.76300438
0.76307515
0.76313811
0.76319326
0.76324059
0.76328008
0.76331172
0.76333549
0.76335139
0.76335936
0.75288814
0.75331804
0.75373763
0.75414705
0.75454642
0.75493583
0.75531537
0.7556851
0.75604512
0.75639551
0.75673635
0.75706774
0.75738975
0.75770248
0.75800601
0.75830043
0.75858581
0.75886225
0.75912981
0.75938859
0.75963865
0.75988007
0.76011291
0.76033725
0.76055316
0.76076068
0.76095988
0.76115081
0.76133353
0.76150809
0.76167452
0.76183287
0.76198318
0.76212548
0.76225981
0.76238619
0.76250464
0.76261519
0.76271784
0.76281263
0.76289955
0.7629786
0.76304981
0.76311315
0.76316863
0.76321624
0.76325597
0.76328779
0.7633117
0.76332769
0.7633357
0.75279132
0.75322476
0.75364777
0.7540605
0.75446307
0.75485557
0.75523808
0.75561069
0.75597348
0.75632654
0.75666996
0.75700382
0.75732822
0.75764323
0.75794896
0.75824549
0.75853291
0.75881129
0.75908072
0.75934129
0.75959306
0.75983612
0.76007053
0.76029637
0.76051369
0.76072258
0.76092307
0.76111524
0.76129913
0.76147479
0.76164227
0.76180162
0.76195286
0.76209604
0.76223119
0.76235833
0.76247749
0.7625887
0.76269197
0.76278731
0.76287474
0.76295426
0.76302587
0.76308958
0.76314537
0.76319325
0.7632332
0.76326519
0.76328923
0.7633053
0.76331336
0.75269963
0.75313643
0.75356268
0.75397854
0.75438414
0.75477957
0.75516492
0.75554026
0.75590568
0.75626127
0.75660713
0.75694334
0.75726999
0.75758718
0.757895
0.75819353
0.75848287
0.75876309
0.7590343
0.75929656
0.75954996
0.75979457
0.76003047
0.76025772
0.76047641
0.76068658
0.76088831
0.76108164
0.76126664
0.76144336
0.76161183
0.76177212
0.76192424
0.76206826
0.76220418
0.76233205
0.7624519
0.76256373
0.76266758
0.76276345
0.76285136
0.76293132
0.76300332
0.76306737
0.76312346
0.76317159
0.76321174
0.7632439
0.76326806
0.76328421
0.76329231
0.7530529
0.75348225
0.75390109
0.75430956
0.75470777
0.75509579
0.75547372
0.75584163
0.75619962
0.75654778
0.75688621
0.75721501
0.75753425
0.75784404
0.75814447
0.75843563
0.75871761
0.75899049
0.75925436
0.75950929
0.75975538
0.75999268
0.76022129
0.76044125
0.76065265
0.76085554
0.76104998
0.76123603
0.76141374
0.76158316
0.76174434
0.7618973
0.7620421
0.76217877
0.76230733
0.76242781
0.76254024
0.76264464
0.76274101
0.76282938
0.76290974
0.76298211
0.76304649
0.76310286
0.76315123
0.76319158
0.76322389
0.76324817
0.76326439
0.76327252
0.75297404
0.75340634
0.75382802
0.75423922
0.75464006
0.75503062
0.75541098
0.75578124
0.7561415
0.75649185
0.75683238
0.75716319
0.75748438
0.75779604
0.75809826
0.75839114
0.75867477
0.75894923
0.75921462
0.75947101
0.75971849
0.75995712
0.760187
0.76040817
0.76062073
0.76082472
0.76102021
0.76120725
0.76138591
0.76155622
0.76171823
0.76187199
0.76201754
0.7621549
0.76228411
0.7624052
0.76251819
0.7626231
0.76271995
0.76280875
0.76288951
0.76296222
0.7630269
0.76308354
0.76313213
0.76317267
0.76320513
0.76322951
0.7632458
0.76325397
0.75289976
0.75333486
0.75375922
0.75417301
0.75457633
0.75496927
0.75535194
0.75572443
0.75608682
0.75643923
0.75678174
0.75711445
0.75743747
0.75775089
0.75805481
0.75834931
0.7586345
0.75891046
0.75917728
0.75943504
0.75968383
0.75992372
0.76015479
0.76037712
0.76059076
0.76079579
0.76099227
0.76118025
0.76135979
0.76153095
0.76169375
0.76184826
0.76199451
0.76213253
0.76226236
0.76238402
0.76249754
0.76260294
0.76270024
0.76278944
0.76287056
0.76294361
0.76300858
0.76306547
0.76311427
0.76315498
0.76318758
0.76321206
0.76322841
0.76323661
0.75282997
0.75326769
0.75369458
0.75411079
0.75451645
0.75491165
0.75529649
0.75567107
0.75603548
0.75638982
0.75673419
0.7570687
0.75739345
0.75770852
0.75801403
0.75831006
0.75859672
0.75887408
0.75914225
0.75940131
0.75965133
0.75989241
0.76012461
0.76034801
0.76056268
0.76076869
0.7609661
0.76115497
0.76133535
0.76150729
0.76167085
0.76182607
0.76197297
0.76211162
0.76224203
0.76236423
0.76247825
0.76258411
0.76268182
0.76277141
0.76285288
0.76292623
0.76299147
0.76304859
0.7630976
0.76313847
0.76317119
0.76319576
0.76321218
0.76322041
0.75276452
0.75320469
0.75363396
0.75405245
0.75446031
0.75485763
0.75524451
0.75562105
0.75598735
0.75634351
0.75668964
0.75702583
0.7573522
0.75766883
0.75797584
0.75827331
0.75856134
0.75884003
0.75910947
0.75936974
0.75962092
0.75986311
0.76009638
0.76032079
0.76053643
0.76074336
0.76094165
0.76113135
0.76131251
0.7614852
0.76164947
0.76180534
0.76195288
0.7620921
0.76222306
0.76234576
0.76246025
0.76256655
0.76266466
0.76275461
0.7628364
0.76291004
0.76297553
0.76303288
0.76308207
0.76312309
0.76315594
0.76318059
0.76319707
0.76320532
0.75270326
0.75314573
0.75357721
0.75399785
0.75440777
0.75480708
0.75519587
0.75557425
0.75594233
0.7563002
0.75664797
0.75698574
0.75731363
0.75763172
0.75794013
0.75823895
0.75852828
0.75880821
0.75907884
0.75934024
0.75959252
0.75983576
0.76007002
0.76029539
0.76051194
0.76071973
0.76091884
0.76110932
0.76129123
0.76146462
0.76162954
0.76178604
0.76193416
0.76207393
0.7622054
0.76232858
0.76244351
0.76255021
0.7626487
0.76273898
0.76282108
0.76289499
0.76296072
0.76301827
0.76306764
0.7631088
0.76314176
0.7631665
0.76318303
0.7631913
0.75264601
0.75309064
0.7535242
0.75394684
0.75435869
0.75475986
0.75515045
0.75553055
0.75590029
0.75625976
0.75660907
0.75694832
0.75727763
0.75759709
0.75790682
0.7582069
0.75849744
0.75877853
0.75905027
0.75931275
0.75956605
0.75981026
0.76004546
0.76027172
0.76048912
0.76069773
0.76089761
0.76108882
0.76127142
0.76144547
0.76161101
0.7617681
0.76191676
0.76205705
0.762189
0.76231263
0.76242797
0.76253505
0.76263388
0.76272448
0.76280687
0.76288103
0.76294699
0.76300473
0.76305426
0.76309556
0.76312862
0.76315344
0.76317001
0.76317831
0.75259263
0.75303926
0.75347477
0.75389928
0.75431294
0.75471584
0.7551081
0.75548982
0.75586111
0.75622207
0.75657282
0.75691346
0.7572441
0.75756484
0.75787579
0.75817706
0.75846873
0.75875091
0.7590237
0.75928717
0.75954143
0.75978656
0.76002263
0.76024973
0.76046792
0.76067729
0.76087789
0.76106978
0.76125304
0.7614277
0.76159382
0.76175146
0.76190064
0.76204141
0.7621738
0.76229785
0.76241358
0.76252101
0.76262017
0.76271107
0.76279372
0.76286812
0.76293429
0.76299221
0.76304189
0.76308331
0.76311647
0.76314136
0.76315798
0.7631663
0.75254294
0.75299145
0.75342876
0.75385502
0.75427036
0.75467489
0.75506871
0.75545193
0.75582467
0.75618703
0.75653911
0.75688105
0.75721293
0.75753486
0.75784696
0.75814933
0.75844206
0.75872525
0.75899901
0.75926342
0.75951857
0.75976455
0.76000144
0.76022932
0.76044826
0.76065834
0.76085961
0.76105215
0.76123601
0.76141124
0.76157791
0.76173605
0.76188572
0.76202694
0.76215975
0.76228419
0.76240028
0.76250805
0.76260751
0.76269868
0.76278158
0.76285621
0.76292256
0.76298066
0.76303048
0.76307202
0.76310527
0.76313021
0.76314688
0.76315521
0.75249677
0.75294703
0.75338602
0.75381391
0.75423082
0.75463686
0.75503213
0.75541676
0.75579084
0.7561545
0.75650783
0.75685097
0.757184
0.75750705
0.75782022
0.75812361
0.75841733
0.75870147
0.75897613
0.75924141
0.7594974
0.75974418
0.75998183
0.76021043
0.76043007
0.7606408
0.76084271
0.76103584
0.76122027
0.76139604
0.76156321
0.76172183
0.76187194
0.76201358
0.76214679
0.76227159
0.76238802
0.7624961
0.76259585
0.76268728
0.7627704
0.76284524
0.76291178
0.76297003
0.76301998
0.76306163
0.76309496
0.76311996
0.76313666
0.76314502
0.75245397
0.75290585
0.75334641
0.75377581
0.75419417
0.75460161
0.75499824
0.75538416
0.7557595
0.75612436
0.75647886
0.75682311
0.75715722
0.7574813
0.75779546
0.75809981
0.75839444
0.75867947
0.75895497
0.75922106
0.75947782
0.75972534
0.7599637
0.76019299
0.76041327
0.76062462
0.76082711
0.7610208
0.76120575
0.76138203
0.76154967
0.76170873
0.76185926
0.76200129
0.76213486
0.76226001
0.76237675
0.76248512
0.76258513
0.7626768
0.76276014
0.76283517
0.76290188
0.76296027
0.76301034
0.76305209
0.7630855
0.76311056
0.76312729
0.76313567
0.75241436
0.75286775
0.75330977
0.75374057
0.75416028
0.75456902
0.7549669
0.75535403
0.75573053
0.75609651
0.75645209
0.75679737
0.75713248
0.75745752
0.7577726
0.75807783
0.75837332
0.75865916
0.75893545
0.75920229
0.75945977
0.75970798
0.759947
0.76017691
0.76039779
0.76060971
0.76081275
0.76100696
0.7611924
0.76136914
0.76153722
0.7616967
0.76184761
0.76199001
0.76212392
0.76224938
0.76236641
0.76247505
0.76257531
0.7626672
0.76275074
0.76282595
0.76289281
0.76295134
0.76300153
0.76304337
0.76307685
0.76310196
0.76311872
0.76312711
0.7523778
0.75283259
0.75327595
0.75370805
0.75412901
0.75453895
0.75493799
0.75532624
0.75570381
0.75607083
0.7564274
0.75677364
0.75710967
0.7574356
0.75775153
0.75805759
0.75835386
0.75864045
0.75891747
0.75918501
0.75944315
0.759692
0.75993163
0.76016213
0.76038357
0.76059602
0.76079956
0.76099425
0.76118015
0.76135732
0.76152581
0.76168567
0.76183695
0.76197968
0.7621139
0.76223965
0.76235696
0.76246585
0.76256633
0.76265843
0.76274216
0.76281753
0.76288454
0.76294319
0.76299349
0.76303541
0.76306896
0.76309411
0.7631109
0.7631193
0.75234412
0.7528002
0.75324482
0.75367811
0.75410022
0.75451128
0.75491138
0.75530066
0.75567923
0.7560472
0.75640469
0.75675182
0.7570887
0.75741544
0.75773217
0.75803898
0.75833598
0.75862327
0.75890096
0.75916914
0.7594279
0.75967734
0.75991754
0.76014858
0.76037053
0.76058348
0.76078748
0.76098262
0.76116894
0.76134651
0.76151537
0.76167559
0.7618272
0.76197025
0.76210476
0.76223079
0.76234834
0.76245746
0.76255816
0.76265045
0.76273435
0.76280987
0.76287702
0.76293579
0.76298618
0.76302818
0.76306178
0.76308698
0.7631038
0.7631122
0.75231318
0.75277046
0.75321622
0.75365061
0.75407379
0.75448586
0.75488695
0.75527718
0.75565666
0.75602551
0.75638385
0.75673179
0.75706946
0.75739696
0.75771441
0.75802191
0.75831959
0.75860753
0.75888583
0.75915461
0.75941394
0.75966393
0.75990465
0.76013618
0.76035861
0.76057201
0.76077645
0.760972
0.76115871
0.76133665
0.76150586
0.76166641
0.76181833
0.76196166
0.76209645
0.76222272
0.76234051
0.76244984
0.76255073
0.7626432
0.76272726
0.76280293
0.7628702
0.76292907
0.76297955
0.76302162
0.76305528
0.76308052
0.76309736
0.76310578
0.75228483
0.75274321
0.75319002
0.75362543
0.75404958
0.75446259
0.75486458
0.75525568
0.755636
0.75600566
0.75636478
0.75671347
0.75705186
0.75738005
0.75769817
0.75800632
0.7583046
0.75859314
0.75887202
0.75914134
0.7594012
0.75965168
0.75989288
0.76012488
0.76034775
0.76056157
0.76076641
0.76096233
0.7611494
0.76132768
0.76149722
0.76165807
0.76181027
0.76195387
0.76208891
0.76221541
0.76233342
0.76244294
0.76254402
0.76263665
0.76272086
0.76279665
0.76286404
0.76292301
0.76297357
0.76301571
0.76304942
0.76307469
0.76309155
0.76309997
0.75225893
0.75271832
0.7531661
0.75360243
0.75402746
0.75444133
0.75484416
0.75523605
0.75561714
0.75598754
0.75634737
0.75669675
0.7570358
0.75736463
0.75768336
0.7579921
0.75829095
0.75858003
0.75885943
0.75912926
0.7593896
0.75964055
0.75988219
0.76011461
0.76033788
0.76055209
0.76075729
0.76095356
0.76114097
0.76131956
0.76148939
0.76165052
0.76180298
0.76194683
0.7620821
0.76220882
0.76232702
0.76243673
0.76253796
0.76263075
0.76271509
0.76279101
0.76285849
0.76291756
0.76296819
0.76301039
0.76304415
0.76306945
0.76308633
0.76309476
0.75223534
0.75269566
0.75314431
0.75358149
0.75400733
0.75442198
0.75482556
0.75521819
0.75559998
0.75597106
0.75633154
0.75668155
0.7570212
0.75735061
0.7576699
0.75797917
0.75827855
0.75856812
0.758848
0.75911829
0.75937907
0.75963045
0.75987249
0.7601053
0.76032895
0.7605435
0.76074905
0.76094564
0.76113335
0.76131222
0.76148233
0.76164371
0.76179642
0.76194049
0.76207597
0.76220289
0.76232127
0.76243114
0.76253253
0.76262546
0.76270993
0.76278595
0.76285353
0.76291268
0.76296338
0.76300564
0.76303943
0.76306476
0.76308166
0.7630901
0.75221394
0.7526751
0.75312455
0.75356249
0.75398907
0.75440443
0.7548087
0.75520199
0.75558442
0.75595611
0.75631719
0.75666777
0.75700797
0.75733791
0.75765771
0.75796747
0.75826732
0.75855735
0.75883767
0.75910837
0.75936956
0.75962132
0.75986374
0.7600969
0.76032089
0.76053577
0.76074162
0.7609385
0.76112649
0.76130563
0.76147599
0.76163761
0.76179053
0.76193481
0.76207048
0.76219758
0.76231613
0.76242616
0.76252769
0.76262074
0.76270532
0.76278144
0.76284911
0.76290834
0.7629591
0.76300141
0.76303524
0.76306059
0.76307751
0.76308595
0.7521946
0.75265652
0.7531067
0.75354531
0.75397255
0.75438856
0.75479345
0.75518735
0.75557036
0.75594262
0.75630423
0.75665533
0.75699602
0.75732644
0.7576467
0.75795692
0.75825719
0.75854764
0.75882835
0.75909944
0.759361
0.75961311
0.75985587
0.76008935
0.76031365
0.76052882
0.76073496
0.76093211
0.76112035
0.76129973
0.76147032
0.76163215
0.76178528
0.76192975
0.76206559
0.76219285
0.76231155
0.76242172
0.76252338
0.76261655
0.76270123
0.76277745
0.7628452
0.76290449
0.76295532
0.76299767
0.76303153
0.76305691
0.76307383
0.76308228
0.7521772
0.75263981
0.75309063
0.75352985
0.75395769
0.75437428
0.75477973
0.75517417
0.75555771
0.75593047
0.75629258
0.75664414
0.75698529
0.75731614
0.75763682
0.75794744
0.7582481
0.75853892
0.75882
0.75909144
0.75935332
0.75960576
0.75984882
0.7600826
0.76030718
0.76052262
0.76072901
0.76092641
0.76111488
0.76129448
0.76146527
0.7616273
0.76178061
0.76192526
0.76206126
0.76218867
0.76230751
0.76241781
0.76251958
0.76261285
0.76269763
0.76277393
0.76284176
0.76290111
0.76295199
0.76299438
0.76302828
0.76305367
0.76307061
0.76307905
0.75216163
0.75262486
0.75307623
0.753516
0.75394437
0.75436147
0.75476744
0.75516237
0.75554639
0.75591961
0.75628215
0.75663413
0.75697568
0.75730693
0.75762798
0.75793896
0.75823998
0.75853114
0.75881254
0.75908429
0.75934648
0.75959921
0.75984255
0.76007659
0.76030142
0.76051711
0.76072373
0.76092135
0.76111003
0.76128984
0.76146081
0.76162302
0.7617765
0.7619213
0.76205745
0.762185
0.76230396
0.76241437
0.76251625
0.76260962
0.76269449
0.76277086
0.76283876
0.76289817
0.76294909
0.76299152
0.76302544
0.76305085
0.7630678
0.76307625
0.75214778
0.75261154
0.7530634
0.75350365
0.75393249
0.75435006
0.75475649
0.75515186
0.75553631
0.75590993
0.75627286
0.75662522
0.75696714
0.75729873
0.75762012
0.75793143
0.75823276
0.75852422
0.75880592
0.75907795
0.75934042
0.7595934
0.759837
0.76007128
0.76029634
0.76051225
0.76071908
0.7609169
0.76110577
0.76128575
0.7614569
0.76161927
0.7617729
0.76191784
0.76205412
0.76218179
0.76230087
0.76241139
0.76251336
0.76260682