/*--------------------------------*- C++ -*----------------------------------*\
| =========                 |                                                 |
| \\      /  F ield         | OpenFOAM: The Open Source CFD Toolbox           |
|  \\    /   O peration     | Version:  2312                                  |
|   \\  /    A nd           | Website:  www.openfoam.com                      |
|    \\/     M anipulation  |                                                 |
\*---------------------------------------------------------------------------*/
FoamFile
{
    version     2.0;
    format      ascii;
    arch        "LSB;label=32;scalar=64";
    class       volScalarField;
    location    "0.1";
    object      O2;
}
// * * * * * * * * * * * * * * * * * * * * * * * * * * * * * * * * * * * * * //

dimensions      [0 0 0 0 0 0 0];

internalField   nonuniform List<scalar> 
3257
(
0.21517945
0.21546506
0.21574609
0.21602259
0.21629452
0.2165618
0.21682438
0.21708218
0.21733514
0.2175832
0.21782629
0.21806437
0.21829736
0.21852523
0.2187479
0.21896534
0.21917749
0.2193843
0.21958572
0.21978171
0.21997221
0.22015718
0.22033658
0.22051035
0.22067847
0.22084087
0.22099753
0.22114839
0.22129342
0.22143257
0.22156581
0.22169309
0.22181437
0.22192961
0.22203878
0.22214183
0.22223873
0.22232943
0.22241391
0.22249211
0.22256401
0.22262957
0.22268875
0.22274152
0.22278782
0.22282764
0.22286093
0.22288764
0.22290775
0.22292121
0.22292797
0.21515101
0.21543752
0.21571946
0.21599685
0.21626964
0.21653777
0.21680116
0.21705975
0.21731348
0.21756227
0.21780608
0.21804483
0.21827849
0.21850699
0.21873027
0.2189483
0.21916101
0.21936836
0.2195703
0.21976678
0.21995776
0.22014319
0.22032303
0.22049722
0.22066573
0.22082852
0.22098554
0.22113675
0.22128211
0.22142157
0.2215551
0.22168266
0.2218042
0.2219197
0.2220291
0.22213237
0.22222947
0.22232036
0.22240501
0.22248338
0.22255543
0.22262112
0.22268042
0.22273329
0.22277969
0.22281959
0.22285294
0.22287972
0.22289988
0.2229134
0.22292024
0.21509755
0.21538587
0.21566955
0.21594864
0.21622307
0.21649278
0.21675771
0.21701778
0.21727294
0.21752311
0.21776825
0.21800829
0.21824319
0.21847288
0.21869731
0.21891644
0.21913021
0.21933858
0.2195415
0.21973892
0.2199308
0.22011709
0.22029775
0.22047273
0.220642
0.2208055
0.22096321
0.22111507
0.22126105
0.22140111
0.2215352
0.22166328
0.22178533
0.22190129
0.22201113
0.22211482
0.22221231
0.22230356
0.22238854
0.22246722
0.22253954
0.22260549
0.22266502
0.22271809
0.22276466
0.22280471
0.22283819
0.22286507
0.22288531
0.22289887
0.22290574
0.21502209
0.21531296
0.21559911
0.21588058
0.21615733
0.21642928
0.21669637
0.21695852
0.21721569
0.21746781
0.21771483
0.21795668
0.21819331
0.21842468
0.21865073
0.21887141
0.21908668
0.21929648
0.21950078
0.21969952
0.21989267
0.22008018
0.220262
0.2204381
0.22060843
0.22077296
0.22093163
0.22108442
0.22123128
0.22137217
0.22150705
0.22163588
0.22175864
0.22187526
0.22198573
0.22209
0.22218804
0.2222798
0.22236525
0.22244436
0.22251708
0.22258338
0.22264323
0.22269659
0.22274341
0.22278368
0.22281733
0.22284435
0.2228647
0.22287833
0.22288524
0.21492757
0.21522163
0.21551087
0.21579533
0.21607496
0.2163497
0.21661948
0.21688425
0.21714393
0.21739848
0.21764784
0.21789195
0.21813076
0.21836422
0.21859229
0.21881492
0.21903205
0.21924366
0.21944968
0.21965008
0.21984482
0.22003385
0.22021713
0.22039463
0.22056629
0.22073209
0.22089199
0.22104593
0.22119389
0.22133583
0.2214717
0.22160148
0.22172511
0.22184258
0.22195383
0.22205884
0.22215756
0.22224996
0.222336
0.22241565
0.22248887
0.22255562
0.22261587
0.22266958
0.22271672
0.22275725
0.22279113
0.22281833
0.22283881
0.22285253
0.22285948
0.21481679
0.21511457
0.21540741
0.21569536
0.21597836
0.21625637
0.2165293
0.21679712
0.21705974
0.21731713
0.21756923
0.21781598
0.21805734
0.21829326
0.21852369
0.21874859
0.21896792
0.21918162
0.21938967
0.21959201
0.21978861
0.21997943
0.22016442
0.22034355
0.22051679
0.22068408
0.2208454
0.2210007
0.22114996
0.22129312
0.22143016
0.22156104
0.22168572
0.22180416
0.22191634
0.2220222
0.22212173
0.22221488
0.22230161
0.2223819
0.2224557
0.22252298
0.22258371
0.22263784
0.22268535
0.22272619
0.22276033
0.22278774
0.22280837
0.22282219
0.2228292
0.21469233
0.21499429
0.21529116
0.21558302
0.2158698
0.21615146
0.21642793
0.21669916
0.21696508
0.21722565
0.21748082
0.21773054
0.21797476
0.21821343
0.21844651
0.21867397
0.21889575
0.21911182
0.21932213
0.21952666
0.21972535
0.21991817
0.22010509
0.22028606
0.22046105
0.22063003
0.22079295
0.22094978
0.22110049
0.22124503
0.22138338
0.2215155
0.22164135
0.2217609
0.22187411
0.22198095
0.22208138
0.22217537
0.22226289
0.22234389
0.22241835
0.22248622
0.22254748
0.22260209
0.22265001
0.2226912
0.22272564
0.22275328
0.22277408
0.22278803
0.22279509
0.21455663
0.21486312
0.21516438
0.21546048
0.21575137
0.21603701
0.21631732
0.21659226
0.21686178
0.21712581
0.21738433
0.21763727
0.2178846
0.21812627
0.21836225
0.21859248
0.21881694
0.21903558
0.21924837
0.21945527
0.21965625
0.21985126
0.22004027
0.22022325
0.22040016
0.22057097
0.22073564
0.22089414
0.22104644
0.22119249
0.22133227
0.22146574
0.22159287
0.22171362
0.22182797
0.22193587
0.22203729
0.2221322
0.22222057
0.22230235
0.22237753
0.22244605
0.22250789
0.22256301
0.22261138
0.22265296
0.22268772
0.22271562
0.22273661
0.22275068
0.22275782
0.21441189
0.2147232
0.21502913
0.21532975
0.21562502
0.21591488
0.21619929
0.21647818
0.21675152
0.21701924
0.21728132
0.2175377
0.21778834
0.21803321
0.21827227
0.21850547
0.21873278
0.21895417
0.2191696
0.21937903
0.21958244
0.21977978
0.21997103
0.22015615
0.22033511
0.22050788
0.22067442
0.2208347
0.22098868
0.22113635
0.22127766
0.22141257
0.22154107
0.22166311
0.22177866
0.2218877
0.22199018
0.22208607
0.22217535
0.22225797
0.2223339
0.22240312
0.22246558
0.22252126
0.22257011
0.2226121
0.2226472
0.22267537
0.22269657
0.22271078
0.22271798
0.21426015
0.21457649
0.2148873
0.21519265
0.21549249
0.21578679
0.21607547
0.21635851
0.21663584
0.21690744
0.21717324
0.21743322
0.21768734
0.21793555
0.21817783
0.21841414
0.21864445
0.21886871
0.21908691
0.219299
0.21950495
0.21970475
0.21989834
0.22008571
0.22026682
0.22044164
0.22061014
0.22077228
0.22092805
0.2210774
0.22122031
0.22135675
0.22148668
0.22161007
0.22172689
0.22183712
0.22194071
0.22203763
0.22212786
0.22221136
0.2222881
0.22235805
0.22242116
0.22247742
0.22252677
0.2225692
0.22260465
0.22263311
0.22265453
0.22266887
0.22267615
0.21410323
0.21442477
0.21474062
0.21505085
0.21535542
0.21565428
0.21594739
0.2162347
0.21651616
0.21679175
0.21706141
0.21732511
0.21758281
0.21783449
0.2180801
0.21831962
0.21855302
0.21878026
0.21900131
0.21921615
0.21942475
0.21962707
0.21982309
0.22001278
0.22019612
0.22037306
0.22054359
0.22070767
0.22086528
0.22101638
0.22116095
0.22129896
0.22143037
0.22155516
0.2216733
0.22178475
0.22188949
0.22198749
0.22207871
0.22216312
0.22224068
0.22231138
0.22237517
0.22243203
0.22248191
0.22252478
0.22256061
0.22258936
0.222611
0.22262549
0.22263284
0.21394279
0.21426963
0.21459063
0.21490583
0.21521522
0.21551875
0.21581638
0.21610805
0.21639374
0.2166734
0.21694699
0.21721449
0.21747587
0.21773108
0.2179801
0.2182229
0.21845946
0.21868974
0.21891372
0.21913137
0.21934267
0.21954758
0.21974609
0.21993816
0.22012376
0.22030288
0.22047548
0.22064155
0.22080104
0.22095393
0.2211002
0.22123981
0.22137274
0.22149897
0.22161845
0.22173117
0.22183708
0.22193617
0.2220284
0.22211374
0.22219216
0.22226363
0.22232812
0.22238558
0.222436
0.22247933
0.22251554
0.22254459
0.22256646
0.2225811
0.22258852
0.2137803
0.2141125
0.2144387
0.21475894
0.21507321
0.21538146
0.21568365
0.21597974
0.2162697
0.21655348
0.21683106
0.21710241
0.21736749
0.21762629
0.21787876
0.21812489
0.21836465
0.21859801
0.21882495
0.21904545
0.21925948
0.21946702
0.21966804
0.21986252
0.22005043
0.22023176
0.22040646
0.22057453
0.22073593
0.22089064
0.22103863
0.22117988
0.22131435
0.22144202
0.22156287
0.22167687
0.22178398
0.22188418
0.22197743
0.22206372
0.222143
0.22221525
0.22228043
0.22233852
0.22238948
0.22243327
0.22246987
0.22249923
0.22252133
0.22253612
0.22254362
0.21361705
0.21395464
0.21428605
0.21461135
0.21493051
0.2152435
0.21555028
0.2158508
0.21614504
0.21643297
0.21671455
0.21698976
0.21725858
0.21752096
0.2177769
0.21802637
0.21826935
0.21850581
0.21873573
0.21895909
0.21917587
0.21938605
0.2195896
0.2197865
0.21997673
0.22016027
0.22033709
0.22050718
0.2206705
0.22082703
0.22097676
0.22111964
0.22125567
0.2213848
0.22150702
0.2216223
0.22173062
0.22183193
0.22192622
0.22201345
0.2220936
0.22216664
0.22223253
0.22229124
0.22234275
0.22238701
0.22242399
0.22245366
0.22247598
0.22249093
0.22249851
0.21345421
0.21379715
0.21413376
0.2144641
0.21478814
0.21510585
0.21541719
0.21572214
0.21602066
0.21631271
0.21659829
0.21687735
0.21714988
0.21741586
0.21767526
0.21792806
0.21817424
0.21841379
0.21864669
0.21887291
0.21909243
0.21930524
0.21951131
0.21971064
0.21990318
0.22008894
0.22026787
0.22043997
0.22060521
0.22076357
0.22091502
0.22105955
0.22119712
0.22132772
0.22145131
0.22156787
0.22167738
0.22177981
0.22187513
0.22196332
0.22204433
0.22211815
0.22218475
0.22224409
0.22229613
0.22234086
0.22237823
0.22240821
0.22243076
0.22244586
0.22245352
0.21329274
0.213641
0.21398275
0.21431808
0.21464696
0.21496935
0.21528522
0.21559455
0.2158973
0.21619345
0.21648298
0.21676586
0.21704208
0.21731162
0.21757445
0.21783055
0.21807992
0.21832254
0.21855838
0.21878743
0.21900968
0.2192251
0.21943369
0.21963541
0.21983025
0.2200182
0.22019924
0.22037334
0.22054048
0.22070065
0.22085382
0.22099998
0.22113909
0.22127113
0.22139608
0.22151392
0.22162463
0.22172816
0.2218245
0.22191363
0.22199551
0.22207011
0.2221374
0.22219736
0.22224994
0.22229513
0.22233289
0.22236317
0.22238595
0.2224012
0.22240893
0.21313352
0.21348701
0.21383384
0.21417408
0.21450772
0.21483473
0.21515506
0.21546871
0.21577564
0.21607583
0.21636926
0.21665591
0.21693576
0.2172088
0.21747502
0.21773439
0.2179869
0.21823254
0.21847129
0.21870314
0.21892808
0.21914608
0.21935713
0.21956123
0.21975834
0.21994846
0.22013157
0.22030764
0.22047667
0.22063862
0.22079349
0.22094125
0.22108188
0.22121535
0.22134165
0.22146075
0.22157263
0.22167726
0.22177461
0.22186467
0.22194739
0.22202276
0.22209075
0.22215131
0.22220444
0.22225008
0.22228821
0.22231879
0.2223418
0.2223572
0.222365
0.21297728
0.21333589
0.2136877
0.21403277
0.21437108
0.2147026
0.21502732
0.2153452
0.21565623
0.21596038
0.21625764
0.21654799
0.21683141
0.2171079
0.21737744
0.21764001
0.21789561
0.21814422
0.21838583
0.21862042
0.218848
0.21906853
0.21928202
0.21948844
0.21968779
0.21988004
0.22006518
0.22024319
0.22041407
0.22057778
0.22073432
0.22088366
0.22102578
0.22116066
0.22128828
0.22140862
0.22152165
0.22162735
0.2217257
0.22181667
0.22190023
0.22197635
0.22204501
0.22210618
0.22215983
0.22220592
0.22224442
0.2222753
0.22229852
0.22231407
0.22232195
0.21282461
0.21318824
0.2135449
0.21389468
0.21423756
0.21457351
0.2149025
0.21522452
0.21553955
0.21584758
0.21614858
0.21644254
0.21672945
0.21700931
0.21728209
0.21754779
0.21780641
0.21805792
0.21830233
0.21853961
0.21876977
0.21899278
0.21920865
0.21941735
0.21961887
0.21981321
0.22000034
0.22018026
0.22035294
0.22051837
0.22067654
0.22082743
0.22097101
0.22110726
0.22123618
0.22135773
0.22147189
0.22157864
0.22167796
0.22176982
0.2218542
0.22193106
0.22200039
0.22206214
0.2221163
0.22216283
0.22220169
0.22223286
0.2222563
0.22227199
0.22227994
0.21267604
0.21304454
0.21340593
0.2137603
0.21410761
0.21444786
0.21478102
0.21510707
0.215426
0.21573779
0.21604243
0.21633991
0.21663022
0.21691336
0.2171893
0.21745806
0.21771961
0.21797395
0.21822108
0.21846099
0.21869366
0.21891909
0.21913727
0.21934819
0.21955184
0.21974821
0.21993728
0.22011905
0.2202935
0.22046061
0.22062037
0.22077276
0.22091776
0.22105536
0.22118553
0.22130826
0.22142353
0.22153131
0.22163157
0.22172431
0.22180948
0.22188706
0.22195703
0.22201936
0.22207402
0.22212097
0.22216019
0.22219164
0.22221528
0.2222311
0.22223912
0.21253198
0.2129052
0.21327118
0.21362998
0.2139816
0.21432602
0.21466322
0.21499318
0.21531589
0.21563133
0.21593951
0.2162404
0.21653401
0.21682032
0.21709934
0.21737106
0.21763546
0.21789255
0.21814232
0.21838477
0.21861988
0.21884766
0.21906809
0.21928117
0.21948688
0.21968523
0.21987619
0.22005975
0.22023591
0.22040465
0.22056595
0.22071981
0.22086619
0.22100509
0.22113649
0.22126037
0.22137671
0.22148548
0.22158667
0.22168025
0.22176619
0.22184447
0.22191507
0.22197795
0.22203309
0.22208046
0.22212002
0.22215174
0.22217559
0.22219154
0.22219963
0.21239274
0.21277053
0.21314093
0.21350403
0.21385982
0.21420827
0.21454936
0.2148831
0.21520946
0.21552844
0.21584004
0.21614423
0.21644103
0.21673042
0.21701241
0.21728699
0.21755415
0.2178139
0.21806623
0.21831113
0.21854861
0.21877866
0.21900127
0.21921644
0.21942415
0.2196244
0.21981719
0.2200025
0.22018031
0.22035063
0.22051343
0.2206687
0.22081643
0.22095659
0.22108918
0.22121417
0.22133154
0.22144127
0.22154335
0.22163775
0.22172444
0.2218034
0.2218746
0.22193802
0.22199363
0.22204139
0.22208128
0.22211327
0.22213731
0.22215339
0.22216154
0.21225859
0.21264077
0.21301544
0.21338268
0.21374247
0.21409481
0.21443967
0.21477704
0.21510693
0.21542932
0.2157442
0.21605158
0.21635146
0.21664382
0.21692867
0.21720601
0.21747583
0.21773815
0.21799294
0.21824022
0.21847998
0.21871222
0.21893693
0.21915412
0.21936376
0.21956586
0.21976041
0.2199474
0.22012681
0.22029865
0.2204629
0.22061953
0.22076855
0.22090994
0.22104367
0.22116973
0.2212881
0.22139877
0.22150171
0.22159689
0.2216843
0.22176392
0.2218357
0.22189964
0.2219557
0.22200385
0.22204406
0.2220763
0.22210053
0.22211673
0.22212494
0.2121297
0.2125161
0.21289488
0.21326609
0.21362974
0.2139858
0.21433428
0.21467515
0.21500842
0.21533409
0.21565214
0.21596258
0.21626541
0.21656063
0.21684823
0.21712823
0.21740062
0.2176654
0.21792257
0.21817214
0.21841409
0.21864844
0.21887517
0.21909429
0.2193058
0.21950967
0.21970592
0.21989452
0.22007548
0.22024879
0.22041442
0.22057238
0.22072264
0.2208652
0.22100003
0.22112713
0.22124646
0.22135802
0.22146179
0.22155774
0.22164584
0.22172608
0.22179843
0.22186287
0.22191936
0.22196788
0.2220084
0.22204088
0.22206529
0.22208161
0.22208988
0.21200619
0.21239665
0.21277935
0.21315437
0.21352171
0.21388135
0.21423329
0.21457752
0.21491404
0.21524285
0.21556394
0.21587731
0.21618298
0.21648094
0.21677119
0.21705373
0.21732858
0.21759572
0.21785518
0.21810693
0.218351
0.21858737
0.21881605
0.21903703
0.21925032
0.2194559
0.21965377
0.21984393
0.22002637
0.22020109
0.22036806
0.22052728
0.22067874
0.22082242
0.22095831
0.2210864
0.22120666
0.22131908
0.22142364
0.22152032
0.22160909
0.22168993
0.22176283
0.22182774
0.22188465
0.22193352
0.22197433
0.22200704
0.22203162
0.22204806
0.22205638
0.21188815
0.21228247
0.21266893
0.21304759
0.21341846
0.21378152
0.21413677
0.21448421
0.21482383
0.21515564
0.21547964
0.21579583
0.21610421
0.21640479
0.21669757
0.21698255
0.21725975
0.21752917
0.2177908
0.21804466
0.21829074
0.21852905
0.21875959
0.21898236
0.21919735
0.21940457
0.219604
0.21979566
0.21997951
0.22015557
0.22032383
0.22048426
0.22063687
0.22078163
0.22091854
0.22104757
0.22116872
0.22128196
0.22138728
0.22148466
0.22157407
0.22165549
0.2217289
0.22179427
0.22185158
0.22190079
0.22194188
0.22197481
0.22199956
0.2220161
0.22202447
0.21177559
0.21217361
0.21256364
0.21294577
0.21332
0.21368632
0.21404473
0.21439523
0.21473782
0.2150725
0.21539927
0.21571814
0.21602912
0.2163322
0.2166274
0.21691471
0.21719416
0.21746574
0.21772946
0.21798532
0.21823334
0.2184735
0.21870582
0.21893029
0.21914692
0.21935569
0.21955662
0.2197497
0.21993491
0.22011226
0.22028174
0.22044333
0.22059703
0.22074283
0.2208807
0.22101065
0.22113264
0.22124667
0.22135272
0.22145077
0.22154079
0.22162276
0.22169666
0.22176247
0.22182015
0.22186969
0.22191105
0.22194419
0.22196909
0.22198573
0.22199416
0.2116685
0.21207004
0.21246347
0.21284889
0.21322632
0.21359574
0.21395717
0.21431058
0.214656
0.21499341
0.21532282
0.21564425
0.21595769
0.21626316
0.21656066
0.2168502
0.21713179
0.21740543
0.21767114
0.21792892
0.21817877
0.2184207
0.21865472
0.21888081
0.219099
0.21930927
0.21951162
0.21970605
0.21989256
0.22007114
0.22024178
0.22040448
0.22055923
0.22070601
0.22084481
0.22097562
0.22109843
0.22121321
0.22131995
0.22141863
0.22150923
0.22159173
0.2216661
0.22173233
0.22179037
0.22184022
0.22188183
0.22191517
0.22194022
0.22195696
0.22196543
0.21156686
0.21197172
0.21236837
0.21275691
0.21313737
0.21350975
0.21387403
0.21423022
0.21457832
0.21491833
0.21525026
0.21557411
0.21588991
0.21619764
0.21649733
0.21678899
0.21707261
0.21734822
0.21761582
0.21787542
0.21812702
0.21837063
0.21860626
0.21883391
0.21905357
0.21926526
0.21946897
0.2196647
0.21985244
0.22003219
0.22020394
0.2203677
0.22052344
0.22067115
0.22081084
0.22094247
0.22106605
0.22118154
0.22128895
0.22138823
0.22147939
0.22156239
0.22163721
0.22170383
0.22176222
0.22181235
0.2218542
0.22188774
0.22191293
0.22192975
0.22193828
0.21147064
0.21187856
0.21227825
0.21266975
0.2130531
0.21342827
0.21379526
0.21415408
0.21450473
0.2148472
0.21518152
0.21550768
0.2158257
0.21613559
0.21643736
0.21673102
0.21701658
0.21729406
0.21756345
0.21782478
0.21807805
0.21832326
0.21856042
0.21878953
0.21901061
0.21922364
0.21942864
0.2196256
0.21981451
0.21999537
0.22016818
0.22033294
0.22048962
0.22063823
0.22077875
0.22091117
0.22103548
0.22115166
0.22125968
0.22135955
0.22145123
0.2215347
0.22160995
0.22167694
0.22173566
0.22178607
0.22182815
0.22186187
0.22188719
0.2219041
0.22191266
0.21179047
0.21219301
0.21258732
0.21297339
0.21335122
0.21372078
0.21408209
0.21443515
0.21477996
0.21511653
0.21544488
0.21576501
0.21607695
0.21638069
0.21667625
0.21696364
0.21724289
0.21751398
0.21777695
0.21803179
0.21827852
0.21851713
0.21874764
0.21897005
0.21918437
0.21939059
0.21958871
0.21977873
0.21996065
0.22013447
0.22030017
0.22045775
0.22060721
0.22074852
0.22088169
0.22100669
0.22112351
0.22123213
0.22133254
0.22142472
0.22150864
0.22158429
0.22165164
0.22171067
0.22176134
0.22180364
0.22183753
0.22186297
0.22187996
0.22188856
0.21170714
0.2121125
0.21250949
0.21289815
0.21327849
0.21365049
0.21401415
0.21436949
0.21471651
0.21505522
0.21538563
0.21570776
0.21602162
0.21632723
0.21662459
0.21691372
0.21719463
0.21746734
0.21773186
0.21798819
0.21823635
0.21847634
0.21870818
0.21893185
0.21914738
0.21935475
0.21955397
0.21974505
0.21992797
0.22010274
0.22026934
0.22042777
0.22057803
0.2207201
0.22085396
0.22097962
0.22109705
0.22120624
0.22130717
0.22139982
0.22148417
0.2215602
0.22162788
0.2216872
0.22173812
0.22178062
0.22181467
0.22184024
0.2218573
0.22186594
0.21162861
0.21203662
0.21243615
0.21282727
0.21320997
0.21358426
0.21395015
0.21430764
0.21465675
0.21499747
0.21532984
0.21565385
0.21596954
0.2162769
0.21657596
0.21686673
0.21714922
0.21742345
0.21768944
0.21794718
0.21819669
0.21843798
0.21867106
0.21889594
0.2191126
0.21932107
0.21952134
0.21971341
0.21989728
0.22007294
0.22024039
0.22039963
0.22055064
0.22069342
0.22082796
0.22095424
0.22107224
0.22118196
0.22128338
0.22137647
0.22146123
0.22153762
0.22160562
0.22166521
0.22171637
0.22175906
0.22179326
0.22181894
0.22183607
0.22184474
0.21155478
0.21196526
0.21236717
0.2127606
0.21314554
0.21352199
0.21388998
0.2142495
0.21460056
0.21494319
0.21527739
0.21560319
0.21592059
0.21622961
0.21653027
0.21682258
0.21710657
0.21738223
0.2176496
0.21790867
0.21815946
0.21840198
0.21863624
0.21886224
0.21907998
0.21928948
0.21949074
0.21968375
0.21986851
0.22004502
0.22021327
0.22037327
0.220525
0.22066845
0.22080361
0.22093048
0.22104903
0.22115925
0.22126113
0.22135464
0.22143978
0.22151651
0.22158481
0.22164466
0.22169604
0.22173891
0.22177325
0.22179903
0.22181622
0.22182493
0.21148547
0.21189827
0.21230242
0.21269802
0.21308506
0.21346355
0.2138335
0.21419493
0.21454785
0.21489226
0.21522819
0.21555565
0.21587467
0.21618525
0.21648742
0.21678119
0.21706657
0.21734359
0.21761226
0.21787258
0.21812457
0.21836825
0.21860361
0.21883068
0.21904944
0.21925992
0.2194621
0.21965599
0.21984159
0.2200189
0.22018791
0.22034862
0.22050103
0.22064511
0.22078087
0.22090828
0.22102735
0.22113804
0.22124036
0.22133427
0.22141976
0.22149681
0.22156539
0.22162549
0.22167707
0.22172012
0.22175459
0.22178046
0.22179772
0.22180645
0.21142053
0.21183549
0.21224175
0.21263938
0.21302839
0.21340879
0.2137806
0.21414382
0.21449846
0.21484456
0.21518211
0.21551115
0.21583168
0.21614373
0.21644731
0.21674244
0.21702915
0.21730743
0.21757732
0.21783882
0.21809195
0.21833671
0.21857312
0.21880118
0.2190209
0.21923229
0.21943535
0.21963007
0.21981646
0.21999452
0.22016425
0.22032563
0.22047867
0.22062335
0.22075966
0.2208876
0.22100715
0.22111829
0.22122101
0.2213153
0.22140112
0.22147847
0.22154732
0.22160765
0.22165943
0.22170263
0.22173723
0.22176319
0.2217805
0.22178926
0.21135979
0.21177677
0.212185
0.21258453
0.21297539
0.21335758
0.21373112
0.21409602
0.21445229
0.21479996
0.21513904
0.21546954
0.2157915
0.21610492
0.21640983
0.21670625
0.21699419
0.21727367
0.2175447
0.21780731
0.21806149
0.21830728
0.21854466
0.21877366
0.21899429
0.21920653
0.21941041
0.21960591
0.21979305
0.21997182
0.22014221
0.22030423
0.22045786
0.2206031
0.22073994
0.22086836
0.22098836
0.22109993
0.22120303
0.22129767
0.22138381
0.22146144
0.22153054
0.22159108
0.22164304
0.22168639
0.2217211
0.22174715
0.22176451
0.2217733
0.21130308
0.21172195
0.21213201
0.21253333
0.21292592
0.21330978
0.21368494
0.21405141
0.21440921
0.21475834
0.21509884
0.21543073
0.21575402
0.21606873
0.21637488
0.21667249
0.21696159
0.21724219
0.2175143
0.21777794
0.21803312
0.21827986
0.21851817
0.21874805
0.21896951
0.21918256
0.21938721
0.21958345
0.21977128
0.21995071
0.22012173
0.22028434
0.22043853
0.2205843
0.22072163
0.22085051
0.22097094
0.22108289
0.22118636
0.22128132
0.22136776
0.22144565
0.22151499
0.22157573
0.22162786
0.22167135
0.22170617
0.22173229
0.2217497
0.22175851
0.21125022
0.21167086
0.21208263
0.21248561
0.21287981
0.21326524
0.21364192
0.21400985
0.21436907
0.21471958
0.21506141
0.21539458
0.21571912
0.21603503
0.21634234
0.21664108
0.21693126
0.2172129
0.21748602
0.21775062
0.21800674
0.21825437
0.21849354
0.21872424
0.2189465
0.2191603
0.21936567
0.21956259
0.21975108
0.21993113
0.22010274
0.22026591
0.22042062
0.22056688
0.22070467
0.22083398
0.22095481
0.22106713
0.22117093
0.2212662
0.22135292
0.22143106
0.22150061
0.22156154
0.22161383
0.22165745
0.22169237
0.22171857
0.22173602
0.22174485
0.21120105
0.21162333
0.2120367
0.21244123
0.21283694
0.21322382
0.21360191
0.21397121
0.21433175
0.21468355
0.21502662
0.21536099
0.21568668
0.21600372
0.21631212
0.2166119
0.21690309
0.21718571
0.21745976
0.21772527
0.21798226
0.21823073
0.2184707
0.21870217
0.21892516
0.21913967
0.21934571
0.21954328
0.21973238
0.21991301
0.22008517
0.22024885
0.22040406
0.22055077
0.220689
0.22081871
0.22093991
0.22105257
0.22115669
0.22125225
0.22133922
0.2214176
0.22148735
0.22154846
0.22160089
0.22164463
0.22167965
0.22170591
0.2217234
0.22173225
0.2111554
0.2115792
0.21199406
0.21240004
0.21279714
0.21318538
0.21356478
0.21393535
0.21429712
0.21465011
0.21499434
0.21532983
0.2156566
0.21597468
0.21628409
0.21658485
0.21687698
0.21716051
0.21743544
0.21770179
0.21795959
0.21820884
0.21844955
0.21868175
0.21890542
0.21912059
0.21932726
0.21952543
0.2197151
0.21989627
0.22006894
0.22023311
0.22038877
0.22053592
0.22067455
0.22080464
0.22092618
0.22103917
0.22114358
0.22123941
0.22132662
0.22140521
0.22147515
0.22153642
0.221589
0.22163285
0.22166795
0.22169428
0.2217118
0.22172067
0.21111309
0.21153832
0.21195456
0.21236187
0.21276027
0.21314977
0.21353039
0.21390214
0.21426506
0.21461915
0.21496446
0.21530098
0.21562876
0.21594781
0.21625816
0.21655983
0.21685284
0.2171372
0.21741295
0.21768009
0.21793864
0.21818861
0.21843003
0.21866289
0.21888721
0.21910299
0.21931024
0.21950897
0.21969917
0.21988085
0.220054
0.22021862
0.22037471
0.22052226
0.22066126
0.2207917
0.22091357
0.22102685
0.22113154
0.22122762
0.22131506
0.22139385
0.22146397
0.22152539
0.22157809
0.22162205
0.22165723
0.22168361
0.22170117
0.22171006
0.21107397
0.21150051
0.21191803
0.21232658
0.21272618
0.21311685
0.2134986
0.21387145
0.21423543
0.21459055
0.21493685
0.21527434
0.21560305
0.215923
0.21623422
0.21653673
0.21683055
0.2171157
0.2173922
0.21766007
0.21791932
0.21816997
0.21841203
0.21864552
0.21887043
0.21908679
0.21929458
0.21949383
0.21968452
0.21986667
0.22004027
0.22020531
0.2203618
0.22050972
0.22064907
0.22077983
0.220902
0.22101557
0.22112051
0.22121682
0.22130447
0.22138345
0.22145373
0.22151529
0.22156812
0.22161217
0.22164743
0.22167386
0.22169145
0.22170035
0.21103788
0.21146564
0.21188434
0.21229403
0.21269475
0.21308649
0.21346928
0.21384315
0.2142081
0.21456418
0.2149114
0.21524978
0.21557935
0.21590014
0.21621217
0.21651546
0.21681003
0.21709591
0.21737311
0.21764165
0.21790156
0.21815283
0.21839549
0.21862956
0.21885502
0.2190719
0.21928021
0.21947994
0.21967109
0.21985368
0.22002769
0.22019312
0.22034997
0.22049824
0.22063791
0.22076898
0.22089143
0.22100526
0.22111044
0.22120696
0.22129481
0.22137396
0.22144439
0.22150609
0.22155902
0.22160316
0.22163849
0.22166497
0.22168258
0.2216915
0.21100465
0.21143353
0.21185332
0.21226408
0.21266581
0.21305855
0.21344231
0.21381711
0.21418297
0.21453993
0.21488799
0.2152272
0.21555757
0.21587913
0.2161919
0.21649591
0.21679118
0.21707773
0.21735558
0.21762475
0.21788525
0.21813711
0.21838033
0.21861492
0.2188409
0.21905828
0.21926705
0.21946722
0.21965881
0.21984179
0.22001619
0.22018198
0.22033918
0.22048777
0.22062774
0.22075909
0.2208818
0.22099587
0.22110127
0.22119799
0.22128602
0.22136533
0.22143591
0.22149772
0.22155076
0.22159498
0.22163037
0.2216569
0.22167453
0.22168346
0.21097414
0.21140406
0.21182485
0.21223658
0.21263926
0.21303291
0.21341755
0.21379321
0.21415991
0.21451767
0.21486652
0.21520649
0.21553759
0.21585986
0.21617332
0.216478
0.21677391
0.21706108
0.21733953
0.21760928
0.21787034
0.21812273
0.21836646
0.21860155
0.218828
0.21904583
0.21925504
0.21945563
0.2196476
0.21983096
0.22000571
0.22017185
0.22032936
0.22047824
0.2206185
0.2207501
0.22087306
0.22098735
0.22109295
0.22118986
0.22127805
0.22135752
0.22142822
0.22149015
0.22154328
0.22158758
0.22162303
0.22164959
0.22166725
0.22167618
0.2109462
0.21137707
0.21179879
0.2122114
0.21261494
0.21300943
0.21339489
0.21377134
0.21413881
0.21449732
0.21484689
0.21518755
0.21551933
0.21584225
0.21615634
0.21646163
0.21675813
0.21704587
0.21732487
0.21759515
0.21785673
0.21810961
0.21835382
0.21858936
0.21881625
0.2190345
0.21924411
0.21944508
0.21963741
0.21982112
0.2199962
0.22016264
0.22032045
0.22046961
0.22061012
0.22074197
0.22086514
0.22097964
0.22108543
0.22118251
0.22127086
0.22135046
0.22142128
0.22148332
0.22153653
0.2215809
0.2216164
0.221643
0.22166068
0.22166962
0.21092068
0.21135243
0.21177499
0.21218842
0.21259275
0.21298801
0.21337421
0.21375139
0.21411956
0.21447874
0.21482897
0.21517027
0.21550267
0.21582619
0.21614087
0.21644671
0.21674376
0.21703203
0.21731153
0.2175823
0.21784435
0.21809769
0.21834233
0.21857829
0.21880559
0.21902422
0.21923419
0.21943551
0.21962819
0.21981221
0.21998759
0.22015432
0.2203124
0.22046181
0.22060256
0.22073463
0.22085801
0.22097269
0.22107866
0.2211759
0.22126439
0.22134412
0.22141505
0.22147718
0.22153048
0.22157491
0.22161046
0.22163709
0.22165478
0.22166373
0.21089746
0.21133001
0.21175333
0.2121675
0.21257255
0.21296851
0.2133554
0.21373324
0.21410205
0.21446185
0.21481269
0.21515457
0.21548754
0.21581161
0.21612681
0.21643317
0.21673071
0.21701946
0.21729943
0.21757065
0.21783313
0.21808688
0.21833193
0.21856827
0.21879594
0.21901492
0.21922523
0.21942688
0.21961986
0.21980418
0.21997984
0.22014683
0.22030515
0.2204548
0.22059576
0.22072804
0.22085161
0.22096647
0.2210726
0.22116998
0.2212586
0.22133844
0.22140948
0.2214717
0.22152506
0.22156956
0.22160515
0.22163182
0.22164952
0.22165848
0.2108764
0.21130968
0.21173369
0.21214853
0.21255424
0.21295083
0.21333834
0.21371678
0.21408618
0.21444655
0.21479793
0.21514035
0.21547383
0.2157984
0.21611409
0.21642091
0.21671891
0.2170081
0.21728849
0.21756012
0.21782299
0.21807713
0.21832254
0.21855924
0.21878724
0.21900655
0.21921717
0.21941911
0.21961238
0.21979697
0.21997288
0.22014011
0.22029866
0.22044852
0.22058969
0.22072215
0.22084589
0.22096091
0.22106719
0.2211647
0.22125345
0.22133339
0.22140453
0.22146682
0.22152026
0.22156481
0.22160044
0.22162713
0.22164485
0.22165381
0.21085739
0.21129132
0.21171595
0.2121314
0.21253769
0.21293487
0.21332293
0.21370192
0.21407185
0.21443274
0.21478462
0.21512752
0.21546147
0.21578649
0.21610261
0.21640987
0.21670828
0.21699787
0.21727865
0.21755065
0.21781388
0.21806836
0.21831411
0.21855113
0.21877944
0.21899905
0.21920995
0.21941217
0.21960569
0.21979052
0.21996667
0.22013412
0.22029288
0.22044294
0.22058428
0.22071692
0.22084082
0.22095598
0.22106239
0.22116003
0.22124889
0.22132893
0.22140015
0.22146252
0.22151602
0.22156061
0.22159628
0.221623
0.22164072
0.22164969
0.2108403
0.21127482
0.2117
0.21211598
0.21252281
0.2129205
0.21330908
0.21368856
0.21405897
0.21442033
0.21477266
0.21511599
0.21545036
0.2157758
0.21609232
0.21639996
0.21669875
0.2169887
0.21726983
0.21754217
0.21780573
0.21806053
0.21830658
0.21854389
0.21877248
0.21899236
0.21920352
0.21940598
0.21959974
0.2197848
0.21996115
0.22012881
0.22028776
0.22043799
0.22057951
0.2207123
0.22083634
0.22095164
0.22105817
0.22115593
0.22124488
0.22132501
0.22139631
0.22145875
0.2215123
0.22155694
0.22159264
0.22161938
0.22163711
0.22164609
0.21082503
0.21126005
0.21168572
0.21210218
0.21250949
0.21290765
0.21329668
0.21367661
0.21404745
0.21440923
0.21476197
0.21510569
0.21544044
0.21576625
0.21608313
0.21639112
0.21669024
0.21698052
0.21726197
0.21753462
0.21779847
0.21805356
0.21829988
0.21853747
0.21876631
0.21898643
0.21919783
0.21940051
0.21959448
0.21977974
0.21995629
0.22012413
0.22028325
0.22043365
0.22057532
0.22070825
0.22083243
0.22094785
0.22105449
0.22115234
0.22124139
0.2213216