/*--------------------------------*- C++ -*----------------------------------*\
| =========                 |                                                 |
| \\      /  F ield         | OpenFOAM: The Open Source CFD Toolbox           |
|  \\    /   O peration     | Version:  2312                                  |
|   \\  /    A nd           | Website:  www.openfoam.com                      |
|    \\/     M anipulation  |                                                 |
\*---------------------------------------------------------------------------*/
FoamFile
{
    version     2.0;
    format      ascii;
    arch        "LSB;label=32;scalar=64";
    class       volScalarField;
    location    "0.1";
    object      omega;
}
// * * * * * * * * * * * * * * * * * * * * * * * * * * * * * * * * * * * * * //

dimensions      [0 0 -1 0 0 0 0];

internalField   nonuniform List<scalar> 
3257
(
178.37832
176.92376
175.50191
174.1129
172.75679
171.43363
170.14344
168.88619
167.66182
166.47026
165.31138
164.18505
163.0911
162.02937
160.99963
160.00168
159.03529
158.1002
157.19617
156.32292
155.48019
154.66769
153.88515
153.13228
152.40881
151.71444
151.04891
150.41194
149.80325
149.22259
148.66971
148.14436
147.64632
147.17535
146.73126
146.31386
145.92297
145.55843
145.22011
144.90788
144.62164
144.36131
144.12684
143.91819
143.73536
143.57836
143.44723
143.34205
143.26291
143.20995
143.18333
178.4321
176.97453
175.5498
174.15803
172.79929
171.47364
170.18107
168.92157
167.69508
166.50149
165.3407
164.21257
163.11692
162.05358
161.02233
160.02296
159.05522
158.11887
157.21365
156.33929
155.49551
154.68204
153.89858
153.14486
152.42059
151.72548
151.05925
150.42163
149.81234
149.23112
148.67772
148.1519
147.65341
147.18203
146.73757
146.31982
145.92861
145.56379
145.2252
144.91273
144.62628
144.36576
144.13112
143.92232
143.73935
143.58223
143.451
143.34572
143.26648
143.21339
143.18658
178.52453
177.0616
175.63176
174.23513
172.87178
171.54174
170.24503
168.98159
167.75136
166.55425
165.39013
164.25885
163.16023
162.09409
161.0602
160.05835
159.08828
158.14974
157.24246
156.36617
155.52059
154.70543
153.92039
153.1652
152.43955
151.74316
151.07574
150.43701
149.8267
149.24453
148.69025
148.16361
147.66438
147.19232
146.74722
146.3289
145.93717
145.57187
145.23286
144.92001
144.63321
144.37239
144.13748
143.92846
143.74529
143.58801
143.45663
143.35123
143.2719
143.21873
143.19187
178.65318
177.18274
175.74578
174.34237
172.97258
171.63644
170.33392
169.06499
167.82956
166.62753
165.45876
164.32308
163.22032
162.15027
161.1127
160.10738
159.13405
158.19245
157.2823
156.40332
155.55521
154.73769
153.95045
153.19319
152.46562
151.76744
151.09836
150.45808
149.84633
149.26284
148.70733
148.17955
147.67927
147.20625
146.76028
146.34116
145.9487
145.58274
145.24313
144.92974
144.64247
144.38122
144.14595
143.9366
143.75316
143.59564
143.46407
143.35851
143.27905
143.2258
143.19889
178.81247
177.33275
175.88696
174.47515
173.09738
171.75366
170.44396
169.16822
167.92634
166.71821
165.54367
164.40254
163.29464
162.21973
161.1776
160.16798
159.1906
158.2452
157.33149
156.44916
155.59792
154.77746
153.98748
153.22766
152.49771
151.7973
151.12615
150.48395
149.87042
149.28527
148.72824
148.19905
147.69748
147.22327
146.7762
146.35608
145.96271
145.59593
145.25558
144.94152
144.65365
144.39188
144.15614
143.94639
143.76261
143.60479
143.47298
143.36723
143.28762
143.23426
143.20729
178.99729
177.50681
176.05076
174.62921
173.24218
171.88967
170.57162
169.28797
168.03861
166.82338
165.64214
164.49468
163.3808
162.30026
161.25282
160.23819
159.25612
158.3063
157.38844
156.50222
155.64734
154.82347
154.0303
153.26751
152.53477
151.83178
151.15822
150.51379
149.89818
149.31112
148.75231
148.22149
147.7184
147.2428
146.79447
146.37319
145.97877
145.61102
145.2698
144.95497
144.66641
144.40403
144.16775
143.95752
143.77333
143.61518
143.48308
143.3771
143.29732
143.24384
143.2168
179.20301
177.70054
176.23309
174.80069
173.40335
172.04104
170.71371
169.42125
168.16354
166.94042
165.75171
164.59719
163.47665
162.38983
161.33647
160.31627
159.32896
158.37422
157.45173
156.56118
155.70223
154.87456
154.07784
153.31173
152.5759
151.87002
151.19378
150.54685
149.92893
149.33973
148.77894
148.24629
147.74152
147.26438
146.81463
146.39205
145.99645
145.62764
145.28546
144.96975
144.68042
144.41734
144.18046
143.9697
143.78506
143.62652
143.4941
143.38787
143.30789
143.25428
143.22716
179.42544
177.91002
176.43023
174.98609
173.5776
172.2047
170.86731
169.56532
168.29859
167.06692
165.87013
164.70798
163.58023
162.48661
161.42684
160.40061
159.40762
158.44755
157.52006
156.62481
155.76147
154.92968
154.12911
153.3594
152.62022
151.91123
151.23208
150.58246
149.96203
149.37051
148.80757
148.27295
147.76636
147.28754
146.83626
146.41228
146.01541
145.64544
145.3022
144.98556
144.69538
144.43156
144.19401
143.98269
143.79755
143.63858
143.50582
143.39931
143.31912
143.26536
143.23817
179.66083
178.13169
176.63884
175.18228
173.76197
172.37786
171.02983
169.71775
168.44144
167.20073
165.99538
164.82514
163.68975
162.58893
161.52237
160.48976
159.49076
158.52504
157.59224
156.69203
155.82402
154.98788
154.18323
153.40972
152.66699
151.95469
151.27247
150.61998
149.99691
149.40293
148.83773
148.30101
147.79249
147.3119
146.859
146.43353
146.0353
145.66411
145.31977
145.00212
144.71105
144.44643
144.20819
143.99625
143.81058
143.65118
143.51805
143.41124
143.33083
143.27691
143.24963
179.9058
178.36238
176.85593
175.38643
173.95383
172.55803
171.19891
169.87632
168.59006
167.33991
166.12564
164.94698
163.80364
162.69532
161.62169
160.58242
159.57716
158.60556
157.66724
156.76185
155.88899
155.04831
154.23942
153.46195
152.71552
151.99977
151.31435
150.65889
150.03306
149.43652
148.86896
148.33006
147.81953
147.3371
146.8825
146.4555
146.05586
145.68338
145.33789
145.01921
144.7272
144.46176
144.22278
144.0102
143.82399
143.66412
143.5306
143.42349
143.34284
143.28877
143.2614
180.15738
178.59928
177.07886
175.59606
174.15081
172.74301
171.3725
170.0391
168.7426
167.48276
166.25933
165.07201
163.9205
162.80446
161.72357
160.67746
159.66577
158.68812
157.74413
156.83341
155.95557
155.11022
154.29697
153.51543
152.76521
152.04592
151.35721
150.6987
150.07003
149.47087
148.90088
148.35974
147.84716
147.36283
146.9065
146.47791
146.07682
145.70303
145.35635
145.0366
144.74364
144.47735
144.23762
144.02439
143.83761
143.67726
143.54335
143.43592
143.35504
143.3008
143.27334
180.41295
178.83993
177.30529
175.80897
174.35087
172.93086
171.54876
170.20437
168.89746
167.62778
166.39502
165.1989
164.03907
162.9152
161.82692
160.77386
159.75563
158.77183
157.82208
156.90595
156.02305
155.17296
154.35528
153.5696
152.81552
152.09265
151.4006
150.73898
150.10744
149.50562
148.93316
148.38975
147.87507
147.38883
146.93073
146.50053
146.09798
145.72286
145.37497
145.05414
144.76021
144.49305
144.25256
144.03867
143.85131
143.69048
143.55617
143.44842
143.36729
143.31289
143.28533
180.67023
179.08217
177.53321
176.02327
174.55221
173.11989
171.72611
170.37065
169.05326
167.77364
166.5315
165.32651
164.15831
163.02654
161.93082
160.87075
159.84593
158.85595
157.90039
156.97882
156.09082
155.23596
154.41382
153.62398
152.86602
152.13953
151.44412
150.77938
150.14495
149.54044
148.96551
148.41982
147.90304
147.41486
146.95499
146.52317
146.11915
145.74269
145.39359
145.07167
144.77676
144.50874
144.26748
144.05292
143.86499
143.70367
143.56896
143.46089
143.37952
143.32495
143.2973
180.92724
179.32414
177.76086
176.23729
174.75327
173.30865
171.90319
170.53666
169.20877
167.91923
166.6677
165.45384
164.27727
163.1376
162.03445
160.96738
159.93598
158.93982
157.97845
157.05144
156.15835
155.29873
154.47213
153.67814
152.9163
152.18621
151.48744
150.81959
150.18227
149.57509
148.99769
148.44972
147.93084
147.44073
146.9791
146.54567
146.14017
145.76238
145.41208
145.08907
144.79319
144.5243
144.28229
144.06706
143.87856
143.71676
143.58164
143.47325
143.39164
143.3369
143.30916
181.18229
179.56424
177.98673
176.44961
174.95273
173.49587
172.07882
170.70128
169.36298
168.06357
166.80272
165.58005
164.39517
163.24767
162.13713
161.06311
160.02518
159.02288
158.05576
157.12335
156.2252
155.36085
154.52985
153.73173
152.96605
152.23238
151.53029
150.85935
150.21917
149.60934
149.0295
148.47927
147.95831
147.46629
147.00292
146.56788
146.16094
145.78182
145.43032
145.10624
144.8094
144.53966
144.29689
144.08101
143.89194
143.72966
143.59415
143.48545
143.4036
143.3487
143.32086
181.43393
179.80111
178.20954
176.65904
175.14944
173.68051
172.25199
170.86359
169.515
168.20586
166.9358
165.70443
164.51134
163.3561
162.23827
161.1574
160.11302
159.10467
158.13187
157.19414
156.29101
155.42199
154.58663
153.78445
153.01499
152.2778
151.57243
150.89845
150.25545
149.64301
149.06075
148.5083
147.9853
147.49141
147.02631
146.58971
146.18133
145.80091
145.44824
145.1231
144.82532
144.55474
144.31123
144.09471
143.90509
143.74233
143.60644
143.49742
143.41534
143.36028
143.33235
181.68095
180.03361
178.42821
176.86457
175.34246
173.86166
172.42188
171.02281
169.6641
168.34539
167.06629
165.82638
164.62523
163.46239
162.33741
161.2498
160.1991
159.1848
158.20642
157.26347
156.35545
155.48186
154.64223
153.83606
153.06289
152.32224
151.61366
150.9367
150.29094
149.67595
149.09133
148.5367
148.0117
147.51597
147.04918
146.61105
146.20127
145.81958
145.46576
145.13959
144.84089
144.56949
144.32526
144.1081
143.91794
143.75473
143.61846
143.50914
143.42683
143.37161
143.3436
181.92234
180.26079
178.64186
177.06535
175.53102
174.0386
172.5878
171.17828
169.80968
168.48161
167.19367
165.9454
164.73637
163.56611
162.43413
161.33995
160.28305
159.26295
158.27913
157.33107
156.41828
155.54023
154.69643
153.88637
153.10957
152.36555
151.65384
150.97397
150.32552
149.70803
149.12112
148.56437
148.03741
147.53989
147.07147
146.63183
146.22069
145.83777
145.48284
145.15566
144.85606
144.58386
144.33893
144.12117
143.93048
143.76682
143.63019
143.52058
143.43805
143.38268
143.35458
182.15727
180.48188
178.84977
177.26071
175.71446
174.21072
172.74919
171.32949
169.95126
168.61407
167.31751
166.06111
164.84441
163.66691
162.52812
161.42754
160.36463
159.33888
158.34976
157.39674
156.4793
155.59691
154.74905
153.93521
153.1549
152.4076
151.69284
151.01015
150.35908
149.73918
149.15003
148.59122
148.06237
147.56311
147.0931
146.65201
146.23955
145.85544
145.49942
145.17127
144.8708
144.59784
144.35223
144.13387
143.94267
143.77859
143.6416
143.53171
143.44897
143.39345
143.36527
182.3851
180.69626
179.05134
177.4501
175.89228
174.37755
172.90559
171.47602
170.08843
168.7424
167.43748
166.17319
164.94904
163.76453
162.61914
161.51234
160.4436
159.41237
158.41812
157.46029
156.53835
155.65175
154.79997
153.98248
153.19875
152.44828
151.73058
151.04516
150.39155
149.76931
149.178
148.6172
148.08652
147.58559
147.11404
146.67155
146.25782
145.87255
145.51548
145.1864
144.88509
144.61138
144.36512
144.1462
143.95451
143.79002
143.65268
143.54252
143.45958
143.40392
143.37565
182.6053
180.90344
179.24613
177.63311
176.06408
174.53872
173.05668
171.61755
170.22091
168.86632
167.55332
166.28139
165.05005
163.85876
162.70699
161.59419
160.51981
159.48329
158.48408
157.52161
156.59532
155.70467
154.84909
154.02807
153.24105
152.48752
151.76698
151.07892
150.42288
149.79838
149.20499
148.64228
148.10984
147.60728
147.13426
146.69042
146.27546
145.88908
145.53101
145.20103
144.89892
144.6245
144.37761
144.15813
143.96598
143.80109
143.66343
143.55301
143.46987
143.41407
143.38573
182.81749
181.10307
179.4338
177.80941
176.22957
174.69396
173.20218
171.75383
170.34847
168.98563
167.66483
166.38555
165.14727
163.94945
162.79153
161.67295
160.59314
159.55153
158.54754
157.5806
156.65013
155.75557
154.89635
154.07192
153.28174
152.52527
151.802
151.11141
150.45302
149.82636
149.23097
148.66641
148.13228
147.62818
147.15374
146.70861
146.29247
145.90502
145.54599
145.21515
144.91227
144.63716
144.38967
144.16968
143.97708
143.81181
143.67384
143.56317
143.47984
143.42392
143.3955
183.0214
181.29489
179.61412
177.97878
176.38854
174.84306
173.34192
171.88471
170.47096
169.10019
167.77189
166.48555
165.2406
164.0365
162.87267
161.74854
160.66351
159.61701
158.60844
157.6372
156.70272
155.80441
154.9417
154.11401
153.32079
152.5615
151.83561
151.1426
150.48196
149.85322
149.25592
148.6896
148.15385
147.64826
147.17246
146.7261
146.30883
145.92037
145.56042
145.22876
144.92514
144.64938
144.40132
144.18083
143.9878
143.82217
143.6839
143.573
143.48949
143.43344
143.40496
183.21683
181.47873
179.78692
178.14108
176.54086
174.98591
173.47579
172.01007
170.58828
169.2099
167.87442
166.5813
165.32996
164.11984
162.95036
161.8209
160.73089
159.6797
158.66673
157.69139
156.75307
155.85117
154.98511
154.1543
153.35819
152.5962
151.8678
151.17247
150.50969
149.87897
149.27983
148.71183
148.17454
147.66753
147.19044
146.74289
146.32456
145.93512
145.5743
145.24185
144.93753
144.66116
144.41255
144.19159
143.99815
143.83218
143.69363
143.5825
143.49882
143.44266
143.4141
183.40371
181.65452
179.95213
178.29623
176.68646
175.12244
173.60373
172.12988
170.70038
169.31473
167.97238
166.67277
165.41533
164.19946
163.02457
161.89003
160.79524
159.73958
158.72242
157.74316
156.80117
155.89585
155.02659
154.19281
153.39392
152.62936
151.89858
151.20103
150.53621
149.9036
149.30272
148.73312
148.19435
147.686
147.20767
146.759
146.33964
145.94929
145.58764
145.25444
144.94946
144.6725
144.42337
144.20196
144.00814
143.84184
143.70303
143.59169
143.50785
143.45157
143.42295
183.58202
181.82223
180.10974
178.44423
176.82533
175.25265
173.72574
172.24411
170.80727
169.41468
168.06577
166.75998
165.49672
164.27536
163.09531
161.95593
160.85659
159.79666
158.77551
157.79251
156.84703
155.93844
155.06614
154.22953
153.42801
152.661
151.92795
151.2283
150.56152
149.92712
149.32458
148.75346
148.21329
147.70366
147.22416
146.77443
146.3541
145.96287
145.60044
145.26653
144.96092
144.6834
144.43379
144.21195
144.01777
143.85117
143.7121
143.60055
143.51656
143.46018
143.4315
183.75181
181.98191
180.25978
178.58511
176.95751
175.37657
173.84184
172.35281
170.90897
169.50977
168.15463
166.84295
165.57414
164.34757
163.16261
162.01862
160.91496
159.85098
158.82603
157.83947
156.89067
155.97899
155.1038
154.26449
153.46047
152.69114
151.95593
151.25428
150.58566
149.94955
149.34545
148.77287
148.23138
147.72054
147.23993
146.78919
146.36795
145.97589
145.61271
145.27814
144.97194
144.69389
144.44382
144.22158
144.02705
143.86016
143.72085
143.60912
143.52498
143.4685
143.43976
183.91319
182.13367
180.40235
178.71894
177.08306
175.49427
173.9521
172.45604
171.00556
169.60007
168.239
166.92174
165.64767
164.41614
163.22653
162.07816
160.97039
159.90256
158.87401
157.88409
156.93214
156.01751
155.13959
154.29773
153.49133
152.7198
151.98255
151.27901
150.60864
149.97091
149.36533
148.79139
148.24864
147.73665
147.255
146.8033
146.3812
145.98836
145.62448
145.28927
144.98251
144.70397
144.45346
144.23084
144.03599
143.86883
143.7293
143.61738
143.53311
143.47654
143.44773
184.0664
182.27765
180.53756
178.84583
177.20208
175.60584
174.05663
172.5539
171.09711
169.68567
168.31898
166.99643
165.71736
164.48115
163.28712
162.13461
161.02295
159.95148
158.91952
157.9264
156.97147
156.05407
155.17355
154.32928
153.52064
152.74702
152.00784
151.30251
150.63049
149.99124
149.38425
148.80902
148.26509
147.75202
147.26938
146.81678
146.39387
146.00029
145.63574
145.29995
144.99266
144.71365
144.46273
144.23976
144.04461
143.87718
143.73744
143.62536
143.54096
143.4843
143.45544
184.21184
182.41399
180.66554
178.96592
177.31471
175.71142
174.15553
172.64649
171.18374
169.76667
168.39467
167.0671
165.78332
164.54267
163.34446
162.18804
161.07271
159.99779
158.96261
157.96647
157.00873
156.0887
155.20573
154.35918
153.54843
152.77284
152.03184
151.32483
150.65125
150.01056
149.40224
148.8258
148.28076
147.76666
147.28309
146.82965
146.40597
146.0117
145.64653
145.31018
145.00239
144.72294
144.47165
144.24834
144.0529
143.88524
143.7453
143.63306
143.54854
143.49179
143.46288
182.54296
180.78642
179.07934
177.42109
175.81114
174.24895
172.73396
171.26557
169.84318
168.46617
167.13387
165.84564
164.60079
163.39865
162.23853
161.11973
160.04157
159.00334
158.00437
157.04397
156.12146
155.23619
154.38749
153.57474
152.79731
152.05459
151.34599
150.67094
150.0289
149.41934
148.84175
148.29566
147.78061
147.29616
146.84193
146.41752
146.02261
145.65685
145.31998
145.01173
144.73187
144.48021
144.25659
144.06089
143.893
143.75287
143.64049
143.55586
143.49902
143.47006
182.66404
180.90028
179.18624
177.52139
175.90517
174.33705
172.81644
171.34275
169.91535
168.53361
167.19686
165.90443
164.65563
163.44979
162.28618
161.16412
160.08289
159.04181
158.04016
157.07726
156.15242
155.26498
154.41426
153.59963
152.82046
152.07612
151.36603
150.68961
150.0463
149.43557
148.85691
148.30983
147.79388
147.30862
146.85363
146.42856
146.03303
145.66673
145.32937
145.02068
144.74044
144.48844
144.26453
144.06858
143.90048
143.76018
143.64766
143.56292
143.50601
143.477
182.77791
181.00739
179.28685
177.6158
175.9937
174.42
172.89411
171.41543
169.98331
168.59712
167.25618
165.9598
164.7073
163.49796
162.33108
161.20595
160.12185
159.07807
158.07391
157.10866
156.18164
155.29215
154.43954
153.62315
152.84234
152.0965
151.385
150.70729
150.06278
149.45096
148.87129
148.32329
147.8065
147.32047
146.86479
146.43908
146.04299
145.67617
145.33836
145.02926
144.74866
144.49636
144.27217
144.07599
143.90769
143.76723
143.65457
143.56974
143.51276
143.48371
182.88495
181.10805
179.3814
177.70453
176.07691
174.49797
172.96712
171.48375
170.04722
168.65685
167.31197
166.01189
164.7559
163.54329
162.37334
161.24533
160.15853
159.11223
158.1057
157.13825
156.20918
155.31778
154.46339
153.64535
152.86301
152.11575
151.40294
150.72402
150.0784
149.46555
148.88494
148.33608
147.8185
147.33175
146.87542
146.44912
146.05249
145.68521
145.34696
145.03749
144.75656
144.50396
144.27952
144.08312
143.91464
143.77403
143.66125
143.57632
143.51927
143.49018
182.98542
181.20251
179.47013
177.78781
176.155
174.57116
173.03567
171.5479
170.10721
168.71293
167.36436
166.06081
164.80156
163.58588
162.41305
161.28234
160.19301
159.14435
158.13562
157.1661
156.2351
155.34192
154.48587
153.66628
152.88251
152.13392
151.41989
150.73983
150.09317
149.47936
148.89787
148.34821
147.82989
147.34248
146.88554
146.4587
146.06157
145.69384
145.3552
145.04538
144.76413
144.51126
144.28659
144.08998
143.92134
143.78058
143.66769
143.58267
143.52557
143.49643
183.07958
181.29102
179.55327
177.86584
176.22819
174.63975
173.09991
171.60803
170.16346
168.76552
167.4135
166.10669
164.84438
163.62584
162.45031
161.31708
160.22539
159.17452
158.16372
157.19228
156.25949
155.36463
154.50703
153.686
152.90089
152.15106
151.43589
150.75477
150.10714
149.49244
148.91013
148.35972
147.84072
147.35268
146.89518
146.46782
146.07024
145.70209
145.36308
145.05293
144.7714
144.51828
144.29339
144.0966
143.92779
143.78691
143.67391
143.58881
143.53164
143.50247
183.16768
181.37383
179.63106
177.93886
176.29668
174.70395
173.16004
171.66432
170.21612
168.81475
167.45951
166.14967
164.88451
163.66328
162.48524
161.34965
160.25576
159.20282
158.1901
157.21686
156.28239
155.38598
154.52693
153.70455
152.9182
152.16721
151.45098
150.76888
150.12034
149.50481
148.92174
148.37063
147.85099
147.36238
146.90435
146.47652
146.07851
145.70998
145.37063
145.06018
144.77838
144.52502
144.29993
144.10297
143.93401
143.79301
143.67992
143.59474
143.53751
143.5083
183.24999
181.4512
179.70373
178.00707
176.36067
174.76393
173.21624
171.71693
170.26535
168.86079
167.50254
166.18987
164.92204
163.69832
162.51794
161.38015
160.2842
159.22934
158.21482
157.23991
156.30388
155.40602
154.54562
153.722
152.93448
152.18242
151.4652
150.78219
150.13281
149.5165
148.93273
148.38097
147.86074
147.37159
146.91308
146.4848
146.0864
145.71752
145.37785
145.06712
144.78507
144.5315
144.30623
144.1091
143.94001
143.79889
143.68571
143.60046
143.54318
143.51393
183.32676
181.52336
179.77152
178.07071
176.42037
174.8199
173.26867
171.76603
170.3113
168.90377
167.54272
166.22741
164.95711
163.73106
162.5485
161.40866
160.3108
159.25416
158.23797
157.2615
156.32403
155.42481
154.56316
153.73838
152.94978
152.19673
151.47858
150.79473
150.14457
149.52755
148.94312
148.39076
147.86999
147.38034
146.92138
146.4927
146.09393
145.72472
145.38476
145.07377
144.7915
144.53773
144.31228
144.115
143.94579
143.80457
143.6913
143.60599
143.54866
143.51938
183.39825
181.59057
179.83466
178.12999
176.47598
174.87204
173.31753
171.81179
170.35413
168.94383
167.58018
166.26243
164.98983
163.76161
162.57702
161.43529
160.33566
159.27735
158.25962
157.28171
156.34288
155.44242
154.57961
153.75374
152.96416
152.21018
151.49118
150.80654
150.15566
149.53798
148.95294
148.40003
147.87875
147.38864
146.92927
146.50021
146.10111
145.7316
145.39137
145.08014
144.79766
144.54371
144.3181
144.12069
143.95137
143.81005
143.6967
143.61132
143.55395
143.52463
183.4647
181.65305
179.89336
178.1851
176.5277
174.92054
173.36299
171.85437
170.39399
168.98113
167.61506
166.29504
165.0203
163.79009
162.60362
161.46013
160.35885
159.299
158.27983
157.30059
156.36052
155.4589
154.59501
153.76815
152.97764
152.22281
151.50303
150.81766
150.16611
149.54782
148.96222
148.4088
147.88706
147.39653
146.93677
146.50737
146.10795
145.73817
145.39769
145.08625
144.80357
144.54945
144.3237
144.12617
143.95674
143.81533
143.70191
143.61648
143.55906
143.52971
183.52637
181.71104
179.94785
178.23628
176.57573
174.96558
173.40521
171.89392
170.43102
169.01579
167.64749
166.32536
165.04865
163.81658
162.62837
161.48326
160.38045
159.31918
158.29869
157.31821
156.37699
155.4743
154.60942
153.78164
152.99028
152.23466
151.51415
150.82812
150.17596
149.5571
148.97098
148.41709
147.89492
147.404
146.94389
146.51418
146.11448
145.74444
145.40374
145.0921
144.80925
144.55497
144.32909
144.13144
143.96191
143.82043
143.70694
143.62145
143.564
143.53461
183.58351
181.76477
179.99835
178.2837
176.62024
175.00734
173.44436
171.9306
170.46538
169.04795
167.67758
166.35352
165.07498
163.84119
162.65138
161.50476
160.40055
159.33797
158.31625
157.33463
156.39235
155.48868
154.62288
153.79425
153.00211
152.24577
151.52459
150.83794
150.18522
149.56584
148.97926
148.42493
147.90237
147.4111
146.95066
146.52066
146.1207
145.75043
145.40952
145.0977
144.81469
144.56028
144.33427
144.13652
143.9669
143.82534
143.7118
143.62626
143.56876
143.53935
183.63633
181.81446
180.04506
178.32758
176.66143
175.04598
173.48059
171.96456
170.49719
169.07774
167.70547
166.37961
165.09939
163.86403
162.67274
161.52473
160.41923
159.35544
158.33259
157.34992
156.40666
155.50208
154.63545
153.80604
153.01318
152.25617
151.53438
150.84717
150.19393
149.57408
148.98706
148.43234
147.90942
147.41782
146.95709
146.52682
146.12663
145.75615
145.41505
145.10306
144.81991
144.56537
144.33925
144.14141
143.97171
143.83008
143.71648
143.6309
143.57337
143.54393
183.68509
181.86033
180.08818
178.3681
176.69947
175.08168
173.51407
171.99595
170.5266
169.10529
167.73127
166.40376
165.12199
163.88517
162.69252
161.54324
160.43655
159.37165
158.34777
157.36413
156.41998
155.51457
154.64716
153.81704
153.02352
152.2659
151.54355
150.85582
150.20211
149.58183
148.99441
148.43933
147.91608
147.42419
146.96319
146.53269
146.13227
145.7616
145.42034
145.10819
144.82491
144.57026
144.34404
144.14611
143.97634
143.83466
143.721
143.63538
143.57781
143.54834
183.72999
181.90259
180.12792
178.40543
176.73453
175.11459
173.54495
172.0249
170.55374
169.13072
167.75509
166.42606
165.14287
163.90472
162.71082
161.56037
160.45259
159.38667
158.36184
157.37732
156.43235
155.52618
154.65807
153.8273
153.03317
152.275
151.55214
150.86394
150.20979
149.58911
149.00134
148.44593
147.92238
147.43022
146.96898
146.53826
146.13765
145.7668
145.42539
145.11311
144.8297
144.57495
144.34864
144.15064
143.98081
143.83906
143.72536
143.6397
143.5821
143.55261
183.77126
181.94144
180.16446
178.43977
176.76679
175.14487
173.57336
172.05155
170.57873
169.15414
167.77703
166.44663
165.16213
163.92276
162.72772
161.5762
160.46742
159.40057
158.37487
157.38955
156.44383
155.53696
154.66821
153.83684
153.04216
152.28349
151.56016
150.87153
150.217
149.59596
149.00786
148.45215
147.92834
147.43593
146.97447
146.54355
146.14277
145.77176
145.43021
145.11781
144.8343
144.57945
144.35307
144.15499
143.9851
143.84331
143.72957
143.64387
143.58624
143.55672
183.8091
181.97707
180.19798
178.47128
176.79638
175.17266
173.59944
172.07603
170.60169
169.17567
167.79722
166.46554
165.17986
163.93937
162.74328
161.59079
160.4811
159.4134
158.38692
157.40086
156.45446
155.54696
154.67762
153.84572
153.05054
152.29141
151.56765
150.87864
150.22375
149.60239
149.01399
148.45802
147.93396
147.44133
146.97968
146.54858
146.14764
145.77649
145.43482
145.12231
144.8387
144.58377
144.35732
144.15918
143.98924
143.8474
143.73362
143.64789
143.59024
143.5607
183.84372
182.00968
180.22866
178.50012
176.82348
175.19811
173.62333
172.09845
170.62273
169.19541
167.81573
166.4829
165.19614
163.95464
162.7576
161.60422
160.4937
159.42523
158.39803
157.41131
156.46429
155.55622
154.68635
153.85395
153.05833
152.29878
151.57465
150.88528
150.23007
149.60842
149.01975
148.46354
147.93926
147.44644
146.98461
146.55335
146.15227
145.781
145.43921
145.12661
144.84292
144.58791
144.3614
144.16321
143.99322
143.85135
143.73753
143.65177
143.5941
143.56453
183.87531
182.03945
180.25666
178.52644
176.84821
175.22134
173.64516
172.11895
170.64197
169.21347
167.83268
166.4988
165.21105
163.96863
162.77073
161.61655
160.50527
159.43611
158.40826
157.42093
156.47336
155.56477
154.69442
153.86159
153.06556
152.30564
151.58116
150.89148
150.23598
149.61407
149.02517
148.46874
147.94427
147.45126
146.98928
146.55788
146.15667
145.78529
145.44341
145.13072
144.84695
144.59189
144.36532
144.16708
143.99705
143.85514
143.7413
143.65552
143.59781
143.56822
183.90408
182.06655
180.28215
178.5504
176.87073
175.2425
173.66504
172.13763
170.65952
169.22995
167.84814
166.51332
165.22468
163.98142
162.78274
161.62783
160.51589
159.44609
158.41766
157.42979
156.48171
155.57266
154.70188
153.86865
153.07226
152.312
151.58722
150.89726
150.24151
149.61936
149.03024
148.47362
147.94898
147.45582
146.9937
146.56217
146.16086
145.78938
145.44741
145.13464
144.85082
144.59569
144.36907
144.1708
144.00073
143.8588
143.74493
143.65912
143.6014
143.57179
183.93021
182.09115
180.30527
178.57213
176.89115
175.2617
173.68309
172.1546
170.67547
169.24493
167.86222
166.52654
165.2371
163.99309
162.79371
161.63814
160.52559
159.45523
158.42627
157.43792
156.48939
155.57992
154.70876
153.87518
153.07846
152.31791
151.59285
150.90264
150.24666
149.6243
149.035
148.47821
147.95341
147.46012
146.99787
146.56624
146.16483
145.79327
145.45122
145.13839
144.85451
144.59934
144.37268
144.17437
144.00427
143.86231
143.74842
143.66259
143.60485
143.57522
183.95392
182.11339
180.32617
178.59176
176.90961
175.27906
173.69942
172.16996
170.68991
169.25852
167.87499
166.53854
165.24838
164.00369
162.80368
161.64753
160.53443
159.46357
158.43414
157.44535
156.49643
155.58659
154.71509
153.8812
153.08419
152.32337
151.59807
150.90764
150.25146
149.62892
149.03946
148.48252
147.95759
147.46417
147.00182
146.57009
146.1686
145.79696
145.45485
145.14197
144.85804
144.60282
144.37613
144.17779
144.00767
143.86569
143.75178
143.66594
143.60818
143.57853
183.97544
182.13342
180.34497
178.60943
176.92622
175.29469
173.71414
172.18381
170.70295
169.27079
167.88653
166.54939
165.25858
164.0133
162.81273
161.65605
160.54247
159.47116
158.44131
157.45214
156.50286
155.5927
154.7209
153.88673
153.08947
152.32842
151.60291
150.91229
150.25593
149.63323
149.04362
148.48656
147.96151
147.46799
147.00554
146.57374
146.17217
145.80047
145.45831
145.14538
144.86141
144.60616
144.37944
144.18107
144.01094
143.86894
143.75502
143.66916
143.61139
143.58172
182.15141
180.3618
178.62524
176.9411
175.3087
173.72734
172.19625
170.71467
169.28182
167.89692
166.55917
165.26778
164.02196
162.82089
161.66376
160.54975
159.47804
158.44783
157.45832
156.50873
155.59828
154.72622
153.8918
153.09432
152.33307
151.60738
150.91659
150.26008
149.63725
149.04751
148.49033
147.96519
147.47158
147.00906
146.57718
146.17555
145.8038
145.4616
145.14863
144.86462
144.60935
144.3826
144.18422
144.01406
143.87205
143.75812
143.67225
143.61447
143.58479
182.16742
180.37678
178.63931
176.95434
175.32119
173.73912
172.20737
170.72516
169.2917
167.90622
166.56793
165.27604
164.02975
162.82824
161.6707
160.55631
159.48425
158.45372
157.46392
156.51406
155.60336
154.73107
153.89645
153.09878
152.33735
151.6115
150.92057
150.26393
149.64098
149.05114
148.49387
147.96864
147.47496
147.01237
146.58043
146.17876
145.80696
145.46472
145.15172
144.86769
144.61239
144.38563
144.18723
144.01706
143.87504
143.7611
143.67522
143.61744
143.58774
182.18172
180.39001
178.65174
176.96606
175.33225
173.74957
172.21724
170.73448
169.3005
167.91451
166.57575
165.28341
164.0367
162.83481
161.67691
160.5622
159.48984
158.45904
157.46898
156.51889
155.60797
154.73549
153.90069
153.10285
152.34128
151.61529
150.92424
150.26749
149.64444
149.05452
148.49717
147.97187
147.47813
147.01548
146.5835
146.18179
145.80996
145.46768
145.15466
144.87061
144.61529
144.38852
144.19011
144.01993
143.8779
143.76396
143.67808
143.62029
143.59058
180.40162
178.66265
176.97634
175.34197
173.75877
172.22596
170.74273
169.30829
167.92186
166.58267
165.28995
164.04288
162.84065
161.68245
160.56746
159.49484
158.4638
157.47353
156.52324
155.61214
154.73949
153.90454
153.10657
152.34487
151.61878
150.92762
150.27078
149.64765
149.05766
148.50024
147.97489
147.4811
147.01841
146.58639
146.18465
145.81279
145.4705
145.15745
144.87339
144.61806
144.39127
144.19286
144.02268
143.88064
143.7667
143.68082
143.62303
143.59332
180.41166
178.67211
176.98528
175.35044
173.76681
172.23359
170.74996
169.31513
167.92832
166.58877
165.2957
164.04832
162.84582
161.68736
160.57212
159.49929
158.46805
157.4776