/*--------------------------------*- C++ -*----------------------------------*\
| =========                 |                                                 |
| \\      /  F ield         | OpenFOAM: The Open Source CFD Toolbox           |
|  \\    /   O peration     | Version:  2312                                  |
|   \\  /    A nd           | Website:  www.openfoam.com                      |
|    \\/     M anipulation  |                                                 |
\*---------------------------------------------------------------------------*/
FoamFile
{
    version     2.0;
    format      ascii;
    arch        "LSB;label=32;scalar=64";
    class       volScalarField;
    location    "0.1";
    object      Qdot;
}
// * * * * * * * * * * * * * * * * * * * * * * * * * * * * * * * * * * * * * //

dimensions      [1 -1 -3 0 0 0 0];

internalField   nonuniform List<scalar> 
3257
(
1.0277339
0.9022129
0.7926648
0.69698754
0.61339613
0.54033838
0.47646388
0.42059465
0.37170623
0.32890119
0.29140427
0.25853826
0.22970771
0.20440471
0.18217998
0.16264237
0.14545412
0.13032091
0.1169855
0.10522217
0.094839471
0.085664268
0.077551016
0.070365993
0.064003461
0.058357272
0.053348343
0.048898204
0.044942506
0.041422165
0.038291611
0.035501223
0.03301686
0.030803449
0.028832924
0.027077448
0.025516834
0.02412817
0.022898646
0.021810743
0.020852024
0.020011756
0.019277855
0.018646942
0.018106214
0.017654231
0.017284135
0.016991671
0.016773582
0.016631993
0.016558807
1.0410792
0.91366955
0.80249121
0.70542002
0.6206364
0.54655811
0.48181101
0.42519788
0.37567208
0.33232461
0.29436065
0.26109353
0.2319236
0.20632634
0.18384844
0.1640959
0.14672334
0.13143085
0.11795593
0.10607473
0.095589709
0.086324572
0.078132878
0.070883372
0.064462302
0.058766932
0.053714371
0.049225047
0.045237315
0.04168971
0.038531174
0.035720348
0.033218476
0.030987263
0.02900024
0.027234492
0.025659766
0.024263055
0.023024173
0.021928475
0.020962929
0.020116434
0.019379776
0.018743072
0.01819931
0.017742443
0.017371279
0.017075654
0.016857442
0.016712415
0.016639757
1.0666208
0.93553699
0.82122953
0.72148437
0.63441707
0.55839236
0.49198394
0.43394946
0.38320873
0.33882201
0.29997279
0.2659465
0.23612441
0.2099702
0.18701368
0.16685057
0.14912409
0.13352809
0.11979238
0.10768518
0.097004486
0.087571905
0.079235961
0.071858404
0.065327771
0.059539588
0.054404882
0.049844371
0.045793071
0.042189151
0.038984224
0.03613254
0.033591864
0.031329279
0.029315113
0.027522702
0.025928751
0.024512913
0.023258883
0.022147624
0.021170595
0.020312234
0.019565563
0.018921064
0.018370193
0.017910163
0.017531866
0.017234268
0.017012764
0.016867082
0.016791924
1.1036689
0.96723583
0.84837027
0.74473834
0.65435917
0.57550811
0.50668679
0.4465917
0.39409473
0.34820541
0.30807014
0.27294361
0.24218355
0.21522242
0.19157553
0.17081642
0.15258207
0.1365454
0.12243364
0.11000116
0.099039089
0.089365757
0.080819617
0.073262653
0.066572193
0.060648341
0.055393372
0.050730156
0.046587886
0.042908024
0.039634257
0.036722038
0.034127586
0.031819234
0.029767097
0.027939907
0.026312434
0.024870894
0.02359126
0.022460501
0.021465815
0.020593084
0.019832955
0.019176058
0.018617018
0.018147753
0.017762476
0.017460275
0.017235205
0.017086079
0.017010264
1.1517572
1.0083463
0.88354237
0.77485368
0.68016478
0.59764111
0.52568855
0.46292107
0.40814492
0.36030866
0.31851096
0.28196233
0.24998395
0.22198249
0.19744135
0.17591912
0.15702285
0.14042103
0.12582342
0.11297392
0.10164976
0.091663684
0.082848307
0.075056885
0.068165893
0.062065237
0.056657955
0.051863826
0.047606583
0.043825205
0.040463882
0.037473342
0.034814278
0.032446985
0.030341979
0.028469273
0.026804516
0.025327511
0.024017951
0.022861741
0.021841452
0.02094922
0.020171809
0.019502797
0.018929233
0.018449954
0.018057819
0.017747449
0.017517373
0.017365206
0.017288203
1.2105902
1.0585999
0.92650061
0.81160246
0.71162947
0.62460224
0.54881675
0.48278541
0.4252203
0.37500726
0.33117905
0.29289787
0.25943854
0.23016786
0.20454
0.18208664
0.16239264
0.14510734
0.12991904
0.11655856
0.10479841
0.094434411
0.085291916
0.077219797
0.070082766
0.063770069
0.058179127
0.053222945
0.048827777
0.044925101
0.041458695
0.038374534
0.035634514
0.033198289
0.031030241
0.029103349
0.027391917
0.025873375
0.02452794
0.023339299
0.022293185
0.021377475
0.020579901
0.019891235
0.019304496
0.01881269
0.01840882
0.018091188
0.017856631
0.017698802
0.017620329
1.2800033
1.1178293
0.97707808
0.85482521
0.74859819
0.65625444
0.57594165
0.50605547
0.44521017
0.39220002
0.34598633
0.30566832
0.27046585
0.23970816
0.21280952
0.18926411
0.16863716
0.15054888
0.13466966
0.12071811
0.10844941
0.097643972
0.088122524
0.079720375
0.072299994
0.065742066
0.059937134
0.05479633
0.050237541
0.046194562
0.04260529
0.039414979
0.036581337
0.034062845
0.031823335
0.029833682
0.028068185
0.026499532
0.025115091
0.023890047
0.022811906
0.021867835
0.021045601
0.020336368
0.019733001
0.019227365
0.018812157
0.018486355
0.018243072
0.018082486
0.018002977
1.3598836
1.1859109
1.0351474
0.90439847
0.79095253
0.6924774
0.60695171
0.53263214
0.46801426
0.41179511
0.36284259
0.32019287
0.28299947
0.25054246
0.22219185
0.19740259
0.17570946
0.15670769
0.14004527
0.12541998
0.11256898
0.10126568
0.091312302
0.082539248
0.074797006
0.067958884
0.06191358
0.056563039
0.051821884
0.047620695
0.043891378
0.040580957
0.037642356
0.035030897
0.032710963
0.030652631
0.028822628
0.027202975
0.025768948
0.024503426
0.023388478
0.022416205
0.021566547
0.020835809
0.020212692
0.019691617
0.019262425
0.01892607
0.018676616
0.01850968
0.018427664
1.4501584
1.2627578
1.1006162
0.96021707
0.83858813
0.73316673
0.64174567
0.56242181
0.49354877
0.43370737
0.38167713
0.33640516
0.29697659
0.2626101
0.23262929
0.20645055
0.18356364
0.16354134
0.14600393
0.13062787
0.11712934
0.1052699
0.094837093
0.085651086
0.077552205
0.070403559
0.064091672
0.058507587
0.053564711
0.049187755
0.045306278
0.041862412
0.038805699
0.03609482
0.033686149
0.031547896
0.029652657
0.027971806
0.02648635
0.025176006
0.024022554
0.023014153
0.022137482
0.021379044
0.020735483
0.020197131
0.019754757
0.019406949
0.01914864
0.018978284
0.018891794
1.5507492
1.3482724
1.1733744
1.0221729
0.89139337
0.77821907
0.68022463
0.59532339
0.52171795
0.4578561
0.40240933
0.35422974
0.31232792
0.27585148
0.24407274
0.21635528
0.1921567
0.17101262
0.15251033
0.13630725
0.12210123
0.10963329
0.098674404
0.089035072
0.08054378
0.073058934
0.066451551
0.06061472
0.055453099
0.050884418
0.046836685
0.043247259
0.040065147
0.037242206
0.03473727
0.032513318
0.030545293
0.028800743
0.027259005
0.025900266
0.024703707
0.023658248
0.02275099
0.02196685
0.02129875
0.020741556
0.020283499
0.019924856
0.019656404
0.019479197
0.019391519
1.661542
1.442334
1.2532924
1.0901398
0.94924591
0.82751412
0.72227546
0.63123493
0.5524258
0.48415273
0.42495873
0.37359224
0.32898533
0.29020493
0.25646106
0.22707012
0.201442
0.17907247
0.15952722
0.14242918
0.12745418
0.11432261
0.10279689
0.092667476
0.083755185
0.075905102
0.068982869
0.062872169
0.05747202
0.05269633
0.048468607
0.04472495
0.041407016
0.038465656
0.035856826
0.033545595
0.031496466
0.029682581
0.028081368
0.026669226
0.025426778
0.024344813
0.023400343
0.022589061
0.02189817
0.021319188
0.0208457
0.020472313
0.020194754
0.020013196
0.019920382
1.7823777
1.5447731
1.3402176
1.1639588
1.0120002
0.88091586
0.76776924
0.67003906
0.58556634
0.51249276
0.44923298
0.39441672
0.34687634
0.30560315
0.26973962
0.23853968
0.21137445
0.1876885
0.16701591
0.14895399
0.13315521
0.11931495
0.1071786
0.096527326
0.087162899
0.07892268
0.071662475
0.065259342
0.05960817
0.054614925
0.050195372
0.046286341
0.042822846
0.039756088
0.037036765
0.034629154
0.032497225
0.030610559
0.028945115
0.027478939
0.026189818
0.02506341
0.024085314
0.02324279
0.022524983
0.021924528
0.021434573
0.021047978
0.020761055
0.02057158
0.020475603
1.9130174
1.6553748
1.4339334
1.2434415
1.0794727
0.93825973
0.81655642
0.71160018
0.62101773
0.54277501
0.47513589
0.41660983
0.36592161
0.32197921
0.28384121
0.25071149
0.22189516
0.19680846
0.17493653
0.15584962
0.1391711
0.12457849
0.11179777
0.10058743
0.090745314
0.082093056
0.074476211
0.067766779
0.061846872
0.056621577
0.052002909
0.047918141
0.044302486
0.041103093
0.038269727
0.035759912
0.03354071
0.031578482
0.029846202
0.028321869
0.026980914
0.025813648
0.024796925
0.023923287
0.023178185
0.022555845
0.022046764
0.021647245
0.02134899
0.021152001
0.02105377
2.0531561
1.773853
1.5341812
1.3283459
1.1514548
0.99935057
0.86846532
0.75576252
0.65863911
0.57486997
0.50255717
0.44007741
0.38603564
0.3392516
0.29870308
0.26352227
0.23296154
0.20638726
0.18324798
0.16307617
0.14547021
0.13008676
0.11662357
0.10482912
0.094485056
0.085397532
0.07740768
0.070373886
0.064175128
0.058707739
0.053877991
0.049610324
0.045838304
0.042499399
0.039546579
0.036932338
0.034621641
0.032578052
0.03077828
0.029192094
0.027801327
0.02658577
0.025530016
0.024624198
0.023851291
0.023204542
0.022677806
0.022262726
0.021955237
0.021750078
0.021647496
2.2023954
1.8998435
1.6406445
1.418388
1.2276917
1.0639676
0.92329819
0.80235197
0.69827785
0.60864601
0.53137901
0.4647111
0.40712913
0.3573417
0.31424924
0.27690551
0.2445118
0.21637399
0.19190303
0.17059729
0.15201956
0.13580464
0.12163212
0.10922547
0.098355178
0.088816326
0.080439095
0.073069481
0.066579326
0.060858383
0.055812802
0.051355529
0.047418699
0.043936079
0.040857052
0.038136159
0.035728921
0.033604917
0.031732745
0.030084454
0.028639096
0.027377675
0.026284758
0.025340411
0.024541397
0.023870516
0.023323212
0.02289364
0.022574818
0.022362673
0.022257591
2.3602362
2.0329146
1.7529367
1.5132346
1.3078853
1.1318475
0.98082981
0.85117158
0.73976303
0.64394891
0.56147219
0.49039906
0.42909755
0.37616416
0.33040536
0.29080275
0.25648847
0.22672046
0.20086002
0.17837078
0.15878439
0.14170452
0.12679124
0.11375368
0.10233924
0.092332568
0.083550933
0.075833229
0.069044165
0.063063999
0.057791625
0.053141334
0.049033873
0.045404381
0.042197854
0.039363832
0.036860343
0.034653005
0.032705423
0.030994243
0.029491916
0.028183951
0.027047645
0.02607102
0.025241273
0.024546129
0.023981291
0.023534443
0.023203353
0.022986073
0.022874391
2.526104
2.1725665
1.8706153
1.6125083
1.391713
1.2027147
1.040812
0.90200692
0.78290877
0.68062018
0.59268872
0.51702031
0.45183652
0.39562395
0.34708995
0.30513798
0.26882983
0.23736883
0.21007225
0.18635575
0.1657256
0.14775308
0.1320772
0.11838537
0.10641255
0.09592434
0.086728443
0.078654479
0.071556357
0.065309711
0.059807789
0.054955502
0.050673843
0.046895222
0.043558315
0.040609822
0.038007317
0.035713239
0.033692093
0.031913114
0.030357257
0.02900011
0.027822274
0.026809651
0.025950506
0.025231382
0.02464398
0.024181977
0.023840211
0.023614737
0.023500694
2.6993235
2.3182118
1.9931992
1.7157694
1.4788033
1.2762447
1.1029729
0.95463022
0.82751493
0.7184916
0.62488861
0.54444634
0.47523737
0.41562647
0.36422255
0.3198419
0.28147738
0.2482688
0.21949046
0.19451501
0.17280923
0.15392141
0.13746439
0.12310199
0.11055216
0.099572838
0.089952754
0.081513419
0.074101481
0.067582843
0.061846873
0.056791675
0.052334936
0.048401367
0.044931548
0.041867701
0.039164336
0.036781642
0.034683996
0.032841093
0.031228419
0.029821162
0.028600065
0.027551849
0.026661057
0.025917671
0.025310891
0.024834241
0.024480077
0.024244461
0.024128575
2.8791481
2.4692213
2.1201238
1.8225652
1.5687587
1.3521038
1.1670255
1.0087851
0.87336707
0.75737162
0.65791207
0.57254383
0.49918545
0.43607412
0.38171695
0.33484006
0.29436303
0.25936573
0.22906926
0.20280112
0.18000047
0.16017832
0.14291939
0.12787558
0.11474204
0.10326049
0.093209926
0.084399684
0.0766668
0.0698751
0.063898378
0.058637466
0.054002201
0.049915056
0.046308758
0.04312968
0.040324645
0.037854396
0.035679215
0.033769727
0.032097584
0.030642206
0.029379191
0.028296166
0.027374512
0.02660396
0.025976209
0.025483342
0.02511666
0.024876968
0.024753947
3.0647647
2.6248961
2.2508171
1.9323958
1.6611522
1.4299283
1.2326618
1.0642147
0.92024608
0.79708079
0.69160004
0.60117104
0.52355807
0.45686485
0.39948618
0.35005792
0.30742667
0.27060352
0.23875855
0.21117744
0.18725972
0.16648639
0.14841871
0.1326821
0.11895578
0.10696711
0.096480782
0.087297
0.079242665
0.072170771
0.065954333
0.060486564
0.055669466
0.051426992
0.047685282
0.044387787
0.041482578
0.038922395
0.036670486
0.034694542
0.032966895
0.03145928
0.030153821
0.029034013
0.028082557
0.027286957
0.026640362
0.026129686
0.025753388
0.025503781
0.025376691
3.2552917
2.7845024
2.3846494
2.0447302
1.7555545
1.5093502
1.2995647
1.1206538
0.96792438
0.83742096
0.72578803
0.63019541
0.54824159
0.47789738
0.41744393
0.36542321
0.32060081
0.28192752
0.24851296
0.21960571
0.19455615
0.17282031
0.15393486
0.13749789
0.12317637
0.11067546
0.099751105
0.090189559
0.081811551
0.074460529
0.068004773
0.062327341
0.057331748
0.052931169
0.049054569
0.045639996
0.042630466
0.039981692
0.037655433
0.035612507
0.03382604
0.032268467
0.030922247
0.029764849
0.028784528
0.027964543
0.027295788
0.026769302
0.026380207
0.026122958
0.025994673
3.4498156
2.9472669
2.5209728
2.1590324
1.8514939
1.5899821
1.3674142
1.1778268
1.0161749
0.87820157
0.76031379
0.65947453
0.57311737
0.49907258
0.43550635
0.3808615
0.33382641
0.29328314
0.25828746
0.22803845
0.20185339
0.17915079
0.1594402
0.14230628
0.12738112
0.11436969
0.10300456
0.093067123
0.084365532
0.076735504
0.070038341
0.06415178
0.05897632
0.054421098
0.05041055
0.046878093
0.043768358
0.041031097
0.038626899
0.036518197
0.034674509
0.033068944
0.031679877
0.030486755
0.029476235
0.028630143
0.027941728
0.027401808
0.027000971
0.026735553
0.026601048
3.6473856
3.1123994
2.6591297
2.2747435
1.9485152
1.6714317
1.4358843
1.2354615
1.0647619
0.9192266
0.79501122
0.68886991
0.59806909
0.52029316
0.45358724
0.39630273
0.34704168
0.30461979
0.26803767
0.23644325
0.20911819
0.18544777
0.1649171
0.14707749
0.13155663
0.11803215
0.10623033
0.095916827
0.086892749
0.078983975
0.072047095
0.065955523
0.060600882
0.055891778
0.051746596
0.04809851
0.044887381
0.042065095
0.039582577
0.037408988
0.035508332
0.03385412
0.032424323
0.031195584
0.030154476
0.029284381
0.028576207
0.028020856
0.027608285
0.027335077
0.027196901
3.8470413
3.2790949
2.7984513
2.3913096
2.046155
1.7533186
1.5046503
1.2932888
1.1134645
0.96030804
0.82972185
0.71825027
0.62298443
0.54145885
0.47160934
0.41167803
0.3601884
0.31589001
0.27771958
0.24478288
0.21632021
0.19168678
0.17033385
0.15180044
0.13568281
0.12165084
0.10941098
0.098725153
0.089380784
0.08119776
0.074024228
0.067728557
0.06219734
0.05733382
0.053057223
0.049294285
0.045984398
0.043075745
0.040520042
0.038281995
0.036325558
0.034624674
0.033151083
0.031890575
0.030818225
0.02992546
0.029196445
0.028625259
0.02820201
0.027921161
0.02778114
4.0478122
3.4465639
2.9382759
2.5081768
2.143954
1.8352602
1.5733956
1.3510469
1.1620612
1.0012616
0.864293
0.74748456
0.64775022
0.56248241
0.48949272
0.4269233
0.3732141
0.32704154
0.28729443
0.2530231
0.22343071
0.19784165
0.17567703
0.15644875
0.13974307
0.12520687
0.1125405
0.10148323
0.091823891
0.083370441
0.075961918
0.069464372
0.063760987
0.058747959
0.05434002
0.050465675
0.047056619
0.044063046
0.0414355
0.039132971
0.037122469
0.035374256
0.033861633
0.032564215
0.03146482
0.030548859
0.029800062
0.029213849
0.028778736
0.028492347
0.028347975
4.2487481
3.6140031
3.0779504
2.624817
2.2414719
1.9168916
1.6418158
1.4084772
1.2103405
1.0419114
0.89857748
0.77645171
0.67226921
0.58327922
0.50716461
0.44197769
0.38606337
0.33803804
0.29672529
0.2611331
0.23042443
0.20388864
0.18092291
0.16100898
0.14372368
0.12869359
0.11560066
0.10418596
0.094212909
0.085491535
0.077854406
0.071158277
0.065282538
0.060122638
0.055588113
0.051602759
0.048099975
0.04502267
0.042323785
0.03996034
0.03789697
0.036101678
0.0345503
0.033219389
0.032091915
0.031152477
0.030385086
0.02978463
0.02934122
0.029045344
0.02889819
4.4489299
3.7806606
3.2168488
2.7407069
2.3382781
1.9978541
1.7096209
1.4653438
1.2581021
1.082092
0.93243424
0.80503146
0.69644167
0.60376431
0.5245604
0.45677833
0.39868952
0.34883066
0.30597709
0.26908538
0.23727548
0.20980724
0.1860501
0.16546929
0.14761228
0.13209486
0.1185879
0.10681614
0.096539975
0.087556879
0.079694802
0.072807102
0.066764298
0.06146056
0.056800103
0.052706602
0.049111538
0.045955656
0.043184774
0.040760671
0.038644958
0.036805622
0.035217866
0.033854524
0.032699633
0.0317375
0.030952705
0.030336439
0.0298822
0.02958185
0.029430872
4.6474543
3.9457905
3.3543741
2.8553643
2.4339722
2.0778219
1.7765361
1.5214124
1.3051576
1.1216433
0.96573479
0.83312312
0.7201806
0.62386412
0.54161761
0.47128129
0.41105147
0.35939255
0.31502029
0.27685092
0.24396118
0.21558078
0.19104914
0.16981171
0.15139619
0.13540302
0.1214897
0.10937103
0.098798338
0.089561962
0.081480485
0.074401991
0.068199514
0.062753751
0.057974372
0.053775409
0.050090136
0.0468529
0.044015968
0.041535325
0.039367778
0.037485586
0.035859204
0.034465656
0.033284123
0.03229958
0.031498189
0.03086925
0.030404868
0.030096594
0.029941675
4.8434518
4.1087139
3.489966
2.9683216
2.5281793
2.1564842
1.8423075
1.5764817
1.3513328
1.1604262
0.99836665
0.8606246
0.74340164
0.64351223
0.55827609
0.48543828
0.42310565
0.36968386
0.32382934
0.28440766
0.25046414
0.22119216
0.19590343
0.17402517
0.15506616
0.1386094
0.12430133
0.11184485
0.1009826
0.091496618
0.083203377
0.075942669
0.069581602
0.064001739
0.05910344
0.054804376
0.051031321
0.047719178
0.044816575
0.042277896
0.040064112
0.038138659
0.036476126
0.035053995
0.033846074
0.032840309
0.032021513
0.031379519
0.030905247
0.030590526
0.030433481
5.036041
4.268839
3.6231183
3.0791732
2.6205579
2.2335621
1.9067009
1.6303534
1.3964747
1.1983114
1.0302156
0.88744887
0.76603618
0.66264928
0.57448838
0.49920417
0.43482125
0.37967799
0.33237602
0.29173571
0.25676695
0.22662474
0.20060264
0.17810151
0.15861323
0.14170583
0.12701643
0.11423164
0.1030892
0.093362846
0.084865126
0.077427462
0.070912512
0.065200804
0.060189499
0.055793141
0.051935013
0.048549839
0.045584216
0.042990291
0.040729552
0.038764161
0.037068412
0.035616074
0.034384706
0.033357437
0.032522021
0.03186763
0.031383466
0.031065454
0.030903274
4.4255501
3.7533909
3.1875418
2.7107979
2.3087946
1.9695053
1.6828628
1.4404414
1.2351841
1.0611916
0.91351686
0.78801699
0.68122038
0.59021096
0.51254578
0.44616661
0.38934963
0.34064396
0.29882015
0.26285139
0.23186825
0.20513413
0.18202886
0.16203033
0.14468514
0.1296258
0.11652547
0.10511169
0.09515432
0.086456295
0.078848686
0.072188053
0.06635069
0.061230202
0.056739996
0.052799722
0.049344121
0.046318772
0.043671977
0.041365349
0.039362109
0.03763168
0.036150729
0.034897072
0.033851491
0.033002238
0.032333856
0.031840334
0.031516249
0.031352224
4.5786886
3.8804184
3.2930918
2.7986186
2.3819557
2.0305408
1.733854
1.4831019
1.270939
1.0912091
0.9387602
0.80929004
0.6991797
0.60540666
0.52543037
0.45711798
0.39867951
0.34860966
0.30564271
0.26871037
0.23691155
0.20949239
0.18580406
0.16531027
0.14754741
0.1321286
0.11872345
0.10704938
0.096871194
0.087982099
0.080210993
0.073409401
0.067449551
0.062225169
0.057641309
0.053624438
0.050103061
0.047017863
0.044322268
0.04197094
0.039931322
0.03816978
0.036662973
0.03538506
0.034322069
0.03345685
0.032778075
0.032277445
0.031945699
0.031778634
4.7274683
4.0037701
3.3955091
2.8837706
2.4528495
2.0896396
1.7831934
1.5243585
1.3054898
1.1201957
0.96312549
0.82980438
0.71649191
0.62004383
0.53783532
0.46765245
0.40764939
0.35626606
0.31219313
0.27433203
0.24175081
0.21366709
0.18941944
0.1684494
0.15028387
0.13452172
0.12082438
0.10890165
0.098507873
0.089435375
0.081507094
0.074568903
0.068493012
0.063170423
0.058501643
0.054408829
0.050823123
0.047681336
0.044937872
0.042547666
0.040470586
0.038680172
0.037146603
0.035848908
0.034767072
0.033887741
0.033195912
0.032688552
0.032351794
0.03218316
4.8714501
4.1230948
3.4945283
2.9660416
2.521294
2.1466641
1.8307709
1.5641156
1.3387685
1.148097
0.98656353
0.84952686
0.73312084
0.63409771
0.54973524
0.47775576
0.41624433
0.36359811
0.31846269
0.27970764
0.24637434
0.2176556
0.19287029
0.17144535
0.15289454
0.13680171
0.12282671
0.11066426
0.1000653
0.090818499
0.082740589
0.075674364
0.069485877
0.064067288
0.059316896
0.055153276
0.051504656
0.048310931
0.045521457
0.043091807
0.040983639
0.039163147
0.037605849
0.036287336
0.035189131
0.034295428
0.033594775
0.033076709
0.032736286
0.032565532
5.0102834
4.2381061
3.5899105
3.0452463
2.5871505
2.2014986
1.8764912
1.6022997
1.3707092
1.1748604
1.009028
0.86842419
0.74904595
0.64754531
0.56111616
0.48740974
0.42445531
0.3705971
0.32444696
0.28483802
0.25078137
0.2214556
0.19615579
0.17429681
0.15537468
0.13897095
0.12472668
0.11233547
0.10154377
0.092131503
0.083907603
0.076718634
0.070426908
0.064914666
0.060086917
0.055855657
0.052149277
0.048906251
0.04607392
0.043604584
0.04146502
0.039617386
0.038037928
0.036698971
0.035585212
0.034680834
0.033969627
0.033445115
0.033098869
0.032926547
5.1436931
4.3485748
3.6814827
3.1212399
2.6502971
2.2540459
1.9202851
1.6388536
1.4012691
1.2004497
1.0304964
0.88647184
0.76424721
0.660374
0.57196918
0.49661116
0.43227306
0.37726064
0.33013928
0.28971128
0.25497165
0.22506466
0.19927514
0.17700083
0.15772667
0.14102468
0.12652566
0.11391874
0.10294126
0.093369324
0.085011875
0.077704746
0.071313729
0.065717148
0.060812494
0.056517684
0.052756058
0.049466486
0.046593297
0.044090341
0.041918726
0.040047362
0.038444304
0.037087538
0.035959279
0.035040537
0.034320879
0.033790698
0.033439574
0.033264341
5.2714584
4.4543102
3.769085
3.193906
2.7106512
2.3042425
1.9620947
1.6737326
1.4304093
1.2248429
1.050952
0.90365484
0.77871191
0.67257773
0.58228478
0.50535297
0.43970084
0.38358161
0.33553731
0.29433374
0.25893856
0.22847988
0.20222839
0.17955823
0.15995206
0.14296528
0.12822605
0.11541277
0.10426006
0.094538459
0.086051236
0.078635886
0.072148109
0.066468955
0.061496025
0.05713949
0.053328714
0.049990845
0.047080347
0.044543392
0.042342758
0.040446857
0.038824421
0.037451715
0.036308154
0.035379392
0.034649842
0.034112277
0.033758396
0.03358
5.3934038
4.5551849
3.8526187
3.2631609
2.7681443
2.3520379
2.0018808
1.7069042
1.4581138
1.2480202
1.0703764
0.91996573
0.79243536
0.68414935
0.59206216
0.51363356
0.44672962
0.38956374
0.34064184
0.2987007
0.26268685
0.23170604
0.20501311
0.18197006
0.16204774
0.14479275
0.12982488
0.11681897
0.10549972
0.095637319
0.087028799
0.079507833
0.072931814
0.067177679
0.062135769
0.057723852
0.053860587
0.05048346
0.047535242
0.044968612
0.042743337
0.040823052
0.039178958
0.037791636
0.036634489
0.035694645
0.034957866
0.03441476
0.034057839
0.033877065
5.5094055
4.651101
3.932009
3.3289512
2.8227364
2.3973924
2.0396225
1.738357
1.4843674
1.2699736
1.0887654
0.93540195
0.80541436
0.6950865
0.6013
0.52145294
0.45336417
0.39520731
0.34545231
0.30281686
0.26621759
0.23474075
0.20763249
0.18423847
0.16401601
0.14650866
0.13132562
0.11813645
0.10666307
0.096665754
0.087942535
0.080324778
0.073664524
0.067835741
0.062734502
0.058268405
0.054359649
0.050943766
0.047961119
0.045365625
0.043113312
0.041171522
0.03951177
0.038108079
0.036939067
0.035988929
0.035244102
0.034695731
0.034335122
0.03415303
5.6193975
4.7420045
4.007217
3.3912471
2.8744035
2.4403016
2.075313
1.7680863
1.5091741
1.2907055
1.1061229
0.94996056
0.81765397
0.70539391
0.61000118
0.52881423
0.45960763
0.40051699
0.34997829
0.30668304
0.26953157
0.23759352
0.21008859
0.18636338
0.16586327
0.14811701
0.13273381
0.11937111
0.10775031
0.097626567
0.088798266
0.081087542
0.074349777
0.068454256
0.063293168
0.058777357
0.054824814
0.051371211
0.04835682
0.045733497
0.043459177
0.041495607
0.039819106
0.038403171
0.03722189
0.03626267
0.035511243
0.034956799
0.034591838
0.034408686
5.7233432
4.8278724
4.0782308
3.4500448
2.923149
2.4807695
2.1089557
1.7960977
1.5325338
1.3102215
1.1224586
0.96365445
0.82915965
0.71508189
0.61817366
0.53572512
0.46546424
0.40549468
0.35422185
0.31030712
0.27263509
0.24026035
0.21238705
0.18835144
0.16758869
0.14961905
0.13404547
0.12052218
0.10876372
0.098523432
0.089593859
0.081797835
0.074985544
0.069025847
0.063811203
0.059249931
0.055257169
0.051767292
0.048723883
0.046073264
0.04377706
0.04179755
0.040105245
0.038673847
0.037482707
0.036515568
0.035757534
0.035197833
0.034830366
0.034645896
5.8212548
4.9087282
4.1450688
3.5053618
2.9689901
2.5188038
2.1405646
1.8224057
1.554464
1.3285355
1.1377777
0.97649715
0.83994174
0.72415277
0.62582663
0.54219115
0.4709464
0.410148
0.35818294
0.3136931
0.27553294
0.24274894
0.21453337
0.19020476
0.16919466
0.15101723
0.13526379
0.12159018
0.10970475
0.099355557
0.090332362
0.082457361
0.075574417
0.06955772
0.064291824
0.059684769
0.055655628
0.052134251
0.049062358
0.046389304
0.044072936
0.042075642
0.040368812
0.038925961
0.037724114
0.036748273
0.035983793
0.035421584
0.035051083
0.034863581
5.9131772
4.984605
4.2077666
3.5572317
3.0119607
2.5544522
2.1701749
1.8470407
1.5749913
1.3456689
1.1521016
0.9884978
0.85001656
0.732628
0.63296905
0.54822894
0.47605488
0.41448567
0.36187613
0.31684332
0.27823038
0.24506242
0.21652381
0.1919265
0.17068457
0.15231387
0.13639665
0.1225833
0.11057655
0.10012503
0.091016959
0.083064674
0.076120281
0.070047956
0.064735638
0.06008783
0.056024689
0.052472174
0.049375363
0.046680044
0.044344551
0.042331954
0.04061182
0.039156822
0.037946554
0.036962796
0.036192647
0.035625028
0.03525096
0.035064921
5.9991894
5.0555731
4.2663918
3.6057169
3.0521068
2.5877439
2.1978191
1.8700291
1.5941421
1.3616462
1.1654596
0.99968257
0.85939915
0.74051856
0.63961519
0.55384189
0.4808055
0.4185185
0.3653077
0.31976884
0.28073162
0.2472095
0.21837263
0.19352139
0.17206559
0.15351478
0.13744436
0.12350073
0.11138191
0.1008377
0.091647468
0.083627685
0.076621566
0.070499817
0.065143455
0.060459802
0.056362888
0.052782698
0.049661882
0.046947436
0.044593882
0.042566259
0.040833323
0.039368054
0.038149868
0.037159001
0.036385157
0.035813848
0.03543674
0.035248858
6.0793952
5.1217252
4.321018
3.6508797
3.0894909
2.6187318
2.2235421
1.891414
1.6119477
1.3764986
1.1778661
1.0100659
0.8681101
0.74783741
0.64578033
0.55904584
0.48520964
0.42225364
0.36848164
0.32247655
0.28304535
0.2491928
0.22007827
0.19499126
0.17334219
0.15462153
0.13841005
0.12434404
0.1121257
0.10149155
0.092227761
0.084142686
0.077084128
0.070913701
0.065518308
0.060798656
0.056672602
0.053068149
0.049924947
0.047191908
0.044821054
0.042781438
0.041035852
0.039561606
0.038336182
0.03733937
0.036559201
0.035983793
0.035606434
0.035417363
6.1539209
5.1831725
4.3717402
3.6928027
3.1241849
2.6474816
2.247395
1.9112372
1.6284495
1.3902534
1.1893544
1.0196819
0.87617157
0.75460907
0.65148111
0.56385342
0.48927597
0.4257013
0.37141192
0.32497359
0.28517978
0.25102265
0.22164862
0.19634724
0.17451249
0.15563863
0.13929531
0.12511854
0.11280566
0.1020932
0.092757256
0.084615519
0.077506438
0.071292377
0.065860987
0.061108371
0.056955174
0.053326717
0.050163977
0.047412222
0.045030184
0.042976834
0.041222166
0.039736839
0.038504032
0.037502084
0.036717564
0.036140182
0.035758974
0.035569652
6.2229171
5.2400385
4.4186674
3.7315752
3.1562614
2.6740535
2.269441
1.9295493
1.6436853
1.402955
1.1999577
1.0285506
0.88360248
0.76084964
0.65673332
0.5682818
0.49301951
0.42887129
0.37410567
0.32726673
0.28714017
0.25269824
0.22309082
0.19758928
0.17558631
0.15657084
0.14010618
0.12582817
0.11342747
0.10264025
0.093242203
0.08504734
0.077891059
0.071637556
0.066170701
0.061390943
0.057212674
0.053562989
0.050380877
0.047614751
0.045218342
0.043152343
0.041387889
0.039896642
0.038656976
0.037650144
0.036861936
0.036280074
0.035899148
0.03570651
6.2865503
5.2924609
4.46192
3.7673042
3.1858193
2.6985266
2.2897343
1.9464053
1.6577041
1.414631
1.2097068
1.0367009
0.8904298
0.76658179
0.6615533
0.57234525
0.49645321
0.43178022
0.37657342
0.32936873
0.28893283
0.25423459
0.22440723
0.19872452
0.17656703
0.15742209
0.14084588
0.12647371
0.11399431
0.10313785
0.093682728
0.08543763
0.07823834
0.071950715
0.066453928
0.061645532
0.057445533
0.053775942
0.050576929
0.047797118
0.045388165
0.043312274
0.041540049
0.040040633
0.038795024
0.037781996
0.036988902
0.036406257
0.036023358
0.035830315
6.3449874
5.3405973
4.5016252
3.8000961
3.2129315
2.7209747
2.3083495
1.9618555
1.6705478
1.42533
1.2186327
1.0441589
0.89667801
0.77182211
0.66596246
0.5760603
0.49958864
0.4344336
0.37882624
0.33128241
0.29056754
0.25563327
0.22560814
0.19975695
0.17745861
0.15819183
0.14151914
0.12706045
0.11450774
0.10358998
0.094082375
0.085790977
0.078555721
0.07223341
0.066706674
0.061876546
0.057654767
0.053967926
0.05075454
0.047959808
0.045538861
0.043455732
0.041673219
0.040169323
0.038917106
0.037900666
0.037105065
0.036520171
0.036135703
0.035943849
6.3984264
5.3845948
4.5379135
3.8300703
3.23771
2.7414844
2.3253431
1.9759608
1.6822747
1.43509
1.2267748
1.0509625
0.90236928
0.77659727
0.66997338
0.57943834
0.50244247
0.43684888
0.38087364
0.33302474
0.29205061
0.25689905
0.22669355
0.20069204
0.17826554
0.15889146
0.14212354
0.12759078
0.11497015
0.10399715
0.094442079
0.086111117
0.078838948
0.072486688
0.066936119
0.062081833
0.05784227
0.054139715
0.050911714
0.048106024
0.045676528
0.043582044
0.041794792
0.040282704
0.039028011
0.038007599
0.037209774
0.036620773
0.036235779
0.036041951
6.4470511
5.4246214
4.5709309
3.8573353
3.2602488
2.7601372
2.3407959
1.9887789
1.6929241
1.4439563
1.2341604
1.0571306
0.9075334
0.78092623
0.67361092
0.58249996
0.50502466
0.43903207
0.38272327
0.33459697
0.29338995
0.25804486
0.22767452
0.20153485
0.17899127
0.1595204
0.1426694
0.12806465
0.11538548
0.10436211
0.094762339
0.086394877
0.079091969
0.072713877
0.067138373
0.062265769
0.058008801
0.054291753
0.051052673
0.048236833
0.045796362
0.043695982
0.041901322
0.040384906
0.039124925
0.038100817
0.03730021
0.03671043
0.036323836
0.036128974
6.4910412
5.4608475
4.6008229
3.8820196
3.28065
2.7770151
2.3547723
2.0003719
1.7025512
1.4519637
1.2408382
1.0627069
0.91219569
0.78483197
0.67688929
0.58526176
0.50735054