/*--------------------------------*- C++ -*----------------------------------*\
| =========                 |                                                 |
| \\      /  F ield         | OpenFOAM: The Open Source CFD Toolbox           |
|  \\    /   O peration     | Version:  2312                                  |
|   \\  /    A nd           | Website:  www.openfoam.com                      |
|    \\/     M anipulation  |                                                 |
\*---------------------------------------------------------------------------*/
FoamFile
{
    version     2.0;
    format      ascii;
    arch        "LSB;label=32;scalar=64";
    class       volScalarField;
    location    "0.1";
    object      T;
}
// * * * * * * * * * * * * * * * * * * * * * * * * * * * * * * * * * * * * * //

dimensions      [0 0 0 1 0 0 0];

internalField   nonuniform List<scalar> 
3257
(
355.93598
354.92665
353.93168
352.95096
351.98472
351.03327
350.09692
349.17599
348.27078
347.3816
346.50874
345.65249
344.81314
343.99096
343.18623
342.39922
341.63019
340.87941
340.14713
339.4336
338.73909
338.06382
337.40805
336.77202
336.15596
335.5601
334.98468
334.42992
333.89604
333.38327
332.89181
332.42189
331.9737
331.54746
331.14336
330.76161
330.40239
330.0659
329.75232
329.46183
329.19462
328.95086
328.73073
328.53438
328.36199
328.21373
328.08974
327.99021
327.91528
327.86513
327.83994
356.03904
355.02664
354.02858
353.0448
352.07557
351.1212
350.18203
349.25836
348.3505
347.45876
346.58342
345.72478
344.88311
344.05871
343.25183
342.46274
341.69172
340.93902
340.2049
339.4896
338.79338
338.11648
337.45914
336.82161
336.20411
335.60688
335.03015
334.47413
333.93907
333.42516
332.93263
332.46169
332.01254
331.58539
331.18044
330.79788
330.43792
330.10073
329.78651
329.49544
329.22769
328.98344
328.76286
328.56612
328.39339
328.24482
328.12059
328.02083
327.94571
327.89534
327.86984
356.23275
355.2142
354.21016
353.22057
352.24571
351.28587
350.34139
349.41258
348.49975
347.60319
346.7232
345.86006
345.01406
344.18546
343.37454
342.58156
341.80679
341.05047
340.31287
339.59423
338.89479
338.21481
337.55451
336.91414
336.29393
335.69411
335.11489
334.55652
334.0192
333.50315
333.00858
332.53571
332.08474
331.65587
331.24931
330.86524
330.50386
330.16536
329.84992
329.55772
329.28894
329.04376
328.82235
328.62486
328.45148
328.30236
328.17766
328.07753
328.00213
327.95159
327.92599
356.50614
355.47888
354.46641
353.46864
352.48583
351.51829
350.56635
349.63032
348.71049
347.80716
346.92063
346.05117
345.19905
344.36456
343.54795
342.74948
341.96942
341.20801
340.4655
339.74215
339.03818
338.35384
337.68937
337.045
336.42096
335.81746
335.23475
334.67303
334.13253
333.61345
333.11601
332.64041
332.18687
331.75557
331.34672
330.96051
330.59712
330.25676
329.93959
329.64581
329.37558
329.12908
328.90648
328.70795
328.53365
328.38374
328.25838
328.15773
328.08194
328.03114
328.0054
356.84845
355.81033
354.78733
353.77934
352.78662
351.80948
350.84823
349.90318
348.97462
348.06285
347.16814
346.29078
345.43104
344.58917
343.76545
342.96013
342.17345
341.40567
340.65703
339.92778
339.21814
338.52836
337.85866
337.20927
336.58043
335.97234
335.38524
334.81933
334.27484
333.75196
333.25092
332.7719
332.31512
331.88078
331.46906
331.08016
330.71426
330.37156
330.05223
329.75645
329.4844
329.23625
329.01216
328.81231
328.63686
328.48597
328.35979
328.25848
328.1822
328.13108
328.10517
357.24953
356.19875
355.16345
354.14353
353.13925
352.15089
351.17877
350.22318
349.28443
348.36279
347.45854
346.57195
345.70328
344.8528
344.02076
343.20741
342.413
341.63777
340.88195
340.14578
339.4295
338.73334
338.05751
337.40226
336.76778
336.15431
335.56206
334.99124
334.44206
333.91473
333.40946
332.92643
332.46586
332.02794
331.61285
331.22079
330.85195
330.5065
330.18463
329.88651
329.61232
329.36222
329.13639
328.935
328.75819
328.60614
328.479
328.37693
328.30007
328.24857
328.22246
357.69988
356.63494
355.5859
354.55264
353.53541
352.5345
351.55021
350.58284
349.63266
348.69997
347.78503
346.88809
346.00943
345.1493
344.30793
343.48558
342.68249
341.89889
341.13502
340.3911
339.66737
338.96404
338.28133
337.61948
336.97868
336.35916
335.76113
335.18479
334.63035
334.09801
333.58797
333.10044
332.6356
332.19365
331.77478
331.37917
331.00701
330.65847
330.33374
330.03299
329.75639
329.50411
329.27632
329.07318
328.89485
328.7415
328.61328
328.51034
328.43284
328.38091
328.35458
358.1907
357.1104
356.04643
354.99869
353.9674
352.95285
351.95534
350.97515
350.01257
349.06786
348.14128
347.2331
346.34357
345.47292
344.62141
343.78926
342.97672
342.18402
341.41137
340.659
339.92714
339.216
338.5258
337.85675
337.20906
336.58294
335.9786
335.39624
334.83605
334.29825
333.78303
333.29057
332.82108
332.37473
331.95173
331.55224
331.17645
330.82455
330.49669
330.19307
329.91384
329.65917
329.42924
329.2242
329.04422
328.88944
328.76004
328.65616
328.57795
328.52555
328.49898
358.7139
357.61729
356.53747
355.47434
354.4281
353.39906
352.3875
351.39369
350.41791
349.46041
348.52146
347.60131
346.7002
345.81837
344.95605
344.11347
343.29087
342.48846
341.70646
340.94509
340.20457
339.4851
338.78691
338.11019
337.45515
336.82199
336.21092
335.62213
335.05582
334.51218
333.99142
333.49371
333.01924
332.56821
332.14079
331.73716
331.35751
331.002
330.67081
330.36412
330.08208
329.82487
329.59265
329.38558
329.20382
329.04753
328.91687
328.81198
328.73302
328.68012
328.65329
359.26211
358.14847
357.0521
355.97289
354.91105
353.86686
352.8406
351.83255
350.84297
349.87211
348.92022
347.98754
347.07432
346.18078
345.30715
344.45365
343.6205
342.80793
342.01614
341.24534
340.49574
339.76755
339.06097
338.37621
337.71346
337.07292
336.45479
335.85926
335.28653
334.73678
334.2102
333.70698
333.2273
332.77134
332.33929
331.93132
331.5476
331.18832
330.85363
330.54371
330.25873
329.99884
329.76422
329.55502
329.3714
329.21352
329.08153
328.97559
328.89584
328.84241
328.81533
359.82866
358.69748
357.58406
356.48828
355.41035
354.35055
353.30914
352.2864
351.28258
350.29793
349.33268
348.38708
347.46136
346.55573
345.67041
344.80564
343.9616
343.13853
342.33662
341.55607
340.79709
340.05989
339.34464
338.65157
337.98084
337.33267
336.70724
336.10474
335.52536
334.96927
334.43668
333.92775
333.44267
332.98162
332.54478
332.13231
331.74439
331.38119
331.04289
330.72963
330.4416
330.17895
329.94184
329.73044
329.54489
329.38536
329.252
329.14497
329.06441
329.01044
328.98307
360.40757
359.25852
358.12772
357.01505
355.92072
354.845
353.78815
352.75043
351.73209
350.73336
349.75449
348.7957
347.85721
346.93923
346.04199
345.1657
344.31054
343.47674
342.66449
341.87398
341.10542
340.35899
339.63489
338.93331
338.25443
337.59845
336.96556
336.35592
335.76973
335.20718
334.66843
334.15366
333.66306
333.1968
332.75504
332.33797
331.94575
331.57855
331.23654
330.91987
330.62872
330.36323
330.12358
329.90992
329.72241
329.56119
329.42643
329.31828
329.23688
329.18236
329.15472
360.9935
359.82642
358.67808
357.54836
356.43747
355.34566
354.27321
353.22035
352.18733
351.17438
350.18173
349.2096
348.2582
347.32774
346.41844
345.53048
344.66407
343.81941
342.99669
342.1961
341.41783
340.66207
339.92899
339.2188
338.53167
337.86778
337.22731
336.61045
336.01737
335.44825
334.90326
334.38258
333.88638
333.41483
332.9681
332.54637
332.14979
331.77853
331.43275
331.11263
330.81831
330.54995
330.30773
330.09178
329.90227
329.73934
329.60316
329.49388
329.41164
329.35656
329.32863
361.58176
360.39662
359.23071
358.0839
356.95642
355.8485
354.7604
353.69237
352.64463
351.61741
350.61094
349.62543
348.66108
347.7181
346.79668
345.89702
345.01932
344.16376
343.33052
342.5198
341.73178
340.96664
340.22455
339.50571
338.81027
338.13843
337.49036
336.86624
336.26623
335.6905
335.13924
334.61261
334.11078
333.63392
333.18219
332.75576
332.35479
331.97945
331.6299
331.30629
331.00879
330.73755
330.49273
330.27449
330.08297
329.91833
329.78072
329.6703
329.58721
329.53157
329.50336
362.16823
360.96512
359.78173
358.61793
357.47393
356.34997
355.2463
354.16315
353.10076
352.05934
351.0391
350.04025
349.063
348.10753
347.17404
346.26272
345.37375
344.50732
343.6636
342.84278
342.04503
341.27053
340.51945
339.79196
339.08825
338.40847
337.75281
337.12143
336.5145
335.93219
335.37466
334.84209
334.33464
333.85247
333.39575
332.96463
332.55929
332.17987
331.82654
331.49946
331.19878
330.92466
330.67725
330.45671
330.26319
330.09684
329.95781
329.84625
329.76231
329.70611
329.67762
362.74934
361.52847
360.32778
359.14717
357.98683
356.847
355.72792
354.62981
353.55291
352.49742
351.46356
350.4515
349.46147
348.49363
347.54818
346.6253
345.72517
344.84796
343.99385
343.16301
342.35561
341.57183
340.81183
340.07578
339.36385
338.6762
338.01301
337.37443
336.76063
336.17178
335.60804
335.06957
334.55654
334.0691
333.60742
333.17165
332.76196
332.3785
332.02143
331.6909
331.38706
331.11008
330.86011
330.63729
330.44178
330.27373
330.13329
330.02061
329.93583
329.87908
329.85031
363.32201
362.08367
360.86598
359.66882
358.4924
357.33695
356.2027
355.08987
353.99868
352.92934
351.88204
350.85698
349.85435
348.87433
347.91709
346.98281
346.07167
345.18384
344.31948
343.47876
342.66185
341.86891
341.10011
340.35561
339.63557
338.94016
338.26953
337.62384
337.00327
336.40796
335.83809
335.2938
334.77526
334.28262
333.81604
333.37568
332.9617
332.57424
332.21347
331.87954
331.57259
331.29279
331.04028
330.81521
330.61774
330.44801
330.30618
330.19239
330.10679
330.04949
330.02045
363.88365
362.62821
361.39386
360.1805
358.98833
357.81757
356.66846
355.5412
354.43601
353.35309
352.29263
351.25482
350.23983
349.24785
348.27905
347.33359
346.41165
345.51339
344.63898
343.78856
342.96231
342.16038
341.38294
340.63014
339.90213
339.19909
338.52116
337.8685
337.24126
336.63962
336.06371
335.5137
334.98975
334.492
334.02061
333.57574
333.15754
332.76616
332.40175
332.06447
331.75447
331.47189
331.21689
330.98962
330.79023
330.61885
330.47566
330.36078
330.27437
330.21654
330.18723
364.43208
363.15996
361.90937
360.68022
359.47268
358.28699
357.12338
355.98204
354.86318
353.76701
352.69369
351.64343
350.61638
349.61272
348.63262
347.67625
346.74375
345.8353
344.95106
344.09116
343.25578
342.44507
341.65917
340.89825
340.16246
339.45195
338.76688
338.10739
337.47365
336.86579
336.28399
335.72838
335.19913
334.69638
334.22029
333.771
333.34868
332.95346
332.5855
332.24495
331.93195
331.64666
331.38923
331.1598
330.95852
330.78554
330.64101
330.52507
330.43787
330.37952
330.34995
364.9655
363.67719
362.41082
361.16632
359.94385
358.74366
357.56594
356.41091
355.27877
354.16971
353.0839
352.02151
350.98273
349.96771
348.97662
348.00962
347.06685
346.14848
345.25466
344.38554
343.54127
342.72199
341.92787
341.15904
340.41566
339.69788
339.00585
338.33971
337.69962
337.08572
336.49816
335.9371
335.40269
334.89507
334.41439
333.9608
333.53445
333.13549
332.76406
332.42032
332.10441
331.81648
331.55668
331.32515
331.12204
330.94749
330.80166
330.68469
330.59673
330.53787
330.50804
365.48247
364.17848
362.89684
361.63747
360.40055
359.1863
357.99494
356.82665
355.68164
354.56008
353.46215
352.38803
351.33787
350.31184
349.31008
348.33277
347.38004
346.45205
345.54894
344.67086
343.81796
342.99038
342.18826
341.41176
340.66102
339.93617
339.23738
338.56478
337.91852
337.29875
336.70562
336.13926
335.59983
335.08747
334.60234
334.14457
333.71432
333.31172
332.93693
332.5901
332.27136
331.98086
331.71876
331.48519
331.2803
331.10423
330.95714
330.83917
330.75046
330.69112
330.66105
365.98184
364.66272
363.36635
362.09263
360.84176
359.61395
358.4094
357.22831
356.07086
354.93724
353.82761
352.74213
351.68098
350.6443
349.63225
348.64496
347.6826
346.7453
345.83321
344.94647
344.08522
343.2496
342.43975
341.65582
340.89795
340.16627
339.46094
338.78209
338.12986
337.5044
336.90586
336.33438
335.79009
335.27315
334.7837
334.32189
333.88785
333.48174
333.10369
332.75386
332.43238
332.1394
331.87507
331.63953
331.43292
331.25539
331.10708
330.98814
330.89872
330.83891
330.8086
366.46275
365.12908
363.81852
362.531
361.2667
360.02583
358.80859
357.61517
356.44576
355.30051
354.17961
353.0832
352.01145
350.96451
349.94252
348.94563
347.97398
347.02771
346.10695
345.21186
344.34255
343.49918
342.68187
341.89078
341.12602
340.38775
339.6761
338.99122
338.33323
337.70229
337.09853
336.52209
335.97312
335.45175
334.95814
334.49242
334.05473
333.64522
333.26403
332.91131
332.58719
332.29181
332.02533
331.78789
331.57962
331.40067
331.25119
331.13132
331.04121
330.98095
330.95042
366.92458
365.57694
364.25277
362.95201
361.67483
360.42142
359.192
357.98674
356.80582
355.64942
354.51768
353.41077
352.32884
351.27204
350.2405
349.23437
348.25379
347.29888
346.3698
345.46666
344.58961
343.73878
342.9143
342.1163
341.34493
340.60031
339.88258
339.19189
338.52836
337.89213
337.28334
336.70214
336.14865
335.62303
335.12541
334.65592
334.21472
333.80194
333.41773
333.06222
332.73555
332.43788
332.16933
331.93005
331.72019
331.53988
331.38928
331.26852
331.17774
331.11705
331.0863
367.36691
366.00591
364.66872
363.35528
362.06576
360.80036
359.55927
358.34267
357.15074
355.98363
354.84152
353.72454
352.63285
351.56659
350.5259
349.51091
348.52175
347.55857
346.62149
345.71065
344.82616
343.96817
343.1368
342.33218
341.55445
340.80374
340.08018
339.3839
338.71504
338.07374
337.46013
336.87435
336.31653
335.78681
335.28534
334.81225
334.36767
333.95175
333.56463
333.20645
332.87734
332.57745
332.30692
332.06589
331.85449
331.67288
331.5212
331.39958
331.30817
331.24707
331.21612
367.78951
366.41575
365.06613
363.74059
362.4393
361.16244
359.91021
358.68277
357.48031
356.30298
355.15094
354.02433
352.92331
351.848
350.79855
349.77508
348.77773
347.80663
346.8619
345.94367
345.05206
344.18722
343.34925
342.53829
341.75447
340.99792
340.26877
339.56715
338.89319
338.24703
337.6288
337.03863
336.47666
335.94302
335.43786
334.9613
334.51349
334.09456
333.70466
333.34391
333.01247
332.71046
332.43803
332.19532
331.98246
331.79961
331.64689
331.52446
331.43244
331.37095
331.3398
368.19233
366.80641
365.44496
364.1079
362.79539
361.50762
360.24476
359.00699
357.79449
356.60741
355.4459
354.3101
353.20017
352.11623
351.05842
350.02686
349.02168
348.04301
347.09097
346.16569
345.26728
344.39588
343.55161
342.7346
341.94496
341.18283
340.44834
339.74161
339.06277
338.41196
337.78931
337.19494
336.629
336.09162
335.58292
335.10306
334.65216
334.23036
333.83779
333.4746
333.14092
332.83689
332.56264
332.31832
332.10407
331.92003
331.76633
331.64311
331.55053
331.48866
331.45733
368.57542
367.17793
365.80527
364.45728
363.13411
361.83595
360.56298
359.31539
358.09333
356.89696
355.72644
354.5819
353.46348
352.37131
351.30554
350.26626
349.25363
348.26775
347.30874
346.37674
345.47185
344.59421
343.74393
342.92113
342.12595
341.3585
340.6189
339.9073
339.22381
338.56857
337.94169
337.34333
336.7736
336.23264
335.72058
335.23756
334.7837
334.35916
333.96406
333.59853
333.26272
332.95676
332.68078
332.43493
332.21935
332.03417
331.87953
331.75558
331.66245
331.60024
331.56873
368.93892
367.53052
366.14725
364.78891
363.45563
362.14761
360.86505
359.60811
358.37698
357.17179
355.9927
354.83984
353.71336
352.61338
351.54003
350.49342
349.47369
348.48095
347.51533
346.57692
345.66587
344.78228
343.92628
343.09799
342.29752
341.525
340.78056
340.06432
339.3764
338.71693
338.08604
337.48386
336.91052
336.36616
335.85089
335.36486
334.9082
334.48104
334.08352
333.71578
333.37793
333.07014
332.79252
332.54521
332.32837
332.14211
331.98658
331.86193
331.76828
331.70574
331.67407
369.28298
367.86453
366.47121
365.10307
363.76022
362.44286
361.1512
359.88541
358.64566
357.4321
356.24489
355.08415
353.95002
352.84262
351.76208
350.70852
349.68205
348.6828
347.71088
346.76641
345.8495
344.96027
344.09883
343.26531
342.45983
341.68249
340.93344
340.21278
339.52065
338.85717
338.22247
337.61667
337.0399
336.49229
335.97398
335.48509
335.02576
334.59612
334.19631
333.82644
333.48668
333.17713
332.89795
332.64927
332.43122
332.24394
332.08757
331.96225
331.86812
331.80526
331.77344
368.1803
366.77757
365.40015
364.04822
362.72202
361.42174
360.14757
358.89967
357.6782
356.48329
355.31508
354.1737
353.05928
351.97193
350.91178
349.87893
348.87351
347.89563
346.9454
346.02294
345.12836
344.26177
343.42329
342.61305
341.83115
341.07772
340.35288
339.65675
338.98946
338.35114
337.7419
337.16187
336.6112
336.08999
335.59839
335.13653
334.70453
334.30254
333.93067
333.58907
333.27788
332.99721
332.74722
332.52803
332.33979
332.18263
332.05668
331.96208
331.89894
331.86697
368.47887
367.06687
365.68058
364.32005
362.98547
361.67705
360.39496
359.13936
357.9104
356.70822
355.53295
354.38472
353.26366
352.16987
351.10349
350.06461
349.05335
348.06983
347.11415
346.18643
345.28678
344.41532
343.57215
342.7574
341.97118
341.21361
340.4848
339.78489
339.11399
338.47224
337.85974
337.27663
336.72304
336.1991
335.70493
335.24067
334.80644
334.40238
334.02862
333.68529
333.37253
333.09046
332.83923
332.61897
332.42981
332.27189
332.14536
332.05033
331.98691
331.9548
368.76015
367.33945
365.94479
364.57613
363.23365
361.91754
360.62798
359.36511
358.12909
356.92005
355.73812
354.58343
353.45609
352.35623
351.28396
350.23938
349.22261
348.23376
347.27294
346.34025
345.43582
344.55974
343.71214
342.89313
342.10282
341.34133
340.60878
339.90529
339.23099
338.58598
337.97041
337.38438
336.82804
336.30151
335.80491
335.33837
334.90204
334.49602
334.12047
333.7755
333.46126
333.17787
332.92547
332.70419
332.51417
332.35555
332.22845
332.13302
332.06934
332.03711
369.0246
367.59579
366.19324
364.81693
363.46701
362.14366
360.84706
359.57735
358.33467
357.11917
355.93097
354.77019
353.63695
352.53136
351.45353
350.40359
349.38162
348.38775
347.42207
346.4847
345.57575
344.69533
343.84354
343.02051
342.22634
341.46116
340.72507
340.0182
339.34067
338.69261
338.07412
337.48534
336.9264
336.39742
335.89853
335.42985
334.99152
334.58366
334.20642
333.85991
333.54427
333.25963
333.00612
332.78389
332.59306
332.43376
332.30614
332.21033
332.14642
332.11406
369.2728
367.83641
366.42646
365.04295
363.68604
362.35589
361.05267
359.77653
358.5276
357.30602
356.11191
354.9454
353.8066
352.69563
351.61258
350.55758
349.53072
348.53212
347.56187
346.6201
345.70689
344.82237
343.96665
343.13982
342.34202
341.57335
340.83393
340.12388
339.44331
338.79235
338.17113
337.57976
337.01836
336.48707
335.98601
335.51532
335.07511
334.66552
334.28667
333.93871
333.62175
333.33593
333.08139
332.85826
332.66666
332.50674
332.37863
332.28246
332.21832
332.18586
369.50535
368.06186
366.64499
365.25474
363.89126
362.55473
361.2453
359.96311
358.70831
357.48103
356.28138
355.10949
353.96547
352.84943
351.76149
350.70173
349.67028
348.66723
347.69269
346.74676
345.82956
344.94119
344.08175
343.25137
342.45014
341.6782
340.93564
340.22259
339.53916
338.88549
338.26168
337.66786
337.10416
336.5707
336.0676
335.595
335.15303
334.7418
334.36145
334.01212
333.69392
333.407
333.15148
332.9275
332.73519
332.57468
332.44611
332.3496
332.28526
332.2527
369.72285
368.27273
366.84938
365.45281
364.08319
362.74068
361.42543
360.13759
358.87729
357.64465
356.43981
355.26288
354.11397
352.99318
351.90063
350.83642
349.80066
348.79343
347.81486
346.86505
345.94409
345.0521
344.18918
343.35545
342.55101
341.77598
341.03048
340.31461
339.6285
338.97227
338.34603
337.74992
337.18405
336.64854
336.14353
335.66914
335.2255
334.81274
334.43098
334.08036
333.761
333.47304
333.2166
332.99183
332.79884
332.63778
332.50878
332.41197
332.34744
332.31479
369.92593
368.46961
367.04021
365.63774
364.26238
362.91427
361.59358
360.30045
359.035
357.79736
356.58766
355.40601
354.25252
353.12729
352.03043
350.96205
349.92224
348.91111
347.92876
346.97529
346.05081
345.15543
344.28925
343.45238
342.64493
341.86701
341.11874
340.40023
339.7116
339.05296
338.42445
337.82618
337.25827
336.72085
336.21405
335.73798
335.29278
334.87857
334.49549
334.14366
333.82321
333.53427
333.27698
333.05146
332.85784
332.69627
332.56687
332.46977
332.40507
332.37233
370.1152
368.65309
367.21805
365.81008
364.42936
363.07604
361.75026
360.45218
359.18193
357.93962
356.72538
355.53932
354.38154
353.25216
352.15127
351.07899
350.0354
349.02061
348.03473
347.07785
346.15008
345.25152
344.38228
343.54247
342.7322
341.95157
341.20071
340.47972
339.78873
339.12785
338.4972
337.89691
337.32709
336.78788
336.27939
335.80175
335.35508
334.93952
334.5552
334.20224
333.88076
333.59091
333.33282
333.1066
332.9124
332.75035
332.62057
332.5232
332.45834
332.42552
370.29127
368.82379
367.38348
365.97039
364.58467
363.22649
361.89598
360.5933
359.31856
358.07189
356.85342
355.66324
354.50147
353.36821
352.26357
351.18764
350.14052
349.12232
348.13314
347.17307
346.24222
345.34069
344.4686
343.62604
342.81312
342.02997
341.27668
340.55338
339.86018
339.1972
338.56455
337.96237
337.39077
336.84987
336.3398
335.86069
335.41265
334.99583
334.61034
334.25632
333.93389
333.64319
333.38434
333.15748
332.96273
332.80022
332.6701
332.57249
332.50748
332.47459
370.45477
368.98228
367.53709
366.11923
364.72887
363.36616
362.03125
360.72428
359.44537
358.19465
356.97223
355.77822
354.61273
353.47586
352.36772
351.28839
350.23799
349.2166
348.22434
347.26129
346.32757
345.42328
344.54852
343.70339
342.88802
342.1025
341.34695
340.62148
339.92622
339.26127
338.62676
338.02281
337.44954
336.90707
336.39553
335.91504
335.46573
335.04772
334.66115
334.30614
333.98282
333.69132
333.43177
333.2043
333.00904
332.84612
332.71567
332.61783
332.55269
332.51974
370.60628
369.12915
367.67942
366.25714
364.86247
363.49556
362.15656
360.84561
359.56282
358.30834
357.08225
355.88468
354.71574
353.57551
352.46411
351.38162
350.32816
349.30381
348.30868
347.34287
346.40648
345.4996
344.62236
343.77484
342.95717
342.16945
341.41179
340.68431
339.98712
339.32034
338.68409
338.07849
337.50366
336.95973
336.44681
335.96504
335.51453
335.09542
334.70784
334.35191
334.02775
333.73551
333.4753
333.24727
333.05153
332.88823
332.75748
332.65943
332.59417
332.56116
370.74641
369.26497
367.81104
366.38466
364.986
363.6152
362.27241
360.95777
359.67139
358.41341
357.18393
355.98306
354.8109
353.66756
352.55313
351.46772
350.41141
349.38431
348.38652
347.41814
346.47926
345.56998
344.69043
343.84069
343.02088
342.23111
341.47148
340.74213
340.04314
339.37466
338.73679
338.12966
337.55338
337.00808
336.49388
336.01091
335.5593
335.13916
334.75063
334.39384
334.06891
333.77598
333.51516
333.2866
333.09042
332.92676
332.79574
332.6975
332.63213
332.59906
370.87573
369.39031
367.93249
366.50233
365.09997
363.72557
362.37928
361.06122
359.77153
358.51031
357.27768
356.07375
354.89863
353.7524
352.63517
351.54704
350.4881
349.45845
348.45819
347.48741
346.54623
345.63473
344.75303
343.90123
343.07943
342.28776
341.52631
340.79521
340.09456
339.42449
338.78511
338.17655
337.59892
337.05235
336.53697
336.05289
335.60024
335.17915
334.78974
334.43215
334.1065
333.81292
333.55154
333.3225
333.12591
332.96191
332.83064
332.73222
332.66675
332.63364
370.9948
369.50571
368.04431
366.61065
365.20488
363.82717
362.47764
361.15643
359.86367
358.59946
357.36393
356.15718
354.9793
353.83041
352.71059
351.61995
350.55857
349.52656
348.52401
347.55103
346.60771
345.69415
344.81046
343.95674
343.13311
342.33967
341.57653
340.84381
340.14162
339.47008
338.8293
338.21941
337.64054
337.09279
336.57629
336.09118
335.63757
335.21559
334.82538
334.46704
334.14072
333.84655
333.58465
333.35515
333.15818
332.99388
332.86237
332.76378
332.69823
332.66507
371.10417
369.61169
368.14699
366.71012
365.30122
363.92045
362.56795
361.24384
359.94824
358.68129
357.44308
356.23372
355.05332
353.90196
352.77976
351.68679
350.62317
349.58898
348.58432
347.60929
346.66399
345.74853
344.863
344.00751
343.18218
342.3871
341.6224
340.88818
340.18456
339.51166
338.86959
338.25847
337.67843
337.1296
336.61208
336.12601
335.67151
335.24871
334.85774
334.49872
334.17178
333.87705
333.61466
333.38475
333.18743
333.02284
332.89112
332.79238
332.72675
332.69356
371.20437
369.70877
368.24104
366.80122
365.38946
364.00588
362.65064
361.32386
360.02567
358.75619
357.51551
356.30376
355.12103
353.96741
352.84301
351.74791
350.68221
349.64601
348.63941
347.6625
346.71538
345.79815
344.91093
344.05381
343.22691
342.43032
341.66417
340.92857
340.22363
339.54946
338.9062
338.29395
337.71284
337.16299
336.64452
336.15757
335.70225
335.27869
334.88702
334.52736
334.19985
333.90461
333.64178
333.41147
333.21383
333.04898
332.91706
332.81819
332.75249
332.71927
371.29589
369.79744
368.32695
366.88443
365.47004
364.0839
362.72615
361.39693
360.09635
358.82455
357.58162
356.36767
355.1828
354.02711
352.90068
351.80362
350.73602
349.69798
348.68958
347.71094
346.76215
345.8433
344.95452
344.0959
343.26754
342.46957
341.70209
340.96521
340.25905
339.58372
338.93935
338.32606
337.74396
337.19318
336.67384
336.18606
335.72998
335.30572
334.91341
334.55316
334.22512
333.92941
333.66616
333.43551
333.23757
333.07248
332.94037
332.84138
332.77562
332.74237
371.37924
369.87818
368.40517
366.9602
365.5434
364.15492
362.79488
361.46342
360.16067
358.88674
357.64175
356.42579
355.23897
354.08138
352.95311
351.85425
350.78491
349.74517
348.73513
347.7549
346.80457
345.88424
344.99402
344.13402
343.30433
342.50508
341.73637
340.99832
340.29104
339.61465
338.96926
338.355
337.77199
337.22035
336.70021
336.21168
335.7549
335.32999
334.93708
334.5763
334.24777
333.95163
333.688
333.45701
333.2588
333.09349
332.96122
332.86212
332.7963
332.76303
371.45487
369.95143
368.47614
367.02894
365.60997
364.21936
362.85723
361.52374
360.219
358.94314
357.69627
356.47848
355.28987
354.13055
353.00059
351.90009
350.82915
349.78787
348.77633
347.79464
346.8429
345.92122
345.02968
344.16841
343.33751
342.53709
341.76725
341.02812
340.31981
339.64244
338.99612
338.38098
337.79713
337.2447
336.72382
336.2346
335.77718
335.35168
334.95822
334.59694
334.26797
333.97142
333.70744
333.47616
333.27769
333.11218
332.97976
332.88056
332.8147
332.7814
371.52323
370.01764
368.54029
367.0911
365.67015
364.2776
362.91359
361.57824
360.2717
358.99408
357.74549
356.52604
355.33582
354.17492
353.04342
351.94144
350.86905
349.82635
348.81344
347.83043
346.8774
345.95447
345.06174
344.19931
343.3673
342.5658
341.79494
341.05482
340.34557
339.6673
339.02013
338.40418
337.81957
337.26642
336.74485
336.255
335.79699
335.37094
334.97699
334.61525
334.28587
333.98896
333.72466
333.49309
333.2944
333.12871
332.99614
332.89685
332.83095
332.79764
371.58472
370.07722
368.59804
367.14705
365.72433
364.33003
362.9643
361.62728
360.3191
359.03989
357.78976
356.5688
355.37711
354.21478
353.0819
351.97856
350.90485
349.86087
348.84672
347.8625
346.90831
345.98425
345.09042
344.22694
343.39391
342.59143
341.81963
341.07862
340.36851
339.68942
339.04147
338.42478
337.83947
337.28566
336.76348
336.27305
335.8145
335.38795
334.99354
334.63138
334.30162
334.00438
333.73978
333.50797
333.30907
333.1432
333.01052
332.91114
332.84521
332.81188
371.63973
370.13059
368.64978
367.19718
365.77287
364.377
363.00972
361.67118
360.36153
359.08089
357.82937
356.60705
355.41404
354.25043
353.11629
352.01172
350.93682
349.89169
348.87641
347.8911
346.93584
346.01076
345.11594
344.2515
343.41754
342.61418
341.84153
341.09971
340.38881
339.70898
339.06032
338.44295
337.857
337.30259
336.77985
336.28889
335.82985
335.40285
335.00802
334.64549
334.31538
334.01783
333.75297
333.52093
333.32183
333.15582
333.02302
332.92356
332.85761
332.82427
371.68858
370.17814
368.69588
367.24187
365.81614
364.41885
363.05018
361.71029
360.39931
359.11738
357.86461
356.64108
355.44689
354.28211
353.14685
352.04118
350.96521
349.91903
348.90274
347.91643
346.96022
346.03421
345.1385
344.27319
343.4384
342.63424
341.86082
341.11825
340.40665
339.72614
339.07684
338.45886
337.87233
337.31738
336.79412
336.30269
335.8432
335.41579
335.02058
334.6577
334.32728
334.02946
333.76435
333.5321
333.33283
333.16668
333.03377
332.93425
332.86828
332.83492
370.22024
368.73672
367.28145
365.85446
364.45591
363.086
361.74488
360.43272
359.14965
357.89576
356.67115
355.4759
354.3101
353.17382
352.06717
350.99024
349.94312
348.92592
347.93873
346.98166
346.05481
345.1583
344.29221
343.45667
342.65178
341.87767
341.13443
340.42219
339.74107
339.09119
338.47266
337.88561
337.33016
336.80644
336.31457
335.85468
335.4269
335.03135
334.66816
334.33746
334.03938
333.77406
333.54161
333.34219
333.17591
333.04291
332.94333
332.87734
332.84398
370.25728
368.77265
367.31627
365.88816
364.48849
363.11747
361.77527
360.46205
359.17796
357.92309
356.69753
355.50135
354.33462
353.19745
352.08993
351.01214
349.96418
348.94617
347.95819
347.00035
346.07276
345.17551
344.30873
343.47252
342.66698
341.89224
341.14841
340.4356
339.75393
339.10352
338.4845
337.89698
337.34109
336.81695
336.32469
335.86444
335.43631
335.04045
334.67698
334.34603
334.04773
333.7822
333.54959
333.35002
333.18363
333.05054
332.95091
332.88491
332.85154
370.28943
368.80402
367.34664
365.91755
364.51689
363.14488
361.80172
360.48757
359.20259
357.94686
356.72045
355.52345
354.35592
353.21796
352.10966
351.03111
349.98242
348.96368
347.97499
347.01647
346.08822
345.19033
344.32293
343.48611
342.68
341.9047
341.16033
340.44701
339.76485
339.11398
338.49451
337.90657
337.35028
336.82577
336.33316
335.87258
335.44416
335.04802
334.6843
334.35312
334.05461
333.78891
333.55614
333.35644
333.18995
333.05679
332.95711
332.89109
332.85772
368.8311
367.37287
365.94292
364.54138
363.1685
361.82449
360.50952
359.22376
357.96728
356.74015
355.54244
354.37421
353.23556
352.12657
351.04736
349.99801
348.97864
347.98934
347.03021
346.10137
345.20292
344.33496
343.49761
342.69099
341.9152
341.17035
340.45658
339.77398
339.12269
338.50283
337.91452
337.35788
336.83303
336.34011
335.87924
335.45055
335.05416
334.69021
334.35883
334.06014
333.79428
333.56137
333.36156
333.19497
333.06175
332.96202
332.89599
332.86263
368.85428
367.39524
365.96454
364.56223
363.18859
361.84382
360.52815
359.24172
357.98461
356.75686
355.55853
354.38969
353.25044
352.14087
351.06107
350.01116
348.99122