/*--------------------------------*- C++ -*----------------------------------*\
| =========                 |                                                 |
| \\      /  F ield         | OpenFOAM: The Open Source CFD Toolbox           |
|  \\    /   O peration     | Version:  2312                                  |
|   \\  /    A nd           | Website:  www.openfoam.com                      |
|    \\/     M anipulation  |                                                 |
\*---------------------------------------------------------------------------*/
FoamFile
{
    version     2.0;
    format      ascii;
    arch        "LSB;label=32;scalar=64";
    class       volVectorField;
    location    "0.1";
    object      U;
}
// * * * * * * * * * * * * * * * * * * * * * * * * * * * * * * * * * * * * * //

dimensions      [0 1 -1 0 0 0 0];

internalField   nonuniform List<vector> 
3257
(
(0.46524087 -0.70000595 0)
(0.45822486 -0.68885159 0)
(0.45141037 -0.67776935 0)
(0.44479879 -0.66676595 0)
(0.4383914 -0.65584777 0)
(0.43218949 -0.64502083 0)
(0.42619432 -0.63429076 0)
(0.42040708 -0.62366286 0)
(0.41482888 -0.61314211 0)
(0.4094607 -0.6027332 0)
(0.40430342 -0.59244061 0)
(0.3993578 -0.5822686 0)
(0.39462449 -0.57222123 0)
(0.39010401 -0.56230244 0)
(0.38579675 -0.55251603 0)
(0.38170299 -0.54286574 0)
(0.37782287 -0.53335521 0)
(0.37415641 -0.52398811 0)
(0.37070351 -0.51476807 0)
(0.36746392 -0.50569878 0)
(0.36443729 -0.49678397 0)
(0.36162315 -0.48802747 0)
(0.3590209 -0.47943323 0)
(0.35662985 -0.47100533 0)
(0.3544492 -0.462748 0)
(0.35247807 -0.45466567 0)
(0.35071547 -0.44676297 0)
(0.34916037 -0.43904474 0)
(0.34781168 -0.43151607 0)
(0.34666827 -0.42418234 0)
(0.34572898 -0.4170492 0)
(0.34499267 -0.4101226 0)
(0.34445823 -0.40340885 0)
(0.34412461 -0.39691461 0)
(0.34399085 -0.39064697 0)
(0.34405615 -0.38461342 0)
(0.3443199 -0.37882195 0)
(0.34478174 -0.37328111 0)
(0.34544164 -0.36800003 0)
(0.34629999 -0.36298859 0)
(0.34735775 -0.35825753 0)
(0.34861649 -0.35381864 0)
(0.35007869 -0.34968509 0)
(0.35174812 -0.34587177 0)
(0.35363016 -0.34239569 0)
(0.35573014 -0.33927684 0)
(0.35804754 -0.33654269 0)
(0.36058912 -0.33423909 0)
(0.3634597 -0.33242037 0)
(0.36694962 -0.33104258 0)
(0.37045898 -0.32990097 0)
(0.46626121 -0.67002097 0)
(0.45919369 -0.65939601 0)
(0.45232926 -0.64884044 0)
(0.44566929 -0.63836057 0)
(0.43921509 -0.62796238 0)
(0.43296796 -0.6176515 0)
(0.42692915 -0.60743325 0)
(0.42109981 -0.5973126 0)
(0.415481 -0.58729429 0)
(0.41007365 -0.57738276 0)
(0.40487858 -0.56758228 0)
(0.39989651 -0.55789691 0)
(0.39512803 -0.54833055 0)
(0.39057361 -0.53888699 0)
(0.3862336 -0.5295699 0)
(0.38210822 -0.52038292 0)
(0.37819756 -0.51132962 0)
(0.37450156 -0.50241359 0)
(0.37102006 -0.49363844 0)
(0.36775274 -0.48500785 0)
(0.36469915 -0.47652557 0)
(0.36185875 -0.46819547 0)
(0.35923084 -0.46002156 0)
(0.35681463 -0.45200801 0)
(0.3546092 -0.44415917 0)
(0.35261354 -0.43647963 0)
(0.35082655 -0.42897419 0)
(0.34924704 -0.42164793 0)
(0.34787376 -0.41450618 0)
(0.34670538 -0.40755463 0)
(0.34574055 -0.40079925 0)
(0.34497788 -0.39424641 0)
(0.34441599 -0.38790287 0)
(0.34405348 -0.38177582 0)
(0.34388902 -0.37587292 0)
(0.34392132 -0.37020235 0)
(0.34414918 -0.36477291 0)
(0.34457151 -0.35959402 0)
(0.34518734 -0.3546759 0)
(0.34599587 -0.35002964 0)
(0.34699643 -0.34566739 0)
(0.34818846 -0.3416026 0)
(0.34957146 -0.33785027 0)
(0.35114507 -0.33442738 0)
(0.35290892 -0.33135333 0)
(0.35485991 -0.32865048 0)
(0.35698442 -0.32634455 0)
(0.35926503 -0.32446351 0)
(0.36176606 -0.32303419 0)
(0.36473345 -0.32208213 0)
(0.36775047 -0.32164679 0)
(0.46864808 -0.64892312 0)
(0.46148201 -0.63865267 0)
(0.45452189 -0.62845078 0)
(0.44776894 -0.61832337 0)
(0.44122446 -0.60827609 0)
(0.4348897 -0.59831428 0)
(0.42876587 -0.58844297 0)
(0.42285408 -0.5786669 0)
(0.41715531 -0.56899058 0)
(0.41167045 -0.55941827 0)
(0.40640024 -0.54995404 0)
(0.40134534 -0.54060179 0)
(0.39650627 -0.53136527 0)
(0.39188341 -0.52224812 0)
(0.38747704 -0.5132539 0)
(0.38328728 -0.50438614 0)
(0.37931413 -0.49564832 0)
(0.37555743 -0.48704396 0)
(0.3720169 -0.47857661 0)
(0.3686921 -0.4702499 0)
(0.36558245 -0.46206756 0)
(0.36268727 -0.45403344 0)
(0.36000569 -0.44615157 0)
(0.35753676 -0.43842613 0)
(0.35527939 -0.43086153 0)
(0.35323237 -0.42346241 0)
(0.35139438 -0.41623364 0)
(0.349764 -0.4091804 0)
(0.3483397 -0.40230816 0)
(0.34711988 -0.39562272 0)
(0.34610286 -0.38913022 0)
(0.34528686 -0.38283721 0)
(0.34467008 -0.37675064 0)
(0.34425063 -0.37087792 0)
(0.34402659 -0.36522693 0)
(0.34399598 -0.35980611 0)
(0.34415677 -0.35462448 0)
(0.34450689 -0.34969171 0)
(0.34504415 -0.34501817 0)
(0.34576624 -0.34061506 0)
(0.34667065 -0.33649449 0)
(0.34775449 -0.33266958 0)
(0.34901434 -0.32915462 0)
(0.35044612 -0.32596512 0)
(0.35204477 -0.32311792 0)
(0.35380192 -0.32063106 0)
(0.35569964 -0.31852275 0)
(0.35771696 -0.31680849 0)
(0.35990073 -0.31549907 0)
(0.3624473 -0.31461237 0)
(0.36498715 -0.31419276 0)
(0.47212416 -0.62854077 0)
(0.46482126 -0.61861134 0)
(0.45772815 -0.60874976 0)
(0.45084595 -0.59896164 0)
(0.44417584 -0.5892523 0)
(0.43771902 -0.57962678 0)
(0.43147662 -0.57008984 0)
(0.42544968 -0.56064598 0)
(0.4196391 -0.55129946 0)
(0.41404568 -0.54205435 0)
(0.4086701 -0.53291451 0)
(0.4035129 -0.52388366 0)
(0.39857451 -0.51496538 0)
(0.39385522 -0.50616318 0)
(0.38935518 -0.49748047 0)
(0.38507442 -0.48892066 0)
(0.38101278 -0.48048714 0)
(0.37716998 -0.47218332 0)
(0.37354558 -0.46401269 0)
(0.37013899 -0.45597881 0)
(0.36694946 -0.44808536 0)
(0.3639761 -0.44033617 0)
(0.36121787 -0.43273524 0)
(0.35867359 -0.42528674 0)
(0.35634193 -0.41799511 0)
(0.35422144 -0.410865 0)
(0.35231051 -0.40390132 0)
(0.35060744 -0.3971093 0)
(0.34911036 -0.39049447 0)
(0.34781732 -0.38406269 0)
(0.34672621 -0.37782021 0)
(0.34583483 -0.37177363 0)
(0.34514083 -0.36592999 0)
(0.34464176 -0.36029678 0)
(0.34433503 -0.35488194 0)
(0.34421789 -0.34969395 0)
(0.34428744 -0.3447418 0)
(0.34454056 -0.34003508 0)
(0.34497387 -0.33558397 0)
(0.34558368 -0.33139931 0)
(0.34636583 -0.32749263 0)
(0.34731557 -0.32387615 0)
(0.34842739 -0.32056275 0)
(0.34969483 -0.317566 0)
(0.35111035 -0.3148999 0)
(0.35266356 -0.31257871 0)
(0.3543365 -0.31061591 0)
(0.35610988 -0.30902245 0)
(0.3580241 -0.30780663 0)
(0.36024964 -0.3069849 0)
(0.36246761 -0.30659414 0)
(0.47650652 -0.60865537 0)
(0.46903392 -0.5990551 0)
(0.46177577 -0.58952218 0)
(0.45473306 -0.58006192 0)
(0.44790687 -0.57067932 0)
(0.44129829 -0.56137915 0)
(0.43490836 -0.55216588 0)
(0.42873803 -0.54304376 0)
(0.42278811 -0.53401682 0)
(0.41705928 -0.52508888 0)
(0.41155213 -0.5162636 0)
(0.40626708 -0.50754451 0)
(0.40120445 -0.49893502 0)
(0.3963644 -0.49043845 0)
(0.39174696 -0.48205808 0)
(0.38735199 -0.47379717 0)
(0.3831792 -0.46565898 0)
(0.37922814 -0.45764682 0)
(0.37549818 -0.44976408 0)
(0.37198854 -0.44201423 0)
(0.36869828 -0.43440089 0)
(0.36562628 -0.42692782 0)
(0.36277126 -0.41959897 0)
(0.36013181 -0.41241849 0)
(0.35770632 -0.40539079 0)
(0.35549304 -0.39852048 0)
(0.35349007 -0.3918125 0)
(0.35169534 -0.38527206 0)
(0.35010665 -0.37890469 0)
(0.34872161 -0.37271626 0)
(0.34753769 -0.36671302 0)
(0.34655219 -0.36090156 0)
(0.34576223 -0.35528893 0)
(0.34516474 -0.34988254 0)
(0.34475648 -0.34469028 0)
(0.34453393 -0.33972049 0)
(0.34449336 -0.33498197 0)
(0.34463072 -0.33048403 0)
(0.34494159 -0.32623644 0)
(0.34542114 -0.32224946 0)
(0.34606397 -0.31853383 0)
(0.34686405 -0.3151007 0)
(0.34781452 -0.3119616 0)
(0.34890767 -0.30912828 0)
(0.35013487 -0.30661262 0)
(0.35148534 -0.30442633 0)
(0.35294224 -0.30258032 0)
(0.35448806 -0.30108359 0)
(0.35615708 -0.29994392 0)
(0.35809868 -0.29917757 0)
(0.36004116 -0.2988171 0)
(0.48163055 -0.58939943 0)
(0.47396049 -0.58011484 0)
(0.46651018 -0.57089728 0)
(0.45928049 -0.56175175 0)
(0.45227238 -0.55268299 0)
(0.44548683 -0.54369546 0)
(0.43892477 -0.53479336 0)
(0.43258704 -0.52598069 0)
(0.42647433 -0.51726122 0)
(0.42058722 -0.50863854 0)
(0.41492616 -0.5001161 0)
(0.40949146 -0.49169721 0)
(0.40428329 -0.48338509 0)
(0.39930167 -0.47518289 0)
(0.39454648 -0.4670937 0)
(0.39001742 -0.45912064 0)
(0.38571401 -0.45126683 0)
(0.38163563 -0.44353545 0)
(0.37778145 -0.43592976 0)
(0.37415048 -0.42845314 0)
(0.37074154 -0.42110911 0)
(0.36755328 -0.41390134 0)
(0.36458418 -0.40683371 0)
(0.36183253 -0.3999103 0)
(0.35929643 -0.39313545 0)
(0.35697384 -0.38651375 0)
(0.35486252 -0.38005006 0)
(0.35296004 -0.37374954 0)
(0.35126379 -0.3676177 0)
(0.349771 -0.36166033 0)
(0.34847868 -0.35588363 0)
(0.34738362 -0.35029412 0)
(0.34648242 -0.34489873 0)
(0.34577145 -0.33970476 0)
(0.34524681 -0.33471991 0)
(0.34490433 -0.3299523 0)
(0.34473952 -0.32541044 0)
(0.34474755 -0.32110323 0)
(0.34492317 -0.31703996 0)
(0.34526067 -0.31323023 0)
(0.3457538 -0.30968398 0)
(0.34639564 -0.30641138 0)
(0.34717858 -0.30342276 0)
(0.34809428 -0.30072851 0)
(0.34913372 -0.29833896 0)
(0.35028625 -0.29626423 0)
(0.35153636 -0.29451376 0)
(0.35286785 -0.29309549 0)
(0.35430878 -0.29201662 0)
(0.35598855 -0.29129245 0)
(0.35767749 -0.290953 0)
(0.48734467 -0.57074498 0)
(0.47945407 -0.56176366 0)
(0.47178905 -0.5528492 0)
(0.46435035 -0.54400631 0)
(0.4571388 -0.53523944 0)
(0.45015526 -0.52655275 0)
(0.44340054 -0.5179502 0)
(0.43687535 -0.5094355 0)
(0.43058027 -0.50101217 0)
(0.42451573 -0.49268358 0)
(0.41868205 -0.48445293 0)
(0.4130794 -0.47632332 0)
(0.40770781 -0.46829776 0)
(0.40256713 -0.46037922 0)
(0.39765708 -0.4525706 0)
(0.39297718 -0.44487486 0)
(0.38852677 -0.43729495 0)
(0.38430501 -0.42983392 0)
(0.38031087 -0.42249487 0)
(0.37654314 -0.41528108 0)
(0.3730004 -0.40819592 0)
(0.36968104 -0.40124298 0)
(0.36658327 -0.39442604 0)
(0.3637051 -0.38774907 0)
(0.36104435 -0.38121633 0)
(0.35859862 -0.37483232 0)
(0.35636535 -0.36860182 0)
(0.35434176 -0.3625299 0)
(0.35252485 -0.35662198 0)
(0.35091142 -0.35088376 0)
(0.34949805 -0.34532132 0)
(0.34828108 -0.33994105 0)
(0.34725661 -0.33474973 0)
(0.34642045 -0.32975446 0)
(0.34576816 -0.32496273 0)
(0.34529498 -0.32038237 0)
(0.34499579 -0.31602154 0)
(0.34486511 -0.31188872 0)
(0.34489707 -0.30799267 0)
(0.3450853 -0.30434242 0)
(0.34542293 -0.30094715 0)
(0.34590252 -0.2978162 0)
(0.34651602 -0.29495896 0)
(0.34725479 -0.29238479 0)
(0.3481097 -0.29010295 0)
(0.3490704 -0.28812253 0)
(0.35012256 -0.28645209 0)
(0.35125111 -0.28509892 0)
(0.35247819 -0.28406978 0)
(0.35391444 -0.283379 0)
(0.35536769 -0.28305511 0)
(0.49351131 -0.55265062 0)
(0.48538139 -0.54396139 0)
(0.47748328 -0.53533895 0)
(0.46981758 -0.52678773 0)
(0.46238501 -0.51831188 0)
(0.45518628 -0.5099153 0)
(0.44822209 -0.50160166 0)
(0.441493 -0.49337442 0)
(0.43499946 -0.48523684 0)
(0.42874177 -0.47719203 0)
(0.42272009 -0.46924298 0)
(0.41693444 -0.46139255 0)
(0.41138469 -0.45364354 0)
(0.40607053 -0.44599871 0)
(0.4009915 -0.43846079 0)
(0.39614692 -0.43103253 0)
(0.39153595 -0.42371673 0)
(0.38715754 -0.41651626 0)
(0.38301044 -0.40943409 0)
(0.37909319 -0.40247333 0)
(0.37540414 -0.39563724 0)
(0.37194142 -0.38892927 0)
(0.36870297 -0.38235306 0)
(0.3656865 -0.3759125 0)
(0.36288954 -0.36961172 0)
(0.36030938 -0.36345509 0)
(0.35794311 -0.3574473 0)
(0.35578759 -0.35159331 0)
(0.35383947 -0.34589839 0)
(0.35209515 -0.34036814 0)
(0.3505508 -0.33500847 0)
(0.34920231 -0.32982562 0)
(0.34804533 -0.32482618 0)
(0.34707521 -0.32001704 0)
(0.34628701 -0.31540542 0)
(0.34567546 -0.31099885 0)
(0.34523494 -0.30680514 0)
(0.34495946 -0.30283237 0)
(0.34484262 -0.29908881 0)
(0.34487761 -0.29558295 0)
(0.34505714 -0.29232336 0)
(0.34537341 -0.2893187 0)
(0.34581812 -0.28657762 0)
(0.34638251 -0.28410874 0)
(0.34705745 -0.28192057 0)
(0.34783289 -0.28002151 0)
(0.34869556 -0.27841957 0)
(0.34963131 -0.27712169 0)
(0.3506569 -0.27613432 0)
(0.35186518 -0.2754711 0)
(0.35309749 -0.2751597 0)
(0.50000697 -0.53508467 0)
(0.49162278 -0.5266773 0)
(0.48347695 -0.51833673 0)
(0.47556994 -0.51006711 0)
(0.46790232 -0.5018723 0)
(0.46047468 -0.49375592 0)
(0.45328758 -0.48572137 0)
(0.44634144 -0.47777183 0)
(0.43963656 -0.46991033 0)
(0.4331731 -0.46213972 0)
(0.42695105 -0.45446274 0)
(0.4209703 -0.44688204 0)
(0.41523053 -0.43940019 0)
(0.40973126 -0.43201973 0)
(0.40447184 -0.4247432 0)
(0.39945142 -0.41757316 0)
(0.39466895 -0.41051221 0)
(0.39012315 -0.40356307 0)
(0.38581256 -0.39672853 0)
(0.38173548 -0.39001154 0)
(0.37789002 -0.38341521 0)
(0.37427406 -0.37694285 0)
(0.37088525 -0.37059797 0)
(0.36772103 -0.36438431 0)
(0.36477863 -0.35830586 0)
(0.36205503 -0.35236689 0)
(0.35954699 -0.34657192 0)
(0.35725105 -0.3409258 0)
(0.3551635 -0.33543365 0)
(0.35328036 -0.33010092 0)
(0.35159742 -0.32493334 0)
(0.3501102 -0.31993699 0)
(0.34881393 -0.31511824 0)
(0.34770353 -0.31048375 0)
(0.34677365 -0.30604049 0)
(0.34601859 -0.3017957 0)
(0.34543231 -0.29775683 0)
(0.3450084 -0.2939316 0)
(0.3447401 -0.29032787 0)
(0.34462022 -0.28695363 0)
(0.34464119 -0.28381697 0)
(0.34479499 -0.28092601 0)
(0.34507317 -0.27828883 0)
(0.34546691 -0.27591352 0)
(0.34596712 -0.27380806 0)
(0.34656402 -0.27198038 0)
(0.34724524 -0.27043816 0)
(0.3479975 -0.26918815 0)
(0.34883257 -0.26823665 0)
(0.34982636 -0.26759679 0)
(0.35085015 -0.26729574 0)
(0.5067217 -0.51801837 0)
(0.49807177 -0.5098835 0)
(0.48966697 -0.50181549 0)
(0.48150762 -0.4938182 0)
(0.47359413 -0.48589521 0)
(0.46592698 -0.47804986 0)
(0.45850657 -0.47028528 0)
(0.45133317 -0.4626044 0)
(0.44440695 -0.45500996 0)
(0.4377279 -0.44750459 0)
(0.43129587 -0.44009079 0)
(0.42511055 -0.43277095 0)
(0.41917149 -0.42554743 0)
(0.41347801 -0.41842256 0)
(0.40802929 -0.41139866 0)
(0.40282427 -0.4044781 0)
(0.39786169 -0.39766328 0)
(0.39314007 -0.39095673 0)
(0.38865773 -0.38436108 0)
(0.38441274 -0.3778791 0)
(0.38040296 -0.37151375 0)
(0.376626 -0.36526817 0)
(0.37307928 -0.35914572 0)
(0.36975994 -0.35314999 0)
(0.36666493 -0.34728483 0)
(0.36379094 -0.34155435 0)
(0.36113443 -0.33596295 0)
(0.3586916 -0.33051531 0)
(0.35645842 -0.3252164 0)
(0.35443058 -0.32007149 0)
(0.35260352 -0.31508617 0)
(0.3509724 -0.3102663 0)
(0.34953208 -0.30561805 0)
(0.34827713 -0.30114787 0)
(0.34720183 -0.29686245 0)
(0.34630012 -0.29276877 0)
(0.34556562 -0.28887398 0)
(0.34499159 -0.28518545 0)
(0.34457095 -0.28171068 0)
(0.34429627 -0.27845727 0)
(0.34415974 -0.27543291 0)
(0.3441532 -0.27264527 0)
(0.34426811 -0.27010206 0)
(0.34449562 -0.26781092 0)
(0.34482669 -0.26577949 0)
(0.34525175 -0.26401538 0)
(0.34575919 -0.26252607 0)
(0.34633654 -0.26131825 0)
(0.34699103 -0.26039817 0)
(0.34778229 -0.25977856 0)
(0.34860832 -0.25948628 0)
(0.51355858 -0.50142508 0)
(0.50463454 -0.49355413 0)
(0.49596253 -0.48575012 0)
(0.48754274 -0.47801661 0)
(0.47937544 -0.47035692 0)
(0.47146096 -0.46277411 0)
(0.46379955 -0.45527103 0)
(0.45639135 -0.44785036 0)
(0.44923636 -0.44051459 0)
(0.44233441 -0.43326609 0)
(0.43568521 -0.42610711 0)
(0.42928828 -0.41903983 0)
(0.42314297 -0.41206636 0)
(0.41724846 -0.40518881 0)
(0.41160371 -0.3984093 0)
(0.40620748 -0.39172997 0)
(0.40105831 -0.38515305 0)
(0.39615452 -0.37868086 0)
(0.3914942 -0.37231585 0)
(0.38707519 -0.36606063 0)
(0.38289511 -0.35991796 0)
(0.37895134 -0.35389083 0)
(0.37524102 -0.34798244 0)
(0.37176106 -0.34219622 0)
(0.36850812 -0.33653586 0)
(0.36547862 -0.33100532 0)
(0.36266871 -0.32560885 0)
(0.36007431 -0.32035096 0)
(0.35769109 -0.31523646 0)
(0.35551442 -0.31027047 0)
(0.35353943 -0.30545839 0)
(0.35176096 -0.30080588 0)
(0.35017355 -0.29631893 0)
(0.34877147 -0.29200375 0)
(0.34754866 -0.28786682 0)
(0.34649877 -0.28391485 0)
(0.34561511 -0.28015472 0)
(0.34489071 -0.27659351 0)
(0.34431822 -0.2732384 0)
(0.34389001 -0.2700967 0)
(0.3435981 -0.26717573 0)
(0.34343422 -0.26448287 0)
(0.34338976 -0.26202548 0)
(0.34345587 -0.25981093 0)
(0.34362353 -0.25784658 0)
(0.34388332 -0.25613987 0)
(0.3442243 -0.25469814 0)
(0.34463474 -0.25352811 0)
(0.34511772 -0.25263605 0)
(0.34571728 -0.25203432 0)
(0.34635506 -0.25174961 0)
(0.52043306 -0.48528036 0)
(0.51122927 -0.47766544 0)
(0.5022845 -0.47011753 0)
(0.4935988 -0.46263991 0)
(0.48517228 -0.45523561 0)
(0.47700513 -0.44790744 0)
(0.46909746 -0.44065799 0)
(0.46144926 -0.43348966 0)
(0.45406035 -0.4264047 0)
(0.44693044 -0.41940522 0)
(0.44005906 -0.41249325 0)
(0.43344555 -0.4056707 0)
(0.42708912 -0.39893948 0)
(0.42098875 -0.39230147 0)
(0.41514323 -0.38575857 0)
(0.40955111 -0.37931271 0)
(0.40421076 -0.37296592 0)
(0.39912027 -0.36672033 0)
(0.39427752 -0.36057819 0)
(0.38968014 -0.35454193 0)
(0.38532552 -0.34861414 0)
(0.38121081 -0.34279764 0)
(0.3773329 -0.33709545 0)
(0.37368845 -0.33151084 0)
(0.37027386 -0.32604735 0)
(0.3670853 -0.32070878 0)
(0.36411864 -0.31549921 0)
(0.36136955 -0.31042299 0)
(0.35883338 -0.30548479 0)
(0.35650526 -0.30068953 0)
(0.35438001 -0.29604245 0)
(0.35245219 -0.29154905 0)
(0.35071607 -0.28721509 0)
(0.34916563 -0.28304661 0)
(0.34779454 -0.27904986 0)
(0.34659619 -0.27523131 0)
(0.34556367 -0.27159762 0)
(0.34468974 -0.26815562 0)
(0.3439669 -0.26491223 0)
(0.34338732 -0.26187448 0)
(0.34294289 -0.25904945 0)
(0.34262525 -0.25644424 0)
(0.34242574 -0.25406599 0)
(0.3423355 -0.25192185 0)
(0.3423455 -0.25001899 0)
(0.34244645 -0.24836473 0)
(0.34262794 -0.24696636 0)
(0.34287894 -0.24583067 0)
(0.34319881 -0.24496397 0)
(0.34361656 -0.24437831 0)
(0.34407466 -0.24410021 0)
(0.5272722 -0.4695618 0)
(0.51778546 -0.46219565 0)
(0.50856474 -0.45489653 0)
(0.49960995 -0.44766747 0)
(0.49092105 -0.44051122 0)
(0.48249808 -0.43343034 0)
(0.47434101 -0.42642714 0)
(0.46644967 -0.41950379 0)
(0.45882375 -0.41266227 0)
(0.45146277 -0.40590446 0)
(0.44436611 -0.39923213 0)
(0.43753296 -0.39264697 0)
(0.43096234 -0.38615066 0)
(0.42465308 -0.37974485 0)
(0.41860376 -0.37343122 0)
(0.41281278 -0.3672115 0)
(0.40727828 -0.36108752 0)
(0.40199819 -0.3550612 0)
(0.39697015 -0.3491346 0)
(0.39219161 -0.34330996 0)
(0.38765972 -0.33758971 0)
(0.38337141 -0.33197647 0)
(0.37932336 -0.32647311 0)
(0.37551198 -0.32108274 0)
(0.37193344 -0.31580872 0)
(0.36858364 -0.31065469 0)
(0.36545825 -0.30562458 0)
(0.36255263 -0.30072258 0)
(0.35986193 -0.29595319 0)
(0.35738099 -0.29132119 0)
(0.35510438 -0.28683163 0)
(0.35302642 -0.28248984 0)
(0.35114112 -0.27830142 0)
(0.34944221 -0.2742722 0)
(0.34792314 -0.27040825 0)
(0.34657707 -0.26671585 0)
(0.34539688 -0.26320144 0)
(0.34437515 -0.25987162 0)
(0.34350419 -0.25673312 0)
(0.34277604 -0.25379274 0)
(0.34218249 -0.25105735 0)
(0.34171506 -0.24853387 0)
(0.34136508 -0.24622922 0)
(0.34112364 -0.24415041 0)
(0.34098171 -0.2423045 0)
(0.34093005 -0.24069871 0)
(0.34095871 -0.23934032 0)
(0.34105732 -0.23823623 0)
(0.34122188 -0.23739281 0)
(0.341467 -0.2368218 0)
(0.34175322 -0.23654956 0)
(0.53401387 -0.45424893 0)
(0.5242431 -0.4471248 0)
(0.51474531 -0.4400677 0)
(0.50552027 -0.43308037 0)
(0.4965678 -0.42616533 0)
(0.48788778 -0.41932485 0)
(0.47948004 -0.41256102 0)
(0.47134425 -0.40587572 0)
(0.46347996 -0.39927072 0)
(0.45588653 -0.39274764 0)
(0.44856319 -0.38630802 0)
(0.44150896 -0.37995332 0)
(0.4347227 -0.37368498 0)
(0.42820305 -0.36750443 0)
(0.42194844 -0.36141315 0)
(0.41595709 -0.35541265 0)
(0.41022695 -0.34950455 0)
(0.40475574 -0.34369057 0)
(0.39954095 -0.3379726 0)
(0.39457978 -0.33235268 0)
(0.38986922 -0.32683305 0)
(0.38540596 -0.32141618 0)
(0.38118648 -0.31610474 0)
(0.37720696 -0.31090169 0)
(0.37346335 -0.30581024 0)
(0.36995134 -0.30083386 0)
(0.36666635 -0.29597631 0)
(0.36360353 -0.29124165 0)
(0.36075778 -0.28663422 0)
(0.35812372 -0.28215863 0)
(0.3556957 -0.27781978 0)
(0.35346779 -0.27362284 0)
(0.35143378 -0.26957325 0)
(0.34958721 -0.26567666 0)
(0.34792132 -0.26193898 0)
(0.34642905 -0.2583663 0)
(0.34510312 -0.2549649 0)
(0.34393594 -0.25174118 0)
(0.34291967 -0.2487017 0)
(0.34204623 -0.24585307 0)
(0.34130731 -0.24320201 0)
(0.34069435 -0.24075526 0)
(0.34019861 -0.23851962 0)
(0.33981117 -0.23650197 0)
(0.33952296 -0.23470928 0)
(0.33932475 -0.23314873 0)
(0.33920694 -0.23182761 0)
(0.33915982 -0.23075292 0)
(0.33917641 -0.22993114 0)
(0.33925745 -0.22937365 0)
(0.33937898 -0.22910664 0)
(0.54060592 -0.43932301 0)
(0.53055189 -0.43243465 0)
(0.52077771 -0.42561324 0)
(0.51128302 -0.41886127 0)
(0.50206748 -0.41218101 0)
(0.49313085 -0.40557449 0)
(0.48447278 -0.39904352 0)
(0.47609282 -0.39258978 0)
(0.46799036 -0.38621477 0)
(0.4601646 -0.37991987 0)
(0.45261462 -0.3737064 0)
(0.44533929 -0.36757559 0)
(0.4383373 -0.36152866 0)
(0.43160714 -0.35556682 0)
(0.42514707 -0.34969132 0)
(0.41895512 -0.34390349 0)
(0.41302908 -0.33820472 0)
(0.4073665 -0.33259656 0)
(0.40196465 -0.32708068 0)
(0.39682059 -0.32165896 0)
(0.39193107 -0.31633346 0)
(0.38729261 -0.31110645 0)
(0.38290149 -0.30598047 0)
(0.37875368 -0.30095829 0)
(0.37484494 -0.29604296 0)
(0.37117073 -0.29123782 0)
(0.36772627 -0.28654646 0)
(0.3645065 -0.2819728 0)
(0.36150612 -0.27752101 0)
(0.35871952 -0.27319558 0)
(0.35614086 -0.26900125 0)
(0.35376401 -0.26494304 0)
(0.35158257 -0.26102624 0)
(0.34958987 -0.25725636 0)
(0.34777897 -0.25363915 0)
(0.34614266 -0.25018054 0)
(0.34467348 -0.24688665 0)
(0.3433637 -0.24376374 0)
(0.34220535 -0.24081821 0)
(0.34119024 -0.23805654 0)
(0.34030996 -0.23548528 0)
(0.33955588 -0.23311107 0)
(0.3389192 -0.23094059 0)
(0.33839094 -0.22898064 0)
(0.33796199 -0.22723811 0)
(0.3376231 -0.22572016 0)
(0.33736494 -0.2244341 0)
(0.33717842 -0.22338707 0)
(0.33705395 -0.2225856 0)
(0.336979 -0.22204072 0)
(0.33694254 -0.22177843 0)
(0.54700531 -0.42476695 0)
(0.53667037 -0.41810851 0)
(0.52662204 -0.41151687 0)
(0.5168598 -0.40499428 0)
(0.50738319 -0.39854277 0)
(0.49819181 -0.39216411 0)
(0.48928517 -0.38585989 0)
(0.48066267 -0.37963154 0)
(0.47232355 -0.37348033 0)
(0.46426688 -0.36740743 0)
(0.45649156 -0.36141389 0)
(0.44899634 -0.35550075 0)
(0.44177975 -0.349669 0)
(0.4348401 -0.34391964 0)
(0.42817552 -0.33825371 0)
(0.42178385 -0.33267232 0)
(0.41566274 -0.32717668 0)
(0.40980955 -0.32176814 0)
(0.40422139 -0.31644819 0)
(0.39889512 -0.31121852 0)
(0.39382735 -0.30608101 0)
(0.3890144 -0.30103777 0)
(0.38445234 -0.29609116 0)
(0.38013699 -0.29124382 0)
(0.3760639 -0.28649862 0)
(0.37222836 -0.28185875 0)
(0.36862537 -0.27732767 0)
(0.36524971 -0.27290914 0)
(0.36209587 -0.26860721 0)
(0.35915806 -0.26442621 0)
(0.35643026 -0.26037076 0)
(0.35390615 -0.25644575 0)
(0.35157915 -0.25265631 0)
(0.34944244 -0.24900784 0)
(0.3474889 -0.24550592 0)
(0.34571118 -0.24215638 0)
(0.34410167 -0.23896519 0)
(0.34265252 -0.23593849 0)
(0.34135564 -0.23308253 0)
(0.34020273 -0.23040367 0)
(0.33918528 -0.22790838 0)
(0.33829459 -0.22560316 0)
(0.3375218 -0.22349461 0)
(0.33685788 -0.22158947 0)
(0.33629363 -0.21989459 0)
(0.33581975 -0.21841707 0)
(0.33542712 -0.21716429 0)
(0.33510724 -0.21614348 0)
(0.33484828 -0.21536127 0)
(0.33462501 -0.21482828 0)
(0.33443681 -0.21457026 0)
(0.55317728 -0.41056517 0)
(0.54256515 -0.40413115 0)
(0.53224623 -0.3977637 0)
(0.52221985 -0.39146485 0)
(0.5124854 -0.38523637 0)
(0.50304235 -0.37907981 0)
(0.49389008 -0.37299654 0)
(0.48502784 -0.36698775 0)
(0.47645471 -0.36105447 0)
(0.46816963 -0.35519766 0)
(0.46017137 -0.34941815 0)
(0.45245851 -0.34371676 0)
(0.44502943 -0.33809427 0)
(0.43788232 -0.33255146 0)
(0.43101514 -0.32708918 0)
(0.42442558 -0.32170833 0)
(0.41811113 -0.31640994 0)
(0.41206899 -0.31119515 0)
(0.40629612 -0.30606528 0)
(0.40078922 -0.30102183 0)
(0.3955447 -0.29606653 0)
(0.39055875 -0.29120131 0)
(0.38582725 -0.28642838 0)
(0.38134586 -0.2817502 0)
(0.37710995 -0.27716952 0)
(0.37311464 -0.27268938 0)
(0.36935476 -0.26831309 0)
(0.36582492 -0.26404429 0)
(0.36251942 -0.25988689 0)
(0.35943233 -0.25584509 0)
(0.35655744 -0.25192338 0)
(0.35388828 -0.24812654 0)
(0.35141812 -0.24445957 0)
(0.34913997 -0.24092773 0)
(0.34704659 -0.23753652 0)
(0.34513048 -0.23429161 0)
(0.3433839 -0.23119888 0)
(0.34179888 -0.22826435 0)
(0.34036724 -0.22549416 0)
(0.33908056 -0.22289457 0)
(0.33793026 -0.22047194 0)
(0.33690755 -0.2182327 0)
(0.33600349 -0.21618338 0)
(0.33520898 -0.21433064 0)
(0.33451476 -0.2126813 0)
(0.33391142 -0.21124246 0)
(0.33339001 -0.21002149 0)
(0.33294254 -0.20902575 0)
(0.33255536 -0.20826195 0)
(0.33219107 -0.20774026 0)
(0.33185706 -0.20748613 0)
(0.5590945 -0.39670346 0)
(0.54821005 -0.39048867 0)
(0.5376252 -0.38434013 0)
(0.52733917 -0.37825966 0)
(0.51735119 -0.3722488 0)
(0.50766061 -0.36630887 0)
(0.49826665 -0.36044102 0)
(0.48916843 -0.35464621 0)
(0.4803649 -0.34892527 0)
(0.47185486 -0.34327892 0)
(0.46363693 -0.3377078 0)
(0.45570956 -0.33221251 0)
(0.44807099 -0.32679362 0)
(0.44071927 -0.32145172 0)
(0.43365221 -0.31618744 0)
(0.42686738 -0.31100151 0)
(0.42036209 -0.30589475 0)
(0.41413342 -0.30086814 0)
(0.40817817 -0.2959228 0)
(0.40249288 -0.29106008 0)
(0.39707384 -0.28628151 0)
(0.39191704 -0.28158889 0)
(0.38701825 -0.27698426 0)
(0.38237295 -0.27246995 0)
(0.37797635 -0.26804855 0)
(0.37382342 -0.26372296 0)
(0.36990885 -0.25949637 0)
(0.36622706 -0.25537229 0)
(0.36277224 -0.25135449 0)
(0.35953828 -0.24744709 0)
(0.35651882 -0.24365444 0)
(0.35370727 -0.23998119 0)
(0.35109673 -0.23643225 0)
(0.3486801 -0.23301278 0)
(0.34645 -0.22972816 0)
(0.3443988 -0.22658396 0)
(0.34251867 -0.22358595 0)
(0.34080151 -0.22074005 0)
(0.33923904 -0.21805231 0)
(0.33782276 -0.21552892 0)
(0.33654398 -0.21317613 0)
(0.33539384 -0.21100031 0)
(0.33436332 -0.20900792 0)
(0.33344324 -0.20720557 0)
(0.33262425 -0.20560004 0)
(0.33189684 -0.20419841 0)
(0.33125212 -0.20300807 0)
(0.33068263 -0.20203646 0)
(0.33017321 -0.20129038 0)
(0.32967492 -0.20077953 0)
(0.32920071 -0.20052897 0)
(0.56473627 -0.3831689 0)
(0.55358532 -0.37716839 0)
(0.54274016 -0.37123375 0)
(0.53219986 -0.36536655 0)
(0.52196356 -0.35956813 0)
(0.51203042 -0.3538396 0)
(0.50239956 -0.34818188 0)
(0.49306995 -0.34259572 0)
(0.48404042 -0.33708175 0)
(0.47530963 -0.33164049 0)
(0.46687607 -0.32627236 0)
(0.45873805 -0.32097776 0)
(0.4508937 -0.31575705 0)
(0.44334092 -0.31061065 0)
(0.43607739 -0.30553899 0)
(0.42910054 -0.3005426 0)
(0.42240757 -0.29562214 0)
(0.4159954 -0.29077838 0)
(0.4098607 -0.28601231 0)
(0.40399988 -0.28132507 0)
(0.39840907 -0.27671806 0)
(0.39308416 -0.27219291 0)
(0.38802074 -0.26775153 0)
(0.38321417 -0.26339608 0)
(0.37865952 -0.25912904 0)
(0.37435161 -0.25495317 0)
(0.37028499 -0.25087155 0)
(0.36645396 -0.24688754 0)
(0.36285255 -0.24300482 0)
(0.35947453 -0.23922739 0)
(0.3563134 -0.23555949 0)
(0.35336244 -0.23200568 0)
(0.35061465 -0.22857077 0)
(0.34806277 -0.22525981 0)
(0.34569932 -0.22207808 0)
(0.34351658 -0.21903108 0)
(0.34150659 -0.21612448 0)
(0.33966116 -0.2133641 0)
(0.33797191 -0.21075594 0)
(0.33643026 -0.20830607 0)
(0.33502741 -0.2060207 0)
(0.33375444 -0.20390611 0)
(0.33260223 -0.20196871 0)
(0.33156153 -0.20021506 0)
(0.33062286 -0.1986519 0)
(0.32977661 -0.19728627 0)
(0.32901389 -0.19612559 0)
(0.32832773 -0.19517736 0)
(0.32770183 -0.19444844 0)
(0.32707629 -0.19394806 0)
(0.32646724 -0.19370079 0)
(0.57008776 -0.3699497 0)
(0.55867692 -0.36415876 0)
(0.54757781 -0.3584332 0)
(0.5367894 -0.35277438 0)
(0.52631067 -0.34718344 0)
(0.51614068 -0.34166128 0)
(0.50627839 -0.33620861 0)
(0.49672266 -0.330826 0)
(0.48747218 -0.32551385 0)
(0.47852549 -0.32027249 0)
(0.46988095 -0.31510216 0)
(0.46153676 -0.31000304 0)
(0.45349091 -0.30497533 0)
(0.44574119 -0.30001924 0)
(0.43828515 -0.29513503 0)
(0.4311201 -0.29032304 0)
(0.42424311 -0.28558375 0)
(0.41765098 -0.28091778 0)
(0.41134026 -0.27632593 0)
(0.40530724 -0.2718092 0)
(0.39954791 -0.26736883 0)
(0.39405804 -0.2630063 0)
(0.3888331 -0.25872338 0)
(0.38386832 -0.25452211 0)
(0.37915865 -0.25040481 0)
(0.37469879 -0.24637414 0)
(0.37048315 -0.24243305 0)
(0.36650592 -0.2385848 0)
(0.362761 -0.23483296 0)
(0.35924204 -0.23118142 0)
(0.35594244 -0.22763434 0)
(0.35285534 -0.22419617 0)
(0.34997363 -0.22087164 0)
(0.34728997 -0.2176657 0)
(0.34479676 -0.21458356 0)
(0.34248617 -0.21163062 0)
(0.34035016 -0.20881248 0)
(0.33838044 -0.20613489 0)
(0.33656854 -0.20360377 0)
(0.33490578 -0.20122511 0)
(0.3333833 -0.19900505 0)
(0.33199206 -0.19694982 0)
(0.33072288 -0.19506577 0)
(0.3295664 -0.1933594 0)
(0.32851304 -0.19183741 0)
(0.32755304 -0.19050681 0)
(0.32667748 -0.18937498 0)
(0.32587984 -0.18844952 0)
(0.32514299 -0.18773735 0)
(0.32439671 -0.18724714 0)
(0.32365796 -0.18700291 0)
(0.57513929 -0.35703515 0)
(0.56347578 -0.35144924 0)
(0.55212972 -0.34592813 0)
(0.54109994 -0.34047298 0)
(0.53038529 -0.33508474 0)
(0.5199847 -0.3297641 0)
(0.50989702 -0.32451158 0)
(0.50012097 -0.31932757 0)
(0.49065512 -0.31421227 0)
(0.48149789 -0.30916582 0)
(0.47264754 -0.30418827 0)
(0.46410212 -0.29927964 0)
(0.45585954 -0.29443992 0)
(0.44791745 -0.28966914 0)
(0.4402733 -0.2849674 0)
(0.43292429 -0.28033487 0)
(0.42586738 -0.27577185 0)
(0.41909925 -0.27127881 0)
(0.41261634 -0.26685637 0)
(0.40641482 -0.26250541 0)
(0.40049059 -0.258227 0)
(0.39483929 -0.25402249 0)
(0.3894563 -0.2498935 0)
(0.38433671 -0.24584196 0)
(0.37947538 -0.24187006 0)
(0.37486689 -0.23798034 0)
(0.37050556 -0.23417565 0)
(0.36638544 -0.23045914 0)
(0.36250035 -0.22683429 0)
(0.35884383 -0.22330488 0)
(0.35540916 -0.21987498 0)
(0.3521894 -0.21654898 0)
(0.34917733 -0.21333149 0)
(0.34636551 -0.21022741 0)
(0.34374626 -0.20724187 0)
(0.34131164 -0.20438019 0)
(0.33905354 -0.20164789 0)
(0.33696357 -0.19905067 0)
(0.33503318 -0.19659435 0)
(0.33325362 -0.19428488 0)
(0.33161591 -0.19212832 0)
(0.33011096 -0.19013085 0)
(0.32872945 -0.18829876 0)
(0.32746196 -0.18663848 0)
(0.32629878 -0.18515667 0)
(0.32523 -0.18386028 0)
(0.3242466 -0.18275668 0)
(0.32334248 -0.1818535 0)
(0.32250002 -0.18115771 0)
(0.32163932 -0.18067746 0)
(0.32077579 -0.18043604 0)
(0.57988559 -0.34441548 0)
(0.56797717 -0.33903021 0)
(0.55639162 -0.33370906 0)
(0.54512769 -0.32845303 0)
(0.53418408 -0.32326284 0)
(0.52355961 -0.31813903 0)
(0.51325301 -0.31308192 0)
(0.50326287 -0.30809172 0)
(0.49358765 -0.30316845 0)
(0.48422566 -0.29831208 0)
(0.47517503 -0.29352247 0)
(0.46643374 -0.28879947 0)
(0.45799955 -0.2841429 0)
(0.44987004 -0.27955263 0)
(0.44204254 -0.27502856 0)