/*--------------------------------*- C++ -*----------------------------------*\
| =========                 |                                                 |
| \\      /  F ield         | OpenFOAM: The Open Source CFD Toolbox           |
|  \\    /   O peration     | Version:  2312                                  |
|   \\  /    A nd           | Website:  www.openfoam.com                      |
|    \\/     M anipulation  |                                                 |
\*---------------------------------------------------------------------------*/
FoamFile
{
    version     2.0;
    format      ascii;
    arch        "LSB;label=32;scalar=64";
    class       volScalarField;
    location    "0.1";
    object      alphat;
}
// * * * * * * * * * * * * * * * * * * * * * * * * * * * * * * * * * * * * * //

dimensions      [1 -1 -1 0 0 0 0];

internalField   nonuniform List<scalar> 
3224
(
0.048041792
0.048593695
0.049141085
0.049683355
0.050219893
0.050750093
0.05127336
0.051789105
0.05229675
0.052795727
0.053285475
0.053765447
0.054235104
0.054693922
0.055141386
0.055576996
0.056000259
0.056410709
0.056807881
0.057191331
0.057560626
0.057915349
0.058255098
0.058579487
0.058888145
0.059180716
0.05945686
0.059716254
0.059958589
0.060183572
0.060390929
0.060580399
0.060751738
0.060904718
0.061039128
0.061154771
0.061251466
0.061329049
0.061387351
0.061426265
0.061445535
0.04804231
0.048594164
0.049141494
0.049683711
0.050220201
0.050750357
0.051273582
0.051789286
0.052296892
0.05279583
0.05328554
0.053765474
0.054235095
0.054693877
0.055141306
0.055576881
0.056000111
0.056410528
0.05680767
0.057191089
0.057560355
0.05791505
0.058254773
0.058579137
0.058887771
0.059180319
0.059456443
0.059715817
0.059958133
0.0601831
0.060390442
0.060579899
0.060751226
0.060904196
0.061038597
0.061154233
0.061250923
0.061328504
0.061386812
0.061425754
0.061445065
0.048043599
0.048595372
0.049142628
0.049684778
0.050221206
0.050751302
0.051274468
0.051790115
0.052297664
0.052796547
0.053286203
0.053766084
0.054235652
0.054694383
0.055141762
0.055577288
0.056000471
0.056410843
0.05680794
0.057191317
0.057560542
0.057915198
0.058254884
0.058579212
0.058887813
0.05918033
0.059456424
0.059715771
0.059958063
0.060183008
0.060390329
0.060579767
0.060751078
0.060904034
0.061038424
0.061154051
0.061250735
0.061328313
0.061386629
0.061425605
0.061444976
0.048045661
0.04859733
0.049144502
0.049686573
0.050222923
0.050752944
0.051276036
0.051791611
0.052299089
0.0527979
0.053287487
0.0537673
0.054236802
0.054695468
0.055142783
0.055578248
0.056001371
0.056411685
0.056808726
0.05719205
0.057561223
0.05791583
0.058255469
0.058579753
0.058888313
0.059180791
0.059456849
0.059716162
0.059958422
0.060183339
0.060390635
0.06058005
0.060751341
0.060904281
0.061038656
0.061154273
0.061250949
0.061328525
0.06138685
0.061425864
0.061445296
0.047493008
0.04804847
0.048600047
0.049147129
0.049689108
0.050225369
0.0507553
0.051278304
0.051793791
0.052301182
0.05279991
0.053289413
0.053769144
0.054238567
0.054697154
0.055144393
0.055579784
0.056002836
0.056413081
0.056810056
0.057193315
0.057562427
0.057916976
0.05825656
0.058580792
0.058889302
0.059181734
0.059457748
0.059717022
0.059959246
0.060184129
0.060391395
0.060580784
0.060752053
0.060904972
0.061039332
0.061154937
0.061251605
0.061329178
0.061387511
0.061426564
0.061446048
0.047496425
0.048051848
0.048603335
0.049150322
0.049692206
0.050228369
0.050758203
0.05128111
0.051796502
0.052303799
0.052802434
0.053291846
0.053771488
0.054240823
0.054699325
0.055146481
0.055581792
0.056004766
0.056414935
0.056811838
0.057195028
0.057564074
0.05791856
0.058258083
0.058582259
0.058890716
0.059183098
0.059459066
0.059718297
0.059960482
0.06018533
0.060392564
0.060581925
0.060753169
0.060906068
0.061040411
0.061156002
0.061252663
0.061330233
0.061388572
0.061427659
0.061447182
0.047500358
0.048055692
0.048607084
0.049153975
0.049695757
0.050231817
0.050761549
0.051284354
0.051799644
0.052306841
0.052805377
0.053294692
0.053774239
0.054243481
0.054701893
0.055148961
0.055584186
0.056007078
0.056417168
0.056813994
0.057197111
0.057566087
0.057920506
0.058259967
0.058584083
0.058892483
0.059184814
0.059460733
0.059719919
0.059962064
0.060186874
0.060394075
0.060583406
0.060754624
0.060907502
0.061041828
0.061157406
0.061254058
0.061331625
0.061389971
0.061429082
0.061448636
0.047505095
0.048060306
0.048611593
0.049158375
0.049700044
0.050235988
0.050765603
0.051288291
0.051803466
0.052310549
0.052808972
0.053298177
0.053777616
0.054246752
0.054705061
0.05515203
0.055587158
0.056009956
0.056419956
0.056816696
0.05719973
0.057568627
0.057922971
0.05826236
0.058586409
0.058894746
0.059187018
0.059462883
0.059722019
0.059964117
0.060188885
0.060396049
0.060585347
0.060756537
0.060909391
0.061043697
0.061159261
0.061255904
0.061333468
0.061391819
0.061430948
0.06145053
0.046952236
0.047510657
0.048065749
0.048616921
0.04916358
0.049705121
0.050240935
0.050770418
0.051292975
0.051808019
0.052314974
0.05281327
0.05330235
0.053781667
0.054250685
0.054708878
0.055155734
0.055590753
0.056013446
0.056423344
0.056819987
0.057202927
0.057571735
0.057925995
0.058265304
0.058589278
0.058897545
0.05918975
0.059465554
0.059724633
0.05996668
0.060191402
0.060398524
0.060587786
0.060758944
0.060911771
0.061046056
0.061161604
0.061258237
0.061335796
0.061394152
0.061433294
0.061452898
0.046958788
0.047517117
0.048072086
0.048623129
0.049169651
0.04971105
0.050246717
0.050776052
0.051298462
0.05181336
0.05232017
0.052818324
0.053307264
0.053786444
0.054255328
0.054713391
0.055160121
0.055595018
0.056017593
0.056427378
0.056823911
0.057206748
0.057575457
0.057929622
0.058268842
0.058592731
0.05890092
0.059193051
0.059468788
0.059727804
0.059969794
0.060194464
0.06040154
0.06059076
0.060761883
0.060914681
0.061048942
0.061164472
0.061261093
0.061338647
0.061397008
0.061436158
0.061455781
0.046405236
0.046966343
0.047524551
0.048079386
0.048630283
0.049176653
0.049717891
0.050253395
0.050782565
0.05130481
0.051819545
0.052326193
0.052824188
0.053312973
0.053792
0.054260735
0.054718653
0.055165242
0.055600003
0.056022446
0.056432105
0.056828517
0.057211238
0.057579836
0.057933896
0.058273018
0.058596814
0.058904915
0.059196965
0.059472625
0.059731573
0.059973499
0.060198112
0.060405136
0.060594312
0.060765396
0.06091816
0.061052395
0.061167906
0.061264513
0.061342061
0.061400424
0.06143958
0.061459218
0.046414037
0.046974974
0.047533038
0.04808772
0.048638454
0.049184652
0.049725711
0.050261033
0.050790021
0.051312083
0.051826636
0.052333105
0.052830923
0.053319534
0.053798392
0.054266961
0.054724718
0.055171151
0.05560576
0.056028058
0.056437577
0.056833855
0.057216447
0.057584923
0.057938867
0.058277878
0.058601571
0.058909575
0.059201536
0.059477113
0.059735983
0.059977839
0.060202388
0.060409356
0.060598482
0.060769523
0.060922251
0.061056457
0.061171945
0.061268538
0.061346078
0.061404442
0.0614436
0.061463251
0.045860932
0.046424013
0.046984762
0.047542657
0.048097165
0.048647715
0.04919372
0.049734581
0.050269701
0.050798486
0.051320345
0.051834697
0.052340967
0.05283859
0.053327009
0.053805679
0.054274065
0.054731644
0.055177904
0.055612346
0.056034483
0.056443847
0.056839976
0.057222427
0.057590768
0.057944584
0.058283474
0.058607053
0.05891495
0.059206811
0.059482296
0.059741081
0.05998286
0.06020734
0.060414245
0.060603316
0.060774309
0.060926998
0.061061171
0.061176634
0.06127321
0.061350741
0.061409104
0.061448262
0.061467923
0.045872405
0.04643525
0.046995792
0.047553492
0.048107801
0.048658144
0.049203933
0.049744574
0.050279471
0.050808031
0.051329667
0.051843797
0.052349847
0.052847254
0.053335461
0.053813924
0.054282108
0.054739491
0.05518556
0.055619819
0.056041778
0.056450972
0.056846938
0.057229232
0.057597424
0.057951099
0.058289856
0.058613309
0.058921089
0.059212841
0.059488224
0.059746917
0.05998861
0.060213013
0.06041985
0.060608861
0.060779802
0.060932446
0.061066583
0.061182018
0.061278575
0.061356094
0.061414455
0.061453611
0.061473279
0.045320915
0.045885244
0.046447837
0.047008149
0.047565627
0.04811971
0.048669821
0.049215371
0.049755768
0.050290418
0.050818731
0.051340121
0.051854006
0.052359816
0.052856985
0.053344959
0.053823195
0.054291157
0.054748324
0.055194184
0.055628241
0.056050005
0.05645901
0.056854797
0.05723692
0.057604949
0.057958469
0.058297079
0.058620395
0.058928046
0.059219678
0.05949495
0.05975354
0.059995141
0.060219459
0.060426221
0.060615165
0.060786048
0.060938644
0.061072741
0.061188146
0.06128468
0.061362186
0.061420542
0.061459694
0.061479369
0.045335506
0.045899546
0.046461869
0.047021925
0.047579152
0.048132981
0.048682831
0.049228116
0.049768244
0.050302623
0.050830665
0.051351784
0.051865401
0.052370946
0.052867855
0.053355574
0.05383356
0.054301279
0.054758209
0.05520384
0.055637675
0.056059226
0.056468026
0.056863616
0.057245551
0.057613401
0.057966752
0.058305202
0.058628367
0.058935877
0.059227377
0.059502528
0.059761006
0.060002504
0.060226731
0.060433409
0.060622281
0.060793101
0.060945643
0.061079696
0.061195066
0.061291575
0.061369066
0.061427414
0.061466561
0.061486241
0.044786799
0.045351682
0.045915414
0.046477443
0.047037215
0.04759416
0.048147704
0.048697266
0.049242257
0.049782089
0.05031617
0.050843914
0.051364737
0.051878061
0.052383316
0.052879941
0.053367381
0.053845094
0.054312547
0.054769218
0.055214599
0.055648192
0.056069509
0.056478085
0.05687346
0.05725519
0.057622844
0.05797601
0.058314285
0.058637285
0.058944641
0.059235997
0.059511015
0.059769371
0.060010757
0.060234883
0.060441471
0.060630262
0.060801013
0.060953496
0.061087501
0.061202833
0.061299314
0.061376786
0.061435125
0.061474264
0.061493947
0.044805011
0.045369554
0.045932953
0.046494661
0.047054117
0.047610748
0.048163976
0.048713218
0.049257886
0.049797392
0.050331148
0.050858566
0.051379065
0.051892069
0.052397009
0.052893322
0.053380458
0.053857873
0.054325036
0.054781426
0.055226533
0.055659862
0.056080925
0.056489256
0.056884397
0.057265902
0.057633344
0.057986307
0.058324391
0.058647212
0.0589544
0.059245599
0.059520472
0.059778694
0.060019958
0.060243973
0.060450462
0.060639166
0.060809841
0.06096226
0.061096211
0.0612115
0.061307949
0.0613854
0.061443727
0.061482857
0.061502543
0.044825067
0.045389236
0.045952271
0.046513626
0.047072733
0.047629017
0.048181895
0.048730785
0.049275099
0.049814249
0.050347648
0.050874711
0.051394858
0.051907513
0.052412108
0.052908083
0.053394888
0.053871979
0.054338826
0.054794909
0.055239719
0.05567276
0.056093546
0.056501611
0.056896497
0.057277759
0.057644968
0.057997711
0.058335588
0.058658213
0.058965217
0.059256246
0.059530961
0.059789037
0.060030169
0.060254063
0.060460444
0.060649053
0.060819644
0.060971992
0.061105884
0.061221126
0.061317539
0.061394965
0.061453278
0.061492397
0.061512084
0.044847082
0.045410837
0.045973478
0.046534447
0.047093172
0.047649072
0.048201567
0.04875007
0.049293996
0.049832758
0.050365768
0.050892445
0.051412208
0.051924483
0.052428705
0.052924312
0.053410757
0.053887496
0.054354
0.05480975
0.055254237
0.055686966
0.056107451
0.056515227
0.056909835
0.057290832
0.05765779
0.058010294
0.058347945
0.058670357
0.058977162
0.059268005
0.059542548
0.059800466
0.060041453
0.060265216
0.060471479
0.060659983
0.060830484
0.060982754
0.061116581
0.06123177
0.061328144
0.061405542
0.061463837
0.061502944
0.06152263
0.044307305
0.04487116
0.045434475
0.04599669
0.046557239
0.047115544
0.047671025
0.048223099
0.04877118
0.049314683
0.049853021
0.050385609
0.050911865
0.051431212
0.051943076
0.052446891
0.052942101
0.053428154
0.053904512
0.054370645
0.054826033
0.05527017
0.055702561
0.056122719
0.056530182
0.056924489
0.0573052
0.057671884
0.058024129
0.058361534
0.058683716
0.058990305
0.059280946
0.059555302
0.059813048
0.060053877
0.060277497
0.060483632
0.060672022
0.060842424
0.060994608
0.061128364
0.061243496
0.061339825
0.061417191
0.061475466
0.061514558
0.061534242
0.044334037
0.044897419
0.045460269
0.046022026
0.046582118
0.047139966
0.047694988
0.048246603
0.048794224
0.049337267
0.049875145
0.050407275
0.050933076
0.051451971
0.051963389
0.052466766
0.052961544
0.053447175
0.05392312
0.05438885
0.054843847
0.055287605
0.055719629
0.056139435
0.056546558
0.05694054
0.05732094
0.057687328
0.058039292
0.058376432
0.058698363
0.059004718
0.059295141
0.059569293
0.059826852
0.06006751
0.060290975
0.060496971
0.060685238
0.06085553
0.061007622
0.061141299
0.061256367
0.061352647
0.061429977
0.061488228
0.061527304
0.061546985
0.043238029
0.043800258
0.044363113
0.044925994
0.045488348
0.04604961
0.046609206
0.047166557
0.047721082
0.048272197
0.048819319
0.049361861
0.049899241
0.050430875
0.050956183
0.05147459
0.051985526
0.052488428
0.05298274
0.053467915
0.053943414
0.054408709
0.054863284
0.055306633
0.055738261
0.056157684
0.056564441
0.056958072
0.057338135
0.057704203
0.058055863
0.058392716
0.058714377
0.059020478
0.059310664
0.059584597
0.059841953
0.060082426
0.060305722
0.060511566
0.060699698
0.060869873
0.061021862
0.061155454
0.061270452
0.061366677
0.061443966
0.061502191
0.061541247
0.061560924
0.042710005
0.043270626
0.043832353
0.044394671
0.04495702
0.045518843
0.04607957
0.04663863
0.047195442
0.047749427
0.048300001
0.048846582
0.049388584
0.049925424
0.050456521
0.050981297
0.051499177
0.052009594
0.052511984
0.053005793
0.053490475
0.053965493
0.054430319
0.054884439
0.055327345
0.055758547
0.056177559
0.056583919
0.05697717
0.057356871
0.057722594
0.058073926
0.058410468
0.058731836
0.059037663
0.059327593
0.059601288
0.059858425
0.060098697
0.060321811
0.06052749
0.060715476
0.060885522
0.0610374
0.061170898
0.061285819
0.061381983
0.061459228
0.061517421
0.061556456
0.061576127
0.042745825
0.043305909
0.043867096
0.044428853
0.044990636
0.045551887
0.046112039
0.046670519
0.047226749
0.047780151
0.04833014
0.048876136
0.049417553
0.049953812
0.05048433
0.051008532
0.051525845
0.052035701
0.052537539
0.053030807
0.053514959
0.053989458
0.05445378
0.054907409
0.05534984
0.055780582
0.05619915
0.056605084
0.056997926
0.057377236
0.057742586
0.058093564
0.058429771
0.058750824
0.059056355
0.059346008
0.059619447
0.059876347
0.060116401
0.060339317
0.060544818
0.060732644
0.060902551
0.061054308
0.061187704
0.06130254
0.061398637
0.061475832
0.06153399
0.061573001
0.061592665
0.042784524
0.043344039
0.043904646
0.044465807
0.045026983
0.045587621
0.046147153
0.046705008
0.047260611
0.047813382
0.048362741
0.048908106
0.049448894
0.049984526
0.050514421
0.051038006
0.051554707
0.052063961
0.052565206
0.053057891
0.053541473
0.054015416
0.054479195
0.054932296
0.055374215
0.055804462
0.056222553
0.056628028
0.057020431
0.057399319
0.057764268
0.058114865
0.058450712
0.058771425
0.059076636
0.059365991
0.059639152
0.059895796
0.060135616
0.060358318
0.060563626
0.06075128
0.060921035
0.06107266
0.061205944
0.061320688
0.061416711
0.061493851
0.06155197
0.061590954
0.061610608
0.042826268
0.043385174
0.043945157
0.044505679
0.045066205
0.045626183
0.046185049
0.046742233
0.047297161
0.047849254
0.048397935
0.048942621
0.049482732
0.05001769
0.050546916
0.051069837
0.051585882
0.052094489
0.052595097
0.053087157
0.053570127
0.054043471
0.054506668
0.054959202
0.055400573
0.055830288
0.056247866
0.056652849
0.057044778
0.057423214
0.057787732
0.058137919
0.058473377
0.058793724
0.059098592
0.059387626
0.059660488
0.059916856
0.060156422
0.060378893
0.060583993
0.06077146
0.06094105
0.061092533
0.061225695
0.061340338
0.06143628
0.061513358
0.061571434
0.061610388
0.061630031
0.042871219
0.043429469
0.043988781
0.044548619
0.045108449
0.04566772
0.046225871
0.046782334
0.047336537
0.047887903
0.048435854
0.048979811
0.049519196
0.05005343
0.050581938
0.051104147
0.05161949
0.052127402
0.052627328
0.053118718
0.053601031
0.054073735
0.054536306
0.054988233
0.055429015
0.05585816
0.056275189
0.056679642
0.057071064
0.057449015
0.057813069
0.058162816
0.058497858
0.058817811
0.059122309
0.059410997
0.059683538
0.059939609
0.060178901
0.060401123
0.060605997
0.060793263
0.060962675
0.061114003
0.061247032
0.061361565
0.061457419
0.061534429
0.061592456
0.061631377
0.061651007
0.042919535
0.043477081
0.044035674
0.044594779
0.045153862
0.045712376
0.046269762
0.046825452
0.047378877
0.047929463
0.048476633
0.04901981
0.049558416
0.050091875
0.050619614
0.051141061
0.05165565
0.052162819
0.052662015
0.053152687
0.053634298
0.054106316
0.054568218
0.055019495
0.055459646
0.055888181
0.056304621
0.056708508
0.057099386
0.057476816
0.057840374
0.058189648
0.058524243
0.058843774
0.059147875
0.059436192
0.059708387
0.059964138
0.060203136
0.060425089
0.06062972
0.060816769
0.060985988
0.061137148
0.061270033
0.061384446
0.061480203
0.061557139
0.061615112
0.061653997
0.061673612
0.042971373
0.043528166
0.04408599
0.044644309
0.045202594
0.045760299
0.046316865
0.046871729
0.047424323
0.047974074
0.048520408
0.049062749
0.049600523
0.050133153
0.050660069
0.051180702
0.051694486
0.052200861
0.052699275
0.053189181
0.053670041
0.054141326
0.054602514
0.055053095
0.055492571
0.055920454
0.056336264
0.056739545
0.05712984
0.057506714
0.05786974
0.058218509
0.058552624
0.058871703
0.059175378
0.059463297
0.059735121
0.059990528
0.060229209
0.060450874
0.060655243
0.060842057
0.061011068
0.061162046
0.061294776
0.061409059
0.06150471
0.061581564
0.061639478
0.061678323
0.061697921
0.043026891
0.043582879
0.044139881
0.044697362
0.045254795
0.045811634
0.046367325
0.046921307
0.047473013
0.048021872
0.048567313
0.049108763
0.049645647
0.050177393
0.050703431
0.051223194
0.051736118
0.052241646
0.052739227
0.053228315
0.053708374
0.054178875
0.0546393
0.05508914
0.055527896
0.055955082
0.05637022
0.056772852
0.057162526
0.057538804
0.057901262
0.05824949
0.058583092
0.058901686
0.059204906
0.059492397
0.059763824
0.060018862
0.060257204
0.060478558
0.060682646
0.060869206
0.061037993
0.061188775
0.061321337
0.061435478
0.061531014
0.06160778
0.061665629
0.061704429
0.061724008
0.043086246
0.043641376
0.0441975
0.044754088
0.045310611
0.045866528
0.046421286
0.046974327
0.047525085
0.048072995
0.048617484
0.049157982
0.049693918
0.050224721
0.050749824
0.051268659
0.051780668
0.052285294
0.052781986
0.053270202
0.053749408
0.054219075
0.054678686
0.055127735
0.055565724
0.055992166
0.056406587
0.056808529
0.057197539
0.057573181
0.057935032
0.058282682
0.058615736
0.058933813
0.059236545
0.05952358
0.05979458
0.060049223
0.060287201
0.060508222
0.060712008
0.060898297
0.061066842
0.061217413
0.061349792
0.061463781
0.061559192
0.06163586
0.061693638
0.061732391
0.061751948
0.043149592
0.043703808
0.044258998
0.044814632
0.045370187
0.045925122
0.046478887
0.047030926
0.047580677
0.048127574
0.048671051
0.049210537
0.049745464
0.050275263
0.05079937
0.051317219
0.051828254
0.052331919
0.052827666
0.053314955
0.053793252
0.054262031
0.054720777
0.055168984
0.055606156
0.056031807
0.056445464
0.05684667
0.057234973
0.057609937
0.057971141
0.058318176
0.058650645
0.058968169
0.05927038
0.059556927
0.059827472
0.060081693
0.060319281
0.060539945
0.060743407
0.060929404
0.06109769
0.061248033
0.061380216
0.061494039
0.061589316
0.061665879
0.061723579
0.061762279
0.061781812
0.043217077
0.043770322
0.044324518
0.04487914
0.045433665
0.045987556
0.046540265
0.047091239
0.047639919
0.048185741
0.04872814
0.049266551
0.049800406
0.050329139
0.050852188
0.05136899
0.051878989
0.052381634
0.052876377
0.053362681
0.053840013
0.054307849
0.054765675
0.055212987
0.055649291
0.056074101
0.056486945
0.056887368
0.057274919
0.057649163
0.058009678
0.058356056
0.058687903
0.059004837
0.059306494
0.05959252
0.059862579
0.060116348
0.06035352
0.060573802
0.060776917
0.060962602
0.06113061
0.061280708
0.061412681
0.061526325
0.061621456
0.061697904
0.06175552
0.061794164
0.06181367
0.043288845
0.043841057
0.044394198
0.044947745
0.045501177
0.04605396
0.046605549
0.047155393
0.047702936
0.048247617
0.048788874
0.049326144
0.049858861
0.050386464
0.05090839
0.051424081
0.051932983
0.052434545
0.052928224
0.053413483
0.053889791
0.054356626
0.054813477
0.05525984
0.055695221
0.056119139
0.056531121
0.056930712
0.057317464
0.057690942
0.058050725
0.058396406
0.05872759
0.059043898
0.059344963
0.059630435
0.059899976
0.060153264
0.060389992
0.060609866
0.06081261
0.06099796
0.06116567
0.061315506
0.061447252
0.061560705
0.061655678
0.061732003
0.061789527
0.061828109
0.061847586
0.043365028
0.043916146
0.044468168
0.045020575
0.045572849
0.046124458
0.046674859
0.047223506
0.047769845
0.048313317
0.048853365
0.049389426
0.049920939
0.050447344
0.050968081
0.051482596
0.051990335
0.052490752
0.052983303
0.053467455
0.053942679
0.054408456
0.054864273
0.05530963
0.055744035
0.056167006
0.056578074
0.056976784
0.057362688
0.057735354
0.05809436
0.0584393
0.05876978
0.059085422
0.05938586
0.059670742
0.059939732
0.060192508
0.060428762
0.060648202
0.06085055
0.061035543
0.061202934
0.06135249
0.061483993
0.06159724
0.061692044
0.061768235
0.061825661
0.061864176
0.061883621
0.043445747
0.043995707
0.044546546
0.045097746
0.045648794
0.04619916
0.046748306
0.047295686
0.047840751
0.048382945
0.048921713
0.049456497
0.049986736
0.050511875
0.051031357
0.051544627
0.052051138
0.052550343
0.053041703
0.053524685
0.053998763
0.054463419
0.054918143
0.055362436
0.055795808
0.056217778
0.056627879
0.057025657
0.057410664
0.057782468
0.058140651
0.058484807
0.058814542
0.059129477
0.059429248
0.059713504
0.059981909
0.06023414
0.060469891
0.060688869
0.060890795
0.061075408
0.061242459
0.061391715
0.061522958
0.061635985
0.061730608
0.061806655
0.061863974
0.061902418
0.061921827
0.04353111
0.044079845
0.044629432
0.045179358
0.04572911
0.046278164
0.046825983
0.047372027
0.047915746
0.048456591
0.048994009
0.049527443
0.050056339
0.050580142
0.051098297
0.051610256
0.05211547
0.052613396
0.053103499
0.053585246
0.054058115
0.054521588
0.054975159
0.055418329
0.05585061
0.056271522
0.056680602
0.057077393
0.057461452
0.057832347
0.05818966
0.058532985
0.058861931
0.059176118
0.059475184
0.059758777
0.060026561
0.060278215
0.060513431
0.060731917
0.060933396
0.061117604
0.061284292
0.061433229
0.061564195
0.061676986
0.061771415
0.061847309
0.061904513
0.061942879
0.061962251
0.043621203
0.044168645
0.044716912
0.045265493
0.045813879
0.046361549
0.04690797
0.047452603
0.047994905
0.048534328
0.049070322
0.049602336
0.050129816
0.05065221
0.05116897
0.051679546
0.052183394
0.052679974
0.053168752
0.053649199
0.054120793
0.05458302
0.055035375
0.055477362
0.055908493
0.056328291
0.056736293
0.057132045
0.057515104
0.057885039
0.058241433
0.058583881
0.058911993
0.059225391
0.05952371
0.059806602
0.060073729
0.060324772
0.060559422
0.060777387
0.060978391
0.061162169
0.061328473
0.06147707
0.06160774
0.061720281
0.061814502
0.061890231
0.061947312
0.061985596
0.062004927
0.04371609
0.044262171
0.044809046
0.045356211
0.045903159
0.046449372
0.046994321
0.047537471
0.048078281
0.048616209
0.049150706
0.049681224
0.050207215
0.05072813
0.051243421
0.051752543
0.052254955
0.05275012
0.053237505
0.053716585
0.054186839
0.054647756
0.055098833
0.055539574
0.055969496
0.056388121
0.05679499
0.057189648
0.057571653
0.057940577
0.058296003
0.058637528
0.058964761
0.059277325
0.059574858
0.059857009
0.060123443
0.060373839
0.060607891
0.060825306
0.061025806
0.061209129
0.061375025
0.061523261
0.061653618
0.061765892
0.061859892
0.061935446
0.061992395
0.062030592
0.062049878
0.043815809
0.044360457
0.044905871
0.045451547
0.045996984
0.046541666
0.047085068
0.04762666
0.048165904
0.04870226
0.049235186
0.049764135
0.050288563
0.050807925
0.051321675
0.051829272
0.052330178
0.052823857
0.053309781
0.053787425
0.054256274
0.054715816
0.055165551
0.055604986
0.056033638
0.056451032
0.056856709
0.057250218
0.057631117
0.057998978
0.058353387
0.05869394
0.059020249
0.059331937
0.05962864
0.059910011
0.060175715
0.06042543
0.060658851
0.060875685
0.061075654
0.061258495
0.06142396
0.061571814
0.061701839
0.061813829
0.061907595
0.061982962
0.062039772
0.062077874
0.062097113
0.043920362
0.044463509
0.045007388
0.045551503
0.046095355
0.046638431
0.047180212
0.047720169
0.048257772
0.048792482
0.049323761
0.049851067
0.050373858
0.050891593
0.051403729
0.05190973
0.052409058
0.052901182
0.053385576
0.053861718
0.054329094
0.054787197
0.055235526
0.055673593
0.056100915
0.056517018
0.056921448
0.057313752
0.057693491
0.058060238
0.05841358
0.058753114
0.059078452
0.059389219
0.059685053
0.059965604
0.06023054
0.060479539
0.060712295
0.060928517
0.061127926
0.06131026
0.06147527
0.061622721
0.061752395
0.061864085
0.061957602
0.062032772
0.062089433
0.062127436
0.062146625
0.044029717
0.044571292
0.045113566
0.045656046
0.046198238
0.046739633
0.047279717
0.047817965
0.04835385
0.048886838
0.049416396
0.049941984
0.050463065
0.050979099
0.05148955
0.051993882
0.052491562
0.052982062
0.053464858
0.05393943
0.054405268
0.054861867
0.055308728
0.055745365
0.056171297
0.056586052
0.056989177
0.057380221
0.057758747
0.058124328
0.058476553
0.058815021
0.059139343
0.059449145
0.059744067
0.06002376
0.06028789
0.060536137
0.060768196
0.060983775
0.061182596
0.061364397
0.061528928
0.061675955
0.061805258
0.061916633
0.062009887
0.062084847
0.062141352
0.06217925
0.062198385
0.044143796
0.044683732
0.045224328
0.0457651
0.046305556
0.046845196
0.047383507
0.04791997
0.048454062
0.048985255
0.049513017
0.050036813
0.05055611
0.051070373
0.051579067
0.05208166
0.052577623
0.05306643
0.05354756
0.054020497
0.054484732
0.054939763
0.055385094
0.05582024
0.056244723
0.056658073
0.057059837
0.057449567
0.057826827
0.058191192
0.058542252
0.058879605
0.059202867
0.059511662
0.05980563
0.060084425
0.060347713
0.060595174
0.060826503
0.061041409
0.061239613
0.061420854
0.061584883
0.061731464
0.061860379
0.061971421
0.0620644
0.062139139
0.062195478
0.062233265
0.062252343
0.044262473
0.044800704
0.045339551
0.04587854
0.046417187
0.046954995
0.047491458
0.048026062
0.048558288
0.049087611
0.049613504
0.050135438
0.05065288
0.0511653
0.051672167
0.052172952
0.05266713
0.053154178
0.053633577
0.054104814
0.054567384
0.055020785
0.055464526
0.055898122
0.056321098
0.056732986
0.057133336
0.0575217
0.057897642
0.058260742
0.058610588
0.058946782
0.059268939
0.059576684
0.05986966
0.060147518
0.060409927
0.060656568
0.060887135
0.061101338
0.061298898
0.061479554
0.061643057
0.061789173
0.06191768
0.062028374
0.062121062
0.06219557
0.062251735
0.062289405
0.062308423
0.044385571
0.044922035
0.045459057
0.045996187
0.046532948
0.04706885
0.047603392
0.048136065
0.048666352
0.049193734
0.049717688
0.050237688
0.050753207
0.051263716
0.05176869
0.052267602
0.052759929
0.053245153
0.053722758
0.054192235
0.054653078
0.055104791
0.055546883
0.055978874
0.056400287
0.056810661
0.057209543
0.057596489
0.057971066
0.058332853
0.05868144
0.05901643
0.059337439
0.059644095
0.059936038
0.060212924
0.06047442
0.060720207
0.060949981
0.061163452
0.061360342
0.061540389
0.061703343
0.061848972
0.061977054
0.062087384
0.06217977
0.062254036
0.062310018
0.062347566
0.062366522
0.044512874
0.045047489
0.045582605
0.046117796
0.046652596
0.047186519
0.047719069
0.048249739
0.048778018
0.049303392
0.04982534
0.050343341
0.05085687
0.051365404
0.051868421
0.052365397
0.052855813
0.053339153
0.053814905
0.054282562
0.054741622
0.05519159
0.05563198
0.05606231
0.056482109
0.056890918
0.057288284
0.057673765
0.05804693
0.058407359
0.058754644
0.059088389
0.05940821
0.059713738
0.060004613
0.060280491
0.06054104
0.060785943
0.061014895
0.061227606
0.0614238
0.061603213
0.061765599
0.061910722
0.062038362
0.062148313
0.062240383
0.062314396
0.062370189
0.06240761
0.062426499
0.04411268
0.044644228
0.045176784
0.04570988
0.046243048
0.046775812
0.047307686
0.047838174
0.048366776
0.048892984
0.049416285
0.049936165
0.050452104
0.050963584
0.051470084
0.051971084
0.052466067
0.052954514
0.053435915
0.053909759
0.054375543
0.054832767
0.05528094
0.055719576
0.056148198
0.056566335
0.056973532
0.057369336
0.057753308
0.058125018
0.058484048
0.058829991
0.059162452
0.05948105
0.059785413
0.060075186
0.060350024
0.060609596
0.060853585
0.061081688
0.061293614
0.061489088
0.061667847
0.061829643
0.061974242
0.062101424
0.062210982
0.062302726
0.062376477
0.062432072
0.06246936
0.062488181
0.043721578
0.044249526
0.044778972
0.045309439
0.045840449
0.046371526
0.046902189
0.04743195
0.047960317
0.048486791
0.049010869
0.04953204
0.050049795
0.050563618
0.051072993
0.051577405
0.052076337
0.052569274
0.053055702
0.053535114
0.054007001
0.054470864
0.054926205
0.055372536
0.055809375
0.056236245
0.056652677
0.05705822
0.057452423
0.057834847
0.058205064
0.058562657
0.058907223
0.059238366
0.059555706
0.059858874
0.060147514
0.060421283
0.06067985
0.0609229
0.061150129
0.061361247
0.06155598
0.061734064
0.061895253
0.062039312
0.062166021
0.062275174
0.06236658
0.06244006
0.062495452
0.062532603
0.062551353
0.04333933
0.043863292
0.044389184
0.044916542
0.045444899
0.045973783
0.046502719
0.047031227
0.047558823
0.048085016
0.048609311
0.049131207
0.049650199
0.05016578
0.050677439
0.051184663
0.051686941
0.052183759
0.052674606
0.053158972
0.053636352
0.054106241
0.054568142
0.055021561
0.055466012
0.055901014
0.056326094
0.056740787
0.057144641
0.057537207
0.05791805
0.058286741
0.058642868
0.058986025
0.059315821
0.059631876
0.059933821
0.060221302
0.060493977
0.060751516
0.060993603
0.061219937
0.061430227
0.0616242
0.061801593
0.061962159
0.062105663
0.062231887
0.062340624
0.062431682
0.062504884
0.062560066
0.062597077
0.062615753
0.043485124
0.044007162
0.044531029
0.0450563
0.045582528
0.046109255
0.046636013
0.047162327
0.047687715
0.048211693
0.048733767
0.04925344
0.049770213
0.050283581
0.050793037
0.051298073
0.051798179
0.052292848
0.05278157
0.05326384
0.053739153
0.054207012
0.054666919
0.055118384
0.055560924
0.055994061
0.056417322
0.056830247
0.057232384
0.057623287
0.058002522
0.058369663
0.058724297
0.059066023
0.059394448
0.059709195
0.060009896
0.060296198
0.060567758
0.06082425
0.061065357
0.061290778