/*--------------------------------*- C++ -*----------------------------------*\
| =========                 |                                                 |
| \\      /  F ield         | OpenFOAM: The Open Source CFD Toolbox           |
|  \\    /   O peration     | Version:  2312                                  |
|   \\  /    A nd           | Website:  www.openfoam.com                      |
|    \\/     M anipulation  |                                                 |
\*---------------------------------------------------------------------------*/
FoamFile
{
    version     2.0;
    format      ascii;
    arch        "LSB;label=32;scalar=64";
    class       volScalarField;
    location    "0.1";
    object      CH4;
}
// * * * * * * * * * * * * * * * * * * * * * * * * * * * * * * * * * * * * * //

dimensions      [0 0 0 0 0 0 0];

internalField   nonuniform List<scalar> 
3224
(
0.015500566
0.015088202
0.014688026
0.014299862
0.013923583
0.01355906
0.013206163
0.01286476
0.012534721
0.012215918
0.011908228
0.011611529
0.011325703
0.011050636
0.010786221
0.010532353
0.010288932
0.010055863
0.0098330563
0.0096204278
0.0094178974
0.009225391
0.0090428391
0.0088701778
0.0087073483
0.0085542972
0.008410976
0.0082773419
0.008153357
0.0080389888
0.0079342101
0.0078389989
0.0077533385
0.0076772176
0.0076106301
0.0075535753
0.0075060584
0.0074680904
0.0074396885
0.0074208744
0.0074114858
0.015500051
0.015087834
0.014687777
0.014299702
0.013923493
0.01355903
0.013206186
0.012864831
0.012534837
0.012216076
0.011908426
0.011611764
0.011325973
0.011050941
0.010786559
0.010532722
0.010289331
0.010056291
0.0098335118
0.0096209096
0.0094184045
0.009225922
0.009043393
0.0088707534
0.0087079445
0.0085549126
0.0084116096
0.0082779924
0.0081540231
0.0080396694
0.0079349039
0.0078397047
0.0077540551
0.0076779436
0.0076113641
0.0075543161
0.0075068046
0.00746884
0.007440437
0.0074216114
0.0074122671
0.015498855
0.015086829
0.014686914
0.014298952
0.01392284
0.013558463
0.013205698
0.012864418
0.012534493
0.012215799
0.011908212
0.01161161
0.011325877
0.011050901
0.010786571
0.010532785
0.010289442
0.010056449
0.0098337141
0.0096211542
0.0094186894
0.0092262453
0.0090437526
0.0088711474
0.0087083709
0.0085553695
0.0084120949
0.0082785042
0.0081545594
0.0080402282
0.0079354833
0.0078403025
0.0077546693
0.0076785722
0.0076120051
0.0075549673
0.0075074639
0.0074695052
0.0074411033
0.0074222651
0.0074129279
0.015496952
0.015085142
0.014685383
0.014297555
0.013921565
0.0135573
0.01320464
0.012863459
0.012533629
0.012215025
0.011907523
0.011611004
0.01132535
0.011050449
0.010786192
0.010532475
0.010289199
0.010056269
0.0098335948
0.0096210926
0.0094186827
0.0092262907
0.0090438474
0.0088712887
0.008708556
0.0085555957
0.0084123595
0.0082788044
0.0081548925
0.0080405915
0.007935874
0.007840718
0.0077551067
0.0076790287
0.007612478
0.0075554538
0.0075079611
0.0074700104
0.0074416121
0.0074227605
0.0074134128
0.015918253
0.015494365
0.015082743
0.01468315
0.014295477
0.013919631
0.013555503
0.013202973
0.012861915
0.012532203
0.012213712
0.011906319
0.011609904
0.01132435
0.011049544
0.010785379
0.010531749
0.010288557
0.010055706
0.0098331087
0.0096206791
0.0094183382
0.0092260116
0.0090436301
0.0088711298
0.0087084519
0.0085555429
0.0084123546
0.008278844
0.0081549732
0.0080407097
0.0079360263
0.0078409009
0.0077553169
0.0076792627
0.0076127321
0.0075557246
0.0075082452
0.0074703044
0.0074419121
0.0074230491
0.0074136861
0.015915024
0.015491246
0.015079791
0.014680364
0.014292855
0.013917167
0.013553191
0.013200806
0.012859887
0.012530309
0.012211946
0.011904676
0.011608379
0.011322938
0.011048241
0.010784179
0.010530649
0.010287552
0.010054792
0.0098322808
0.0096199334
0.0094176705
0.0092254178
0.0090431062
0.0088706717
0.0087080557
0.0085552046
0.0084120703
0.0082786096
0.0081547849
0.0080405637
0.0079359186
0.0078408276
0.0077552741
0.0076792465
0.0076127386
0.0075557498
0.007508285
0.0074703552
0.0074419703
0.007423099
0.007413723
0.015911272
0.015487675
0.015076387
0.014677132
0.014289795
0.013914276
0.013550463
0.013198236
0.012857469
0.012528036
0.012209813
0.011902677
0.011606509
0.011321192
0.011046613
0.010782665
0.010529244
0.01028625
0.01005359
0.0098311728
0.0096189152
0.0094167375
0.0092245654
0.00904233
0.0088699673
0.0087074186
0.0085546306
0.0084115549
0.0082781486
0.008154374
0.0080401986
0.0079355951
0.0078405415
0.0077550211
0.0076790223
0.007612539
0.0075555705
0.0075081216
0.0074702034
0.007441826
0.0074229505
0.0074135622
0.015906719
0.015483358
0.015072255
0.014673191
0.014286049
0.013910724
0.013547099
0.013195053
0.012854462
0.012525198
0.012207138
0.011900158
0.01160414
0.011318967
0.011044526
0.01078071
0.010527416
0.010284542
0.010051997
0.0098296897
0.0096175363
0.0094154575
0.009223379
0.0090412319
0.0088689524
0.0087064818
0.0085537667
0.008410759
0.0082774157
0.0081536991
0.0080395767
0.0079350213
0.0078400108
0.0077545286
0.0076785632
0.0076121082
0.007555163
0.0075077325
0.0074698275
0.0074414585
0.0074225812
0.0074131831
0.016337034
0.015901361
0.015478231
0.015067335
0.014668486
0.014281564
0.013906458
0.013543047
0.01319121
0.012850819
0.01252175
0.012203876
0.011897076
0.011601231
0.011316223
0.011041941
0.010778277
0.010525127
0.010282393
0.01004998
0.0098277986
0.0096157648
0.0094137995
0.0092218284
0.0090397827
0.0088675985
0.0087052174
0.008552586
0.0084096561
0.0082763848
0.0081527345
0.0080386728
0.0079341724
0.0078392114
0.0077537729
0.0076778455
0.007611423
0.0075545045
0.007507095
0.0074692049
0.007440845
0.0074219681
0.0074125628
0.016330561
0.015895126
0.015472228
0.015061561
0.014662955
0.014276282
0.013901423
0.013538255
0.013186654
0.012846492
0.012517643
0.012199982
0.011893387
0.011597738
0.011312919
0.011038818
0.010775327
0.010522342
0.010279766
0.010047503
0.0098254654
0.0096135678
0.0094117316
0.0092198826
0.0090379521
0.0088658763
0.0087035969
0.0085510604
0.0084082189
0.0082750295
0.0081514545
0.0080374616
0.0079330236
0.0078381185
0.0077527296
0.0076768455
0.0076104597
0.0075535715
0.0075061857
0.0074683127
0.0074399629
0.0074210881
0.0074116777
0.016771368
0.016323093
0.015887922
0.015465273
0.015054867
0.014656534
0.014270141
0.01389556
0.013532667
0.013181332
0.012841428
0.012512828
0.012195407
0.011889043
0.011593616
0.01130901
0.011035114
0.010771818
0.010519021
0.010276623
0.010044531
0.0098226546
0.0096109108
0.0094092203
0.0092175091
0.0090357086
0.0088637552
0.0087015904
0.008549161
0.0084064191
0.0082733219
0.0081498317
0.0080359164
0.0079315487
0.0078367067
0.0077513736
0.0076755381
0.0076091938
0.0075523398
0.0075049808
0.007467127
0.0074387886
0.0074199175
0.0074105039
0.016762376
0.016314533
0.015879654
0.015457288
0.01504718
0.014649157
0.014263077
0.013888809
0.013526222
0.013175186
0.012835571
0.012507251
0.012190101
0.011883996
0.011588819
0.011304452
0.011030785
0.010767709
0.010515122
0.010272925
0.010041023
0.0098193286
0.0096077573
0.0094062303
0.0092146737
0.009033019
0.0088612026
0.0086991663
0.008546857
0.0084042267
0.0082712327
0.0081478376
0.0080340091
0.0079297201
0.0078349487
0.0077496782
0.0076738971
0.0076075992
0.0075507835
0.0075034547
0.0074656226
0.0074372972
0.0074184312
0.007409016
0.017212853
0.016752174
0.016304772
0.015870229
0.015448192
0.015038424
0.01464075
0.014255023
0.013881103
0.013518859
0.013168156
0.012828865
0.012500857
0.012184008
0.011878193
0.011583294
0.011299195
0.011025784
0.010762954
0.010510601
0.010268628
0.010036939
0.0098154476
0.0096040688
0.0094027242
0.00921134
0.0090298479
0.0088581844
0.0086962913
0.0085441158
0.0084016098
0.008268731
0.0081454418
0.00803171
0.0079275087
0.0078328159
0.0077476151
0.0076718947
0.0076056485
0.0075488756
0.0075015805
0.0074637728
0.0074354622
0.007416603
0.0074071874
0.01720072
0.016740647
0.016293707
0.015859555
0.015437899
0.015028518
0.014631238
0.014245904
0.013872374
0.01351051
0.013160178
0.012821246
0.012493586
0.012177071
0.011871579
0.01157699
0.011293188
0.011020063
0.010757505
0.010505413
0.010263687
0.010032236
0.0098109694
0.0095998044
0.0093986623
0.0092074696
0.0090261579
0.0088546641
0.00869293
0.0085409028
0.0083985349
0.0082657837
0.0081426119
0.0080289875
0.0079248833
0.0078302778
0.0077451543
0.0076695013
0.0076033126
0.0075465872
0.0074993296
0.0074615494
0.0074332556
0.0074144046
0.0074049899
0.017659989
0.017187133
0.016727674
0.016281238
0.015847536
0.01542632
0.015017381
0.014620542
0.014235647
0.013862548
0.013501106
0.013151185
0.012812651
0.012485375
0.012169231
0.011864096
0.01156985
0.011286377
0.011013567
0.010751311
0.010499507
0.010258057
0.010026867
0.0098058496
0.0095949211
0.0093940029
0.0092030218
0.0090219096
0.0088506032
0.0086890448
0.0085371817
0.0083949662
0.008262356
0.008139314
0.008025808
0.0079218113
0.0078273021
0.007742264
0.0076666854
0.0076005603
0.0075438876
0.0074966717
0.0074589221
0.0074306476
0.0074118065
0.0074023937
0.017644041
0.017171961
0.01671314
0.016267261
0.015834077
0.015413363
0.015004922
0.014608577
0.01422417
0.013851549
0.013490574
0.013141105
0.01280301
0.012476159
0.012160424
0.011855683
0.011561815
0.011278705
0.011006242
0.010744318
0.010492832
0.010251685
0.010020784
0.0098000413
0.0095893732
0.0093887017
0.0091979536
0.0090170611
0.0088459612
0.0086845962
0.0085329136
0.008390866
0.008258411
0.0081355118
0.0080221362
0.0079182577
0.0078238547
0.0077389105
0.007663414
0.007597359
0.0075407444
0.0074935747
0.0074558593
0.0074276066
0.0074087772
0.0073993673
0.018111186
0.017626356
0.017155066
0.016696929
0.016251673
0.015819077
0.015398933
0.014991051
0.014595256
0.014211388
0.013839296
0.013478834
0.013129865
0.012792253
0.012465868
0.012150583
0.011846274
0.011552822
0.011270111
0.01099803
0.010736472
0.010485335
0.01024452
0.010013937
0.009793495
0.0095831129
0.0093827121
0.00919222
0.0090115685
0.0088406952
0.0086795425
0.008528058
0.0083861945
0.0082539099
0.0081311672
0.0080179349
0.0079141861
0.0078198994
0.0077350585
0.0076596521
0.0075936741
0.0075371235
0.0074900048
0.0074523273
0.0074240992
0.0074052834
0.0073958776
0.018090641
0.017606767
0.017136314
0.016678927
0.016234368
0.015802433
0.015382929
0.014975671
0.014580487
0.014197215
0.013825704
0.013465807
0.013117386
0.012780304
0.012454431
0.012139639
0.011835804
0.011542807
0.011260533
0.01098887
0.010727712
0.010476957
0.010236507
0.010006271
0.009786159
0.0095760898
0.0093759855
0.0091857733
0.0090053857
0.0088347603
0.0086738398
0.008522572
0.0083809099
0.0082488116
0.0081262404
0.0080131646
0.0079095578
0.0078153985
0.0077306706
0.0076553629
0.0075894693
0.007532989
0.0074859264
0.0074482908
0.0074200904
0.0074012903
0.0073918898
0.018067939
0.017585121
0.017115579
0.016659019
0.016215235
0.01578404
0.015365249
0.014958683
0.014564173
0.014181558
0.013810685
0.013451408
0.013103586
0.012767084
0.012441771
0.012127517
0.0118242
0.011531701
0.011249904
0.010978698
0.010717977
0.01046764
0.010227588
0.0099977303
0.0097779789
0.0095682514
0.0093684705
0.0091785639
0.0089984642
0.0088281093
0.0086674422
0.0085164109
0.0083749685
0.0082430735
0.0081206893
0.0080077843
0.0079043323
0.0078103122
0.0077257076
0.0076505077
0.0075847064
0.0075283031
0.0074813022
0.0074437129
0.0074155435
0.0073967612
0.0073873671
0.018042967
0.017561293
0.017092738
0.016637087
0.016194161
0.015763785
0.015345784
0.014939983
0.014546215
0.01416432
0.013794146
0.013435547
0.013088381
0.012752512
0.012427808
0.012114142
0.01181139
0.011519433
0.011238156
0.010967448
0.010707204
0.010457321
0.010217703
0.0099882573
0.009768898
0.0095595425
0.0093601138
0.0091705397
0.0089907534
0.008820693
0.0086603016
0.0085095276
0.0083683245
0.0082366507
0.0081144699
0.0080017509
0.0078984676
0.0078045988
0.0077201286
0.0076450462
0.0075793457
0.0075230264
0.007476093
0.0074385547
0.0074104197
0.0073916577
0.0073822713
0.018509415
0.018015665
0.017535163
0.017067667
0.016613008
0.016171027
0.015741555
0.015324423
0.014919463
0.014526509
0.014145403
0.013775993
0.013418132
0.013071681
0.012736501
0.012412461
0.012099435
0.011797297
0.01150593
0.011225218
0.010955051
0.010695324
0.010445935
0.010206788
0.0099777907
0.0097588573
0.0095499058
0.0093508595
0.0091616467
0.0089822007
0.0088124599
0.008652368
0.0085018734
0.0083609299
0.0082294964
0.0081075366
0.0079950195
0.0078919193
0.007798215
0.0077138909
0.0076389363
0.0075733454
0.0075171177
0.0074702581
0.0074327758
0.007404679
0.0073859398
0.0073765625
0.018478339
0.017985892
0.017506597
0.017040237
0.016586659
0.01614571
0.015717229
0.015301052
0.014897012
0.014504948
0.014124702
0.013756125
0.013399069
0.013053393
0.012718963
0.012395645
0.012083312
0.011781841
0.011491113
0.011211015
0.010941435
0.010682269
0.010433415
0.010194778
0.0099662671
0.0097477954
0.0095392818
0.0093406499
0.0091518284
0.0089727511
0.0088033568
0.0086435892
0.0084933974
0.0083527353
0.0082215619
0.0080998416
0.0079875434
0.0078846417
0.0077911158
0.0077069501
0.007632134
0.0075666622
0.0075105342
0.007463755
0.007426334
0.0073982795
0.0073795658
0.007370199
0.019467387
0.018949078
0.018444576
0.017953474
0.01747545
0.017010311
0.016557906
0.016118084
0.015690686
0.01527555
0.014872515
0.01448142
0.014102112
0.013734439
0.013378257
0.013033424
0.012699806
0.012377269
0.012065688
0.011764939
0.011474904
0.011195469
0.010926525
0.010667965
0.010419691
0.010181607
0.0099536211
0.0097356487
0.0095276086
0.0093294249
0.0091410266
0.008962348
0.0087933282
0.0086339114
0.0084840469
0.0083436889
0.008212797
0.0080913356
0.0079792741
0.0078765871
0.0077832542
0.0076992599
0.0076245941
0.0075592514
0.0075032316
0.0074565399
0.0074191858
0.0073911778
0.0073724924
0.0073631376
0.019957856
0.019427509
0.018910899
0.01840792
0.017918231
0.017441567
0.016977747
0.016526615
0.016088017
0.015661797
0.015247795
0.014845853
0.014455812
0.014077521
0.01371083
0.013355595
0.013011675
0.012678935
0.012357244
0.012046475
0.011746507
0.01145722
0.011178502
0.010910244
0.01065234
0.010404691
0.010167203
0.009939785
0.0097223515
0.0095148225
0.0093171224
0.0091291809
0.0089509326
0.0087823169
0.0086232786
0.0084737673
0.0083337377
0.0082031495
0.0080819675
0.0079701615
0.0078677064
0.0077745819
0.0076907729
0.0076162694
0.0075510664
0.0074951638
0.0074485671
0.0074112859
0.007383329
0.007364675
0.0073553339
0.019912841
0.019384353
0.018869514
0.018368148
0.017879982
0.017404791
0.016942398
0.016492644
0.016055374
0.015630432
0.015217661
0.014816904
0.014428007
0.014050818
0.013685189
0.013330977
0.012988043
0.012656253
0.012335475
0.012025583
0.011726457
0.011437977
0.011160032
0.010892513
0.010635316
0.010388342
0.010151496
0.009924689
0.0097078363
0.0095008578
0.0093036788
0.0091162293
0.0089384444
0.0087702641
0.0086116335
0.0084625027
0.0083228267
0.0081925657
0.0080716848
0.0079601541
0.0078579488
0.007765049
0.0076814399
0.0076071117
0.0075420595
0.0074862837
0.0074397899
0.007402588
0.0073746869
0.0073560676
0.0073467417
0.01986414
0.019337644
0.018824682
0.018325061
0.017838553
0.017364961
0.016904113
0.01645585
0.016020017
0.015596459
0.01518502
0.014785546
0.014397884
0.014021886
0.013657404
0.013304297
0.012962427
0.01263166
0.012311866
0.012002919
0.011704699
0.011417088
0.011139975
0.010873252
0.010616815
0.010370566
0.010134411
0.0099082619
0.0096920337
0.0094856473
0.0092890286
0.0091021082
0.0089248216
0.0087571094
0.0085989171
0.0084501954
0.0083108997
0.0081809906
0.0080604335
0.007949199
0.0078472625
0.0077546046
0.0076712106
0.0075970711
0.0075321816
0.0074765426
0.0074301601
0.0073930441
0.007365204
0.0073466228
0.007337314
0.01981153
0.019287161
0.018776209
0.018278479
0.017793773
0.017321914
0.016862737
0.016416085
0.015981804
0.01555974
0.015149739
0.01475165
0.014365322
0.013990607
0.013627362
0.013275446
0.012934721
0.012605054
0.012286318
0.011978387
0.011681141
0.011394465
0.011118246
0.010852377
0.010596757
0.010351287
0.010115874
0.0098904308
0.009674873
0.0094691223
0.009273105
0.0090867525
0.0089100007
0.008742791
0.0085850693
0.0084367868
0.0082978993
0.0081683679
0.0080481585
0.007937242
0.0078355943
0.0077431962
0.0076600335
0.007586097
0.0075213825
0.007465891
0.0074196286
0.0073826057
0.0073548319
0.0073362924
0.0073270027
0.019754814
0.019232713
0.018723916
0.01822823
0.017745476
0.01727549
0.016818116
0.016373202
0.015940593
0.015520138
0.015111687
0.014715089
0.014330196
0.013956864
0.013594948
0.013244311
0.012904817
0.012576333
0.012258733
0.011951893
0.011655692
0.011370017
0.011094757
0.010829805
0.01057506
0.010330425
0.010095808
0.0098711216
0.0096562824
0.0094512129
0.0092558402
0.0090700962
0.0088939177
0.0087272464
0.0085700289
0.008422217
0.008283767
0.0081546405
0.0080348038
0.0079242283
0.0078228903
0.0077307709
0.0076478564
0.0075741378
0.0075096115
0.0074542785
0.0074081455
0.0073712231
0.0073435212
0.0073250273
0.0073157585
0.019693806
0.019174122
0.018667631
0.018174144
0.017693493
0.017225527
0.016770095
0.016327049
0.015896238
0.015477514
0.015070728
0.014675733
0.014292383
0.013920534
0.013560047
0.013210783
0.012872608
0.012545393
0.01222901
0.011923338
0.011628257
0.011343655
0.011069422
0.010805451
0.010551644
0.010307903
0.010074137
0.0098502597
0.0096361893
0.0094318487
0.0092371656
0.0090520727
0.0088765074
0.0087104121
0.0085537342
0.0084064257
0.0082684439
0.0081397506
0.0080203128
0.0079101023
0.0078090958
0.0077172749
0.0076346263
0.0075611414
0.0074968168
0.0074416542
0.0073956603
0.0073588462
0.0073312222
0.0073127778
0.0073035322
0.019628319
0.019111208
0.018607181
0.018116053
0.017637662
0.017171865
0.016718518
0.016277478
0.015848597
0.01543173
0.01502673
0.014633454
0.014251757
0.013881499
0.013522541
0.013174748
0.012837986
0.012512128
0.012197048
0.011892626
0.011598743
0.011315288
0.011042152
0.010779231
0.010526424
0.010283638
0.010050782
0.00982777
0.0096145211
0.009410959
0.0092170125
0.009032615
0.0088577047
0.0086922247
0.008536123
0.0083893525
0.0082518707
0.0081236403
0.0080046287
0.0078948083
0.0077941561
0.0077026545
0.0076202902
0.0075470554
0.0074829469
0.0074279668
0.0073821223
0.0073454247
0.0073178849
0.0072994942
0.0072902738
0.019558169
0.019043794
0.018542396
0.018053789
0.017577818
0.017114345
0.016663232
0.01622434
0.015797526
0.015382647
0.01497956
0.014588123
0.014208196
0.013839639
0.013482317
0.013136096
0.012800844
0.012476436
0.012162748
0.01185966
0.011567056
0.011284825
0.011012861
0.010751058
0.010499321
0.010257554
0.010025668
0.0098035781
0.0095912051
0.0093884734
0.0091953125
0.0090116565
0.0088374447
0.0086726209
0.0085171337
0.0083709368
0.0082339884
0.0081062517
0.0079876948
0.0078782906
0.0077780167
0.0076868557
0.0076047952
0.0075318276
0.0074679502
0.0074131654
0.0073674809
0.0073309084
0.0073034592
0.0072851267
0.0072759339
0.019483172
0.018971706
0.018473107
0.017987189
0.017513802
0.017052812
0.016604087
0.016167491
0.015742885
0.01533013
0.014929086
0.014539615
0.014161577
0.013794837
0.013439261
0.013094717
0.012761077
0.012438215
0.012126011
0.011824345
0.011533105
0.011252179
0.010981461
0.010720852
0.010470252
0.01022957
0.0099987174
0.0097776103
0.0095661701
0.0093643225
0.0091719978
0.0089891315
0.0088156633
0.0086515381
0.0084967052
0.0083511191
0.0082147387
0.0080875278
0.0079694552
0.0078604943
0.0077606234
0.0076698257
0.007588089
0.0075154064
0.0074517756
0.0073971996
0.0073516863
0.0073152478
0.007287896
0.0072696263
0.0072604634
0.019403149
0.018894772
0.018399148
0.017916093
0.017445459
0.016987116
0.016540937
0.016106789
0.015684539
0.015274049
0.014875183
0.014487806
0.014111782
0.013746978
0.013393262
0.013050505
0.012718581
0.012397366
0.012086741
0.011786589
0.011496799
0.011217261
0.010947871
0.010688529
0.01043914
0.010199612
0.0099698575
0.0097497949
0.0095393462
0.0093384384
0.0091470028
0.0089649757
0.008792298
0.0086289153
0.008474778
0.0083298412
0.0081940646
0.0080674128
0.0079498552
0.0078413659
0.0077419238
0.0076515125
0.0075701206
0.0074977415
0.0074343736
0.0073800201
0.0073346895
0.0072983944
0.0072711471
0.0072529449
0.0072438144
0.019317927
0.018812826
0.01832036
0.017840347
0.01737264
0.016917113
0.016473642
0.0160421
0.015622356
0.015214276
0.014817728
0.01443258
0.014058698
0.013695953
0.013344215
0.013003358
0.012673258
0.012353793
0.012044846
0.011746303
0.011458053
0.011179989
0.010912008
0.010654013
0.010405909
0.010167605
0.0099390169
0.0097200628
0.0095106665
0.0093107559
0.0091202638
0.0089391273
0.0087672885
0.0086046939
0.0084512947
0.008307047
0.0081719113
0.0080458531
0.0079288422
0.0078208537
0.0077218669
0.0076318662
0.0075508407
0.0074787843
0.007415696
0.0073615794
0.0073164436
0.0072803015
0.007253166
0.0072350363
0.0072259407
0.019227343
0.018725713
0.018236595
0.017759807
0.017295205
0.016842667
0.016402073
0.015973297
0.015556214
0.015150694
0.014756608
0.014373826
0.014002219
0.01364166
0.013292022
0.012953181
0.012625015
0.012307407
0.01200024
0.011703402
0.011416785
0.011140284
0.010873798
0.01061723
0.010370487
0.010133481
0.0099061283
0.0096883487
0.0094800673
0.0092812134
0.0090917208
0.0089115279
0.0087405778
0.0085788181
0.008426201
0.0082826834
0.0081482269
0.0080227976
0.0079063663
0.0077989085
0.0077004046
0.0076108393
0.0075302026
0.0074584887
0.0073956973
0.0073418326
0.0072969039
0.0072609248
0.0072339086
0.0072158565
0.0072067986
0.019131249
0.01863329
0.018147713
0.01767434
0.017213027
0.016763655
0.016326108
0.015900265
0.015486003
0.015083196
0.014691718
0.014311444
0.013942247
0.013584004
0.013236589
0.012899884
0.012573768
0.012258125
0.011952842
0.01165781
0.011372922
0.011098074
0.010833169
0.010578111
0.010332809
0.010097176
0.0098711296
0.0096545924
0.0094474902
0.0092497538
0.0090613183
0.0088821233
0.0087121131
0.0085512364
0.0083994465
0.0082567013
0.0081229632
0.0079981992
0.0078823811
0.0077754851
0.0076774922
0.007588388
0.0075081629
0.0074368121
0.0073743353
0.0073207377
0.007276029
0.0072402231
0.0072133342
0.007195365
0.0071863474
0.01902951
0.018535428
0.018053594
0.017583828
0.017125991
0.016679967
0.016245642
0.0158229
0.015411621
0.015011684
0.014622965
0.014245343
0.013878695
0.0135229
0.013177837
0.012843389
0.012519439
0.012205874
0.011902583
0.011609458
0.011326396
0.011053295
0.01079006
0.010536596
0.010292815
0.010058632
0.0098339655
0.0096187399
0.0094128827
0.009216326
0.0090290065
0.008850865
0.0086818471
0.0085219027
0.0083709861
0.0082290564
0.0080960769
0.0079720156
0.0078568451
0.0077505426
0.0076530897
0.0075644727
0.0074846829
0.0074137158
0.0073515721
0.0072982573
0.0072537816
0.0072181596
0.0071914058
0.007173525
0.0071645505
0.018922016
0.018432022
0.017954133
0.017488172
0.017034002
0.016591511
0.016160587
0.015741117
0.015332987
0.014936078
0.014550271
0.014175448
0.01381149
0.013458278
0.013115697
0.01278363
0.012461965
0.012150591
0.0118494
0.011558287
0.01127715
0.011005892
0.010744416
0.010492633
0.010250456
0.0100178
0.0097945884
0.009580745
0.0093761998
0.0091808864
0.0089947428
0.0088177115
0.0086497392
0.0084907772
0.008340781
0.0081997107
0.0080675308
0.0079442103
0.0078297226
0.0077240457
0.0076271623
0.0075390594
0.0074597287
0.0073891668
0.0073273749
0.0072743588
0.0072301297
0.0071947022
0.0071680918
0.0071503048
0.0071413764
0.01880868
0.018322987
0.017849251
0.017387296
0.016936987
0.016498215
0.016070872
0.01565485
0.015250035
0.014856316
0.014473576
0.0141017
0.013740575
0.013390084
0.013050115
0.012720555
0.012401296
0.012092228
0.011793248
0.011504252
0.011225141
0.01095582
0.010696197
0.010446182
0.010205691
0.0099746432
0.0097529608
0.0095405714
0.009337406
0.0091434001
0.0089584934
0.0087826297
0.0086157572
0.0084578284
0.0083088003
0.008168634
0.0080372952
0.007914754
0.0078009847
0.0076959664
0.0075996824
0.0075121206
0.0074332736
0.0073631385
0.0073017172
0.0072490163
0.0072050472
0.0071698253
0.0071433667
0.0071256792
0.0071167996
0.018689443
0.01820827
0.017738896
0.01728115
0.016834898
0.016400035
0.015976455
0.015564055
0.015162725
0.014772357
0.01439284
0.014024062
0.013665913
0.01331828
0.012981056
0.012654131
0.012337398
0.012030753
0.011734094
0.011447321
0.011170338
0.010903052
0.010645374
0.010397215
0.010158495
0.009929134
0.0097090573
0.0094981939
0.0092964769
0.0091038434
0.0089202348
0.0087455966
0.0085798784
0.0084230342
0.0082750223
0.008135805
0.0080053493
0.0078836263
0.0077706115
0.0076662847
0.0075706303
0.0074836372
0.0074052985
0.0073356121
0.0072745806
0.0072222113
0.007178516
0.0071435108
0.0071172123
0.0070996301
0.0070908023
0.018564285
0.01808785
0.017623051
0.017169718
0.01672772
0.016296954
0.015877321
0.015468717
0.015071042
0.014684188
0.014308049
0.013942519
0.013587489
0.013242854
0.012908507
0.012584342
0.012270258
0.011966152
0.011671926
0.011387483
0.01111273
0.010847576
0.010591934
0.01034572
0.010108855
0.0098812613
0.0096628664
0.0094536013
0.0092534013
0.0090622052
0.0088799562
0.0087066015
0.0085420923
0.0083863842
0.0082394366
0.0081012135
0.0079716829
0.0078508171
0.0077385927
0.0076349908
0.0075399964
0.0074535993
0.0073757936
0.0073065779
0.0072459555
0.0071939343
0.0071505268
0.0071157494
0.0070896195
0.0070721482
0.0070633752
0.018433225
0.017961749
0.017501737
0.017053022
0.016615474
0.016188995
0.015773488
0.015368857
0.014975002
0.014591824
0.014219219
0.013857085
0.013505319
0.013163817
0.012832479
0.012511202
0.012199886
0.011898435
0.011606753
0.011324745
0.011052323
0.010789397
0.010535885
0.010291704
0.010056777
0.0098310304
0.009614393
0.0094067983
0.0092081835
0.0090184895
0.0088376613
0.0086656478
0.008502402
0.008347881
0.0082020458
0.0080648617
0.0079362981
0.0078163284
0.0077049305
0.0076020863
0.0075077821
0.0074220085
0.0073447605
0.0072760375
0.0072158433
0.0071641867
0.0071210807
0.0070865423
0.0070605894
0.0070432348
0.0070345195
0.018296332
0.017830034
0.017375021
0.016931126
0.016498223
0.016076217
0.015665016
0.015264529
0.014874661
0.014495317
0.014126398
0.013767808
0.013419445
0.013081213
0.012753013
0.012434747
0.012126321
0.011827638
0.011538608
0.011259141
0.010989149
0.010728547
0.010477255
0.010235194
0.010002288
0.0097784667
0.0095636616
0.0093578082
0.0091608459
0.0089727177
0.0087933706
0.0086227553
0.0084608267
0.0083075433
0.0081628678
0.008026767
0.0078992116
0.0077801764
0.0076696403
0.0075675866
0.0074740024
0.0073888794
0.0073122134
0.0072440046
0.0071842578
0.007132982
0.0070901912
0.0070559028
0.0070301353
0.0070129031
0.0070042483
0.018153726
0.017692828
0.017243026
0.016804151
0.016376082
0.015958731
0.01555201
0.015155834
0.014770114
0.014394759
0.014029676
0.013674771
0.01332995
0.012995119
0.012670184
0.012355052
0.012049629
0.011753827
0.011467557
0.011190731
0.010923267
0.010665082
0.010416099
0.010176241
0.0099454376
0.0097236185
0.0095107185
0.0093066757
0.0091114316
0.0089249316
0.0087471244
0.008577963
0.0084174038
0.0082654074
0.0081219379
0.0079869636
0.0078604567
0.0077423934
0.0076327539
0.0075315225
0.0074386876
0.0073542416
0.0072781814
0.0072105081
0.007151227
0.0071003482
0.0070578858
0.0070238582
0.0069982844
0.0069811801
0.0069725888
0.018005594
0.017550318
0.017105935
0.016672274
0.016249223
0.0158367
0.015434627
0.015042923
0.014661506
0.014290288
0.013929184
0.013578103
0.013236956
0.012905654
0.012584105
0.012272223
0.011969917
0.011677103
0.011393694
0.011119609
0.010854766
0.010599088
0.010352499
0.010114927
0.0098863029
0.00966656
0.0094556356
0.0092534702
0.0090600077
0.0088751958
0.0086989854
0.0085313314
0.0083721923
0.0082215302
0.0080793113
0.0079455053
0.0078200859
0.0077030306
0.0075943211
0.0074939428
0.0074018852
0.0073181418
0.0072427105
0.007175593
0.0071167957
0.0070663292
0.0070242084
0.0069904519
0.0069650797
0.0069481086
0.0069395835
0.0178522
0.017402773
0.016964012
0.016535745
0.016117881
0.01571035
0.015313082
0.014926002
0.014549034
0.014182096
0.013825106
0.01347798
0.013140632
0.012812979
0.012494933
0.012186411
0.011887329
0.011597604
0.011317155
0.011045903
0.010783771
0.010530685
0.010286572
0.010051363
0.0098249918
0.0096073954
0.0093985133
0.0091982887
0.009006668
0.0088236011
0.0086490414
0.0084829458
0.0083252747
0.0081759922
0.0080350661
0.007902468
0.007778173
0.0076621602
0.0075544124
0.0074549165
0.0073636629
0.0072806465
0.0072058658
0.0071393237
0.0070810272
0.0070309877
0.0069892207
0.0069557454
0.0069305823
0.0069137497
0.0069052935
0.017693942
0.017250581
0.016817608
0.016394892
0.015982368
0.015579977
0.015187658
0.014805343
0.014432959
0.014070431
0.013717681
0.013374631
0.0130412
0.012717308
0.012402873
0.012097816
0.011802056
0.011515515
0.011238116
0.010969785
0.010710447
0.010460031
0.01021847
0.0099856958
0.0097616468
0.0095462621
0.0093394844
0.0091412596
0.0089515367
0.008770268
0.0085974091
0.0084329191
0.0082767607
0.0081288998
0.007989306
0.0078579526
0.0077348164
0.007619878
0.0075131216
0.0074145352
0.0073241106
0.0072418438
0.0071677342
0.0071017856
0.0070440059
0.0069944071
0.0069530054
0.0069198206
0.0068948737
0.0068781844
0.0068697995
0.01797894
0.017531446
0.017094249
0.016667166
0.016250123
0.015843068
0.015445949
0.015058709
0.014681284
0.014313607
0.013955608
0.013607214
0.01326835
0.012938942
0.012618912
0.012308186
0.012006687
0.011714339
0.011431069
0.011156803
0.01089147
0.010635001
0.010387329
0.010148387
0.0099181136
0.0096964487
0.0094833351
0.0092787182
0.0090825466
0.0088947722
0.0087153496
0.0085442369
0.0083813956
0.0082267902
0.0080803889
0.0079421631
0.0078120879
0.0076901417
0.0075763066
0.0074705683
0.0073729162
0.0072833433
0.0072018465
0.0071284266
0.007063088
0.0070058396
0.006956694
0.0069156681
0.0068827822
0.0068580581
0.0068415164
0.006833205
0.018257474
0.017806276
0.017365279
0.016934281
0.016513181
0.016101919
0.015700448
0.015308717
0.014926669
0.014554245
0.014191383
0.013838016
0.013494077
0.013159496
0.012834203
0.012518126
0.012211193
0.011913334
0.011624477
0.011344553
0.011073492
0.010811227
0.010557693
0.010312826
0.010076564
0.0098488481
0.0096296218
0.0094188308
0.0092164238
0.0090223521
0.0088365704
0.0086590358
0.008489709
0.0083285537
0.0081755367
0.0080306281
0.0078938015
0.0077650335
0.0076443045
0.0075315981
0.0074269014
0.0073302051
0.0072415037
0.007160795
0.0070880808
0.0070233667
0.0069666622
0.0069179808