/*--------------------------------*- C++ -*----------------------------------*\
| =========                 |                                                 |
| \\      /  F ield         | OpenFOAM: The Open Source CFD Toolbox           |
|  \\    /   O peration     | Version:  2312                                  |
|   \\  /    A nd           | Website:  www.openfoam.com                      |
|    \\/     M anipulation  |                                                 |
\*---------------------------------------------------------------------------*/
FoamFile
{
    version     2.0;
    format      ascii;
    arch        "LSB;label=32;scalar=64";
    class       volScalarField;
    location    "0.1";
    object      CO2;
}
// * * * * * * * * * * * * * * * * * * * * * * * * * * * * * * * * * * * * * //

dimensions      [0 0 0 0 0 0 0];

internalField   nonuniform List<scalar> 
3224
(
0.0078542633
0.0076854902
0.0075207422
0.0073600341
0.0072033775
0.0070507819
0.0069022559
0.0067578072
0.0066174434
0.0064811715
0.0063489988
0.0062209328
0.0060969809
0.005977151
0.0058614512
0.00574989
0.0056424762
0.005539219
0.005440128
0.0053452133
0.0052544853
0.0051679546
0.0050856324
0.0050075302
0.0049336599
0.0048640337
0.004798664
0.0047375638
0.0046807463
0.0046282249
0.0045800134
0.0045361262
0.0044965776
0.0044613825
0.0044305563
0.0044041144
0.0043820732
0.0043644489
0.0043512583
0.004342515
0.0043382778
0.007853986
0.0076852648
0.0075205571
0.0073598831
0.0072032574
0.0070506911
0.0069021931
0.0067577717
0.0066174344
0.0064811886
0.0063490415
0.0062210004
0.0060970731
0.0059772672
0.0058615909
0.0057500526
0.0056426612
0.0055394259
0.0054403561
0.005345462
0.0052547538
0.0051682423
0.0050859385
0.005007854
0.0049340005
0.0048643902
0.0047990357
0.0047379497
0.0046811454
0.0046286364
0.0045804363
0.0045365594
0.0044970202
0.0044618334
0.0044310144
0.0044045788
0.0043825426
0.0043649224
0.0043517348
0.0043429906
0.0043387231
0.0078533013
0.0076846453
0.0075199891
0.0073593612
0.0072027786
0.0070502534
0.0069017953
0.0067574125
0.0066171129
0.0064809037
0.0063487925
0.0062207864
0.0060968932
0.0059771206
0.0058614767
0.0057499699
0.0056426091
0.0055394034
0.0054403623
0.0053454958
0.0052548142
0.0051683282
0.0050860489
0.0050079877
0.0049341564
0.0048645671
0.0047992323
0.0047381649
0.0046813779
0.0046288848
0.0045806994
0.0045368359
0.0044973086
0.0044621325
0.0044313226
0.0044048948
0.004382865
0.0043652498
0.0043520665
0.0043433249
0.0043390222
0.0078522099
0.0076836286
0.0075190341
0.0073584635
0.0072019355
0.007049463
0.0069010559
0.0067567227
0.0066164714
0.0064803093
0.0063482438
0.0062202824
0.0060964326
0.0059767021
0.0058610992
0.0057496321
0.0056423097
0.0055391411
0.0054401358
0.0053453037
0.0052546552
0.0051682008
0.0050859517
0.0050079193
0.0049341152
0.0048645517
0.0047992412
0.0047381964
0.0046814305
0.0046289569
0.0045807893
0.0045369419
0.0044974291
0.0044622657
0.0044314669
0.0044050484
0.0043830261
0.0043654168
0.0043522382
0.004343502
0.0043391676
0.0080232002
0.0078507307
0.0076822151
0.0075176905
0.0073571879
0.0072007259
0.0070483172
0.0068999722
0.0067556994
0.0066155068
0.0064794019
0.006347392
0.0062194846
0.0060956872
0.0059760076
0.005860454
0.0057490346
0.0056417582
0.005538634
0.0054396715
0.0053448805
0.0052542713
0.0051678546
0.0050856413
0.0050076429
0.0049338711
0.004864338
0.004799056
0.0047380378
0.0046812966
0.0046288458
0.0045806991
0.0045368706
0.0044973747
0.0044622262
0.0044314403
0.0044050325
0.0043830189
0.0043654163
0.0043522426
0.0043435126
0.0043391542
0.0080213957
0.0078489551
0.0076805076
0.0075160577
0.0073556294
0.0071992399
0.007046902
0.0068986258
0.00675442
0.0066142925
0.0064782509
0.0063463026
0.0062184549
0.0060947154
0.005975092
0.0058595926
0.0057482256
0.0056409999
0.0055379244
0.0054390086
0.0053442625
0.0052536963
0.0051673206
0.0050851464
0.005007185
0.0049334482
0.0048639481
0.004798697
0.0047377078
0.0046809933
0.0046285672
0.004580443
0.0045366348
0.0044971571
0.0044620246
0.0044312524
0.0044048562
0.0043828519
0.0043652562
0.0043520873
0.0043433636
0.0043389895
0.0080193086
0.0078469381
0.0076785654
0.0075141948
0.0073538459
0.0071975344
0.0070452727
0.0068970707
0.0067529372
0.00661288
0.0064769067
0.0063450247
0.0062172413
0.0060935641
0.005974001
0.0058585599
0.0057472492
0.0056400776
0.0055370543
0.0054381887
0.0053434906
0.0052529702
0.0051666383
0.0050845057
0.0050065838
0.0049328843
0.0048634193
0.0047982011
0.0047372425
0.0046805564
0.0046281564
0.0045800561
0.0045362695
0.004496811
0.0044616954
0.0044309378
0.0044045537
0.0043825592
0.0043649707
0.0043518063
0.0043430866
0.0043387028
0.0080167944
0.0078445198
0.0076762351
0.0075119554
0.0073516973
0.0071954754
0.0070433013
0.0068951847
0.0067511344
0.006611158
0.0064752633
0.0063434574
0.006215748
0.0060921423
0.0059726484
0.0058572741
0.0057460278
0.0056389183
0.0055359546
0.0054371462
0.0053425029
0.005252035
0.0051657529
0.0050836678
0.0050057908
0.0049321337
0.0048627086
0.0047975278
0.0047366039
0.0046799502
0.0046275798
0.0045795065
0.0045357443
0.0044963077
0.0044612112
0.00443047
0.0044040996
0.004382116
0.0043645357
0.0043513763
0.0043426594
0.0043382694
0.008189992
0.0080138475
0.007841671
0.0076734873
0.0075093109
0.0073491562
0.0071930362
0.0070409619
0.0068929428
0.0067489873
0.0066091031
0.0064732979
0.0063415788
0.0062139534
0.0060904292
0.0059710139
0.0058557155
0.0057445424
0.0056375033
0.0055346073
0.0054358637
0.0053412825
0.0052508738
0.0051646481
0.0050826166
0.0050047904
0.0049311812
0.0048618011
0.0047966624
0.0047357778
0.0046791603
0.0046268233
0.0045787805
0.0045350458
0.0044956336
0.0044605586
0.0044298359
0.0044034809
0.0043815096
0.0043639383
0.0043507844
0.0043420697
0.0043376759
0.0081864847
0.0080104259
0.0078383593
0.0076702908
0.0075062315
0.0073461937
0.007190189
0.0070382276
0.0068903186
0.0067464703
0.0066066904
0.0064709864
0.0063393654
0.006211835
0.0060884027
0.0059690761
0.0058538633
0.0057427727
0.0056358129
0.005532993
0.0054343224
0.0053398109
0.0052494688
0.0051633066
0.0050813352
0.005003566
0.0049300105
0.0048606809
0.0047955894
0.0047347487
0.0046781719
0.0046258723
0.0045778635
0.0045341595
0.0044947746
0.0044597236
0.0044290215
0.0044026837
0.0043807261
0.0043631649
0.0043500171
0.0043413045
0.0043369087
0.0083624387
0.0081824364
0.008006491
0.0078345504
0.0076666125
0.0075026854
0.0073427791
0.0071869039
0.0070350694
0.0068872843
0.0067435566
0.0066038938
0.0064683034
0.0063367926
0.0062093688
0.0060860395
0.0059668124
0.0058516955
0.0057406972
0.0056338262
0.0055310915
0.0054325025
0.0053380691
0.0052478014
0.00516171
0.0050798058
0.0050021001
0.0049286045
0.0048593312
0.0047942923
0.0047335006
0.004676969
0.004624711
0.00457674
0.0045330702
0.0044937158
0.0044586915
0.0044280122
0.0044016935
0.004379751
0.0043622011
0.0043490602
0.0043403498
0.0043359532
0.0083576537
0.0081778089
0.0080020034
0.0078302077
0.0076624178
0.0074986391
0.0073388801
0.0071831499
0.0070314573
0.0068838106
0.0067402176
0.0066006857
0.0064652222
0.0063338343
0.0062065295
0.0060833151
0.0059641989
0.005849189
0.0057382936
0.0056315214
0.0055288815
0.0054303833
0.0053360367
0.0052458517
0.0051598389
0.0050780093
0.0050003742
0.0049269452
0.0048577342
0.0047927537
0.0047320162
0.0046755349
0.0046233229
0.0045753939
0.0045317619
0.0044924412
0.0044574464
0.0044267925
0.0044004948
0.0043785692
0.0043610317
0.0043478987
0.0043391908
0.0043347942
0.0085359386
0.0083522323
0.0081725639
0.0079969233
0.0078252932
0.0076576699
0.0074940574
0.0073344627
0.007178894
0.0070273594
0.0068798666
0.0067364234
0.0065970369
0.0064617145
0.0063304632
0.0062032905
0.0060802037
0.0059612106
0.0058463192
0.0057355379
0.0056288753
0.0055263405
0.0054279428
0.0053336922
0.0052435988
0.005157673
0.005075926
0.0049983688
0.0049250133
0.0048558713
0.0047909552
0.0047302777
0.0046738517
0.0046216905
0.0045738078
0.0045302176
0.004490934
0.0044559718
0.0044253458
0.0043990715
0.0043771644
0.0043596406
0.0043465164
0.0043378115
0.0043334157
0.0085296207
0.0083461289
0.0081666599
0.0079912091
0.0078197668
0.0076523305
0.0074889032
0.0073294912
0.0071741016
0.007022742
0.0068754198
0.0067321424
0.006592917
0.0064577506
0.0063266504
0.0061996237
0.006076678
0.0059578209
0.0058430605
0.0057324052
0.0056258635
0.0055234446
0.0054251579
0.0053310132
0.0052410206
0.0051551908
0.0050735346
0.0049960634
0.0049227888
0.0048537227
0.0047888775
0.0047282659
0.0046719008
0.0046197956
0.0045719638
0.0045284194
0.0044891766
0.0044542502
0.0044236549
0.0043974062
0.0043755196
0.004358011
0.0043448966
0.0043361954
0.004331801
0.0087098274
0.0085225558
0.0083392988
0.0081600536
0.007984818
0.0078135869
0.0076463592
0.0074831377
0.0073239279
0.0071687363
0.0070175699
0.006870436
0.0067273416
0.0065882937
0.0064532993
0.0063223656
0.0061954999
0.0060727094
0.0059540021
0.0058393859
0.0057288691
0.0056224604
0.005520169
0.0054220042
0.0053279758
0.0052380941
0.0051523696
0.0050708132
0.0049934362
0.0049202504
0.0048512676
0.0047865002
0.0047259608
0.0046696625
0.0046176185
0.0045698425
0.0045263484
0.0044871504
0.0044522632
0.0044217016
0.0043954809
0.0043736168
0.004356125
0.0043430216
0.0043343249
0.0043299323
0.0087016876
0.008514691
0.0083316945
0.0081526994
0.0079777052
0.00780671
0.007639714
0.0074767201
0.0073177334
0.0071627599
0.0070118063
0.0068648795
0.0067219862
0.0065831334
0.006448328
0.0063175771
0.006190888
0.006068268
0.005949725
0.0058352668
0.005724902
0.0056186392
0.0055164874
0.0054184561
0.0053245552
0.0052347948
0.0051491856
0.0050677384
0.0049904646
0.0049173759
0.0048484841
0.0047838018
0.0047233414
0.0046671161
0.0046151391
0.004567424
0.0045239848
0.0044848358
0.0044499914
0.0044194666
0.0043932767
0.0043714371
0.0043539638
0.0043408726
0.0043321812
0.004327791
0.0088833711
0.0086926728
0.0085059753
0.008323267
0.0081445494
0.0079698238
0.0077990904
0.0076323507
0.0074696078
0.0073108665
0.0071561327
0.0070054125
0.0068587127
0.0067160398
0.0065774008
0.0064428024
0.0063122516
0.0061857558
0.0060633224
0.005944959
0.0058306738
0.005720475
0.0056143715
0.0055123723
0.0054144869
0.0053207252
0.0052310973
0.0051456139
0.005064286
0.0049871247
0.0049141419
0.0048453495
0.0047807598
0.0047203856
0.0046642399
0.0046123359
0.0045646872
0.0045213079
0.0044822121
0.0044474145
0.0044169299
0.0043907735
0.0043689609
0.0043515079
0.0043384303
0.0043297451
0.0043253577
0.0088730786
0.0086827226
0.0084963552
0.0083139647
0.0081355538
0.0079611253
0.007790681
0.0076242235
0.0074617563
0.0073032842
0.0071488128
0.0069983481
0.0068518965
0.0067094645
0.006571059
0.0064366866
0.0063063544
0.0061800695
0.0060578396
0.0059396722
0.0058255755
0.0057155578
0.005609628
0.0055077951
0.0054100687
0.0053164585
0.0052269749
0.0051416285
0.0050604303
0.0049833915
0.0049105239
0.0048418396
0.0047773508
0.0047170703
0.0046610111
0.0046091864
0.00456161
0.0045182958
0.004479258
0.0044445112
0.0044140704
0.0043879505
0.0043661673
0.0043487365
0.0043356739
0.004326996
0.004322612
0.0088617421
0.0086717785
0.0084857754
0.0083037342
0.0081256606
0.0079515589
0.0077814325
0.0076152846
0.0074531194
0.0072949417
0.0071407568
0.0069905709
0.00684439
0.0067022207
0.0065640695
0.0064299433
0.006299849
0.0061737939
0.0060517854
0.0059338312
0.0058199396
0.0057101189
0.0056043779
0.0055027258
0.005405172
0.0053117266
0.0052223997
0.0051372021
0.0050561447
0.0049792389
0.0049064965
0.0048379294
0.0047735501
0.0047133713
0.0046574059
0.0046056674
0.0045581694
0.0045149258
0.004475951
0.0044412594
0.004410866
0.0043847859
0.0043630347
0.0043456282
0.0043325822
0.0043239126
0.0043195325
0.0088493168
0.0086597839
0.0084741791
0.00829252
0.0081148157
0.0079410721
0.0077712936
0.0076054844
0.0074436489
0.0072857921
0.0071319196
0.006982037
0.0068361507
0.006694267
0.0065563923
0.0064225336
0.0062926978
0.0061668921
0.0060451241
0.0059274014
0.0058137323
0.0057041253
0.0055985891
0.005497133
0.0053997665
0.0053064996
0.0052173427
0.0051323063
0.0050514015
0.0049746398
0.0049020329
0.0048335929
0.0047693321
0.0047092633
0.0046533997
0.0046017544
0.0045543413
0.0045111742
0.0044722675
0.0044376357
0.0044072938
0.0043812569
0.0043595405
0.0043421605
0.0043291328
0.0043204726
0.004316097
0.009028746
0.0088357697
0.0086466818
0.0084615076
0.0082802646
0.0081029631
0.0079296102
0.0077602113
0.0075947712
0.0074332948
0.0072757872
0.0071222541
0.0069727011
0.0068271345
0.0066855606
0.0065479859
0.0064144172
0.0062848616
0.0061593262
0.0060378186
0.0059203466
0.0058069186
0.0056975428
0.0055922284
0.0054909844
0.0053938205
0.0053007468
0.0052117736
0.0051269115
0.0050461718
0.0049695659
0.0048971055
0.0048288027
0.0047646701
0.0047047203
0.0046489665
0.004597422
0.0045501006
0.0045070162
0.0044681832
0.0044336161
0.0044033299
0.0043773397
0.0043556612
0.0043383101
0.0043253024
0.0043166528
0.0043122823
0.0090135138
0.0088210198
0.0086324087
0.0084476997
0.0082669082
0.0080900447
0.0079171169
0.0077481308
0.0075830919
0.0074220055
0.0072648769
0.0071117117
0.0069625159
0.0068172956
0.0066760572
0.0065388071
0.0064055522
0.0062762996
0.0061510565
0.0060298305
0.0059126296
0.0057994619
0.0056903361
0.0055852611
0.0054842462
0.0053873012
0.005294436
0.0052056611
0.0051209873
0.0050404257
0.0049639878
0.0048916855
0.0048235308
0.0047595364
0.004699715
0.0046440797
0.0045926439
0.0045454215
0.0045024263
0.0044636728
0.0044291755
0.0043989495
0.00437301
0.0043513724
0.0043340527
0.0043210669
0.0043124293
0.0043080645
0.0093926609
0.0091928284
0.0089969722
0.0088049957
0.0086168981
0.0084326917
0.0082523892
0.0080760005
0.0079035338
0.0077349955
0.0075703916
0.0074097276
0.0072530093
0.0071002424
0.0069514329
0.006806587
0.006665711
0.0065288115
0.0063958955
0.00626697
0.0061420423
0.0060211202
0.0059042116
0.0057913248
0.0056824685
0.0055776517
0.0054768838
0.0053801746
0.0052875341
0.0051989729
0.0051145019
0.0050341321
0.0049578753
0.0048857432
0.0048177481
0.0047539025
0.0046942192
0.0046387116
0.0045873929
0.004540277
0.004497378
0.0044587101
0.0044242882
0.0043941271
0.0043682421
0.0043466489
0.0043293633
0.0043164014
0.0043077771
0.0043034187
0.009576566
0.0093735139
0.0091743232
0.0089790369
0.0087876238
0.0086000812
0.0084164177
0.0082366437
0.0080607688
0.0078888009
0.0077207471
0.0075566136
0.0073964064
0.0072401314
0.0070877945
0.0069394019
0.0067949598
0.0066544748
0.0065179533
0.0063854025
0.0062568295
0.0061322416
0.0060116467
0.0058950529
0.0057824685
0.0056739023
0.0055693634
0.0054688612
0.0053724057
0.005280007
0.0051916757
0.0051074227
0.0050272593
0.0049511971
0.004879248
0.0048114244
0.0047477388
0.0046882041
0.0046328337
0.0045816409
0.0045346396
0.0044918439
0.0044532682
0.0044189273
0.0043888361
0.00436301
0.0043414646
0.004324216
0.0043112801
0.0043026706
0.0042983193
0.0095551723
0.0093528027
0.0091542845
0.0089596288
0.0087688294
0.0085818872
0.0083988098
0.0082196063
0.008044286
0.0078728567
0.0077053259
0.0075417001
0.0073819856
0.0072261886
0.0070743152
0.0069263717
0.0067823645
0.0066423002
0.0065061856
0.0063740277
0.0062458337
0.0061216113
0.0060013682
0.0058851127
0.0057728533
0.0056645988
0.0055603584
0.0054601418
0.0053639587
0.0052718196
0.0051837351
0.0050997162
0.0050197743
0.0049439211
0.0048721685
0.0048045289
0.0047410151
0.0046816399
0.0046264167
0.004575359
0.0045284807
0.004485796
0.0044473194
0.0044130655
0.0043830495
0.0043572868
0.004335793
0.0043185842
0.0043056766
0.0042970835
0.0042927401
0.0095320668
0.0093304393
0.0091326399
0.0089386713
0.0087485377
0.0085622443
0.0083797988
0.0082012102
0.0080264874
0.0078556385
0.007688671
0.0075255919
0.0073664078
0.0072111251
0.0070597503
0.0069122897
0.00676875
0.0066291379
0.0064934603
0.0063617243
0.0062339374
0.0061101072
0.0059902418
0.0058743494
0.0057624386
0.0056545185
0.0055505983
0.0054506878
0.0053547969
0.0052629362
0.0051751163
0.0050913483
0.0050116438
0.0049360145
0.0048644724
0.0047970302
0.0047337004
0.0046744961
0.0046194307
0.0045685178
0.0045217714
0.0044792057
0.0044408352
0.0044066748
0.0043767395
0.0043510449
0.0043296066
0.0043124409
0.0042995639
0.0042909888
0.0042866541
0.0095071713
0.0093063415
0.0091093133
0.0089160875
0.0087266734
0.0085410794
0.0083593143
0.0081813872
0.008007307
0.0078370821
0.0076707203
0.0075082288
0.0073496146
0.0071948844
0.0070440449
0.0068971027
0.0067540646
0.0066149375
0.0064797286
0.006348445
0.0062210944
0.0060976847
0.0059782238
0.0058627204
0.0057511831
0.005643621
0.0055400437
0.005440461
0.0053448829
0.0052533201
0.0051657834
0.0050822841
0.0050028336
0.0049274439
0.0048561272
0.004788896
0.0047257631
0.0046667417
0.0046118452
0.0045610873
0.004514482
0.0044720437
0.0044337869
0.0043997266
0.0043698778
0.0043442562
0.0043228777
0.0043057583
0.0042929144
0.004284359
0.0042800339
0.0094804035
0.0092804276
0.0090842265
0.0088918002
0.0087031609
0.0085183192
0.0083372852
0.0081600684
0.0079866782
0.007817123
0.0076514111
0.00748955
0.007331547
0.0071774092
0.0070271434
0.0068807567
0.0067382559
0.0065996483
0.0064649411
0.0063341418
0.0062072581
0.0060842982
0.0059652702
0.0058501828
0.0057390448
0.0056318657
0.005528655
0.0054294226
0.0053341789
0.0052429345
0.0051557005
0.0050724881
0.0049933091
0.0049181755
0.0048470995
0.0047800938
0.0047171713
0.0046583453
0.0046036293
0.004553037
0.0045065826
0.0044642805
0.0044261452
0.0043921919
0.0043624358
0.0043368925
0.004315578
0.0042985085
0.0042857004
0.0042771665
0.0042728519
0.0094516793
0.009252616
0.0090573004
0.0088657319
0.0086779243
0.00849389
0.00831364
0.0081371847
0.0079645338
0.0077956962
0.0076306804
0.0074694944
0.0073121457
0.0071586418
0.00700899
0.0068631973
0.0067212712
0.006583219
0.0064490481
0.0063187663
0.0061923816
0.0060699021
0.0059513364
0.0058366933
0.0057259818
0.0056192115
0.0055163921
0.0054175337
0.0053226468
0.0052317422
0.0051448312
0.005061925
0.0049830356
0.0049081751
0.004837356
0.0047705909
0.0047078929
0.0046492753
0.0045947518
0.0045443363
0.0044980429
0.0044558861
0.0044178807
0.0043840418
0.0043543847
0.0043289252
0.0043076792
0.0042906632
0.0042778936
0.0042693831
0.00426508
0.0094209137
0.0092228246
0.0090284555
0.0088378051
0.0086508881
0.0084677182
0.0082883074
0.0081126669
0.0079408068
0.0077727366
0.0076084651
0.0074480007
0.0072913513
0.0071385248
0.0069895287
0.0068443705
0.0067030579
0.0065655985
0.006432
0.0063022704
0.0061764179
0.0060544509
0.0059363782
0.0058222088
0.005711952
0.0056056174
0.005503215
0.0054047552
0.0053102486
0.0052197061
0.0051331391
0.0050505592
0.0049719783
0.0048974088
0.0048268633
0.0047603544
0.0046978956
0.0046395001
0.0045851817
0.0045349545
0.0044888327
0.0044468309
0.004408964
0.0043752471
0.0043456957
0.0043203256
0.0042991529
0.0042821943
0.004269466
0.004260981
0.0042566902
0.0093880222
0.0091909719
0.0089976129
0.0088079429
0.0086219774
0.0084397311
0.008261217
0.0080864467
0.007915431
0.00774818
0.0075847028
0.0074250084
0.0072691051
0.0071170011
0.0069687043
0.0068242226
0.0066835639
0.0065467362
0.0064137475
0.0062846061
0.0061593205
0.0060378993
0.0059203515
0.0058066864
0.0056969135
0.0055910427
0.0054890842
0.0053910485
0.0052969464
0.0052067892
0.0051205882
0.0050383554
0.0049601027
0.0048858428
0.0048155882
0.004749352
0.0046871475
0.0046289882
0.0045748881
0.0045248613
0.0044789221
0.0044370852
0.0043993657
0.0043657788
0.00433634
0.0043110654
0.004289971
0.0042730737
0.0042603899
0.0042519323
0.004247655
0.0093529218
0.0091569775
0.0089646947
0.0087760698
0.008591119
0.0084098576
0.0082322994
0.0080584568
0.0078883412
0.0077219631
0.0075593324
0.0074004582
0.0072453495
0.0070940147
0.0069464624
0.0068027007
0.0066627379
0.0065265823
0.0063942424
0.0062657266
0.0061410438
0.0060202029
0.0059032131
0.0057900841
0.0056808255
0.0055754476
0.0054739607
0.0053763756
0.0052827033
0.0051929553
0.0051071432
0.005025279
0.004947375
0.0048734438
0.0048034983
0.0047375516
0.0046756173
0.004617709
0.0045638407
0.0045140268
0.0044682816
0.0044266201
0.0043890573
0.0043556086
0.0043262897
0.0043011167
0.0042801059
0.004263274
0.0042506377
0.0042422098
0.0042379471
0.0093155316
0.0091207635
0.0089296253
0.0087421126
0.0085582416
0.0083780284
0.0082014876
0.0080286323
0.0078594744
0.007694025
0.0075322944
0.0073742925
0.0072200286
0.0070695116
0.0069227505
0.0067797539
0.0066405304
0.0065050888
0.0063734378
0.0062455864
0.0061215435
0.0060013186
0.0058849212
0.005772361
0.0056636483
0.0055587933
0.0054578068
0.0053606997
0.0052674833
0.0051781694
0.0050927696
0.0050112964
0.0049337621
0.0048601796
0.0047905619
0.0047249223
0.0046632746
0.0046056324
0.0045520101
0.004502422
0.0044568827
0.0044154073
0.0043780109
0.004344709
0.0043155175
0.0042904525
0.0042695306
0.0042527685
0.004240183
0.0042317869
0.0042275399
0.0092757742
0.009082255
0.0088923325
0.008706001
0.0085232771
0.0083441776
0.0081687176
0.007996911
0.0078287702
0.007664307
0.0075035322
0.0073464563
0.007193089
0.0070434399
0.0068975183
0.0067553333
0.006616894
0.0064822096
0.0063512891
0.0062241419
0.0061007775
0.0059812054
0.0058654356
0.0057534783
0.0056453438
0.0055410428
0.0054405863
0.0053439855
0.005251252
0.0051623977
0.0050774348
0.0049963755
0.0049192327
0.0048460194
0.0047767488
0.0047114345
0.0046500902
0.0045927299
0.0045393681
0.0044900192
0.0044446981
0.0044034198
0.0043661998
0.0043330536
0.0043039973
0.004279047
0.0042582195
0.0042415316
0.0042290004
0.0042206385
0.0042164083
0.0092335769
0.0090413817
0.0088527481
0.0086676692
0.0084861618
0.0083082433
0.0081339295
0.0079632347
0.0077961723
0.0076327544
0.0074729928
0.0073168981
0.0071644809
0.0070157511
0.0068707187
0.0067293933
0.0065917843
0.0064579015
0.0063277543
0.0062013525
0.0060787059
0.0059598247
0.005844719
0.0057333993
0.0056258764
0.0055221614
0.0054222654
0.0053262
0.0052339772
0.0051456089
0.0050611077
0.0049804862
0.0049037573
0.0048309344
0.0047620307
0.0046970602
0.0046360368
0.0045789746
0.0045258883
0.0044767924
0.0044317021
0.0043906324
0.0043535991
0.0043206177
0.0042917045
0.0042668759
0.0042461485
0.0042295395
0.004217066
0.0042087407
0.0042045286
0.0091888732
0.0089980794
0.00881081
0.008627057
0.0084468374
0.008270169
0.0080970683
0.0079275504
0.0077616291
0.0075993174
0.0074406275
0.0072855709
0.0071341585
0.006986401
0.0068423088
0.006701892
0.0065651608
0.0064321251
0.0063027951
0.0061771808
0.0060552927
0.0059371412
0.0058227369
0.0057120907
0.0056052137
0.0055021173
0.0054028131
0.0053073131
0.0052156292
0.0051277741
0.0050437603
0.0049636008
0.0048873089
0.0048148979
0.0047463817
0.0046817741
0.0046210894
0.0045643419
0.0045115464
0.0044627177
0.0044178711
0.0043770219
0.0043401858
0.0043073787
0.0042786168
0.0042539168
0.0042332955
0.0042167702
0.004204358
0.0041960717
0.0041918789
0.009141604
0.0089522911
0.0087664633
0.0085841112
0.0084052523
0.0082299048
0.0080580858
0.0078898111
0.0077250953
0.0075639519
0.0074063938
0.0072524332
0.0071020817
0.0069553505
0.0068122506
0.0066727928
0.0065369877
0.0064048458
0.0062763777
0.0061515942
0.006030506
0.0059131239
0.0057994591
0.005689523
0.0055833269
0.0054808827
0.0053822023
0.0052872979
0.0051961822
0.0051088677
0.0050253676
0.004945695
0.0048698635
0.0047978867
0.0047297787
0.0046655536
0.0046052258
0.00454881
0.0044963211
0.0044477742
0.0044031845
0.0043625677
0.0043259397
0.0042933164
0.0042647144
0.0042401503
0.0042196411
0.0042032043
0.0041908571
0.0041826124
0.0041784402
0.0090917201
0.0089039692
0.0087196618
0.0085387875
0.0083613636
0.0081874091
0.0080169418
0.007849978
0.0076865331
0.0075266213
0.0073702562
0.0072174507
0.0070682171
0.0069225672
0.0067805127
0.006642065
0.0065072352
0.0063760346
0.0062484742
0.0061245652
0.006004319
0.0058877469
0.0057748605
0.0056656716
0.005560192
0.005458434
0.0053604099
0.0052661324
0.0051756143
0.0050888686
0.0050059089
0.0049267485
0.0048514013
0.0047798812
0.0047122026
0.0046483799
0.0045884276
0.0045323608
0.0044801945
0.004431944
0.0043876248
0.0043472527
0.0043108438
0.0042784142
0.0042499806
0.0042255597
0.0042051689
0.0041888256
0.004176547
0.0041683465
0.0041641962
0.0090391834
0.0088530771
0.0086703706
0.0084910519
0.0083151387
0.0081426505
0.0079736057
0.0078080215
0.0076459138
0.0074872978
0.0073321877
0.0071805972
0.0070325392
0.0068880265
0.0067470712
0.0066096854
0.0064758809
0.0063456696
0.006219063
0.0060960731
0.0059767116
0.0058609905
0.0057489218
0.0056405178
0.0055357908
0.0054347535
0.0053374186
0.0052437993
0.0051539088
0.0050677605
0.0049853681
0.0049067455
0.0048319068
0.0047608664
0.0046936387
0.0046302384
0.0045706806
0.0045149802
0.0044631527
0.0044152136
0.0043711786
0.0043310637
0.004294885
0.0042626591
0.0042344026
0.0042101325
0.0041898663
0.0041736215
0.0041614155
0.0041532618
0.0041491347
0.0089839697
0.0087995919
0.0086185674
0.0084408833
0.0082665573
0.0080956094
0.0079280587
0.0077639233
0.0076032198
0.0074459642
0.0072921717
0.0071418565
0.0069950325
0.0068517131
0.0067119112
0.0065756396
0.0064429107
0.0063137371
0.0061881311
0.006066105
0.0059476713
0.0058328424
0.005721631
0.0056140499
0.0055101118
0.00540983
0.0053132176
0.0052202882
0.0051310554
0.0050455331
0.0049637353
0.0048856763
0.0048113705
0.0047408327
0.0046740775
0.0046111201
0.0045519756
0.0044966594
0.0044451871
0.0043975744
0.0043538374
0.0043139922
0.0042780551
0.0042460428
0.0042179722
0.0041938605
0.0041737252
0.004157584
0.0041454546
0.0041373502
0.0041332478
0.0089260711
0.008743506
0.0085642457
0.0083882756
0.0082156136
0.0080462804
0.0078802957
0.0077176785
0.0075584463
0.0074026161
0.0072502037
0.0071012244
0.0069556927
0.0068136229
0.0066750287
0.0065399236
0.0064083208
0.0062802335
0.0061556746
0.0060346572
0.0059171944
0.0058032992
0.0056929848
0.0055862645
0.0054831517
0.0053836601
0.0052878035
0.0051955956
0.0051070508
0.0050221831
0.0049410072
0.0048635377
0.0047897892
0.004719777
0.0046535161
0.0045910218
0.0045323096
0.0044773953
0.0044262946
0.0043790235
0.0043355983
0.0042960353
0.0042603512
0.0042285627
0.0042006868
0.0041767411
0.0041567431
0.0041407106
0.0041286615
0.0041206092
0.0041165327
0.0088654985
0.008684831
0.008507417
0.0083332405
0.0081623193
0.0079946748
0.0078303277
0.0076692978
0.0075116038
0.0073572634
0.0072062935
0.0070587102
0.0069145289
0.0067737648
0.0066364323
0.0065025458
0.0063721192
0.0062451663
0.006121701
0.006001737
0.0058852879
0.0057723674
0.0056629894
0.0055571678
0.0054549165
0.0053562498
0.0052611819
0.0051697271
0.0050819002
0.0049977158
0.0049171888
0.0048403344
0.0047671676
0.0046977039
0.0046319587
0.0045699478
0.0045116869
0.004457192
0.0044064792
0.0043595648
0.0043164651
0.0042771969
0.0042417769
0.0042102222
0.00418255
0.0041587777
0.0041389233
0.0041230048
0.0041110398
0.0041030423
0.0040989931
0.0088022844
0.0086235996
0.0084481141
0.0082758101
0.0081067057
0.0079408232
0.0077781843
0.00761881
0.0074627201
0.0073099332
0.0071604672
0.0070143393
0.0068715657
0.0067321625
0.006596145
0.0064635284
0.0063343274
0.0062085567
0.0060862307
0.005967364
0.0058519708
0.0057400657
0.005631663
0.0055267773
0.0054254232
0.0053276154
0.0052333687
0.0051426981
0.0050556187
0.0049721457
0.0048922944
0.0048160803
0.0047435191
0.0046746265
0.0046094184
0.0045479107
0.0044901197
0.0044360616
0.0043857528
0.0043392098
0.0042964493
0.0042574882
0.0042223435
0.0041910325
0.0041635725
0.0041399813
0.0041202767
0.0041044771
0.0040926002
0.0040846601
0.0040806395
0.0087364864
0.00855987
0.0083863943
0.0082160406
0.0080488275
0.0078847785
0.0077239169
0.0075662648
0.0074118432
0.0072606719
0.0071127699
0.0069681553
0.0068268454
0.0066888571
0.0065542066
0.00642291
0.0062949829
0.0061704407
0.0060492988
0.0059315723
0.0058172764
0.0057064262
0.0055990368
0.0054951233
0.0053947012
0.0052977855
0.0052043919
0.0051145357
0.0050282326
0.0049454984
0.0048663488
0.0047907998
0.0047188675
0.004650568
0.0045859177
0.0045249327
0.0044676298
0.0044140254
0.0043641362
0.0043179791
0.0042755711
0.0042369292
0.0042020707
0.004171013
0.0041437738
0.0041203708
0.0041008223
0.0040851465
0.0040733615
0.0040654812
0.0040614906
0.0086681894
0.0084937298
0.0083223443
0.0081540162
0.007988766
0.0078266194
0.0076676013
0.0075117355
0.0073590442
0.0072095484
0.0070632683
0.0069202229
0.0067804306
0.0066439092
0.0065106759
0.0063807477
0.0062541411
0.0061308723
0.0060109575
0.0058944127
0.0057812537
0.0056714965
0.0055651569
0.0054622508
0.0053627941
0.0052668027
0.0051742926
0.0050852801
0.0049997811
0.0049178121
0.0048393893
0.0047645292
0.0046932483
0.0046255631
0.0045614905
0.004501047
0.0044442496
0.0043911152
0.0043416608
0.0042959036
0.0042538608
0.0042155497
0.0041809879
0.0041501929
0.0041231826
0.004099975
0.0040805884
0.0040650412
0.0040533516
0.0040455338
0.0040415744
0.0085975086
0.0084253028
0.0082560851
0.0080898531
0.0079266328
0.0077664531
0.0076093411
0.0074553222
0.0073044199
0.0071566566
0.0070120533
0.0068706302
0.0067324068
0.0065974018
0.0064656334
0.0063371195
0.0062118776
0.0060899247
0.0059712779
0.0058559541
0.0057439699
0.0056353419
0.0055300869
0.0054282213
0.0053297618
0.005234725
0.0051431276
0.0050549863
0.0049703179
0.0048891391
0.0048114669
0.0047373182
0.00466671
0.0045996593
0.0045361832
0.004476299
0.0044200238
0.0043673749
0.0043183696
0.0042730255
0.0042313601
0.0041933908
0.0041591356
0.0041286121
0.0041018386
0.0040788331
0.004059614
0.0040442001
0.0040326093
0.0040248563
0.0040209294
0.0085246058
0.0083547598
0.0081877779
0.0080237034
0.0078625731
0.0077044193
0.0075492712
0.0073971554
0.0072480967
0.0071021187
0.0069592434
0.0068194921
0.0066828853
0.0065494428
0.0064191838
0.0062921271
0.006168291
0.0060476937
0.0059303531
0.0058162868
0.0057055124
0.0055980474
0.0054939091
0.005393115
0.0052956823
0.0052016284
0.0051109706
0.0050237263
0.0049399129
0.0048595477
0.0047826482
0.0047092318
0.0046393161
0.0045729185
0.0045100567
0.0044507481
0.0043950105
0.0043428615
0.0042943187
0.0042494
0.0042081232
0.0041705061
0.0041365667
0.0041063231
0.0040797935
0.0040569963
0.0040379501
0.0040226736
0.004011185
0.004003499
0.0039996056
0.0086201646
0.0084498624
0.0082823406
0.0081176262
0.0079557569
0.0077967683
0.0076406929
0.0074875606
0.0073373987
0.0071902332
0.0070460885
0.0069049877