/*--------------------------------*- C++ -*----------------------------------*\
| =========                 |                                                 |
| \\      /  F ield         | OpenFOAM: The Open Source CFD Toolbox           |
|  \\    /   O peration     | Version:  2312                                  |
|   \\  /    A nd           | Website:  www.openfoam.com                      |
|    \\/     M anipulation  |                                                 |
\*---------------------------------------------------------------------------*/
FoamFile
{
    version     2.0;
    format      ascii;
    arch        "LSB;label=32;scalar=64";
    class       volScalarField;
    location    "0.1";
    object      k;
}
// * * * * * * * * * * * * * * * * * * * * * * * * * * * * * * * * * * * * * //

dimensions      [0 2 -2 0 0 0 0];

internalField   nonuniform List<scalar> 
3224
(
8.550518
8.5445994
8.539334
8.534682
8.5306035
8.5270596
8.5240129
8.5214275
8.5192689
8.5175036
8.5160994
8.5150254
8.5142519
8.5137502
8.513493
8.5134541
8.513608
8.5139316
8.514402
8.5149974
8.5156973
8.5164824
8.5173341
8.5182352
8.5191694
8.5201214
8.5210767
8.5220223
8.5229456
8.5238353
8.5246809
8.5254731
8.5262032
8.5268638
8.527448
8.5279503
8.5283658
8.5286906
8.5289202
8.5290534
8.5290997
8.5504987
8.5445726
8.539299
8.5346407
8.5305571
8.5270088
8.5239581
8.521369
8.5192067
8.5174379
8.5160303
8.514953
8.5141762
8.5136713
8.513411
8.5133691
8.5135199
8.5138406
8.5143082
8.5149008
8.5155981
8.5163806
8.5172299
8.5181286
8.5190605
8.5200103
8.5209637
8.5219073
8.5228288
8.5237169
8.524561
8.5253518
8.5260807
8.5267401
8.5273234
8.5278249
8.5282399
8.5285644
8.5287949
8.528931
8.5289727
8.5504944
8.5445595
8.5392792
8.5346157
8.5305277
8.5269755
8.5239212
8.5213287
8.5191631
8.517391
8.5159803
8.5148998
8.5141199
8.5136119
8.5133486
8.5133037
8.5134516
8.5137696
8.5142344
8.5148244
8.5155191
8.5162991
8.517146
8.5180425
8.5189723
8.51992
8.5208714
8.5218132
8.5227331
8.5236196
8.5244623
8.5252518
8.5259796
8.526638
8.5272205
8.5277214
8.528136
8.5284605
8.5286923
8.5288326
8.5288711
8.5505034
8.54456
8.5392749
8.5346074
8.5305159
8.5269605
8.5239031
8.5213075
8.5191389
8.5173638
8.5159501
8.5148667
8.5140838
8.513573
8.5133068
8.5132591
8.5134044
8.5137197
8.5141819
8.5147694
8.5154617
8.5162394
8.517084
8.5179783
8.5189061
8.5198519
8.5208015
8.5217416
8.5226599
8.5235449
8.5243864
8.5251747
8.5259015
8.5265591
8.527141
8.5276415
8.5280558
8.5283805
8.5286137
8.5287592
8.5287966
8.5571751
8.5505209
8.5445751
8.5392875
8.5346175
8.5305235
8.5269654
8.5239055
8.5213073
8.5191361
8.5173584
8.515942
8.5148559
8.5140704
8.513557
8.5132882
8.5132379
8.5133806
8.5136935
8.5141533
8.5147385
8.5154285
8.516204
8.5170466
8.517939
8.5188648
8.5198089
8.5207569
8.5216954
8.5226123
8.5234961
8.5243364
8.5251237
8.5258497
8.5265066
8.527088
8.5275882
8.5280025
8.5283275
8.5285622
8.5287131
8.5287507
8.5571885
8.5505497
8.5446046
8.5393166
8.5346455
8.53055
8.5269903
8.5239285
8.5213283
8.5191551
8.5173753
8.5159567
8.5148685
8.5140808
8.5135651
8.5132941
8.5132417
8.5133823
8.513693
8.5141508
8.5147341
8.5154222
8.5161959
8.5170367
8.5179274
8.5188517
8.5197943
8.5207409
8.5216782
8.5225939
8.5234766
8.524316
8.5251026
8.5258279
8.5264843
8.5270654
8.5275655
8.52798
8.5283054
8.5285414
8.5286971
8.5287355
8.5572224
8.5505893
8.5446462
8.5393592
8.5346881
8.530592
8.5270313
8.5239682
8.5213667
8.5191919
8.5174104
8.5159901
8.5149
8.5141105
8.513593
8.5133201
8.5132658
8.5134046
8.5137136
8.5141696
8.5147512
8.5154377
8.5162098
8.5170491
8.5179384
8.5188614
8.5198027
8.5207481
8.5216844
8.5225991
8.523481
8.5243197
8.5251056
8.5258304
8.5264866
8.5270675
8.5275677
8.5279824
8.5283084
8.5285456
8.5287049
8.5287452
8.5572745
8.5506436
8.5447042
8.5394196
8.5347495
8.5306535
8.5270924
8.5240286
8.5214261
8.5192501
8.5174673
8.5160456
8.514954
8.5141628
8.5136437
8.5133691
8.5133132
8.5134504
8.5137577
8.5142123
8.5147923
8.5154773
8.516248
8.517086
8.5179741
8.5188958
8.519836
8.5207805
8.5217158
8.5226297
8.5235109
8.5243489
8.5251344
8.5258589
8.5265148
8.5270957
8.5275961
8.5280112
8.5283379
8.5285765
8.5287386
8.5287811
8.564698
8.557339
8.5507143
8.5447803
8.5394993
8.5348313
8.5307364
8.5271756
8.5241116
8.5215086
8.5193318
8.517548
8.5161252
8.5150323
8.5142399
8.5137193
8.5134434
8.5133861
8.5135218
8.5138278
8.5142809
8.5148596
8.5155434
8.5163129
8.5171497
8.5180366
8.5189574
8.5198967
8.5208402
8.5217748
8.522688
8.5235686
8.5244062
8.5251913
8.5259156
8.5265715
8.5271525
8.5276532
8.5280689
8.5283964
8.5286365
8.5288009
8.5288455
8.5647573
8.5574186
8.5508033
8.5448765
8.5396004
8.5349355
8.5308424
8.5272826
8.5242191
8.521616
8.519439
8.5176546
8.516231
8.5151373
8.5143438
8.5138222
8.5135451
8.5134866
8.5136211
8.5139259
8.5143779
8.5149555
8.5156382
8.5164066
8.5172425
8.5181285
8.5190484
8.5199869
8.5209297
8.5218637
8.5227764
8.5236566
8.5244938
8.5252788
8.526003
8.5266589
8.5272402
8.5277413
8.5281578
8.5284864
8.5287279
8.5288941
8.5289409
8.5728954
8.5648386
8.5575167
8.550913
8.5449948
8.5397247
8.5350639
8.5309735
8.5274155
8.524353
8.5217506
8.5195737
8.5177892
8.5163652
8.5152709
8.5144768
8.5139543
8.5136764
8.5136169
8.5137506
8.5140545
8.5145055
8.5150822
8.515764
8.5165316
8.5173667
8.518252
8.5191712
8.5201091
8.5210514
8.5219849
8.5228973
8.5237772
8.5246143
8.5253992
8.5261235
8.5267796
8.5273613
8.5278631
8.5282803
8.52861
8.5288531
8.5290209
8.5290696
8.5729845
8.5649422
8.5576365
8.5510457
8.5451372
8.5398743
8.5352186
8.5311318
8.5275763
8.5245156
8.5219143
8.5197381
8.517954
8.51653
8.5154356
8.5146411
8.5141182
8.5138397
8.5137796
8.5139126
8.5142157
8.5146661
8.5152421
8.5159233
8.5166902
8.5175248
8.5184095
8.5193282
8.5202657
8.5212077
8.5221409
8.5230531
8.5239329
8.52477
8.525555
8.5262795
8.5269361
8.5275183
8.5280208
8.528439
8.52877
8.5290146
8.5291838
8.5292343
8.581894
8.5730985
8.5650703
8.5577808
8.5512037
8.5453061
8.5400513
8.5354017
8.5313194
8.5277673
8.5247091
8.5221095
8.5199346
8.5181513
8.5167278
8.5156336
8.5148391
8.5143161
8.5140374
8.5139769
8.5141096
8.5144123
8.5148622
8.5154378
8.5161185
8.5168851
8.5177192
8.5186037
8.5195221
8.5204594
8.5214012
8.5223344
8.5232465
8.5241264
8.5249637
8.5257489
8.5264738
8.5271309
8.5277138
8.5282171
8.5286364
8.5289687
8.529215
8.5293854
8.5294376
8.5820205
8.5732382
8.5652252
8.5579523
8.5513898
8.5455038
8.5402582
8.5356156
8.5315388
8.5279908
8.5249358
8.5223387
8.5201656
8.5183836
8.5169611
8.5158676
8.5150735
8.5145507
8.5142721
8.5142117
8.5143442
8.5146468
8.5150966
8.5156719
8.5163525
8.5171189
8.5179529
8.5188372
8.5197555
8.5206928
8.5216346
8.5225678
8.5234802
8.5243603
8.5251979
8.5259835
8.526709
8.5273667
8.5279505
8.5284548
8.5288753
8.529209
8.5294569
8.5296285
8.5296821
8.5917477
8.582174
8.5734058
8.5654095
8.5581536
8.5516062
8.5457328
8.5404973
8.5358627
8.5317922
8.5282493
8.5251983
8.5226043
8.5204336
8.5186536
8.5172326
8.5161402
8.515347
8.5148248
8.5145466
8.5144865
8.5146192
8.514922
8.5153718
8.5159472
8.5166278
8.5173943
8.5182284
8.5191128
8.5200313
8.5209687
8.5219107
8.5228442
8.5237569
8.5246374
8.5254755
8.5262617
8.5269878
8.5276464
8.5282311
8.5287365
8.5291583
8.5294936
8.5297431
8.5299158
8.5299709
8.5919127
8.5823554
8.5736038
8.5656254
8.5583873
8.5518557
8.5459957
8.5407712
8.5361457
8.5320825
8.5285455
8.5254992
8.5229091
8.5207415
8.518964
8.517545
8.5164542
8.5156623
8.5151411
8.5148637
8.5148043
8.5149375
8.5152407
8.515691
8.5162667
8.5169477
8.5177144
8.5185488
8.5194335
8.5203523
8.5212901
8.5222325
8.5231665
8.5240796
8.5249607
8.5257994
8.5265864
8.5273134
8.5279729
8.5285587
8.5290653
8.5294885
8.5298253
8.5300766
8.5302502
8.5303067
8.6024894
8.5921069
8.5825675
8.5738347
8.5658755
8.5586557
8.5521407
8.5462951
8.5410827
8.5364672
8.5324122
8.528882
8.5258414
8.5232559
8.5210921
8.5193177
8.5179013
8.5168126
8.5160225
8.5155028
8.5152266
8.5151681
8.5153023
8.5156062
8.5160571
8.5166335
8.517315
8.5180823
8.5189172
8.5198024
8.5207218
8.5216601
8.5226031
8.5235377
8.5244515
8.5253333
8.5261728
8.5269607
8.5276886
8.5283493
8.5289362
8.5294442
8.5298688
8.5302073
8.5304602
8.5306349
8.5306927
8.6026942
8.5923329
8.5828131
8.5741008
8.566162
8.5589616
8.5524641
8.5466338
8.5414345
8.53683
8.5327844
8.5292619
8.5262278
8.5236477
8.5214885
8.5197179
8.5183046
8.5172186
8.5164307
8.5159129
8.5156383
8.5155813
8.5157166
8.5160217
8.5164735
8.5170508
8.517733
8.5185011
8.5193367
8.5202227
8.5211428
8.5220819
8.5230257
8.523961
8.5248757
8.5257584
8.5265989
8.5273878
8.5281168
8.5287786
8.5293669
8.5298763
8.5303025
8.5306426
8.5308972
8.5310729
8.531132
8.6029341
8.5925929
8.5830944
8.5744044
8.5664875
8.5593076
8.5528286
8.5470146
8.5418295
8.5372372
8.5332019
8.5296883
8.5266615
8.5240877
8.5219338
8.5201677
8.5187582
8.5176754
8.5168902
8.5163748
8.5161023
8.516047
8.5161839
8.5164904
8.5169435
8.5175219
8.5182052
8.5189743
8.5198109
8.5206978
8.5216189
8.5225589
8.5235036
8.5244399
8.5253556
8.5262394
8.5270809
8.527871
8.5286012
8.5292644
8.529854
8.5303649
8.5307927
8.5311346
8.5313909
8.5315675
8.5316279
8.6032078
8.5928879
8.5834134
8.5747479
8.5668544
8.5596962
8.553237
8.5474406
8.5422709
8.5376919
8.533668
8.5301642
8.5271458
8.5245791
8.5224313
8.5206704
8.5192654
8.5181865
8.5174046
8.516892
8.516622
8.5165689
8.5167077
8.5170159
8.5174706
8.5180504
8.5187351
8.5195054
8.5203432
8.5212313
8.5221535
8.5230946
8.5240404
8.5249779
8.5258947
8.5267796
8.5276224
8.5284137
8.5291453
8.5298099
8.5304011
8.5309135
8.531343
8.5316866
8.5319446
8.5321222
8.5321837
8.614695
8.6035123
8.5932192
8.5837722
8.5751334
8.5672651
8.5601302
8.5536922
8.5479147
8.5427616
8.5381972
8.534186
8.530693
8.527684
8.5251254
8.5229846
8.5212297
8.5198299
8.5187553
8.5179773
8.5174681
8.517201
8.5171505
8.5172917
8.5176019
8.5180585
8.51864
8.5193263
8.5200981
8.5209373
8.5218267
8.5227502
8.5236926
8.5246397
8.5255784
8.5264965
8.5273828
8.5282269
8.5290196
8.5297527
8.5304187
8.5310115
8.5315256
8.5319568
8.5323021
8.5325618
8.5327403
8.5328031
8.6149936
8.6038492
8.5935887
8.5841729
8.5755634
8.5677223
8.5606125
8.5541972
8.54844
8.543305
8.5387564
8.5347591
8.5312782
8.5282796
8.5257301
8.5235972
8.521849
8.5204551
8.5193857
8.5186122
8.5181068
8.5178432
8.5177957
8.5179396
8.5182522
8.518711
8.5192945
8.5199827
8.5207562
8.521597
8.522488
8.5234129
8.5243567
8.5253053
8.5262454
8.5271649
8.5280526
8.5288981
8.5296924
8.530427
8.5310946
8.531689
8.5322048
8.5326377
8.5329848
8.5332462
8.5334256
8.5334894
8.6403008
8.6273437
8.6153246
8.6042218
8.5939988
8.5846176
8.5760401
8.5682285
8.5611457
8.5547549
8.5490197
8.5439042
8.539373
8.5353908
8.5319232
8.5289363
8.5263969
8.5242727
8.5225323
8.521145
8.5200814
8.519313
8.5188121
8.5185524
8.5185084
8.5186553
8.5189708
8.5194321
8.5200179
8.5207081
8.5214836
8.5223262
8.5232189
8.5241455
8.5250909
8.526041
8.5269826
8.5279037
8.5287928
8.5296399
8.5304357
8.5311719
8.5318412
8.5324373
8.5329548
8.5333895
8.5337384
8.5340013
8.5341816
8.5342466
8.6544541
8.6405635
8.6276572
8.6156898
8.604633
8.5944516
8.5851086
8.576566
8.5687864
8.5617328
8.5553683
8.5496569
8.5445627
8.5400502
8.5360847
8.5326317
8.5296576
8.5271295
8.5250151
8.5232832
8.5219034
8.5208464
8.5200837
8.5195879
8.5193326
8.5192926
8.519443
8.5197616
8.5202257
8.5208141
8.5215067
8.5222843
8.523129
8.5240235
8.5249519
8.5258991
8.5268508
8.5277941
8.5287167
8.5296075
8.5304562
8.5312536
8.5319915
8.5326624
8.5332602
8.5337795
8.5342159
8.5345666
8.5348311
8.5350123
8.5350783
8.6546846
8.6408544
8.6280045
8.616092
8.6050853
8.5949496
8.5856482
8.5771436
8.5693987
8.5623765
8.5560406
8.5503549
8.5452836
8.5407917
8.5368443
8.5334074
8.5304474
8.5279316
8.5258281
8.5241058
8.5227344
8.5216847
8.5209284
8.5204383
8.520188
8.5201524
8.5203067
8.5206289
8.5210961
8.5216874
8.5223825
8.5231626
8.5240094
8.524906
8.5258364
8.5267853
8.5277389
8.5286839
8.5296082
8.5305006
8.531351
8.5321501
8.5328896
8.5335623
8.5341618
8.5346828
8.535121
8.5354733
8.5357394
8.5359214
8.5359884
8.6549398
8.6411753
8.6283873
8.6165334
8.605581
8.5954949
8.5862386
8.5777752
8.5700678
8.5630798
8.5567747
8.5511168
8.5460705
8.5416008
8.5376733
8.5342539
8.5313094
8.5288073
8.5267158
8.525004
8.5236419
8.5226003
8.5218512
8.5213674
8.5211227
8.521092
8.5212507
8.5215767
8.5220475
8.5226419
8.5233399
8.5241225
8.5249717
8.5258706
8.526803
8.5277539
8.5287093
8.529656
8.5305821
8.5314762
8.5323283
8.5331291
8.5338703
8.5345447
8.5351459
8.5356686
8.5361085
8.5364625
8.5367301
8.5369128
8.5369809
8.6552201
8.6415272
8.6288065
8.617016
8.606122
8.5960894
8.5868821
8.5784633
8.5707965
8.5638453
8.5575737
8.5519459
8.5469266
8.5424811
8.5385751
8.5351749
8.5322474
8.5297603
8.527682
8.5259818
8.52463
8.5235975
8.5228563
8.5223795
8.5221409
8.5221157
8.5222792
8.5226096
8.5230841
8.5236819
8.524383
8.5251685
8.5260202
8.5269214
8.527856
8.5288089
8.5297662
8.5307148
8.5316427
8.5325385
8.5333923
8.5341948
8.5349377
8.5356137
8.5362166
8.5367411
8.5371826
8.5375382
8.5378072
8.5379907
8.5380596
8.6555257
8.6419107
8.6292631
8.6175407
8.6067097
8.596735
8.5875805
8.57921
8.5715871
8.5646758
8.5584403
8.5528451
8.5478552
8.543436
8.5395535
8.5361741
8.5332651
8.5307944
8.5287307
8.5270434
8.5257028
8.5246802
8.5239478
8.5234787
8.5232469
8.5232277
8.5233966
8.5237316
8.5242103
8.5248119
8.5255163
8.5263047
8.5271592
8.5280628
8.5289997
8.5299547
8.530914
8.5318645
8.5327941
8.5336917
8.5345471
8.5353513
8.5360958
8.5367735
8.5373781
8.5379041
8.5383472
8.5387044
8.5389747
8.5391588
8.5392287
8.6558561
8.6423258
8.6297573
8.6181085
8.6073455
8.5974331
8.5883357
8.5800173
8.572442
8.5655738
8.5593774
8.5538175
8.5488594
8.5444687
8.5406117
8.5372551
8.5343664
8.5319136
8.5298658
8.5281925
8.5268643
8.5258527
8.5251299
8.5246693
8.524445
8.5244324
8.524607
8.5249472
8.5254304
8.526036
8.526744
8.5275356
8.5283929
8.5292991
8.5302383
8.5311955
8.5321568
8.5331091
8.5340405
8.5349398
8.535797
8.5366027
8.5373489
8.5380281
8.5386343
8.5391618
8.5396065
8.5399651
8.5402366
8.5404213
8.5404921
8.6562104
8.6427722
8.6302893
8.6187199
8.6080301
8.5981851
8.5891493
8.5808872
8.5733632
8.5665417
8.5603875
8.5548659
8.5499422
8.5455825
8.5417531
8.5384213
8.5355546
8.5331215
8.531091
8.5294331
8.5281186
8.5271189
8.5264067
8.5259553
8.5257392
8.5257338
8.5259147
8.5262604
8.5267486
8.5273585
8.5280703
8.5288652
8.5297256
8.5306345
8.5315761
8.5325355
8.5334988
8.534453
8.5353862
8.5362871
8.5371458
8.5379531
8.5387008
8.5393816
8.5399892
8.5405182
8.5409642
8.5413242
8.5415969
8.5417821
8.5418537
8.6565875
8.643249
8.6308588
8.619375
8.6087642
8.5989918
8.5900225
8.5818212
8.5743526
8.5675815
8.561473
8.5559927
8.5511064
8.5467802
8.542981
8.539676
8.5368334
8.5344216
8.5324101
8.530769
8.5294693
8.5284827
8.527782
8.5273409
8.5271337
8.527136
8.5273239
8.5276756
8.528169
8.5287835
8.5294994
8.530298
8.5311615
8.5320731
8.5330172
8.5339789
8.5349442
8.5359002
8.536835
8.5377376
8.5385978
8.5394066
8.5401557
8.5408378
8.5414468
8.5419771
8.5424245
8.5427856
8.5430594
8.543245
8.5433174
8.6569857
8.6437551
8.6314649
8.6200736
8.609548
8.5998538
8.5909563
8.5828205
8.5754117
8.568695
8.562636
8.5572004
8.5523544
8.5480646
8.544298
8.5410223
8.5382057
8.5358172
8.5338264
8.5322036
8.5309201
8.5299478
8.5292598
8.5288296
8.5286322
8.528643
8.5288384
8.5291966
8.5296957
8.5303152
8.5310354
8.5318377
8.5327045
8.533619
8.5345656
8.5355295
8.5364968
8.5374546
8.5383911
8.5392952
8.5401568
8.5409669
8.5417173
8.5424007
8.5430109
8.5435424
8.5439909
8.5443531
8.5446278
8.5448138
8.5448869
8.6574031
8.644289
8.6321067
8.620815
8.6103811
8.6007712
8.591951
8.583886
8.5765416
8.5698837
8.563878
8.5584908
8.5536884
8.549438
8.5457068
8.5424628
8.5396746
8.5373113
8.535343
8.5337402
8.5324743
8.5315177
8.5308433
8.5304253
8.5302384
8.5302585
8.5304619
8.5308272
8.5313324
8.5319572
8.5326819
8.5334882
8.5343584
8.535276
8.5362251
8.5371912
8.5381605
8.5391201
8.5400581
8.5409635
8.5418265
8.5426378
8.5433893
8.5440738
8.544685
8.5452176
8.5456671
8.5460303
8.5463057
8.546492
8.5465657
8.6578373
8.6448487
8.6327825
8.6215981
8.6112629
8.6017437
8.5930067
8.5850179
8.5777431
8.5711485
8.5652004
8.5598653
8.5551102
8.5509023
8.5472094
8.5439998
8.5412424
8.5389066
8.5369627
8.5353816
8.534135
8.5331953
8.5325359
8.532131
8.5319557
8.5319857
8.5321979
8.5325708
8.5330826
8.533713
8.5344426
8.5352531
8.5361269
8.5370475
8.5379992
8.5389676
8.5399387
8.5409
8.5418394
8.5427462
8.5436102
8.5444226
8.5451751
8.5458606
8.5464727
8.5470061
8.5474564
8.5478204
8.5480965
8.5482829
8.5483572
8.6582852
8.6454315
8.6334902
8.622421
8.612192
8.6027704
8.5941229
8.586216
8.5790161
8.5724898
8.5666038
8.5613251
8.5566209
8.5524591
8.5488076
8.5456353
8.5429112
8.5406052
8.5386879
8.5371304
8.5359046
8.5349834
8.5343403
8.5339497
8.5337868
8.5338277
8.5340494
8.5344305
8.5349493
8.5355858
8.5363206
8.5371355
8.538013
8.5389367
8.5398911
8.5408617
8.5418347
8.5427975
8.5437383
8.5446462
8.5455113
8.5463245
8.5470778
8.547764
8.5483768
8.5489109
8.5493619
8.5497265
8.550003
8.5501896
8.5502644
8.6587432
8.6460341
8.6342268
8.6232814
8.6131663
8.6038496
8.5952983
8.5874796
8.5803603
8.5739074
8.5680883
8.5628703
8.5582212
8.5541091
8.5505025
8.5473704
8.5446825
8.5424088
8.5405203
8.5389884
8.5377853
8.5368842
8.5362587
8.5358836
8.5357343
8.535787
8.536019
8.5364088
8.5369353
8.5375782
8.5383185
8.539138
8.5400195
8.5409464
8.5419036
8.5428763
8.5438512
8.5448154
8.5457574
8.5466663
8.5475322
8.5483461
8.5491
8.5497868
8.5504001
8.5509347
8.5513862
8.5517512
8.552028
8.5522146
8.5522899
8.6592069
8.6466528
8.634989
8.6241761
8.6141833
8.604979
8.596531
8.5888069
8.5817742
8.5754004
8.5696533
8.5645008
8.559911
8.5558525
8.5522943
8.5492058
8.546557
8.5443183
8.542461
8.5409569
8.5397785
8.5388991
8.5382928
8.5379345
8.5377999
8.5378654
8.5381085
8.5385079
8.5390425
8.5396924
8.5404386
8.541263
8.5421485
8.5430789
8.5440388
8.5450137
8.5459903
8.546956
8.547899
8.5488087
8.5496753
8.5504897
8.551244
8.5519311
8.5525447
8.5530796
8.5535313
8.5538966
8.5541736
8.55436
8.5544358
8.6596711
8.6472825
8.6357723
8.6251013
8.6152394
8.6061555
8.5978183
8.5901957
8.583256
8.5769671
8.5712974
8.5662153
8.5616894
8.5576888
8.5541828
8.5511414
8.5485348
8.546334
8.5445105
8.5430364
8.5418847
8.541029
8.5404435
8.5401035
8.5399849
8.5400641
8.5403193
8.540729
8.5412724
8.5419298
8.5426823
8.5435119
8.5444018
8.5453356
8.5462983
8.5472755
8.5482538
8.5492207
8.5501647
8.5510751
8.5519421
8.5527568
8.5535113
8.5541985
8.5548122
8.5553472
8.555799
8.5561643
8.5564413
8.5566275
8.5567036
8.6601298
8.6479179
8.6365715
8.6260521
8.6163301
8.6073752
8.5991564
8.5916426
8.5848025
8.5786048
8.5730182
8.5680118
8.5635546
8.5596163
8.5561666
8.5531759
8.550615
8.5484551
8.5466682
8.5452267
8.544104
8.5432739
8.542711
8.5423907
8.5422894
8.5423837
8.5426519
8.5430728
8.5436257
8.5442911
8.5450503
8.5458855
8.5467799
8.5477174
8.548683
8.5496624
8.5506424
8.5516105
8.5525554
8.5534663
8.5543336
8.5551484
8.5559029
8.5565899
8.5572035
8.5577383
8.5581899
8.5585552
8.558832
8.5590178
8.5590943
8.6605761
8.6485525
8.6373807
8.6270229
8.6174502
8.6086329
8.6005408
8.5931434
8.58641
8.5803099
8.5748125
8.5698872
8.565504
8.5616326
8.5582435
8.5553075
8.5527958
8.5506801
8.5489327
8.5475265
8.5464351
8.5456327
8.5450943
8.5447955
8.5447129
8.5448234
8.5451058
8.5455387
8.5461019
8.546776
8.5475424
8.5483836
8.5492829
8.5502242
8.5511928
8.5521745
8.5531562
8.5541255
8.555071
8.5559823
8.5568497
8.5576644
8.5584186
8.5591054
8.5597186
8.560253
8.5607043
8.5610693
8.5613458
8.5615311
8.5616079
8.6610024
8.6491787
8.6381927
8.628007
8.6185933
8.6099227
8.6019658
8.5946926
8.5880732
8.5820776
8.5766756
8.5718375
8.5675334
8.563734
8.5604101
8.557533
8.5550743
8.5530062
8.5513014
8.5499333
8.5488758
8.5481034
8.5475914
8.547316
8.5472537
8.5473819
8.5476795
8.5481256
8.5486999
8.5493833
8.5501575
8.5510051
8.5519095
8.552855
8.5538268
8.5548108
8.5557942
8.5567646
8.5577107
8.5586222
8.5594895
8.560304
8.5610578
8.561744
8.5623566
8.5628904
8.5633412
8.5637057
8.5639817
8.5641665
8.5642434
8.6613999
8.6497884
8.6389995
8.6289965
8.6197519
8.6112375
8.6034245
8.5962838
8.5897861
8.5839021
8.5786022
8.5738572
8.569638
8.5659157
8.5626618
8.5598479
8.5574462
8.5554294
8.5537706
8.5524436
8.5514226
8.5506827
8.5501994
8.5499491
8.5499089
8.5500561
8.5503704
8.5508306
8.5514169
8.5521105
8.5528932
8.5537477
8.5546577
8.5556076
8.5565827
8.5575692
8.5585543
8.5595257
8.5604724
8.561384
8.5622511
8.5630651
8.5638183
8.5645037
8.5651156
8.5656486
8.5660986
8.5664624
8.5667378
8.566922
8.5669991
8.6617591
8.6503722
8.639792
8.6299828
8.6209175
8.6125689
8.604909
8.5979093
8.5915412
8.5857761
8.5805851
8.5759397
8.5718113
8.5681716
8.5649925
8.5622465
8.559906
8.5579444
8.5563351
8.5550523
8.5540708
8.5533659
8.5529135
8.5526905
8.5526741
8.5528421
8.5531743
8.5536499
8.5542493
8.5549539
8.5557457
8.5566077
8.5575237
8.5584783
8.559457
8.5604462
8.561433
8.5624056
8.5633528
8.5642644
8.5651312
8.5659445
8.5666969
8.5673814
8.5679922
8.5685243
8.5689734
8.5693364
8.569611
8.5697945
8.5698717
8.6620696
8.6509199
8.6405602
8.6309558
8.6220805
8.6139077
8.6064101
8.5995601
8.5933298
8.5876912
8.5826162
8.5780769
8.5740454
8.5704939
8.567395
8.5647216
8.5624468
8.5605443
8.5589882
8.557753
8.556814
8.5561468
8.5557279
8.5555343
8.5555436
8.5557341
8.5560857
8.556578
8.5571916
8.5579082
8.5587099
8.5595801
8.5605026
8.5614623
8.562445
8.563437
8.5644257
8.5653994
8.5663471
8.5672587
8.568125
8.5689376
8.569689
8.5703724
8.5709821
8.571513
8.571961
8.572323
8.5725967
8.5727794
8.5728566
8.66232
8.6514206
8.6412931
8.6319048
8.6232301
8.6152431
8.6079174
8.601226
8.5951418
8.5896375
8.5846858
8.5802594
8.576331
8.5728736
8.5698603
8.5672645
8.5650599
8.5632208
8.5617217
8.5605376
8.5596443
8.5590177
8.5586348
8.5584729
8.5585101
8.5587249
8.5590976
8.559608
8.560237
8.5609665
8.561779
8.5626581
8.5635877
8.564553
8.5655399
8.566535
8.5675258
8.5685007
8.5694489
8.5703605
8.5712263
8.572038
8.5727883
8.5734705
8.5740788
8.5746084
8.5750552
8.5754161
8.5756889
8.5758707
8.5759479
8.6624971
8.6518622
8.6419786
8.6328176
8.6243544
8.6165635
8.6094192
8.6028955
8.5969659
8.5916039
8.5867829
8.5824763
8.5786575
8.5753001
8.5723779
8.5698648
8.5677352
8.5659638
8.5645257
8.5633964
8.562552
8.5619691
8.5616249
8.5614973
8.5615643
8.5618055
8.5622009
8.5627309
8.5633766
8.5641202
8.5649445
8.5658332
8.5667706
8.5677421
8.5687336
8.5697321
8.5707252
8.5717015
8.5726503
8.5735619
8.5744271
8.5752379
8.575987
8.5766678
8.5772747
8.5778029
8.5782483
8.5786079
8.5788796
8.5790605
8.5791377
8.6625849
8.6522302
8.6426035
8.6336816
8.6254406
8.6178561
8.6109029
8.6045559
8.5987894
8.5935777
8.5888949
8.5847151
8.5810124
8.5777612
8.5749357
8.5725106
8.5704608
8.5687616
8.5673885
8.5663177
8.5655257
8.5649896
8.564687
8.5645961
8.5646954
8.5649649
8.5653849
8.565936
8.5665999
8.5673588
8.5681959
8.5690951
8.5700411
8.5710193
8.5720159
8.5730182
8.5740139
8.5749917
8.5759413
8.5768528
8.5777175
8.5785274
8.5792752
8.5799546
8.5805599
8.5810865
8.5815305
8.5818888
8.5821593
8.5823392
8.5824164
8.673385
8.662582
8.6525136
8.6431551
8.6344834
8.6264754
8.6191072
8.6123547
8.6061934
8.6005985
8.595545
8.5910079
8.5869619
8.5833819
8.5802429
8.5775198
8.575188
8.5732229
8.5716004
8.5702966
8.5692882
8.5685521
8.5680659
8.5678077
8.5677562
8.5678901
8.5681902
8.5686367
8.5692106
8.569894
8.5706696
8.5715206
8.5724313
8.5733866
8.5743722
8.5753746
8.576381
8.5773796
8.5783593
8.5793097
8.5802214
8.5810856
8.5818946
8.5826411
8.5833189
8.5839227
8.5844477
8.5848901
8.585247
8.5855162
8.5856952
8.5857723
8.6841613
8.6729465
8.6624662
8.6526977
8.6436193
8.635209
8.6274444
8.6203025
8.61376
8.6077932
8.6023782
8.5974908
8.5931067
8.5892015
8.5857507
8.5827299
8.5801149
8.5778816
8.5760061
8.5744648
8.5732345
8.5722923
8.5716157
8.5711827
8.570972
8.5709625
8.5711335
8.5714663
8.5719412
8.5725398
8.5732443
8.5740378
8.574904
8.5758272
8.5767927
8.5777864
8.5787951
8.5798062
8.5808082
8.5817899
8.5827415
8.5836534
8.5845173
8.5853253
8.5860705
8.5867469
8.587349
8.5878723
8.5883132
8.5886686
8.5889365
8.5891145
8.5891915
8.6948158
8.6832245
8.6723704
8.6622253
8.6527693
8.6439827
8.6358445
8.6283334
8.6214272
8.6151036
8.6093399
8.6041128
8.599399
8.595175
8.5914172
8.5881019
8.5852053
8.5827039
8.5805743
8.5787932
8.5773376
8.5761849
8.5753127
8.5746991
8.5743227
8.5741623
8.5741976
8.5744083
8.5747759
8.5752813
8.5759063
8.5766336
8.5774465
8.578329
8.5792658
8.5802424
8.5812451
8.5822607
8.5832771
8.5842828
8.585267
8.5862199
8.5871324
8.587996
8.5888032
8.5895472
8.590222
8.5908225
8.5913441
8.5917833
8.5921373
8.5924039
8.5925808
8.5926578
8.6933283
8.6821326
8.6716487
8.6618498
8.6527173
8.6442329
8.6363766
8.6291282
8.6224665
8.6163702
8.6108174
8.6057857
8.6012526
8.5971955
8.5935915
8.5904175
8.5876508
8.5852683
8.5832473
8.5815653
8.5801997
8.5791287
8.5783302
8.5777831
8.5774663
8.5773594
8.5774419
8.5776949
8.5780996
8.5786374
8.5792907
8.5800424
8.5808761
8.5817762
8.5827277
8.5837165
8.5847289
8.5857522
8.5867744
8.5877844
8.5887715
8.5897261
8.5906392
8.5915027
8.5923092
8.5930521
8.5937255
8.5943243
8.5948443
8.5952819
8.5956343
8.5958996
8.5960755
8.5961524
8.6916724
8.6808804
8.6707755
8.661332
8.6525324
8.6443587
8.6367929
8.6298153
8.623406
8.6175445
8.6122096
8.6073801
8.6030343
8.5991501
8.5957056
8.5926786
8.5900469
8.5877882
8.5858805
8.5843018
8.5830304
8.5820447
8.5813237
8.5808463
8.5805922
8.5805415
8.580674
8.5809716
8.5814156
8.5819878
8.5826711
8.5834488
8.5843048
8.5852239
8.5861913
8.5871931
8.5882161
8.5892479
8.5902766
8.5912912
8.5922816
8.5932382
8.5941524
8.595016
8.595822
8.5965638
8.5972358
8.5978331
8.5983514
8.5987873
8.5991383
8.5994023
8.5995772
8.599654
8.6898477
8.6794659
8.6697471
8.6606661
8.6522062
8.6443508
8.6370825
8.6303826
8.6242322
8.6186117
8.6135009
8.6088794
8.6047263
8.6010204
8.5977406
8.5948654
8.5923732
8.5902427
8.5884524
8.586981
8.5858073
8.5849106
8.58427
8.5838655
8.583677
8.5836849
8.58387
8.5842144
8.5846997
8.5853083
8.5860234
8.5868287
8.5877084
8.5886476
8.589632
8.5906479
8.5916825
8.5927234
8.5937592
8.5947791
8.5957733
8.5967323
8.5976476
8.5985117
8.5993172
8.6000582
8.6007289
8.6013246
8.6018413
8.6022757
8.6026252
8.6028879
8.6030618
8.6031385
8.6878573
8.6778907
8.6685628
8.6598494
8.6517346
8.6442026
8.6372367
8.6308195
8.624933
8.6195583
8.6146763
8.6102673
8.6063113
8.602788
8.599677
8.5969574
8.5946087
8.5926099
8.5909404
8.5895796
8.5885068
8.5877019
8.5871448
8.5868157
8.5866953
8.5867642
8.5870041
8.5873973
8.5879258
8.5885726
8.589321
8.5901553
8.5910601
8.5920207
8.5930231
8.5940541
8.595101
8.5961518
8.5971953
8.5982211
8.5992194
8.6001812
8.6010982
8.6019627
8.6027681
8.6035083
8.6041778
8.6047721
8.6052872
8.60572
8.6060681
8.6063296
8.6065026
8.6065792
8.6857103
8.6761614
8.6672267
8.6588832
8.651116
8.64391
8.6372494
8.6311181
8.6254983
8.6203725
8.6157222
8.6115288
8.6077728
8.604435
8.6014955
8.5989345
8.5967318
8.5948675
8.5933214
8.5920737
8.5911042
8.5903935
8.589922
8.5896704
8.58962
8.5897519
8.5900486
8.5904922
8.5910655
8.5917519
8.5925351
8.5933997
8.5943307
8.5953138
8.5963353
8.5973822
8.5984422
8.5995036
8.6005555
8.6015877
8.6025906
8.6035555
8.6044743
8.6053397
8.6061451
8.6068846
8.607553
8.6081459
8.6086595
8.6090908
8.6094374
8.6096977
8.6098697
8.6099463
8.6834216
8.6742911
8.6657484
8.6577741
8.6503541
8.643474
8.6371192
8.6312736
8.6259212
8.6210449
8.6166273
8.6126503
8.6090956
8.6059444
8.6031778
8.6007766
8.5987215
8.596993
8.5955718
8.5944386
8.5935739
8.5929588
8.5925743
8.5924018
8.5924228
8.5926191
8.5929737
8.5934691
8.5940885
8.5948156
8.5956347
8.5965307
8.5974889
8.5984954
8.5995368
8.6006004
8.6016742
8.6027468
8.6038076
8.6048466
8.6058545
8.6068229
8.6077438
8.6086102
8.6094157
8.6101547
8.6108221
8.6114136
8.6119258
8.6123556
8.6127008
8.6129598
8.613131
8.6132074
8.6810106
8.672299
8.6641447
8.6565352
8.6494582
8.6429004
8.6368478
8.6312854
8.6261981
8.6215694
8.6173827
8.6136209
8.6102663
8.6073009
8.6047066
8.6024648
8.6005569
8.5989643
8.597668
8.5966495
8.5958899
8.5953708
8.5950739
8.5949809
8.5950738
8.5953353
8.5957485
8.5962963
8.5969625
8.5977311
8.5985868
8.5995149
8.600501
8.6015315
8.6025935
8.6036744
8.6047626
8.6058469
8.6069171
8.6079633
8.6089766
8.6099486
8.6108719
8.6117395
8.6125453
8.6132838
8.6139502
8.6145404
8.615051
8.6154793
8.6158232
8.616081
8.6162513
8.6163276
8.6874047
8.678533
8.6702193
8.6624415
8.6551872
8.6484446
8.6422013
8.636444
8.6311586
8.6263303
8.6219439
8.6179835
8.6144326
8.6112743
8.6084914
8.6060664
8.6039815
8.6022187
8.6007599
8.599587
8.5986817
8.5980262
8.5976022
8.597392
8.5973781
8.5975424
8.597869
8.5983406
8.5989408
8.5996538
8.6004641
8.6013567
8.6023171
8.6033314
8.6043864
8.6054692
8.6065678
8.6076707
8.6087671
8.6098469
8.6109007
8.6119195
8.6128956
8.6138214
8.6146903
8.6154964
8.6162344
8.6168998
8.6174887
8.6179978
8.6184246
8.618767
8.6190235
8.6191929
8.619269
8.6844829
8.6760192
8.6680888
8.6606725
8.6537591
8.6473376
8.6413962
8.6359225
8.6309033
8.6263242
8.6221713
8.6184288
8.6150813
8.6121124
8.6095058
8.6072445
8.6053113
8.6036889
8.6023599
8.6013066
8.6005115
8.599957
8.5996256
8.5995001
8.599563
8.5997977
8.6001877
8.6007166
8.6013684
8.6021275
8.6029789
8.6039079
8.6049004
8.6059428
8.6070221
8.6081258
8.6092421
8.6103599
8.6114685
8.6125581
8.6136195
8.6146441
8.6156242
8.6165526
8.6174229
8.6182294
8.618967
8.6196314
8.6202188
8.6207263
8.6211514
8.6214922
8.6217475
8.6219159
8.6219917
8.6816128
8.6735308
8.6659604
8.6588838
8.6522907
8.6461708
8.6405133
8.6353064
8.6305375
8.6261935
8.6222601
8.6187232
8.6155675
8.6127776
8.6103375
8.6082309
8.6064414
8.6049521
8.6037461
8.6028064
8.6021159
8.6016575
8.6014144
8.6013696
8.6015059
8.6018078
8.6022587
8.6028425
8.6035438
8.6043474
8.6052385
8.6062027
8.6072263
8.608296
8.609399
8.6105232
8.611657
8.6127894
8.6139101
8.6150095
8.6160786
8.617109
8.6180932
8.6190242
8.6198959
8.6207027
8.6214398
8.622103
8.6226889
8.6231946