/*--------------------------------*- C++ -*----------------------------------*\
| =========                 |                                                 |
| \\      /  F ield         | OpenFOAM: The Open Source CFD Toolbox           |
|  \\    /   O peration     | Version:  2312                                  |
|   \\  /    A nd           | Website:  www.openfoam.com                      |
|    \\/     M anipulation  |                                                 |
\*---------------------------------------------------------------------------*/
FoamFile
{
    version     2.0;
    format      ascii;
    arch        "LSB;label=32;scalar=64";
    class       volScalarField;
    location    "0.1";
    object      Ma;
}
// * * * * * * * * * * * * * * * * * * * * * * * * * * * * * * * * * * * * * //

dimensions      [0 0 0 0 0 0 0];

internalField   nonuniform List<scalar> 
3224
(
0.0012572014
0.001227325
0.00119822
0.0011698853
0.0011423223
0.0011155321
0.0010895164
0.0010642767
0.0010398142
0.0010161297
0.00099322363
0.00097109566
0.00094974479
0.00092916917
0.00090936603
0.00089033154
0.00087206067
0.0008545471
0.00083778309
0.00082175935
0.00080646493
0.00079188713
0.0007780114
0.0007648212
0.00075229799
0.00074042112
0.0007291678
0.00071851316
0.00070843023
0.00069889008
0.00068986191
0.00068131312
0.00067320935
0.00066551482
0.00065819087
0.00065120205
0.00064449399
0.00063807877
0.00063171953
0.00062616543
0.00061791167
0.0012574223
0.0012275524
0.0011984543
0.0011701265
0.0011425704
0.0011157872
0.0010897783
0.0010645453
0.0010400895
0.0010164116
0.00099351207
0.00097139051
0.0009500459
0.00092947639
0.00090967916
0.00089065036
0.00087238496
0.00085487662
0.00083811757
0.00082209853
0.00080680853
0.00079223489
0.00077836304
0.00076517645
0.0007526566
0.00074078283
0.0007295324
0.00071888043
0.00070879999
0.00069926218
0.00069023622
0.00068168956
0.00067358786
0.00066589536
0.00065857341
0.00065158658
0.00064488039
0.00063846722
0.00063210901
0.00062655859
0.00061831061
0.0012578439
0.0012279873
0.0011989027
0.0011705885
0.001143046
0.0011162762
0.0010902808
0.0010650611
0.0010406185
0.0010169536
0.00099406687
0.00097195786
0.00095062552
0.00093006792
0.00091028222
0.00089126453
0.00087300977
0.00085551157
0.00083876216
0.00082275222
0.00080747078
0.00079290515
0.00077904076
0.0007658611
0.00075334765
0.00074147979
0.0007302348
0.00071958786
0.00070951208
0.00069997862
0.00069095677
0.00068241404
0.00067431613
0.00066662734
0.00065930904
0.00065232583
0.000645623
0.00063921361
0.00063285689
0.00062731392
0.00061907525
0.0012584664
0.0012286302
0.0011995657
0.0011712717
0.0011437493
0.0011169997
0.0010910243
0.0010658246
0.0010414016
0.0010177562
0.00099488857
0.00097279829
0.00095148422
0.00093094438
0.00091117585
0.00089217469
0.00087393576
0.00085645267
0.00083971758
0.00082372116
0.00080845243
0.00079389867
0.00078004533
0.00076687591
0.00075437191
0.00074251276
0.00073127579
0.00072063623
0.00071056728
0.0007010402
0.00069202434
0.00068348732
0.00067539491
0.0006677115
0.00066039849
0.00065342055
0.00064672268
0.00064031894
0.00063396384
0.00062843282
0.00062020544
0.001289876
0.0012592893
0.0012294805
0.0012004426
0.0011721755
0.0011446799
0.0011179571
0.0010920083
0.001066835
0.0010424383
0.0010188187
0.00099597654
0.00097391119
0.00095262143
0.0009321052
0.00091235952
0.00089338034
0.00087516247
0.00085769946
0.00084098342
0.00082500497
0.00080975311
0.00079521512
0.00078137643
0.00076822058
0.00075572909
0.00074388144
0.00073265505
0.00072202524
0.00071196532
0.00070244664
0.00069343868
0.00068490916
0.00067682398
0.00066914764
0.0006618416
0.00065487071
0.0006481796
0.00064178378
0.00063543014
0.00062991785
0.00062169921
0.0012908156
0.0012602622
0.0012304854
0.0012014792
0.0011732439
0.0011457801
0.001119089
0.0010931718
0.0010680299
0.0010436642
0.0010200753
0.00099726321
0.00097522737
0.00095396639
0.00093347812
0.00091375945
0.00089480627
0.0008766133
0.00085917401
0.00084248045
0.0008265232
0.00081129123
0.00079677177
0.00078295029
0.00076981033
0.00075733347
0.00074549926
0.00073428519
0.0007236667
0.00071361722
0.00070410822
0.00069510933
0.00068658839
0.00067851145
0.00067084314
0.00066354507
0.00065658229
0.00064989916
0.00064351254
0.00063716136
0.00063167095
0.00062345682
0.0012919217
0.0012614059
0.0012316657
0.0012026962
0.0011744976
0.0011470704
0.0011204159
0.0010945351
0.0010694293
0.0010450993
0.0010215456
0.00099876811
0.00097676607
0.000955538
0.00093508162
0.00091539372
0.00089647008
0.00087830532
0.00086089282
0.00084422458
0.00082829111
0.00081308134
0.00079858251
0.00078478006
0.00077165758
0.00075919669
0.000747377
0.00073617611
0.00072556957
0.00071553095
0.00070603187
0.00069704212
0.00068852971
0.00068046084
0.00067280031
0.00066550992
0.00065855477
0.0006518795
0.00064550061
0.00063915692
0.00063367703
0.00062547456
0.0012932747
0.0012628041
0.001233108
0.0012041828
0.0011760286
0.0011486459
0.0011220355
0.0010961987
0.0010711365
0.0010468496
0.0010233384
0.0010006025
0.00097864114
0.00095745262
0.00093703452
0.00091738349
0.00089849518
0.0008803641
0.00086298352
0.00084634537
0.0008304401
0.00081525659
0.00080078206
0.00078700196
0.00077389991
0.00076145757
0.00074965465
0.00073846885
0.00072787586
0.0007178494
0.0007083613
0.00069938152
0.00069087828
0.00068281801
0.00067516568
0.00066788332
0.00066093603
0.00065426931
0.00064789727
0.00064156736
0.00063608557
0.00062790717
0.0013260716
0.0012948755
0.0012644578
0.0012348136
0.0012059406
0.0011778386
0.001150508
0.0011239497
0.0010981646
0.0010731536
0.0010489173
0.0010254559
0.0010027688
0.00098085507
0.00095971286
0.00093933956
0.00091973165
0.00090088463
0.00088279287
0.00086544953
0.00084884643
0.00083297396
0.00081782095
0.00080337459
0.00078962036
0.00077654187
0.00076412089
0.00075233721
0.00074116865
0.00073059106
0.00072057835
0.00071110255
0.00070213388
0.00069364079
0.00068558994
0.00067794656
0.00067067299
0.00066373424
0.00065707722
0.00065071211
0.00064440135
0.00063890915
0.00063076432
0.0013278606
0.0012967264
0.0012663691
0.0012367848
0.0012079719
0.0011799301
0.0011526596
0.0011261611
0.0011004355
0.0010754834
0.0010513052
0.001027901
0.00100527
0.00098341098
0.00096232193
0.00094200003
0.00092244158
0.00090364189
0.0008855952
0.00086829451
0.00085173155
0.00083589661
0.00082077848
0.00080636432
0.00079263961
0.00077958802
0.00076719137
0.00075542958
0.00074428061
0.00073372049
0.00072372335
0.00071426146
0.00070530528
0.00069682357
0.00068878328
0.00068114989
0.00067388616
0.00066695701
0.00066031109
0.00065395361
0.0006476664
0.00064215817
0.00063405421
0.0013617331
0.0013298932
0.0012988285
0.0012685393
0.001239023
0.0012102782
0.0011823045
0.001155102
0.0011286712
0.0011030129
0.0010781274
0.001054015
0.0010306754
0.0010081078
0.00098631059
0.00096528157
0.0009450177
0.00092551507
0.00090676881
0.00088877297
0.00087152041
0.00085500274
0.00083921015
0.00082413137
0.00080975354
0.00079606215
0.00078304092
0.00077067175
0.00075893468
0.00074780784
0.00073726747
0.00072728794
0.00071784179
0.00070889977
0.00070043096
0.00069240263
0.00068478058
0.00067752804
0.00067060987
0.00066397668
0.00065762809
0.00065136794
0.00064584033
0.00063778332
0.0013639333
0.0013321707
0.0013011829
0.0012709699
0.0012415296
0.0012128608
0.0011849632
0.0011578366
0.0011314815
0.0011058982
0.0010810871
0.001057048
0.0010337805
0.0010112835
0.00098955516
0.000968593
0.00094839377
0.00092895331
0.00091026655
0.00089232734
0.0008751284
0.00085866118
0.0008429158
0.0008278809
0.00081354362
0.00079988944
0.00078690213
0.00077456371
0.00076285435
0.00075175236
0.00074123422
0.00073127455
0.0007218462
0.00071292025
0.0007044661
0.00069645143
0.00068884237
0.00068160265
0.00067469714
0.00066807849
0.0006617405
0.00065551035
0.0006499615
0.00064195765
0.001398821
0.0013663709
0.0013346936
0.0013037905
0.0012736616
0.0012443054
0.0012157207
0.0011879071
0.0011608644
0.0011345927
0.0011090923
0.0010843631
0.0010604049
0.0010372169
0.0010147976
0.00099314514
0.00097225662
0.00095212855
0.00093275655
0.0009141353
0.00089625847
0.0008791186
0.000862707
0.00084701368
0.00083202723
0.00081773474
0.00080412172
0.00079117201
0.00077886772
0.00076718919
0.00075611493
0.00074562166
0.00073568431
0.00072627603
0.00071736828
0.00070893084
0.00070093177
0.00069333761
0.00068611264
0.00067922177
0.00067261967
0.00066629442
0.00066009677
0.00065452633
0.00064658182
0.0014014042
0.0013690468
0.0013374624
0.0013066518
0.0012766151
0.001247351
0.0012188585
0.0011911368
0.0011641858
0.0011380053
0.0011125954
0.0010879557
0.0010640858
0.0010409845
0.0010186501
0.00099708034
0.00097627212
0.00095622165
0.0009369243
0.0009183745
0.00090056572
0.00088349031
0.00086713946
0.00085150304
0.00083656959
0.00082232617
0.00080875831
0.00079584993
0.00078358325
0.00077193878
0.00076089526
0.00075042968
0.00074051728
0.00073113157
0.00072224439
0.00071382592
0.00070584467
0.00069826759
0.00069105956
0.0006841856
0.00067760224
0.00067129227
0.0006651294
0.00065953827
0.00065165953
0.0014372464
0.0014042176
0.0013719611
0.0013404774
0.0013097673
0.0012798308
0.0012506668
0.0012222742
0.0011946523
0.0011678008
0.0011417192
0.0011164073
0.0010918646
0.0010680903
0.0010450828
0.0010228402
0.0010013599
0.00098063851
0.00096067195
0.00094145531
0.00092298279
0.00090524763
0.00088824201
0.00087195695
0.00085638223
0.00084150631
0.00082731624
0.00081379757
0.0008009343
0.00078870879
0.00077710173
0.0007660921
0.00075565719
0.00074577256
0.0007364121
0.00072754807
0.00071915108
0.00071119011
0.00070363258
0.00069644394
0.00068958941
0.00068302723
0.00067673543
0.00067060955
0.00066499981
0.00065719341
0.0014401822
0.0014072616
0.0013751136
0.0013437384
0.0013131368
0.0012833085
0.0012542524
0.0012259677
0.0011984534
0.0011717089
0.0011457338
0.0011205274
0.0010960889
0.0010724172
0.0010495106
0.0010273666
0.0010059823
0.00098535411
0.00096547761
0.00094634761
0.00092795807
0.000910302
0.00089337138
0.00087715709
0.0008616488
0.00084683491
0.00083270246
0.00081923702
0.0008064227
0.00079424198
0.00078267577
0.00077170331
0.00076130218
0.00075144832
0.000742116
0.00073327792
0.00072490516
0.00071696718
0.0007094319
0.00070226535
0.00069543306
0.00068889471
0.00068262435
0.0006765377
0.00067091248
0.00066318513
0.0014769165
0.0014433396
0.0014105355
0.0013785038
0.0013472451
0.0013167599
0.0012870476
0.0012581074
0.0012299382
0.0012025391
0.0011759092
0.0011500479
0.0011249543
0.0011006272
0.0010770651
0.001054266
0.0010322272
0.0010109454
0.00099041658
0.00097063612
0.00095159852
0.0009332975
0.00091572584
0.00089887533
0.00088273669
0.00086729951
0.0008525521
0.00083848151
0.00082507336
0.00081231184
0.00080017962
0.00078865779
0.00077772589
0.00076736181
0.00075754187
0.00074824077
0.00073943165
0.00073108609
0.00072317405
0.00071566397
0.00070852249
0.00070171548
0.00069520388
0.00068895857
0.00068291355
0.00067727689
0.00066963542
0.0014801714
0.0014467182
0.0014140383
0.001382131
0.0013509967
0.0013206356
0.0012910473
0.0012622306
0.0012341846
0.0012069081
0.0011804003
0.00115466
0.0011296862
0.0011054774
0.0010820317
0.0010593467
0.0010374195
0.0010162463
0.00099582285
0.00097614422
0.00095720462
0.0009389975
0.00092151543
0.00090475
0.0008886918
0.0008733303
0.00085865378
0.00084464926
0.00083130245
0.00081859763
0.00080651765
0.00079504383
0.00078415599
0.00077383237
0.00076404967
0.00075478305
0.00074600611
0.00073769093
0.00072980802
0.00072232634
0.00071521316
0.00070843473
0.00070195308
0.00069573675
0.00068973598
0.0006840927
0.00067654404
0.0014836378
0.0014503166
0.0014177689
0.0013859939
0.0013549918
0.0013247627
0.0012953059
0.0012666204
0.001238705
0.0012115586
0.0011851799
0.0011595678
0.0011347207
0.0011106369
0.0010873141
0.0010647496
0.00104294
0.0010218814
0.0010015692
0.00098199795
0.00096316174
0.00094505373
0.00092766626
0.00091099075
0.00089501765
0.00087973632
0.00086513502
0.00085120077
0.00083791934
0.00082527514
0.00081325119
0.00080182908
0.0007909889
0.00078070928
0.00077096732
0.00076173862
0.00075299728
0.00074471589
0.00073686551
0.00072941567
0.00072233426
0.00071558798
0.00070913976
0.00070295666
0.00069700304
0.00069135868
0.00068390978
0.0014873139
0.0014541329
0.0014217255
0.0013900906
0.0013592286
0.0013291392
0.0012998216
0.0012712747
0.0012434973
0.0012164881
0.0011902456
0.0011647684
0.0011400546
0.0011161023
0.0010929087
0.0010704708
0.0010487849
0.0010278466
0.001007651
0.0009881926
0.00096946497
0.00095146108
0.00093417305
0.00091759215
0.00090170868
0.00088651192
0.0008719901
0.00085813025
0.00084491822
0.00083233857
0.0008203745
0.00080900786
0.00079821908
0.00078798712
0.00077828952
0.00076910236
0.00076040022
0.00075215624
0.00074434204
0.00073692772
0.0007298818
0.00072317149
0.00071676048
0.00071061516
0.00070471188
0.00069907256
0.00069173044
0.0015250046
0.0014911972
0.0014581652
0.0014259059
0.0013944191
0.0013637049
0.0013337627
0.0013045917
0.0012761908
0.0012485586
0.0012216935
0.001195594
0.0011702583
0.0011456844
0.0011218697
0.0010988114
0.0010765059
0.0010549493
0.0010341368
0.0010140633
0.00099472272
0.00097610862
0.00095821365
0.00094102974
0.00092454796
0.00090875852
0.00089365061
0.00087921243
0.00086543107
0.00085229245
0.00083978127
0.00082788097
0.00081657365
0.00080584005
0.00079565955
0.00078601009
0.00077686824
0.0007682091
0.00076000635
0.00075223218
0.00074485729
0.00073785083
0.00073118055
0.00072481085
0.00071870814
0.00071285871
0.00070723111
0.00070000277
0.0015289357
0.001495286
0.0014624106
0.0014303076
0.0013989767
0.0013684178
0.0013386303
0.0013096133
0.0012813655
0.0012538854
0.0012271712
0.0012012213
0.0011760336
0.0011516056
0.0011279345
0.0011050172
0.0010828497
0.0010614278
0.0010407463
0.0010207998
0.0010015821
0.00098308622
0.00096530476
0.00094822942
0.00093185112
0.00091615995
0.00090114504
0.0008867946
0.00087309574
0.00086003449
0.00084759573
0.0008357631
0.00082451898
0.00081384446
0.0008037193
0.0007941219
0.0007850293
0.00077641712
0.00076825961
0.00076052954
0.00075319822
0.00074623543
0.00073960951
0.00073328549
0.0007272305
0.00072143873
0.00071582999
0.00070872247
0.0016023391
0.0015673168
0.0015330608
0.0014995771
0.0014668663
0.0014349274
0.0014037601
0.0013733641
0.0013437387
0.0013148828
0.0012867951
0.0012594738
0.0012329171
0.0012071231
0.0011820893
0.0011578132
0.0011342915
0.0011115206
0.0010894964
0.0010682142
0.0010476687
0.001027854
0.0010087636
0.00099039053
0.00097272694
0.00095576442
0.00093949375
0.00092390493
0.00090898705
0.00089472831
0.00088111589
0.00086813595
0.00085577351
0.00084401247
0.00083283549
0.00082222401
0.00081215819
0.00080261688
0.0007935776
0.00078501653
0.00077690845
0.00076922675
0.00076194333
0.00075502866
0.00074845167
0.00074217804
0.0007361761
0.00073044615
0.0007248638
0.00071788415
0.0016419228
0.0016063072
0.0015714582
0.001537377
0.0015040671
0.0014715289
0.0014397619
0.0014087658
0.0013785401
0.001349084
0.0013203962
0.0012924752
0.0012653193
0.0012389264
0.0012132943
0.0011884203
0.0011643016
0.0011409346
0.0011183154
0.0010964394
0.0010753018
0.0010548968
0.0010352183
0.0010162597
0.00099801352
0.00098047191
0.00096362623
0.00094746715
0.00093198459
0.00091716761
0.00090300443
0.00088948231
0.00087658752
0.0008643053
0.00085261976
0.00084151389
0.00083096947
0.00082096706
0.00081148598
0.00080250424
0.00079399856
0.00078594429
0.00077831541
0.00077108446
0.00076422258
0.00075769933
0.00075148105
0.00074553773
0.00073987407
0.00073432604
0.0007274813
0.001645877
0.0016104447
0.0015757784
0.0015418801
0.0015087521
0.0014763946
0.0014448073
0.0014139899
0.0013839417
0.0013546618
0.0013261489
0.0012984012
0.0012714169
0.0012451937
0.0012197293
0.0011950207
0.0011710646
0.0011478573
0.0011253946
0.0011036715
0.0010826828
0.0010624227
0.0010428846
0.0010240617
0.0010059464
0.00098853063
0.00097180557
0.00095576183
0.00094038923
0.00092567687
0.00091161296
0.00089818489
0.00088537905
0.00087318088
0.00086157476
0.00085054397
0.00084007067
0.00083013583
0.00082071921
0.00081179935
0.00080335348
0.00079535755
0.00078778613
0.0007806124
0.0007738082
0.00076734374
0.00076118606
0.00075530715
0.00074971453
0.00074420906
0.0007375063
0.0016499871
0.0016147473
0.0015802731
0.0015465662
0.0015136281
0.0014814592
0.0014500593
0.001419428
0.0013895644
0.0013604675
0.0013321359
0.0013045678
0.0012777611
0.0012517134
0.0012264221
0.0012018839
0.0011780955
0.0011550526
0.0011327507
0.0011111848
0.0010903492
0.0010702378
0.001050844
0.0010321606
0.0010141798
0.00099689334
0.00098029243
0.00096436752
0.0009491084
0.00093450417
0.00092054312
0.00090721271
0.00089449952
0.00088238919
0.00087086636
0.00085991464
0.00084951654
0.00083965346
0.00083030563
0.00082145207
0.00081307058
0.00080513765
0.0007976285
0.00079051694
0.00078377551
0.00077737511
0.00077128354
0.00076547501
0.00075995851
0.00075450415
0.00074795047
0.0016542488
0.0016192111
0.0015849379
0.0015514308
0.0015186909
0.0014867186
0.0014555136
0.0014250755
0.0013954034
0.0013664961
0.0013383521
0.0013109694
0.001284346
0.0012584791
0.001233366
0.0012090032
0.0011853868
0.0011625127
0.0011403758
0.0011189709
0.0010982922
0.0010783331
0.001059087
0.0010405464
0.0010227034
0.0010055496
0.00098907607
0.00097327324
0.00095813089
0.00094363813
0.00092978332
0.00091655407
0.00090393712
0.00089191833
0.00088048262
0.00086961392
0.00085929512
0.00084950804
0.00084023337
0.00083145064
0.00082313817
0.00081527307
0.00080783114
0.00080078688
0.00079411352
0.00078778265
0.00078176293
0.00077603095
0.00077059592
0.00076520148
0.00075880399
0.001658658
0.0016238318
0.0015897686
0.0015564698
0.0015239362
0.0014921682
0.0014611655
0.0014309276
0.0014014536
0.0013727422
0.0013447918
0.0013176003
0.0012911655
0.0012654845
0.0012405542
0.0012163711
0.001192931
0.0011702295
0.0011482613
0.001127021
0.0011065024
0.0010866989
0.0010676035
0.0010492087
0.0010315065
0.0010144883
0.0009981451
0.00098246734
0.0009674448
0.00095306662
0.00093932128
0.00092619652
0.00091367926
0.00090175561
0.00089041078
0.00087962902
0.00086939361
0.00085968678
0.00085048969
0.00084178237
0.00083354369
0.00082575134
0.00081838173
0.00081141004
0.00080481023
0.00079855459
0.00079261268
0.00078696358
0.00078161564
0.00077629021
0.00077005605
0.0016632107
0.0016286055
0.0015947612
0.0015616791
0.0015293599
0.0014978037
0.0014670105
0.0014369796
0.0014077102
0.0013792007
0.0013514495
0.0013244544
0.0012982131
0.0012727225
0.0012479795
0.00122398
0.00120072
0.0011781945
0.0011563983
0.0011353256
0.00111497
0.0010953249
0.001076383
0.0010581367
0.0010405778
0.0010236978
0.0010074876
0.00099193761
0.00097703764
0.00096277692
0.00094914406
0.00093612693
0.00092371268
0.00091188766
0.00090063737
0.00088994641
0.00087979843
0.00087017609
0.00086106102
0.00085243376
0.0008442737
0.00083655912
0.00082926706
0.00082237337
0.00081585275
0.0008096782
0.0008038203
0.00079826055
0.0007930056
0.00078775849
0.00078169485
0.0016679036
0.0016335287
0.0015999121
0.001567055
0.0015349579
0.001503621
0.0014730442
0.0014432268
0.0014141679
0.0013858661
0.0013583194
0.0013315257
0.0013054824
0.0012801865
0.0012556344
0.0012318223
0.0012087455
0.0011863992
0.0011647777
0.0011438752
0.0011236852
0.0011042007
0.0010854146
0.001067319
0.0010499057
0.0010331661
0.0010170912
0.0010016713
0.00098689642
0.00097275578
0.00095923815
0.0009463316
0.0009340235
0.00092230044
0.00091114825
0.00090055185
0.00089049531
0.00088096169
0.00087193308
0.00086339053
0.00085531399
0.00084768228
0.0008404731
0.00083366298
0.00082722734
0.00082113993
0.00081537238
0.0008099086
0.0008047528
0.00079959355
0.00079370764
0.0016727337
0.0016385984
0.0016052181
0.0015725941
0.0015407267
0.0015096162
0.0014792625
0.0014496648
0.0014208223
0.0013927333
0.001365396
0.0013388081
0.001312967
0.0012878694
0.0012635118
0.00123989
0.0012169993
0.0011948345
0.0011733902
0.00115266
0.0011326375
0.0011133157
0.0010946871
0.001076744
0.0010594781
0.0010428809
0.0010269431
0.0010116554
0.00099700774
0.00098298951
0.00096958963
0.00095679638
0.00094459735
0.00093297943
0.00092192873
0.00091143057
0.00090146936
0.00089202863
0.00088309091
0.00087463774
0.00086664963
0.00085910598
0.0008519851
0.00084526421
0.00083891949
0.0008329254
0.00082725475
0.0008218937
0.00081684345
0.0008117818
0.00080608087
0.0016776991
0.0016438123
0.0016106769
0.0015782938
0.0015466635
0.0015157863
0.0014856619
0.0014562898
0.0014276688
0.0013997976
0.0013726741
0.0013462961
0.0013206607
0.0012957647
0.0012716044
0.0012481754
0.001225473
0.001203492
0.0011822265
0.0011616703
0.0011418168
0.001122659
0.0011041894
0.0010864001
0.001069283
0.0010528295
0.0010370305
0.0010218766
0.0010073579
0.00099346413
0.00098018423
0.00096750672
0.00095541947
0.00094390965
0.0009329637
0.00092256728
0.00091270522
0.00090336146
0.00089451899
0.00088615987
0.00087826512
0.00087081474
0.00086378765
0.00085716177
0.00085091401
0.00084501959
0.00083945251
0.00083420105
0.00082926299
0.00082430887
0.00081880023
0.001682799
0.0016491696
0.0016162871
0.0015841526
0.0015527664
0.0015221288
0.0014922397
0.0014630985
0.001434704
0.0014070549
0.0013801492
0.0013539845
0.001328558
0.0013038662
0.0012799055
0.0012566713
0.001234159
0.001212363
0.0011912776
0.0011708965
0.001151213
0.0011322201
0.0011139102
0.0010962756
0.0010793082
0.0010629994
0.0010473402
0.0010323214
0.0010179333
0.0010041655
0.0009910075
0.0009784479
0.00096647487
0.00095507588
0.00094423772
0.0009339464
0.00092418715
0.00091494433
0.00090620142
0.00089794095
0.00089014449
0.0008827926
0.00087586484
0.00086933981
0.00086319515
0.00085740686
0.00085195017
0.00084681528
0.00084199628
0.0008371598
0.00083185077
0.0016880341
0.0016546706
0.001622049
0.0015901702
0.0015590347
0.0015286427
0.0014989943
0.0014700889
0.0014419253
0.0014145022
0.0013878176
0.0013618691
0.0013366539
0.0013121684
0.001288409
0.001265371
0.0012430497
0.0012214397
0.001200535
0.0011803295
0.0011608163
0.0011419886
0.0011238388
0.0011063593
0.0010895419
0.0010733782
0.0010578595
0.0010429766
0.00102872
0.0010150796
0.001002045
0.00098960515
0.00097774848
0.00096646279
0.00095573521
0.00094555214
0.00093589919
0.00092676116
0.000918122
0.00090996472
0.00090227142
0.00089502325
0.00088820037
0.00088178209
0.00087574675
0.00087007115
0.00086473177
0.00085972053
0.00085502765
0.00085031908
0.00084521705
0.001693407
0.0016603177
0.0016279642
0.0015963479
0.0015654692
0.0015353284
0.0015059256
0.0014772603
0.0014493314
0.0014221375
0.0013956768
0.0013699467
0.0013449446
0.0013206668
0.0012971097
0.0012742686
0.0012521388
0.0012307149
0.0012099909
0.0011899607
0.0011706177
0.0011519548
0.0011339648
0.0011166401
0.0010999725
0.001083954
0.0010685759
0.0010538293
0.0010397048
0.0010261926
0.0010132825
0.0010009638
0.00098922532
0.00097805509
0.00096744062
0.00095736869
0.00094782533
0.00093879577
0.0009302644
0.00092221475
0.00091462943
0.00090749016
0.00090077773
0.00089447211
0.00088855238
0.00088299609
0.00087778105
0.00087290061
0.00086834113
0.00086377087
0.00085888326
0.0016989229
0.0016661153
0.001634037
0.0016026894
0.001572073
0.0015421883
0.0015130353
0.0014846138
0.0014569226
0.0014299605
0.0014037257
0.0013782156
0.0013534276
0.0013293583
0.0013060037
0.0012833595
0.0012614209
0.0012401825
0.0012196385
0.0011997829
0.001180609
0.00116211
0.0011442788
0.0011271079
0.0011105895
0.0010947155
0.0010794776
0.001064867
0.0010508746
0.0010374909
0.0010247061
0.0010125097
0.0010008907
0.00098983777
0.00097933862
0.00096938045
0.00095994971
0.00095103207
0.00094261238
0.00093467465
0.00092720203
0.00092017678
0.00091358033
0.00090739329
0.00090159546
0.0008961652
0.00089108157
0.00088633915
0.00088192053
0.00087749911
0.00087283336
0.0017045898
0.0016720709
0.0016402741
0.0016092007
0.0015788515
0.0015492271
0.0015203276
0.0014921527
0.0014647016
0.0014379731
0.0014119653
0.001386676
0.0013621024
0.0013382413
0.0013150888
0.0012926406
0.0012708921
0.0012498379
0.0012294724
0.0012097896
0.0011907832
0.0011724465
0.0011547724
0.0011377538
0.001121383
0.0011056523
0.0010905534
0.001076078
0.0010622173
0.001048962
0.0010363026
0.001024229
0.0010127306
0.0010017963
0.00099141432
0.0009815722
0.00097225683
0.00096345431
0.00095514996
0.00094732828
0.00093997292
0.00093306672
0.0009265917
0.00092052914
0.00091485953
0.00090956202
0.00090461693
0.00090001981
0.00089574968
0.00089148773
0.00088705132
0.0017104192
0.0016781954
0.0016466856
0.0016158913
0.0015858134
0.0015564526
0.0015278092
0.0014998831
0.0014726736
0.0014461794
0.0014203991
0.0013953303
0.0013709706
0.0013473166
0.0013243647
0.0013021109
0.0012805503
0.0012596781
0.0012394888
0.0012199765
0.001201135
0.001182958
0.0011654386
0.0011485699
0.0011323446
0.0011167551
0.0011017936
0.001087452
0.0010737218
0.0010605941
0.0010480597
0.001036109
0.0010247316
0.0010139169
0.0010036535
0.00099392936
0.00098473175
0.00097604726
0.00096786165
0.00096015991
0.00095292622
0.00094614396
0.00093979574
0.0009338635
0.00092832839
0.00092317037
0.00091837097
0.00091392646
0.00090981257
0.00090572082
0.00090152125
0.001716427
0.0016845038
0.0016532856
0.0016227743
0.0015929708
0.0015638761
0.0015354906
0.0015078143
0.0014808467
0.0014545869
0.0014290333
0.0014041839
0.0013800363
0.0013565874
0.0013338338
0.0013117715
0.0012903961
0.0012697027
0.0012496862
0.0012303409
0.001211661
0.0011936403
0.0011762723
0.0011595503
0.0011434675
0.0011280165
0.0011131898
0.0010989798
0.0010853783
0.0010723768
0.0010599664
0.001048138
0.0010368816
0.0010261869
0.001016043
0.0010064382
0.0009973604
0.00098879647
0.0009807327
0.00097315455
0.0009660467
0.00095939309
0.0009531769
0.00094738071
0.00094198634
0.00093697453
0.00093232797
0.00092804338
0.00092409363
0.00092018287
0.00091622767
0.0017226338
0.0016910156
0.0016600928
0.0016298672
0.0016003403
0.0015715129
0.0015433859
0.0015159594
0.0014892332
0.0014632063
0.0014378777
0.0014132454
0.0013893071
0.0013660602
0.0013435013
0.0013216268
0.0013004324
0.0012799137
0.0012600656
0.001240883
0.0012223602
0.0012044914
0.0011872706
0.0011706912
0.0011547469
0.0011394307
0.0011247356
0.0011106541
0.0010971787
0.0010843012
0.0010720131
0.0010603057
0.0010491696
0.0010385947
0.0010285707
0.0010190863
0.0010101298
0.0010016886
0.00099374936
0.00098629812
0.00097932003
0.00097279955
0.00096672046
0.00096106593
0.00095581843
0.00095095949
0.00094647288
0.00094235556
0.00093857793
0.00093485899
0.00093115571
0.0017290662
0.0016977563
0.0016671311
0.001637193
0.0016079433
0.0015793834
0.0015515143
0.0015243363
0.0014978494
0.001472053
0.0014469462
0.0014225273
0.0013987945
0.0013757451
0.0013533762
0.0013316844
0.0013106659
0.0012903164
0.0012706313
0.0012516058
0.0012332346
0.0012155123
0.0011984332
0.0011819914
0.0011661806
0.0011509946
0.0011364267
0.0011224699
0.0011091171
0.0010963605
0.0010841922
0.0010726039
0.0010615865
0.0010511306
0.0010412263
0.0010318626
0.0010230284
0.0010147116
0.0010068992
0.00099957779
0.00099273305
0.00098634992
0.00098041276
0.00097490532
0.00096981073
0.00096511123
0.00096079163
0.00095684888
0.00095325144
0.00094973518
0.00094629136
0.0017357573
0.0017047574
0.0016744309
0.0016447804
0.0016158074
0.0015875135
0.0015599001
0.0015329678
0.0015067169
0.001481147
0.0014562575
0.0014320471
0.0014085142
0.0013856566
0.0013634716
0.0013419561
0.0013211069
0.0013009199
0.001281391
0.0012625158
0.0012442894
0.0012267069
0.0012097631
0.0011934525
0.0011777693
0.0011627078
0.0011482618
0.0011344247
0.0011211899
0.0011085503
0.0010964984
0.0010850262
0.0010741254
0.0010637869
0.0010540012
0.001044758
0.0010360465
0.001027855
0.0010201713
0.0010129823
0.0010062741
0.0010000322
0.00099424153
0.00098888641
0.00098395055
0.00097941695
0.00097527133
0.0009715104
0.0009681013
0.00096479857
0.00096162178
0.0017427476
0.0017120579
0.0016820295
0.001652665
0.0016239664
0.0015959356
0.0015685741
0.0015418831
0.001515863
0.001490514
0.0014658357
0.0014418272
0.0014184873
0.001395814
0.0013738052
0.0013524583
0.0013317703
0.0013117376
0.0012923568
0.0012736236
0.001255534
0.0012380833
0.0012212669
0.0012050799
0.0011895171
0.0011745731
0.0011602423
0.001146519
0.0011333967
0.001120869
0.001108929
0.0010975691
0.0010867816
0.001076558
0.0010668891
0.0010577654
0.0010491763
0.0010411107
0.0010335569
0.0010265021
0.0010199332
0.0010138361
0.0010081961
0.0010029983
0.00099822678
0.00099386539
0.00098990058
0.00098632869
0.00098311606
0.00098003773
0.00097713551
0.0017500862
0.001719705
0.0016899721
0.0016608903
0.0016324619
0.0016046891
0.001577574
0.0015511179
0.0015253219
0.0015001863
0.0014757112
0.0014518963
0.0014287405
0.0014062425
0.0013844007
0.0013632127
0.0013426762
0.0013227882
0.0013035455
0.0012849447
0.0012669821
0.0012496537
0.0012329555
0.0012168831
0.0012014319
0.0011865971
0.0011723739
0.0011587568
0.0011457402
0.0011333182
0.0011214844
0.001110232
0.0010995536
0.0010894413
0.0010798866
0.0010708803
0.0010624125
0.0010544725
0.0010470491
0.00104013
0.0010337026
0.0010277532
0.0010222679
0.0010172319
0.0010126302
0.0010084471
0.0010046698
0.001001294
0.00099828602
0.00099544291
0.00099282282
0.0017578317
0.001727755
0.001698313
0.0016695083
0.0016413437
0.0016138219
0.0015869453
0.0015607158
0.0015351347
0.0015102031
0.0014859214
0.0014622895
0.0014393072
0.0014169736
0.0013952874
0.001374247
0.0013538505
0.0013340955
0.0013149795
0.0012964996
0.0012786527
0.0012614355
0.0012448445
0.0012288761
0.0012135263
0.001198791
0.0011846659
0.0011711462
0.0011582271
0.0011459033
0.0011341688
0.0011230177
0.0011124429
0.0011024374
0.001092993
0.0010841012
0.0010757526
0.0010679371
0.0010606438
0.0010538612
0.0010475768
0.0010417778
0.0010364503
0.0010315805
0.0010271536
0.0010231546
0.0010195713
0.0010163986
0.0010136035
0.0010110063
0.0010086759
0.0017660528
0.0017362745
0.0017071163
0.0016785807
0.0016506711
0.0016233907
0.0015967424
0.0015707287
0.0015453513
0.0015206118
0.0014965112
0.0014730499
0.0014502282
0.0014280458
0.001406502
0.0013855957
0.0013653257
0.0013456902
0.0013266873
0.0013083149
0.0012905704
0.0012734514
0.001256955
0.0012410782
0.0012258178
0.0012111705
0.0011971325
0.0011837
0.0011708686
0.0011586337
0.0011469903