/*--------------------------------*- C++ -*----------------------------------*\
| =========                 |                                                 |
| \\      /  F ield         | OpenFOAM: The Open Source CFD Toolbox           |
|  \\    /   O peration     | Version:  2312                                  |
|   \\  /    A nd           | Website:  www.openfoam.com                      |
|    \\/     M anipulation  |                                                 |
\*---------------------------------------------------------------------------*/
FoamFile
{
    version     2.0;
    format      ascii;
    arch        "LSB;label=32;scalar=64";
    class       volScalarField;
    location    "0.1";
    object      nut;
}
// * * * * * * * * * * * * * * * * * * * * * * * * * * * * * * * * * * * * * //

dimensions      [0 2 -1 0 0 0 0];

internalField   nonuniform List<scalar> 
3224
(
0.050492426
0.050874637
0.051252504
0.051625623
0.051993589
0.052356009
0.0527125
0.053062696
0.053406239
0.053742788
0.054072012
0.054393595
0.054707231
0.055012631
0.055309514
0.055597615
0.055876677
0.056146464
0.056406744
0.056657299
0.056897922
0.057128418
0.0573486
0.057558295
0.057757336
0.057945567
0.058122842
0.058289022
0.058443976
0.058587583
0.058719727
0.0588403
0.058949199
0.05904633
0.059131603
0.059204933
0.059266239
0.059315444
0.059352465
0.059377226
0.059389717
0.050492684
0.050874905
0.051252756
0.051625858
0.05199381
0.052356218
0.052712698
0.053062884
0.053406418
0.053742959
0.054072176
0.054393753
0.054707384
0.055012779
0.055309658
0.055597756
0.055876816
0.056146602
0.056406881
0.056657436
0.05689806
0.057128557
0.057348741
0.057558438
0.057757481
0.057945716
0.058122994
0.058289178
0.058444136
0.058587747
0.058719895
0.058840472
0.058949376
0.059046511
0.059131787
0.059205121
0.05926643
0.05931564
0.059352672
0.05937746
0.059389947
0.050493299
0.050875506
0.05125333
0.051626407
0.051994336
0.052356721
0.052713181
0.053063347
0.053406863
0.053743387
0.054072588
0.05439415
0.054707768
0.05501315
0.055310019
0.055598107
0.055877158
0.056146935
0.056407208
0.056657758
0.056898377
0.05712887
0.057349051
0.057558746
0.057757788
0.057946022
0.058123301
0.058289485
0.058444445
0.058588058
0.058720208
0.058840788
0.058949694
0.059046832
0.059132112
0.059205449
0.059266762
0.059315978
0.059353024
0.059377849
0.059390342
0.050494277
0.050876445
0.051254236
0.051627279
0.051995176
0.05235753
0.05271396
0.053064098
0.053407587
0.053744085
0.054073262
0.054394801
0.054708398
0.055013761
0.055310611
0.055598683
0.055877719
0.056147483
0.056407744
0.056658283
0.056898892
0.057129377
0.057349552
0.057559241
0.057758279
0.05794651
0.058123786
0.058289969
0.058444928
0.058588541
0.058720692
0.058841272
0.058950181
0.059047321
0.059132604
0.059205944
0.059267261
0.059316483
0.059353545
0.059378415
0.05939092
0.050109517
0.050495618
0.050877734
0.051255483
0.051628485
0.051996341
0.052358656
0.052715048
0.053065148
0.053408602
0.053745067
0.054074213
0.054395722
0.054709291
0.055014628
0.055311454
0.055599503
0.055878518
0.056148264
0.056408508
0.056659032
0.056899628
0.057130101
0.057350266
0.057559946
0.057758977
0.057947201
0.058124473
0.058290652
0.058445609
0.05858922
0.058721371
0.058841951
0.058950861
0.059048003
0.059133288
0.059206631
0.059267954
0.059317182
0.05935426
0.059379175
0.059391697
0.05011119
0.050497228
0.050879288
0.05125699
0.051629946
0.051997756
0.052360025
0.052716374
0.053066432
0.053409846
0.053746273
0.054075382
0.054396856
0.054710393
0.055015699
0.055312497
0.05560052
0.055879512
0.056149235
0.056409459
0.056659965
0.056900545
0.057131004
0.057351156
0.057560826
0.057759847
0.057948064
0.058125329
0.058291504
0.058446457
0.058590066
0.058722214
0.058842795
0.058951705
0.059048848
0.059134136
0.059207482
0.059268809
0.059318044
0.059355135
0.059380089
0.059392631
0.050113081
0.050499056
0.050881059
0.051258711
0.051631617
0.051999377
0.052361598
0.052717899
0.053067911
0.053411281
0.053747666
0.054076735
0.054398172
0.054711673
0.055016946
0.055313713
0.055601708
0.055880673
0.056150372
0.056410574
0.05666106
0.056901623
0.057132066
0.057352204
0.057561861
0.057760872
0.057949081
0.058126338
0.058292507
0.058447456
0.058591062
0.058723209
0.058843788
0.058952698
0.059049843
0.059135133
0.059208483
0.059269814
0.059319056
0.059356158
0.059381142
0.059393699
0.050115347
0.050501248
0.050883188
0.051260783
0.051633632
0.052001334
0.052363498
0.052719744
0.053069703
0.053413022
0.053749358
0.054078381
0.054399774
0.054713233
0.055018468
0.055315199
0.05560316
0.055882094
0.056151765
0.056411941
0.056662404
0.056902945
0.05713337
0.057353491
0.057563134
0.057762133
0.057950331
0.05812758
0.058293742
0.058448685
0.058592287
0.058724432
0.05884501
0.05895392
0.059051066
0.059136358
0.059209711
0.059271048
0.059320296
0.05935741
0.059382416
0.059394987
0.049728626
0.050118011
0.050503833
0.050885704
0.051263233
0.051636016
0.052003652
0.052365751
0.052721933
0.053071832
0.053415092
0.053751371
0.054080341
0.054401684
0.054715096
0.055020286
0.055316975
0.055604897
0.055883795
0.056153434
0.05641358
0.056664016
0.056904533
0.057134936
0.057355038
0.057564664
0.057763648
0.057951834
0.058129073
0.058295226
0.058450163
0.05859376
0.058725901
0.058846477
0.058955387
0.059052534
0.059137828
0.059211186
0.059272528
0.059321783
0.059358908
0.05938393
0.059396514
0.04973181
0.050121102
0.05050684
0.050888636
0.05126609
0.051638797
0.052006358
0.052368383
0.052724494
0.053074322
0.053417516
0.053753731
0.05408264
0.054403925
0.054717282
0.055022421
0.055319063
0.055606941
0.055885798
0.0561554
0.056415512
0.056665916
0.056906405
0.057136782
0.057356862
0.057566469
0.057765436
0.057953607
0.058130834
0.058296978
0.058451907
0.058595498
0.058727635
0.058848209
0.058957118
0.059054265
0.059139562
0.059212923
0.05927427
0.059323534
0.059360669
0.059385703
0.059398297
0.049343108
0.049735462
0.050124654
0.050510304
0.050892015
0.051269384
0.051642005
0.052009481
0.052371423
0.052727451
0.053077201
0.053420319
0.053756462
0.054085302
0.054406521
0.054719818
0.055024899
0.055321486
0.055609314
0.055888125
0.056157683
0.056417756
0.056668125
0.056908582
0.05713893
0.057358985
0.057568569
0.057767517
0.057955671
0.058132884
0.058299016
0.058453936
0.058597519
0.058729651
0.058850222
0.05895913
0.059056278
0.059141576
0.059214941
0.059276294
0.059325565
0.059362709
0.059387753
0.059400356
0.049347377
0.049739617
0.050128706
0.050514258
0.050895873
0.051273146
0.051645671
0.052013051
0.052374898
0.052730835
0.053080497
0.053423529
0.053759591
0.054088353
0.054409499
0.054722726
0.055027741
0.055324268
0.055612039
0.055890797
0.056160307
0.056420336
0.056670664
0.056911085
0.057141401
0.057361426
0.057570984
0.05776991
0.057958045
0.058135241
0.05830136
0.058456268
0.058599844
0.05873197
0.058852537
0.058961442
0.05905859
0.05914389
0.059217258
0.059278616
0.059327894
0.059365048
0.059390098
0.059402708
0.048957333
0.049352205
0.049744319
0.050133294
0.050518738
0.050900246
0.051277409
0.051649826
0.052017098
0.05237884
0.052734675
0.053084238
0.053427175
0.053763145
0.05409182
0.054412884
0.054726033
0.055030975
0.055327433
0.055615141
0.05589384
0.056163296
0.056423274
0.056673557
0.056913936
0.057144215
0.057364207
0.057573737
0.057772636
0.057960749
0.058137927
0.05830403
0.058458926
0.058602491
0.058734609
0.058855171
0.058964074
0.059061221
0.059146522
0.059219894
0.059281257
0.059330542
0.059367704
0.059392758
0.059405373
0.048962913
0.049357631
0.049749609
0.05013846
0.050523782
0.050905168
0.05128221
0.051654505
0.052021658
0.052383283
0.052739003
0.053088455
0.053431286
0.053767155
0.054095733
0.054416705
0.054729767
0.055034628
0.055331009
0.055618645
0.055897279
0.056166673
0.056426596
0.056676827
0.05691716
0.057147397
0.057367352
0.057576848
0.057775718
0.057963806
0.058140962
0.058307047
0.058461928
0.058605482
0.058737591
0.058858147
0.058967045
0.059064191
0.059149493
0.059222867
0.059284235
0.059333526
0.059370696
0.059395753
0.059408372
0.048572279
0.048969147
0.049363699
0.049755531
0.050144244
0.050529429
0.050910679
0.051287584
0.051659744
0.052026764
0.052388259
0.052743853
0.053093182
0.053435895
0.053771651
0.054100122
0.054420992
0.054733957
0.055038727
0.055335023
0.05562258
0.055901139
0.056170466
0.056430326
0.0566805
0.05692078
0.05715097
0.057370883
0.057580342
0.057779179
0.057967238
0.05814437
0.058310434
0.058465298
0.058608838
0.058740937
0.058861485
0.058970378
0.059067521
0.059152823
0.0592262
0.059287572
0.059336869
0.059374045
0.059399104
0.059411726
0.048579398
0.04897608
0.049370458
0.04976213
0.050150688
0.05053572
0.050916817
0.051293572
0.051665582
0.052032454
0.052393805
0.052749259
0.053098453
0.053441036
0.053776667
0.054105019
0.054425776
0.054738634
0.055043303
0.055339505
0.055626973
0.055905451
0.056174701
0.056434491
0.056684601
0.056924824
0.057154961
0.057374827
0.057584243
0.057783044
0.05797107
0.058148174
0.058314214
0.058469059
0.058612582
0.058744669
0.058865207
0.058974095
0.059071234
0.059156535
0.059229913
0.059291288
0.05934059
0.059377772
0.059402833
0.059415457
0.048188946
0.048587281
0.048983762
0.049377955
0.049769451
0.050157836
0.050542699
0.050923627
0.051300213
0.051672057
0.052038767
0.052399959
0.052755259
0.053104304
0.053446743
0.053782237
0.054110457
0.054431089
0.05474383
0.055048388
0.055344485
0.055631856
0.055910242
0.056179408
0.056439121
0.05668916
0.056929318
0.057159396
0.057379209
0.057588578
0.057787337
0.057975327
0.058152399
0.058318412
0.058473234
0.058616739
0.058748811
0.058869338
0.058978218
0.059075353
0.059160651
0.059234029
0.059295407
0.059344713
0.0593819
0.059406961
0.059419586
0.048197865
0.048595979
0.048992248
0.049386239
0.049777541
0.050165736
0.050550409
0.05093115
0.051307551
0.051679213
0.052045744
0.052406761
0.052761892
0.053110773
0.053453055
0.053788397
0.054116473
0.054436968
0.054749578
0.055054014
0.055349996
0.055637259
0.055915545
0.056184618
0.056444245
0.056694205
0.056934291
0.057164304
0.057384057
0.057593374
0.057792086
0.057980035
0.058157071
0.058323053
0.058477849
0.058621333
0.058753388
0.058873902
0.058982772
0.0590799
0.059165195
0.059238573
0.059299952
0.059349262
0.059386453
0.059411513
0.059424139
0.048207648
0.048605548
0.049001589
0.049395362
0.049786449
0.050174434
0.050558899
0.050939433
0.051315631
0.051687093
0.052053428
0.052414253
0.052769198
0.0531179
0.053460009
0.053795186
0.054123104
0.054443448
0.054755916
0.055060216
0.055356072
0.055643216
0.055921392
0.056190362
0.056449894
0.056699767
0.056939773
0.057169713
0.057389401
0.057598659
0.057797319
0.057985221
0.058162217
0.058328165
0.058482931
0.05862639
0.058758425
0.058878923
0.058987782
0.059084902
0.059170192
0.059243568
0.059304947
0.059354259
0.059391453
0.059416512
0.059429138
0.048218378
0.048616042
0.04901184
0.049405374
0.049796227
0.05018398
0.050568216
0.050948524
0.051324499
0.051695742
0.052061862
0.052422479
0.052777221
0.053125727
0.053467647
0.053802642
0.054130387
0.054450567
0.054762878
0.055067031
0.055362748
0.055649762
0.055927816
0.056196673
0.056456101
0.056705877
0.056945795
0.057175655
0.057395271
0.057604463
0.057803064
0.057990915
0.058167866
0.058333774
0.058488507
0.058631938
0.05876395
0.05888443
0.058993274
0.059090384
0.059175668
0.059249039
0.059310418
0.059359732
0.059396927
0.059421984
0.05943461
0.047831313
0.048230144
0.048627526
0.049023058
0.049416332
0.049806928
0.050194427
0.050578412
0.050958473
0.051334204
0.051705208
0.052071095
0.052431484
0.052786005
0.053134297
0.053476011
0.053810809
0.054138365
0.054458365
0.054770505
0.055074497
0.055370062
0.055656933
0.055934854
0.056203587
0.0564629
0.05671257
0.056952391
0.057182162
0.057401697
0.057610817
0.057809353
0.057997146
0.058174046
0.05833991
0.058494605
0.058638005
0.05876999
0.058890448
0.058999276
0.059096373
0.059181649
0.059255015
0.059316391
0.059365705
0.059402901
0.059427955
0.05944058
0.047844474
0.048242978
0.048640056
0.049035299
0.04942829
0.049818606
0.050205828
0.05058954
0.050969331
0.051344797
0.051715541
0.052081173
0.052441315
0.052795595
0.053143655
0.053485145
0.053819729
0.054147079
0.054466883
0.054778837
0.055082653
0.055378052
0.055664767
0.055942542
0.05621114
0.056470326
0.05671988
0.056959594
0.057189268
0.057408713
0.057617753
0.057816217
0.058003946
0.058180789
0.058346604
0.058501256
0.058644619
0.058776573
0.058897007
0.059005815
0.059102898
0.059188162
0.059261521
0.059322894
0.059372206
0.059409402
0.059434451
0.059447075
0.047060268
0.047459683
0.04785879
0.04825694
0.048653694
0.049048623
0.049441306
0.049831318
0.050218239
0.050601654
0.050981152
0.05135633
0.051726792
0.052092148
0.052452021
0.052806041
0.053153849
0.053495096
0.053829446
0.054156573
0.054476164
0.054787916
0.05509154
0.055386758
0.055673303
0.055950919
0.056219368
0.056478417
0.056727844
0.05696744
0.057197006
0.057416354
0.057625304
0.057823688
0.058011346
0.058188126
0.058353886
0.05850849
0.058651811
0.058783731
0.058904137
0.059012921
0.059109986
0.059195237
0.059268587
0.059329954
0.059379263
0.059416457
0.059441502
0.059454124
0.046677253
0.047076452
0.04747559
0.047874306
0.048272092
0.048668499
0.04906309
0.049455439
0.049845122
0.050231717
0.05061481
0.050993991
0.051368857
0.051739013
0.052104071
0.052463654
0.052817391
0.053164926
0.05350591
0.053840007
0.054166892
0.054486252
0.054797785
0.055101201
0.055396222
0.055682582
0.055960025
0.056228312
0.05648721
0.056736497
0.056975965
0.057205413
0.057424653
0.057633506
0.057831802
0.05801938
0.05819609
0.058361788
0.058516338
0.058659613
0.058791494
0.058911866
0.059020624
0.059117668
0.059202903
0.059276241
0.0593376
0.059386904
0.059424096
0.059449134
0.059461754
0.04669508
0.047093937
0.047492748
0.047891085
0.048288496
0.048684533
0.049078761
0.049470751
0.049860077
0.050246321
0.050629066
0.051007905
0.051382434
0.05175226
0.052116996
0.052476264
0.052829697
0.053176937
0.053517637
0.053851461
0.054178084
0.054497194
0.054808488
0.055111679
0.055406486
0.055692646
0.0559699
0.056238011
0.056496744
0.05674588
0.056985206
0.057214525
0.057433647
0.057642392
0.057840591
0.058028083
0.058204714
0.058370343
0.058524833
0.058668057
0.058799893
0.058920228
0.059028955
0.059125974
0.05921119
0.059284514
0.059345862
0.05939516
0.059432346
0.059457378
0.059469995
0.046714282
0.047112793
0.047511246
0.047909197
0.048306215
0.04870186
0.049095699
0.049487302
0.049876246
0.05026211
0.050644481
0.05102295
0.051397117
0.051766588
0.052130976
0.052489906
0.05284301
0.053189932
0.053530326
0.053863855
0.054190195
0.054509035
0.054820072
0.055123018
0.055417595
0.055703537
0.055980586
0.056248506
0.056507061
0.05675603
0.056995203
0.057224381
0.057443374
0.057652001
0.057850093
0.058037488
0.058214034
0.058379586
0.058534009
0.058677174
0.05880896
0.058929253
0.059037945
0.059134935
0.059220128
0.059293434
0.05935477
0.059404059
0.059441239
0.059466264
0.059478876
0.046734958
0.047133098
0.047531166
0.047928712
0.048325315
0.048720543
0.049113966
0.049505156
0.049893688
0.050279146
0.050661114
0.051039187
0.051412964
0.051782053
0.052146068
0.052504634
0.052857385
0.053203965
0.053544028
0.053877239
0.054203275
0.054521824
0.054832584
0.055135266
0.055429593
0.0557153
0.055992127
0.056259839
0.0565182
0.056766989
0.057005995
0.057235019
0.05745387
0.057662368
0.057860343
0.058047632
0.058224083
0.058389551
0.058543899
0.058686999
0.058818729
0.058938974
0.059047625
0.059144583
0.059229749
0.059303035
0.059364355
0.059413633
0.059450805
0.05947582
0.059488428
0.046757189
0.047154929
0.047552582
0.047949699
0.048345863
0.048740649
0.049133629
0.049524376
0.049912469
0.05029749
0.050679027
0.051056675
0.051430034
0.051798712
0.052162327
0.052520503
0.052872875
0.053219087
0.053558796
0.053891666
0.054217374
0.054535609
0.05484607
0.055148468
0.055442526
0.055727978
0.056004566
0.056272053
0.056530204
0.056778798
0.057017622
0.057246478
0.057465175
0.057673532
0.057871378
0.058058551
0.058234898
0.058400272
0.058554538
0.058697565
0.058829232
0.058949423
0.059058029
0.059154949
0.059240085
0.059313346
0.059374648
0.059423912
0.059461074
0.059486079
0.059498682
0.046781051
0.047178359
0.047575568
0.047972229
0.048367928
0.048762244
0.049154751
0.049545026
0.049932649
0.050317204
0.05069828
0.051075473
0.051448385
0.051816625
0.05217981
0.052537568
0.052889534
0.053235353
0.053574681
0.053907185
0.054232541
0.05455044
0.054860579
0.055162672
0.055456439
0.055741617
0.056017947
0.056285191
0.056543115
0.056791496
0.057030124
0.057258798
0.057477327
0.057685531
0.057883237
0.058070282
0.058246514
0.058411786
0.05856596
0.058708907
0.058840504
0.058960634
0.059069189
0.059166066
0.059251167
0.0593244
0.05938568
0.059434928
0.059472078
0.059497071
0.059509667
0.046806617
0.047203461
0.047600196
0.047996371
0.048391576
0.048785392
0.049177397
0.04956717
0.049954292
0.05033835
0.050718935
0.051095642
0.051468076
0.051835847
0.052198575
0.052555886
0.052907417
0.053252815
0.053591736
0.053923847
0.054248827
0.054566364
0.054876159
0.055177923
0.055471379
0.055756262
0.056032313
0.056299296
0.056556975
0.056805127
0.057043542
0.057272019
0.057490366
0.057698402
0.057895955
0.058082861
0.058258967
0.058424126
0.0585782
0.058721058
0.058852577
0.05897264
0.059081138
0.059177966
0.059263026
0.059336228
0.059397482
0.059446711
0.059483846
0.059508825
0.059521416
0.046833956
0.047230306
0.047626535
0.048022194
0.048416874
0.04881016
0.049201632
0.049590871
0.049977461
0.05036099
0.05074105
0.05111724
0.051489165
0.051856437
0.052218676
0.05257551
0.052926578
0.053271526
0.053610012
0.053941704
0.054266281
0.054583432
0.054892858
0.05519427
0.055487391
0.055771957
0.05604771
0.056314411
0.056571826
0.056819731
0.057057916
0.057286179
0.057504329
0.057712183
0.05790957
0.058096325
0.058272293
0.058437329
0.058591292
0.058734052
0.058865485
0.058985474
0.059093907
0.05919068
0.059275696
0.05934886
0.059410085
0.059459291
0.059496409
0.059521374
0.059533956
0.046863137
0.04725896
0.047654652
0.048049763
0.048443888
0.048836611
0.049227518
0.04961619
0.050002215
0.050385182
0.050764686
0.051140326
0.05151171
0.05187845
0.052240169
0.052596495
0.052947069
0.053291538
0.053629561
0.053960806
0.054284952
0.054601691
0.054910721
0.055211757
0.055504521
0.055788747
0.056064179
0.056330578
0.056587708
0.056835348
0.057073285
0.057301318
0.057519254
0.057726912
0.057924118
0.058110708
0.058286527
0.058451428
0.05860527
0.058747923
0.058879261
0.058999166
0.059107528
0.05920424
0.059289205
0.059362327
0.059423519
0.059472699
0.059509797
0.059534745
0.059547319
0.046894225
0.04728949
0.047684611
0.048079143
0.048472678
0.048864807
0.049255115
0.049643187
0.050028613
0.050410985
0.050789898
0.051164955
0.051535764
0.05190194
0.052263107
0.052618894
0.052968942
0.053312902
0.053650431
0.0539812
0.054304888
0.054621186
0.054929796
0.05523043
0.055522811
0.055806674
0.056081762
0.056347838
0.056604664
0.056852018
0.057089688
0.057317472
0.057535179
0.057742624
0.057939635
0.058126047
0.058301703
0.058466457
0.058620167
0.058762701
0.058893935
0.059013749
0.059122031
0.059218676
0.059303583
0.059376658
0.059437813
0.059486963
0.059524038
0.059548968
0.059561532
0.046927282
0.047321955
0.047716474
0.048110392
0.048503305
0.048894805
0.04928448
0.049671918
0.050056711
0.050438453
0.050816741
0.051191181
0.051561381
0.051926959
0.05228754
0.052642755
0.052992246
0.053335665
0.05367267
0.054002933
0.054326134
0.054641964
0.054950125
0.05525033
0.055542304
0.055825779
0.056100501
0.056366229
0.056622729
0.056869777
0.057107161
0.057334679
0.057552137
0.057759354
0.057956154
0.058142372
0.058317853
0.058482446
0.058636012
0.058778418
0.058909537
0.059029251
0.059137446
0.059234015
0.059318859
0.059391882
0.059452993
0.059502111
0.05953916
0.059564069
0.059576622
0.046962362
0.047356412
0.047750295
0.048143565
0.048535822
0.048926659
0.049315666
0.049702435
0.05008656
0.050467636
0.050845264
0.051219051
0.051588608
0.051953554
0.052313515
0.052668125
0.053017026
0.053359871
0.053696321
0.054026047
0.054348731
0.054664064
0.054971749
0.055271499
0.055563038
0.0558461
0.056120431
0.05638579
0.056641941
0.056888661
0.057125739
0.057352971
0.057570163
0.057777133
0.057973706
0.058159716
0.058335006
0.058499426
0.058652836
0.058795102
0.058926096
0.059045699
0.059153798
0.059250285
0.059335059
0.059408023
0.059469086
0.059518166
0.059555187
0.059580073
0.059592614
0.046999516
0.047392909
0.047786123
0.048178712
0.048570278
0.048960416
0.049348721
0.049734785
0.050118206
0.050498581
0.050875513
0.051248612
0.05161749
0.051981769
0.052341075
0.052695045
0.053043324
0.053385563
0.053721425
0.054050583
0.054372719
0.054687525
0.054994704
0.055293971
0.055585049
0.055867672
0.056141587
0.056406552
0.056662331
0.056908703
0.057145453
0.057372378
0.057589286
0.057795992
0.05799232
0.058178106
0.05835319
0.058517424
0.058670664
0.058812777
0.058943636
0.059063119
0.059171113
0.059267509
0.059352205
0.059425104
0.059486115
0.059535153
0.059572141
0.059597002
0.059609531
0.047038787
0.04743149
0.047824
0.048215874
0.048606713
0.048996118
0.049383685
0.049769008
0.050151688
0.050531326
0.050907527
0.051279901
0.051648064
0.05201164
0.052370257
0.052723553
0.053071174
0.053412773
0.053748015
0.054076573
0.05439813
0.054712379
0.055019024
0.055317779
0.055608368
0.055890525
0.056163998
0.056428545
0.056683929
0.056929928
0.057166329
0.057392928
0.057609531
0.057815954
0.058012021
0.058197566
0.058372429
0.058536461
0.058689519
0.058831468
0.058962179
0.059081532
0.059189411
0.059285707
0.059370318
0.059443146
0.059504098
0.05955309
0.059590042
0.059614876
0.059627391
0.047080205
0.047472186
0.047863959
0.048255083
0.048645162
0.049033798
0.049420589
0.049805136
0.050187039
0.050565903
0.050941335
0.051312948
0.051680361
0.052043198
0.05240109
0.052753677
0.053100606
0.053441532
0.053776121
0.054104046
0.054424993
0.054738654
0.055044734
0.055342948
0.05563302
0.055914685
0.05618769
0.056451793
0.056706758
0.056952362
0.057188391
0.057414643
0.057630921
0.057837042
0.05803283
0.058218116
0.058392743
0.058556558
0.058709419
0.05885119
0.058981742
0.059100953
0.059208708
0.059304896
0.059389414
0.059462164
0.059523052
0.059571992
0.059608905
0.059633709
0.059646209
0.047123793
0.047515019
0.047906021
0.048296361
0.048685645
0.049073476
0.049459458
0.049843192
0.050224282
0.050602335
0.050976961
0.051347777
0.051714403
0.052076465
0.052433597
0.052785439
0.053131641
0.053471861
0.053805763
0.054133023
0.054453327
0.054766369
0.055071855
0.055369498
0.055659025
0.05594017
0.05621268
0.056476314
0.056730835
0.05697602
0.057211656
0.057437538
0.057653471
0.057859271
0.05805476
0.058239771
0.058414144
0.058577727
0.058730378
0.058871958
0.059002338
0.059121397
0.059229017
0.059325087
0.059409504
0.059482169
0.059542987
0.059591871
0.059628741
0.059653513
0.059665995
0.047169558
0.047559997
0.047950197
0.048339719
0.048728173
0.049115165
0.049500301
0.049883185
0.050263426
0.050640631
0.051014417
0.051384399
0.051750201
0.052111452
0.052467788
0.052818851
0.053164292
0.05350377
0.053836952
0.054163515
0.054483145
0.054795537
0.055100397
0.055397441
0.055686394
0.05596699
0.05623898
0.056502118
0.056756171
0.057000913
0.057236132
0.057461623
0.05767719
0.057882648
0.058077821
0.058262538
0.058436641
0.058599977
0.058752402
0.058893777
0.059023974
0.059142868
0.059250342
0.059346286
0.059430594
0.059503166
0.059563908
0.059612731
0.059649553
0.05967429
0.059686755
0.047217491
0.047607114
0.04799648
0.048385152
0.048772743
0.049158861
0.049543116
0.049925115
0.05030447
0.050680792
0.0510537
0.051422812
0.051787755
0.052148159
0.052503664
0.052853913
0.053198559
0.053537262
0.053869691
0.054195523
0.054514447
0.054826158
0.055130363
0.055426778
0.055715129
0.055995149
0.056266591
0.056529208
0.056782767
0.057027043
0.057261822
0.057486899
0.057702079
0.057907176
0.058102013
0.058286419
0.058460235
0.058623307
0.058775491
0.058916648
0.059046648
0.059165366
0.059272684
0.059368492
0.059452682
0.059525154
0.059585813
0.059634569
0.059671341
0.059696041
0.059708486
0.047267569
0.047656346
0.048044849
0.04843264
0.048819335
0.049204546
0.049587884
0.049968964
0.050347397
0.050722801
0.051094795
0.051463001
0.05182705
0.052186573
0.052541212
0.052890612
0.053234429
0.053572324
0.053903967
0.054229038
0.054547224
0.054858223
0.055161743
0.0554575
0.05574522
0.056024637
0.056295505
0.056557575
0.056810615
0.0570544
0.057288716
0.057513359
0.057728131
0.057932847
0.058127328
0.058311405
0.058484916
0.058647709
0.058799637
0.058940562
0.059070352
0.059188882
0.059296034
0.059391695
0.059475758
0.059548123
0.059608693
0.059657378
0.059694094
0.059718754
0.059731179
0.047319744
0.047707653
0.048095264
0.048482145
0.048867912
0.049252182
0.049634571
0.050014696
0.050392174
0.050766624
0.051137669
0.051504936
0.051868056
0.052226664
0.052580403
0.052928922
0.053271876
0.053608931
0.053939756
0.054264034
0.054581452
0.05489171
0.055194515
0.055489585
0.055776646
0.056055434
0.0563257
0.056587199
0.056839696
0.057082967
0.057316798
0.057540983
0.057755326
0.05795964
0.058153747
0.058337477
0.058510667
0.058673164
0.058824822
0.0589655
0.059095067
0.059213397
0.059320371
0.059415876
0.059499805
0.059572054
0.059632529
0.059681137
0.059717795
0.059742412
0.059754815
0.047373949
0.047760971
0.048147666
0.048533608
0.048918416
0.049301713
0.04968312
0.050062257
0.050438745
0.050812208
0.051182272
0.051548566
0.051910723
0.052268383
0.05262119
0.052968795
0.053310856
0.053647039
0.053977017
0.05430047
0.054617091
0.054926579
0.055228641
0.055522996
0.055809373
0.056087504
0.056357145
0.056618047
0.056869977
0.057112711
0.057346033
0.05756974
0.057783634
0.057987527
0.058181242
0.058364606
0.058537458
0.058699644
0.058851015
0.058991433
0.059120765
0.059238883
0.059345669
0.059441008
0.059524793
0.05959692
0.059657292
0.059705819
0.059742413
0.059766985
0.059779364
0.047430092
0.047816218
0.048201976
0.04858695
0.048970768
0.04935306
0.049733452
0.050111569
0.050487036
0.050859479
0.05122853
0.051593818
0.051954983
0.052311663
0.052663508
0.053010169
0.053351307
0.053686588
0.054015688
0.05433829
0.054654086
0.054962775
0.055264068
0.055557683
0.055843347
0.056120798
0.056389788
0.05665007
0.05690141
0.057143584
0.057376378
0.057599586
0.05781301
0.058016464
0.058209767
0.058392749
0.058565247
0.058727105
0.058878177
0.059018321
0.059147404
0.059265299
0.059371886
0.059467049
0.059550682
0.059622679
0.059682943
0.059731382
0.059767909
0.059792434
0.059804788
0.047488058
0.047873297
0.048258091
0.048642066
0.049024863
0.049406118
0.049785463
0.050162528
0.050536943
0.050908338
0.051276345
0.051640599
0.052000741
0.052356414
0.052707267
0.053052956
0.053393143
0.053727496
0.054055691
0.054377415
0.054692359
0.055000224
0.055300722
0.055593572
0.0558785
0.056155248
0.056423563
0.056683202
0.056933931
0.057175525
0.05740777
0.057630458
0.057843395
0.05804639
0.058239265
0.058421848
0.058593976
0.058755492
0.058906249
0.059046106
0.059174929
0.059292589
0.059398967
0.059493946
0.059577417
0.059649277
0.059709427
0.059757774
0.05979423
0.059818704
0.059831033
0.047547738
0.047932096
0.048315891
0.048698828
0.049080567
0.049460751
0.049839019
0.050215004
0.050588338
0.050958656
0.051325593
0.051688787
0.05204788
0.052402519
0.052752355
0.053097046
0.053436256
0.053769656
0.054096923
0.054417743
0.054731812
0.05503883
0.05533851
0.055630572
0.055914743
0.056190765
0.056458385
0.056717361
0.056967458
0.057208452
0.057440128
0.05766228
0.05787471
0.058077231
0.058269661
0.05845183
0.058623572
0.058784733
0.058935162
0.059074719
0.05920327
0.059320685
0.059426843
0.059521628
0.059604931
0.059676647
0.059736677
0.059784927
0.059821309
0.05984573
0.059858031
0.04722604
0.04760935
0.047992537
0.048375225
0.048757066
0.049137708
0.049516791
0.049893953
0.050268831
0.05064106
0.051010277
0.05137612
0.051738229
0.052096251
0.052449833
0.05279863
0.053142302
0.053480513
0.053812938
0.054139254
0.054459151
0.054772323
0.055078473
0.055377315
0.055668569
0.055951962
0.056227239
0.056494146
0.05675244
0.057001887
0.057242264
0.057473354
0.057694953
0.057906861
0.058108891
0.058300862
0.058482601
0.058653945
0.058814736
0.058964826
0.059104072
0.059232339
0.059349498
0.059455428
0.059550012
0.059633139
0.059704704
0.059764608
0.059812756
0.05984906
0.059873426
0.059885699
0.04690846
0.047290201
0.047672289
0.048054298
0.048435843
0.048816555
0.049196069
0.049574025
0.049950059
0.050323809
0.050694912
0.051063008
0.051427737
0.051788744
0.052145675
0.052498182
0.052845922
0.053188555
0.05352575
0.053857181
0.05418253
0.054501485
0.054813743
0.055119008
0.055416995
0.055707424
0.055990023
0.056264538
0.056530715
0.056788312
0.057037094
0.057276837
0.057507327
0.057728357
0.05793973
0.058141255
0.058332753
0.058514051
0.058684983
0.058845394
0.058995132
0.059134057
0.059262031
0.059378926
0.059484619
0.059578993
0.059661937
0.059733345
0.059793118
0.059841161
0.059877384
0.059901693
0.059913937
0.046594798
0.046974623
0.047355242
0.047736183
0.048117044
0.048497446
0.048877016
0.049255389
0.049632201
0.050007091
0.050379698
0.05074966
0.051116621
0.051480223
0.051840113
0.052195939
0.052547358
0.052894025
0.053235607
0.053571772
0.053902197
0.054226564
0.054544564
0.054855894
0.055160261
0.055457379
0.055746969
0.056028762
0.056302503
0.056567937
0.056824822
0.057072926
0.057312024
0.057541902
0.057762352
0.057973176
0.058174186
0.0583652
0.058546045
0.058716556
0.058876575
0.059025953
0.059164547
0.059292219
0.059408842
0.05951429
0.059608448
0.059691203
0.05976245
0.059822088
0.059870021
0.05990616
0.05993041
0.059942623
0.046662278
0.04704121
0.047420813
0.047800674
0.048180425
0.048559699
0.048938131
0.049315359
0.049691023
0.050064762
0.050436217
0.050805031
0.051170849
0.051533315
0.051892079
0.052246793
0.052597114
0.052942703
0.053283224
0.053618351
0.05394776
0.054271137
0.054588173
0.054898567
0.055202027
0.055498267
0.055787009
0.056067988
0.056340944
0.056605626
0.056861792
0.057109209
0.057347652
0.057576908
0.057796768
0.058007036
0.058207521
0.058398042
0.058578426
0.058748507
0.058908128