/*--------------------------------*- C++ -*----------------------------------*\
| =========                 |                                                 |
| \\      /  F ield         | OpenFOAM: The Open Source CFD Toolbox           |
|  \\    /   O peration     | Version:  2312                                  |
|   \\  /    A nd           | Website:  www.openfoam.com                      |
|    \\/     M anipulation  |                                                 |
\*---------------------------------------------------------------------------*/
FoamFile
{
    version     2.0;
    format      ascii;
    arch        "LSB;label=32;scalar=64";
    class       volScalarField;
    location    "0.1";
    object      CH4;
}
// * * * * * * * * * * * * * * * * * * * * * * * * * * * * * * * * * * * * * //

dimensions      [0 0 0 0 0 0 0];

internalField   nonuniform List<scalar> 
3250
(
0.10486771
0.1037792
0.10271744
0.10168051
0.10066657
0.099673899
0.098700849
0.097745852
0.096807415
0.095884111
0.094974573
0.094077493
0.093191614
0.092315731
0.091448682
0.090589354
0.089736673
0.088889607
0.088047162
0.087208383
0.086372354
0.085538194
0.084705061
0.083872149
0.083038691
0.082203958
0.081367259
0.080527945
0.079685406
0.078839076
0.077988432
0.077132995
0.076272334
0.075406064
0.074533849
0.073655404
0.072770494
0.071878938
0.070980607
0.070075425
0.069163373
0.068244483
0.06731884
0.0663866
0.065448064
0.064503435
0.063552964
0.062596973
0.061635839
0.10484336
0.10375583
0.10269499
0.10165892
0.1006458
0.099653903
0.098681582
0.097727276
0.096789493
0.095866809
0.094957861
0.094061341
0.093175995
0.092300619
0.091434054
0.090575188
0.089722948
0.088876303
0.088034262
0.087195869
0.086360211
0.085526406
0.084693614
0.08386103
0.083027888
0.082193458
0.081357052
0.080518021
0.079675755
0.078829688
0.077979299
0.07712411
0.076263688
0.075397651
0.074525662
0.073647438
0.072762743
0.071871396
0.07097327
0.070068289
0.069156434
0.068237738
0.067312291
0.066380247
0.065441871
0.0644974
0.063547082
0.06259125
0.061630301
0.10479476
0.10370918
0.10265018
0.10161584
0.10060435
0.099613992
0.098643126
0.097690196
0.096753718
0.095832271
0.094924497
0.094029092
0.093144808
0.092270442
0.09140484
0.090546891
0.089695528
0.08884972
0.088008479
0.087170853
0.086335928
0.085502826
0.084670709
0.083838774
0.083006254
0.082172424
0.081336595
0.080498119
0.079656389
0.07881084
0.077960952
0.077106246
0.076246294
0.07538071
0.074509163
0.073631366
0.072747088
0.071856147
0.070958417
0.070053822
0.069142344
0.06822402
0.067298939
0.066367257
0.065429214
0.064485059
0.063535051
0.062579529
0.061618904
0.10472196
0.10363931
0.10258306
0.10155131
0.10054226
0.099554209
0.098585521
0.097634653
0.096700127
0.095780532
0.094874514
0.093980779
0.093098081
0.092225226
0.091361063
0.090504486
0.089654432
0.088809875
0.087969829
0.087133347
0.086299517
0.085467465
0.084636355
0.083805385
0.082973794
0.082140856
0.081305886
0.080468237
0.079627305
0.078782527
0.077933382
0.077079395
0.076220138
0.075355229
0.074484336
0.073607174
0.072723512
0.071833172
0.070936025
0.070032001
0.06912108
0.0682033
0.067278755
0.066347598
0.065410054
0.064466375
0.063516834
0.062561775
0.061601617
0.10462505
0.1035463
0.10249371
0.1014654
0.1004596
0.099474612
0.098508822
0.097560696
0.096628767
0.095711634
0.094807953
0.093916437
0.09303585
0.092165004
0.091302754
0.090448002
0.089599688
0.088756793
0.087918336
0.087083373
0.086250998
0.08542034
0.084590566
0.083760879
0.08293052
0.082098767
0.081264936
0.080428385
0.079588511
0.078744753
0.077896593
0.077043559
0.076185224
0.075321208
0.074451179
0.073574857
0.072692011
0.071802464
0.07090609
0.070002818
0.069092632
0.06817557
0.067251727
0.066321257
0.065384375
0.064441335
0.063492417
0.062537973
0.061578427
0.10451106
0.10343688
0.10238858
0.10136433
0.10036235
0.099380961
0.098418578
0.097473674
0.096544798
0.095630559
0.094729624
0.093840718
0.092962611
0.092094125
0.091234124
0.090381515
0.089535247
0.088694304
0.087857713
0.087024536
0.086193869
0.085364848
0.084536644
0.083708463
0.08287955
0.082049187
0.081216694
0.080381431
0.079542799
0.078700238
0.077853234
0.077001317
0.076144063
0.075281093
0.074412078
0.07353674
0.07265485
0.071766231
0.070870761
0.06996837
0.069059043
0.06814282
0.067219797
0.066290127
0.065354022
0.064411734
0.063463552
0.06250983
0.061550999
0.10438352
0.10331445
0.10227096
0.10125123
0.10025351
0.099276156
0.09831758
0.09737628
0.096450816
0.095539812
0.094641948
0.093755959
0.092880625
0.092014779
0.091157291
0.090307079
0.089463096
0.088624337
0.087789832
0.08695865
0.086129893
0.085302702
0.084476252
0.083649754
0.082822458
0.081993649
0.081162651
0.080328827
0.07949158
0.078650357
0.077804645
0.076953976
0.076097928
0.075236126
0.074368244
0.073494004
0.07261318
0.071725599
0.070831137
0.069929729
0.06902136
0.068106071
0.067183962
0.066255183
0.065319945
0.0643785
0.063431142
0.062478229
0.061520193
0.10423251
0.10316947
0.10213166
0.10111728
0.10012461
0.099152022
0.098197951
0.097260912
0.096339486
0.095432309
0.094538079
0.09365554
0.092783488
0.091920764
0.091066251
0.090218874
0.089377596
0.08854142
0.087709384
0.086880562
0.086054066
0.085229039
0.084404664
0.083580158
0.082754775
0.081927803
0.081098573
0.080266451
0.079430845
0.078591204
0.077747019
0.076897825
0.076043204
0.075182784
0.074316241
0.073443299
0.072563737
0.07167738
0.070784111
0.069883864
0.068976626
0.068062442
0.06714141
0.066213684
0.065279471
0.064339025
0.063392644
0.062440688
0.061483595
0.10405638
0.10300037
0.10196918
0.10096103
0.099974239
0.099007198
0.098058374
0.0971263
0.096209577
0.095306861
0.094416863
0.093538345
0.092670117
0.091811032
0.090959986
0.090115913
0.089277789
0.088444623
0.087615464
0.086789394
0.085965531
0.085143028
0.084321073
0.083498888
0.082675733
0.081850904
0.081023734
0.080193597
0.079359902
0.078522104
0.077679699
0.076832225
0.075979267
0.075120457
0.074255473
0.073384045
0.072505951
0.071621022
0.070729142
0.069830247
0.068924327
0.068011429
0.067091652
0.06616515
0.065232132
0.064292851
0.06334761
0.062396773
0.061440778
0.10385343
0.10280551
0.10178192
0.10078094
0.099800914
0.098840259
0.097897471
0.096971111
0.096059801
0.095162218
0.094277093
0.093403205
0.092539379
0.091684484
0.090837428
0.08999716
0.089162666
0.088332968
0.087507122
0.086684221
0.085863392
0.085043795
0.084224625
0.083405113
0.082584526
0.081762164
0.080937368
0.080109515
0.079278022
0.078442348
0.077601992
0.076756499
0.075905456
0.0750485
0.074185313
0.073315627
0.072439225
0.07155594
0.070665659
0.069768321
0.068863919
0.0679525
0.067034167
0.066109075
0.065177433
0.064239496
0.063295571
0.062346022
0.061391293
0.1036219
0.10258317
0.10156825
0.10057543
0.099603098
0.098649715
0.097713804
0.096793954
0.095888811
0.094997077
0.094117504
0.093248892
0.092390084
0.091539964
0.090697458
0.089861529
0.089031174
0.088205428
0.08738336
0.086564073
0.085746703
0.084930419
0.084114427
0.083297964
0.082480305
0.081660757
0.080838668
0.080013421
0.07918444
0.078351188
0.07751317
0.076669935
0.075821077
0.074966236
0.074105098
0.0732374
0.072362927
0.071481517
0.07059306
0.069697498
0.068794826
0.067885095
0.066968409
0.066044925
0.065114853
0.064178451
0.063236027
0.062287951
0.061334666
0.10335993
0.10233158
0.10132643
0.10034283
0.099379189
0.098434019
0.097505874
0.096593375
0.095695199
0.094810074
0.093936776
0.093074126
0.092220989
0.091376268
0.090538905
0.089707879
0.088882204
0.088060928
0.087243133
0.086427932
0.085614474
0.084801938
0.08398954
0.083176526
0.082362178
0.081545815
0.080726788
0.07990449
0.079078349
0.078247837
0.077412465
0.076571786
0.075725401
0.074872952
0.074014133
0.073148684
0.072276394
0.071397106
0.070510713
0.06961716
0.068716447
0.067808625
0.066893803
0.065972138
0.065043843
0.064109179
0.063168457
0.062222048
0.0612704
0.10306563
0.10204891
0.1010547
0.10008142
0.099127523
0.098191558
0.09727212
0.096367865
0.095477503
0.09459979
0.093733531
0.09287757
0.092030797
0.091192134
0.090360544
0.089535023
0.088714602
0.087898344
0.087085345
0.086274733
0.085465668
0.084657342
0.08384898
0.08303984
0.082229213
0.081416425
0.080600839
0.079781853
0.078958906
0.078131473
0.077299073
0.076461267
0.075617659
0.0747679
0.073911686
0.073048765
0.072178929
0.071302026
0.070417952
0.069526658
0.068628145
0.06772247
0.066809742
0.065890123
0.064963827
0.064031117
0.063092309
0.062147776
0.06119797
0.10273702
0.10173324
0.10075122
0.099789424
0.098846376
0.097920663
0.097010924
0.096115854
0.095234199
0.094364748
0.093506335
0.092657834
0.091818156
0.090986249
0.090161098
0.089341718
0.088527158
0.087716499
0.086908853
0.086103363
0.085299201
0.084495574
0.083691719
0.082886903
0.08208043
0.081271636
0.080459892
0.079644606
0.078825223
0.078001229
0.07717215
0.076337552
0.075497048
0.074650293
0.073796991
0.072936893
0.0720698
0.071195561
0.070314079
0.069425309
0.068529255
0.067625978
0.066715591
0.065798258
0.064874197
0.063943673
0.063007004
0.06206457
0.061116823
0.1023721
0.10138262
0.10041408
0.099465006
0.098533968
0.097619606
0.09672061
0.095835718
0.094963711
0.094103417
0.093253702
0.092413471
0.091581661
0.090757249
0.08993924
0.089126673
0.088318617
0.087514172
0.086712466
0.08591266
0.085113943
0.084315533
0.08351668
0.082716668
0.081914808
0.081110449
0.080302973
0.079491796
0.078676375
0.077856202
0.077030812
0.07619978
0.075362724
0.074519309
0.073669243
0.072812284
0.071948238
0.071076962
0.070198362
0.069312397
0.068419077
0.067518467
0.066610683
0.065695893
0.064774316
0.063846224
0.062911937
0.061971837
0.061026382
0.10196878
0.10099505
0.10004135
0.099106274
0.098188463
0.097286609
0.096399452
0.095525776
0.094664408
0.093814213
0.092974092
0.092142983
0.091319857
0.090503715
0.08969359
0.088888545
0.08808767
0.087290087
0.086494944
0.085701417
0.084908714
0.084116068
0.083322745
0.08252804
0.08173128
0.080931825
0.080129066
0.079322434
0.078511393
0.077695446
0.076874137
0.076047048
0.075213808
0.074374086
0.073527601
0.072674115
0.071813442
0.070945444
0.070070033
0.069187173
0.06829688
0.067399222
0.066494319
0.065582344
0.06466352
0.06373812
0.06280647
0.061868956
0.06092604
0.10152495
0.10056846
0.09963102
0.09871129
0.097807979
0.096919841
0.09604567
0.095184302
0.094334609
0.093495499
0.092665913
0.091844824
0.091031236
0.090224181
0.08942272
0.088625942
0.087832963
0.087042924
0.086254997
0.085468378
0.08468229
0.083895987
0.083108748
0.082319884
0.081528737
0.080734679
0.079937115
0.079135486
0.078329269
0.077517976
0.076701161
0.075878417
0.075049379
0.074213728
0.073371187
0.072521529
0.071664573
0.070800188
0.069928292
0.069048855
0.068161898
0.067267495
0.066365769
0.065456898
0.064541109
0.063618679
0.062689938
0.061755277
0.060815162
0.10103847
0.10010077
0.099181062
0.098278076
0.097390592
0.096517429
0.095657442
0.09480952
0.093972587
0.093145595
0.092327529
0.091517399
0.090714245
0.089917134
0.089125155
0.088337428
0.087553092
0.086771317
0.085991294
0.085212241
0.084433402
0.083654049
0.082873479
0.082091019
0.081306025
0.080517885
0.079726018
0.078929878
0.078128951
0.077322765
0.076510881
0.075692904
0.07486848
0.074037296
0.073199086
0.07235363
0.071500756
0.070640338
0.069772302
0.068896625
0.068013333
0.067122505
0.066224271
0.06531881
0.064406356
0.063487191
0.062561647
0.061630121
0.060693085
0.10050715
0.099589861
0.098689411
0.097804619
0.09693434
0.096077463
0.095232905
0.094399617
0.093576573
0.092762778
0.091957258
0.091159069
0.090367287
0.089581015
0.088799376
0.088021518
0.087246612
0.086473852
0.085702455
0.084931661
0.084160737
0.083388972
0.082615685
0.08184022
0.081061949
0.080280276
0.079494635
0.078704493
0.077909351
0.077108747
0.076302256
0.075489493
0.074670114
0.073843817
0.073010346
0.072169488
0.07132108
0.070465004
0.069601194
0.068729633
0.067850354
0.066963441
0.066069029
0.065167304
0.064258504
0.063342913
0.062420871
0.061492781
0.060559118
0.10084074
0.099928804
0.099033591
0.098153981
0.097288883
0.096437235
0.095598001
0.094770167
0.093952744
0.093144765
0.092345286
0.091553384
0.090768157
0.089988725
0.089214226
0.088443821
0.087676691
0.086912036
0.086149078
0.085387062
0.084625252
0.083862939
0.083099433
0.082334073
0.081566223
0.080795273
0.080020643
0.079241783
0.078458176
0.077669337
0.076874818
0.076074205
0.075267126
0.074453249
0.073632282
0.072803978
0.071968136
0.0711246
0.070273262
0.069414064
0.068546995
0.067672095
0.066789456
0.065899218
0.065001573
0.064096762
0.063185076
0.062266859
0.061342519
0.060412541
0.10018798
0.099301253
0.098429822
0.097572675
0.096728817
0.095897273
0.095077084
0.09426731
0.093467027
0.09267533
0.09189133
0.091114156
0.090342954
0.089576887
0.088815135
0.088056896
0.087301386
0.086547837
0.085795504
0.085043657
0.08429159
0.083538616
0.08278407
0.082027312
0.081267726
0.080504723
0.07973774
0.078966245
0.078189736
0.077407745
0.076619836
0.075825611
0.075024711
0.074216814
0.073401642
0.072578959
0.071748572
0.070910337
0.070064154
0.069209974
0.068347794
0.067477662
0.066599675
0.065713982
0.064820779
0.063920313
0.063012879
0.062098827
0.06117857
0.060252605
0.099482019
0.098622326
0.097776423
0.096943402
0.09612237
0.095312441
0.09451274
0.093722403
0.092940576
0.092166417
0.091399098
0.090637802
0.089881725
0.089130076
0.08838208
0.087636974
0.086894011
0.08615246
0.085411606
0.084670751
0.083929216
0.08318634
0.082441485
0.081694033
0.080943391
0.080188989
0.079430285
0.078666765
0.077897944
0.07712337
0.076342625
0.075555323
0.07476112
0.073959708
0.07315082
0.072334232
0.071509763
0.070677279
0.06983669
0.068987955
0.068131082
0.067266126
0.066393192
0.065512434
0.064624056
0.06372831
0.062825496
0.061915966
0.061000143
0.060078533
0.09872068
0.097889886
0.097071286
0.096264089
0.095467502
0.094680735
0.093903001
0.093133514
0.092371494
0.091616167
0.090866766
0.090122533
0.089382715
0.088646574
0.087913377
0.087182406
0.086452952
0.085724322
0.084995834
0.084266824
0.083536641
0.082804654
0.082070251
0.081332839
0.080591848
0.07984673
0.079096964
0.078342056
0.07758154
0.076814981
0.076041976
0.075262158
0.074475195
0.073680794
0.072878703
0.072068708
0.071250642
0.070424382
0.069589848
0.068747009
0.067895882
0.067036531
0.06616907
0.065293659
0.06441051
0.063519878
0.062622071
0.061717442
0.060806419
0.059889523
0.098713066
0.097901861
0.097101848
0.096312352
0.095532699
0.094762204
0.094000176
0.093245916
0.092498722
0.091757892
0.091022721
0.090292508
0.089566555
0.088844165
0.088124651
0.08740733
0.086691526
0.085976575
0.085261819
0.084546616
0.083830334
0.083112355
0.082392077
0.081668916
0.080942306
0.080211701
0.079476578
0.078736437
0.077990805
0.077239235
0.076481312
0.075716651
0.074944901
0.074165747
0.073378909
0.07258415
0.071781271
0.070970117
0.070150575
0.069322579
0.068486108
0.067641189
0.066787895
0.065926348
0.065056717
0.06417922
0.06329412
0.062401727
0.061502399
0.060596561
0.059684747
0.097800198
0.097023547
0.096256202
0.095497622
0.09474725
0.094004513
0.093268819
0.092539564
0.091816133
0.091097901
0.090384238
0.08967451
0.088968082
0.088264316
0.087562579
0.086862238
0.086162664
0.085463236
0.08476334
0.084062368
0.083359726
0.08265483
0.081947109
0.081236008
0.080520989
0.079801533
0.079077141
0.078347338
0.077611672
0.076869717
0.076121078
0.075365389
0.074602317
0.073831562
0.073052864
0.072265997
0.071470779
0.070667068
0.069854763
0.069033811
0.068204202
0.067365973
0.066519209
0.065664039
0.064800643
0.063929244
0.063050114
0.062163566
0.06126996
0.060369719
0.05946337
0.09682396
0.096083825
0.095351036
0.094625185
0.093905837
0.093192532
0.092484782
0.091782079
0.091083895
0.090389689
0.089698906
0.089010983
0.088325348
0.087641427
0.086958641
0.086276409
0.085594154
0.084911298
0.08422727
0.083541503
0.08285344
0.082162531
0.08146824
0.080770043
0.080067431
0.079359913
0.078647016
0.077928288
0.077203303
0.076471656
0.075732973
0.074986909
0.074233147
0.073471409
0.072701449
0.071923058
0.071136069
0.070340354
0.069535828
0.068722448
0.067900217
0.067069185
0.066229444
0.065381137
0.064524451
0.063659618
0.062786917
0.061906669
0.061019237
0.060125049
0.095782604
0.095080925
0.094384562
0.093693243
0.093006657
0.092324457
0.091646262
0.090971662
0.090300221
0.08963148
0.088964963
0.088300179
0.087636625
0.086973787
0.086311146
0.085648175
0.084984347
0.084319133
0.083652005
0.08298244
0.082309917
0.081633926
0.080953963
0.080269538
0.079580173
0.078885404
0.078184788
0.077477899
0.076764333
0.076043711
0.07531568
0.074579916
0.073836123
0.07308404
0.07232344
0.071554131
0.070775963
0.069988821
0.069192636
0.068387379
0.067573066
0.066749756
0.065917557
0.065076619
0.06422714
0.063369362
0.062503572
0.061630101
0.060749328
0.059861715
0.094674573
0.094013248
0.093355148
0.092700137
0.09204803
0.091398595
0.090751558
0.09010661
0.089463405
0.088821572
0.088180713
0.087540413
0.086900235
0.086259733
0.085618444
0.084975901
0.084331627
0.083685143
0.083035968
0.082383619
0.081727619
0.081067495
0.08040278
0.079733016
0.079057758
0.078376574
0.077689048
0.076994781
0.076293396
0.075584538
0.074867878
0.074143111
0.073409966
0.0726682
0.071917604
0.071158007
0.070389272
0.069611303
0.068824045
0.068027483
0.067221647
0.06640661
0.06558249
0.064749449
0.063907696
0.063057484
0.062199108
0.06133291
0.060459291
0.059578732
0.093498531
0.092879396
0.092261345
0.091644379
0.091028434
0.090413396
0.089799101
0.089185336
0.088571852
0.087958362
0.087344551
0.086730078
0.086114578
0.085497667
0.084878948
0.084258009
0.083634427
0.083007774
0.082377616
0.081743515
0.081105037
0.080461746
0.079813215
0.07915902
0.07849875
0.077832004
0.077158396
0.076477557
0.075789134
0.0750928
0.074388249
0.0736752
0.072953403
0.072222636
0.071482711
0.070733474
0.069974808
0.069206632
0.068428907
0.067641634
0.066844857
0.066038663
0.065223181
0.064398588
0.063565101
0.062722984
0.061872545
0.061014137
0.060148175
0.059275154
0.092253398
0.091678209
0.091101926
0.09052468
0.089946532
0.089367484
0.088787477
0.088206401
0.087624098
0.087040371
0.086454984
0.085867673
0.085278144
0.084686081
0.084091148
0.083492992
0.082891245
0.082285531
0.081675464
0.081060654
0.080440707
0.07981523
0.079183833
0.07854613
0.077901743
0.077250306
0.076591461
0.07592487
0.07525021
0.074567178
0.073875494
0.073174901
0.072465172
0.071746107
0.071017538
0.070279331
0.069531387
0.068773644
0.06800608
0.067228711
0.066441595
0.065644834
0.064838572
0.064022995
0.063198334
0.062364865
0.061522905
0.06067282
0.059815037
0.058950058
0.090938388
0.090408801
0.089875915
0.08933999
0.088801207
0.088259682
0.087715463
0.087168538
0.086618844
0.086066268
0.085510658
0.084951825
0.084389547
0.083823576
0.083253638
0.082679439
0.082100669
0.081517002
0.080928104
0.080333629
0.079733229
0.079126553
0.078513251
0.077892973
0.077265377
0.07663013
0.075986909
0.075335404
0.07467532
0.074006384
0.07332834
0.072640958
0.071944034
0.071237391
0.070520882
0.069794393
0.069057845
0.068311195
0.067554438
0.066787606
0.066010773
0.065224056
0.064427612
0.063621641
0.062806387
0.061982136
0.061149218
0.060308008
0.059458944
0.058602535
0.08955305
0.089070597
0.088582629
0.088089529
0.087591595
0.087089054
0.086582057
0.08607069
0.08555498
0.085034903
0.084510387
0.083981317
0.083447545
0.082908888
0.082365137
0.081816058
0.081261395
0.080700877
0.08013422
0.079561125
0.07898129
0.078394405
0.07780016
0.077198246
0.076588356
0.075970192
0.075343462
0.074707889
0.074063208
0.073409174
0.072745558
0.072072157
0.07138879
0.070695303
0.069991574
0.069277508
0.068553047
0.067818166
0.067072879
0.066317235
0.065551326
0.064775282
0.063989275
0.063193519
0.06238827
0.061573827
0.06075053
0.059918767
0.059078983
0.058231694
0.088097307
0.087663376
0.087221716
0.086772828
0.086317124
0.085854934
0.085386512
0.084912037
0.084431627
0.08394534
0.083453184
0.082955121
0.082451072
0.081940921
0.081424522
0.0809017
0.080372257
0.079835975
0.079292619
0.078741939
0.078183679
0.077617571
0.077043347
0.076460735
0.075869468
0.07526928
0.074659916
0.074041129
0.073412685
0.072774369
0.072125979
0.071467338
0.070798292
0.07011871
0.069428492
0.068727568
0.068015898
0.067293479
0.066560341
0.065816554
0.065062224
0.064297499
0.063522564
0.062737649
0.061943022
0.061138994
0.060325918
0.05950419
0.058674266
0.05783667
0.0865715
0.086187308
0.085793196
0.085389771
0.084977553
0.084556972
0.084128377
0.08369204
0.083248162
0.082796886
0.082338296
0.081872426
0.081399267
0.080918771
0.080430851
0.079935393
0.079432254
0.078921269
0.078402254
0.077875008
0.077339318
0.076794962
0.076241712
0.075679337
0.075107604
0.074526287
0.073935162
0.073334017
0.072722648
0.072100869
0.071468509
0.070825416
0.070171462
0.069506543
0.068830581
0.068143527
0.067445366
0.066736113
0.066015818
0.065284568
0.064542489
0.063789743
0.063026532
0.062253099
0.061469726
0.060676737
0.059874496
0.05906341
0.058243945
0.057416632
0.084976428
0.084643
0.0842975
0.083940631
0.083573012
0.083195167
0.082807534
0.082410473
0.082004266
0.081589134
0.081165236
0.080732676
0.080291514
0.079841763
0.0793834
0.078916367
0.078440577
0.077955918
0.077462255
0.076959434
0.076447289
0.075925641
0.075394303
0.074853084
0.074301789
0.073740227
0.07316821
0.072585558
0.0719921
0.071387679
0.070772153
0.070145399
0.069507315
0.068857821
0.068196864
0.06752442
0.066840493
0.06614512
0.065438371
0.064720353
0.063991207
0.063251113
0.06250029
0.061738994
0.060967522
0.06018621
0.059395434
0.058595612
0.05778722
0.056970798
0.083313398
0.083031534
0.082735518
0.082426115
0.082104044
0.08176991
0.081424239
0.081067467
0.080699956
0.080321999
0.079933825
0.079535608
0.07912747
0.078709487
0.078281696
0.077844094
0.077396648
0.076939297
0.076471956
0.075994518
0.075506861
0.07500885
0.074500338
0.073981174
0.073451202
0.072910266
0.072358214
0.071794897
0.071220178
0.07063393
0.07003604
0.069426414
0.068804976
0.068171672
0.067526474
0.06686938
0.066200418
0.065519646
0.064827154
0.064123068
0.063407548
0.06268079
0.06194303
0.061194538
0.060435625
0.059666642
0.058887974
0.058100051
0.05730336
0.05649845
0.081584281
0.0813545
0.081108642
0.080847402
0.080571648
0.080282031
0.079979164
0.079663551
0.079335628
0.078995756
0.078644229
0.078281286
0.07790711
0.077521836
0.077125555
0.076718321
0.076300151
0.075871036
0.075430935
0.074979791
0.074517524
0.074044041
0.073559238
0.073063
0.072555211
0.07203575
0.071504498
0.070961343
0.070406178
0.069838907
0.069259446
0.068667729
0.068063708
0.067447355
0.066818667
0.066177666
0.065524402
0.064858954
0.064181434
0.063491986
0.062790789
0.062078058
0.061354042
0.060619029
0.059873344
0.059117348
0.058351442
0.057576066
0.056791716
0.05599895
0.079791656
0.07961399
0.07941883
0.079206179
0.078977328
0.078732831
0.078473439
0.078199692
0.077912102
0.077611087
0.077297004
0.076970151
0.076630767
0.076279042
0.075915122
0.07553911
0.075151074
0.074751051
0.07433905
0.073915053
0.073479027
0.073030918
0.072570662
0.072098184
0.071613403
0.071116235
0.070606595
0.070084404
0.069549587
0.069002077
0.068441822
0.067868784
0.067282941
0.066684292
0.066072858
0.065448686
0.064811848
0.064162445
0.063500611
0.062826509
0.062140335
0.061442323
0.060732738
0.060011884
0.059280099
0.058537759
0.057785276
0.0570231
0.05625174
0.055471763
0.077936438
0.077812375
0.077668766
0.077504621
0.077323155
0.07712412
0.076908703
0.07667734
0.076430663
0.076169121
0.075893136
0.075603055
0.07529917
0.074981724
0.07465091
0.074306879
0.073949747
0.073579594
0.073196473
0.072800411
0.072391413
0.071969466
0.071534545
0.071086612
0.070625622
0.070151526
0.069664274
0.069163817
0.068650113
0.068123126
0.067582832
0.067029221
0.066462299
0.065882091
0.065288643
0.064682026
0.064062334
0.063429692
0.062784252
0.062126197
0.061455745
0.060773143
0.060078676
0.059372662
0.058655453
0.057927439
0.057189042
0.056440727
0.05568301
0.05491647
0.076025489
0.07595228
0.075859303
0.075745111
0.075611956
0.075458197
0.075287168
0.075098458
0.074893109
0.074671478
0.074434086
0.07418131
0.073913496
0.073630929
0.073333848
0.073022447
0.072696886
0.072357286
0.072003741
0.071636319
0.071255063
0.070859999
0.070451137
0.070028477
0.069592008
0.069141715
0.068677581
0.068199588
0.067707726
0.067201988
0.06668238
0.066148919
0.065601638
0.065040587
0.064465838
0.063877484
0.063275644
0.062660463
0.062032115
0.061390802
0.06073676
0.060070256
0.059391588
0.05870109
0.05799913
0.05728611
0.056562466
0.05582867
0.055085252
0.0543328
0.074061599
0.074040741
0.073997484
0.073930796
0.07384456
0.073737512
0.073611815
0.073465505
0.073301816
0.073120303
0.072921838
0.072706732
0.072475407
0.072228177
0.071965322
0.071687077
0.071393639
0.071085167
0.070761794
0.070423624
0.070070737
0.069703196
0.069321045
0.068924317
0.068513035
0.068087218
0.067646878
0.067192031
0.066722694
0.066238892
0.065740656
0.065228032
0.064701078
0.064159871
0.063604507
0.063035103
0.062451799
0.061854762
0.061244186
0.060620294
0.059983339
0.059333605
0.058671408
0.057997096
0.057311051
0.056613688
0.055905454
0.055186834
0.054458367
0.053720651
0.072050995
0.07208094
0.072086334
0.072068184
0.072028206
0.071965601
0.07188359
0.07178109
0.07165993
0.07151826
0.071358958
0.071181676
0.070987098
0.070775506
0.070547225
0.070302523
0.07004163
0.069764742
0.069472023
0.069163613
0.068839625
0.068500154
0.068145278
0.067775061
0.06738956
0.066988821
0.06657289
0.066141809
0.065695627
0.065234393
0.06475817
0.064267026
0.063761048
0.063240336
0.06270501
0.062155209
0.061591096
0.06101286
0.060420714
0.0598149
0.059195688
0.058563381
0.057918309
0.057260837
0.05659136
0.055910304
0.05521813
0.054515332
0.053802461
0.053080122
0.069998671
0.070078163
0.07013189
0.070160908
0.070166214
0.070148724
0.070109858
0.070048935
0.069968689
0.069868211
0.069748757
0.069609047
0.069451356
0.069275521
0.069081999
0.068871077
0.068643009
0.068398026
0.068136319
0.067858057
0.067563386
0.06725243
0.066925297
0.066582081
0.066222866
0.06584773
0.065456746
0.065049984
0.064627519
0.064189429
0.063735801
0.06326673
0.062782326
0.062282714
0.061768035
0.061238453
0.060694152
0.060135339
0.059562248
0.05897514
0.058374302
0.057760053
0.05713274
0.056492741
0.055840464
0.055176349
0.054500866
0.053814522
0.053117876
0.052411542
0.067911121
0.068038605
0.068139321
0.06821431
0.068264539
0.06829091
0.068294239
0.068275377
0.068235479
0.068173833
0.06809296
0.067992057
0.067871672
0.067731422
0.067572685
0.067395618
0.0672005
0.066987596
0.066757119
0.066509265
0.066244206
0.065962094
0.065663062
0.065347232
0.065014716
0.064665616
0.064300032
0.06391806
0.063519802
0.063105359
0.062674843
0.062228375
0.061766085
0.061288123
0.060794653
0.060285857
0.059761941
0.059223133
0.058669684
0.058101873
0.057520005
0.056924413
0.056315461
0.055693539
0.055059069
0.054412502
0.05375432
0.053085038
0.052405226
0.051715505
0.065795566
0.065969172
0.066115212
0.066234688
0.066328534
0.066397629
0.066442785
0.066464759
0.066464199
0.066441908
0.066398863
0.066334146
0.06625035
0.066146928
0.066022978
0.065879665
0.06571744
0.065536642
0.06533746
0.065120129
0.064884845
0.064631777
0.064361085
0.064072914
0.063767398
0.063444666
0.063104839
0.06274804
0.062374391
0.061984018
0.061577056
0.061153646
0.060713945
0.060258119
0.059786355
0.059298857
0.058795847
0.058277574
0.057744305
0.057196338
0.056633992
0.056057617
0.055467589
0.054864312
0.054248221
0.053619778
0.052979474
0.052327834
0.051665436
0.05099291
0.063659927
0.063877482
0.064066882
0.064229071
0.064364939
0.064475332
0.064561035
0.064622775
0.064661213
0.064676961
0.064670659
0.064642827
0.064594321
0.064525422
0.06443582
0.064327433
0.064197811
0.064049022
0.063881022
0.063694179
0.063488687
0.063264728
0.063022482
0.062762115
0.062483784
0.062187638
0.061873819
0.061542472
0.061193738
0.060827767
0.060444713
0.060044739
0.059628019
0.059194743
0.058745114
0.058279356
0.057797711
0.057300442
0.056787835
0.056260202
0.05571788
0.05516123
0.054590643
0.054006536
0.053409352
0.052799566
0.052177678
0.051544221
0.050899782
0.050244996
0.061512808
0.061771859
0.062002372
0.062205217
0.062381234
0.062531226
0.06265594
0.062756073
0.062832267
0.062885117
0.062915179
0.062922909
0.062909082
0.062873904
0.062818072
0.062741951
0.062645476
0.062529395
0.062392159
0.062235625
0.062059798
0.061864859
0.061651021
0.06141847
0.061167379
0.060897914
0.060610237
0.060304509
0.059980891
0.059639551
0.059280662
0.058904405
0.058510974
0.058100575
0.05767343
0.057229779
0.056769882
0.056294016
0.055802485
0.055295615
0.054773754
0.05423728
0.053686593
0.053122123
0.052544324
0.051953678
0.051350695
0.050735916
0.050109934
0.049473391
0.059363487
0.059661327
0.059930434
0.060171607
0.060385634
0.060573265
0.0607352
0.060872094
0.060984556
0.061073156
0.061138419
0.061180833
0.06120088
0.061198895
0.061175667
0.061131572
0.061066054
0.060980935
0.060875742
0.060749421
0.060602988
0.060436802
0.060251182
0.060046313
0.059822377
0.059579556
0.059318026
0.059037962
0.058739543
0.058422952
0.058088377
0.057736017
0.057366081
0.056978792
0.056574388
0.056153124
0.055715273
0.05526113
0.054791011
0.054305254
0.053804223
0.053288304
0.052757911
0.052213481
0.05165548
0.051084397
0.050500749
0.049905085
0.049298003
0.04868015
0.056858878
0.057221971
0.057555592
0.057860498
0.058137421
0.058387075
0.058610143
0.058807266
0.05897905
0.059126062
0.059248831
0.059347855
0.059423597
0.059476491
0.059506921
0.059515272
0.059502074
0.059467422
0.059412208
0.059336396
0.059240114
0.059123925
0.058985933
0.0588282
0.058650727
0.058453716
0.058237359
0.058001844
0.057747359
0.057474095
0.057182247
0.056872018
0.05654362
0.056197277
0.055833226
0.055451717
0.05505302
0.054637421
0.054205227
0.053756766
0.05329239
0.052812471
0.052317407
0.051807621
0.05128356
0.050745697
0.050194527
0.049630575
0.049054394
0.04846659
0.047867811
0.05470335
0.055098679
0.055464876
0.055802605
0.056112499
0.056395187
0.056651275
0.056881338
0.057085923
0.057265544
0.057420688
0.057551812
0.057659346
0.057743691
0.057805221
0.057844284
0.057861202
0.057856278
0.057830164
0.057783073
0.057715171
0.057626715
0.057518215