/*--------------------------------*- C++ -*----------------------------------*\
| =========                 |                                                 |
| \\      /  F ield         | OpenFOAM: The Open Source CFD Toolbox           |
|  \\    /   O peration     | Version:  2312                                  |
|   \\  /    A nd           | Website:  www.openfoam.com                      |
|    \\/     M anipulation  |                                                 |
\*---------------------------------------------------------------------------*/
FoamFile
{
    version     2.0;
    format      ascii;
    arch        "LSB;label=32;scalar=64";
    class       volScalarField;
    location    "0.1";
    object      CO2;
}
// * * * * * * * * * * * * * * * * * * * * * * * * * * * * * * * * * * * * * //

dimensions      [0 0 0 0 0 0 0];

internalField   nonuniform List<scalar> 
3250
(
0.037728749
0.03734306
0.036966924
0.036599756
0.036240998
0.035890119
0.035546612
0.035209996
0.034879811
0.034555617
0.034236992
0.033923533
0.033614853
0.033310581
0.033010358
0.032713843
0.032420703
0.032130622
0.031843291
0.031558416
0.031275713
0.030994905
0.030715731
0.030437935
0.030161273
0.02988551
0.029610423
0.029335795
0.029061421
0.028787106
0.028512665
0.028237924
0.027962718
0.027686893
0.027410309
0.027132833
0.026854348
0.026574747
0.026293935
0.02601183
0.025728363
0.025443479
0.025157136
0.024869303
0.024579962
0.024289103
0.023996748
0.023702921
0.023407658
0.037718853
0.037333593
0.036957857
0.036591066
0.036232662
0.035882117
0.035538925
0.035202607
0.034872703
0.034548774
0.034230402
0.033917182
0.033608728
0.033304671
0.033004653
0.032708332
0.032415378
0.032125473
0.031838311
0.031553596
0.031271045
0.030990384
0.03071135
0.030433687
0.030157153
0.029881513
0.029606543
0.029332027
0.029057761
0.028783549
0.028509208
0.028234562
0.027959447
0.027683711
0.027407211
0.027129817
0.026851411
0.026571885
0.026291146
0.026009112
0.025725713
0.025440895
0.025154615
0.024866843
0.024577561
0.024286762
0.023994465
0.023700693
0.023405483
0.037699141
0.037314737
0.036939801
0.036573761
0.036216064
0.035866185
0.035523621
0.035187895
0.034858552
0.034535153
0.034217282
0.033904538
0.033596536
0.033292906
0.032993296
0.032697361
0.032404775
0.032115221
0.031828392
0.031543996
0.03126175
0.030981379
0.030702621
0.030425224
0.030148944
0.029873546
0.029598808
0.029324515
0.029050463
0.028776457
0.028502312
0.028227855
0.027952922
0.02767736
0.027401029
0.027123797
0.026845547
0.026566172
0.026285578
0.026003684
0.025720421
0.025435734
0.02514958
0.02486193
0.024572766
0.024282085
0.0239899
0.023696239
0.023401134
0.037669648
0.037286522
0.036912782
0.036547867
0.036191228
0.035842344
0.03550072
0.035165881
0.034837376
0.03451477
0.034197649
0.033885616
0.033578288
0.0332753
0.032976297
0.032680941
0.032388906
0.032099875
0.031813546
0.031529626
0.031247834
0.030967897
0.030689554
0.030412553
0.030136651
0.029861617
0.029587226
0.029313266
0.029039533
0.028765833
0.028491983
0.028217808
0.027943147
0.027667847
0.027391766
0.027114777
0.02683676
0.02655761
0.026277233
0.025995549
0.025712489
0.025427997
0.025142033
0.024854566
0.02456558
0.024275073
0.023983058
0.02368956
0.023394615
0.037630413
0.037248984
0.036876835
0.036513415
0.036158182
0.035810623
0.035470248
0.035136589
0.034809197
0.034487645
0.034171523
0.033860435
0.033554004
0.033251867
0.032953673
0.032659086
0.032367782
0.032079448
0.031793783
0.031510497
0.031229308
0.030949948
0.030672156
0.030395682
0.030120285
0.029845733
0.029571804
0.029298287
0.029024978
0.028751686
0.028478226
0.028204428
0.027930128
0.027655175
0.027379429
0.027102762
0.026825055
0.026546205
0.026266117
0.025984712
0.025701921
0.025417691
0.025131978
0.024844756
0.024556008
0.024265731
0.02397394
0.023680661
0.023385928
0.037584292
0.037204853
0.036834573
0.036472907
0.036119326
0.035773323
0.035434415
0.03510214
0.034776058
0.034455744
0.034140793
0.033830817
0.03352544
0.033224303
0.032927059
0.032633376
0.032342932
0.032055417
0.031770532
0.031487989
0.031207511
0.030928829
0.030651685
0.03037583
0.030101024
0.029827039
0.029553654
0.029280657
0.029007848
0.028735034
0.028462035
0.028188678
0.027914802
0.027640258
0.027364905
0.027088617
0.026811275
0.026532777
0.026253029
0.025971952
0.025689479
0.025405555
0.02512014
0.024833206
0.024544737
0.024254732
0.023963205
0.023670181
0.023375698
0.037532721
0.037155504
0.03678731
0.036427604
0.036075867
0.035731601
0.035394332
0.035063605
0.034738984
0.034420054
0.034106413
0.033797678
0.033493478
0.033193459
0.032897278
0.032604605
0.032315122
0.032028522
0.031744509
0.031462799
0.031183114
0.030905189
0.030628769
0.030353607
0.030079464
0.029806113
0.029533335
0.02926092
0.028988669
0.028716391
0.028443905
0.028171043
0.027897642
0.027623555
0.027348642
0.027072778
0.026795845
0.02651774
0.026238373
0.025957663
0.025675545
0.025391965
0.025106883
0.02482027
0.024532114
0.024242413
0.023951181
0.023658445
0.02336424
0.037471699
0.037097106
0.036731374
0.036373984
0.036024426
0.035682213
0.035346881
0.035017982
0.03469509
0.034377795
0.034065702
0.033758435
0.033455628
0.033156931
0.032862006
0.032570527
0.032282181
0.031996664
0.031713683
0.031432956
0.03115421
0.030877183
0.03060162
0.030327276
0.030053917
0.029781316
0.029509257
0.029237531
0.028965941
0.028694297
0.02842242
0.028150142
0.027877305
0.027603758
0.027329367
0.027054004
0.026777555
0.026499917
0.026221
0.025940725
0.025659028
0.025375855
0.025091167
0.024804936
0.02451715
0.024227809
0.023936927
0.02364453
0.023350657
0.037400584
0.037029041
0.036666173
0.036311476
0.035964453
0.035624629
0.035291549
0.034964779
0.034643899
0.034328507
0.034018218
0.033712659
0.033411474
0.033114316
0.032820854
0.032530767
0.032243745
0.031959489
0.031677711
0.03139813
0.031120479
0.030844496
0.030569932
0.030296543
0.030024098
0.029752372
0.02948115
0.029210228
0.028939408
0.028668503
0.028397337
0.028125741
0.027853559
0.027580644
0.02730686
0.027032082
0.026756197
0.026479104
0.026200713
0.025920946
0.02563974
0.025357041
0.025072813
0.024787028
0.024499675
0.024210754
0.023920279
0.023628279
0.023334792
0.037318713
0.03695067
0.036591092
0.036239487
0.035895375
0.035558296
0.035227807
0.034903482
0.034584915
0.034271712
0.033963495
0.033659902
0.033360582
0.033065196
0.032773417
0.032484931
0.032199433
0.031916629
0.031636234
0.031357974
0.031081582
0.030806802
0.030533387
0.030261098
0.029989705
0.029718987
0.02944873
0.029178733
0.0289088
0.028638747
0.028368399
0.028097589
0.027826163
0.027553975
0.027280891
0.027006788
0.026731554
0.026455088
0.026177303
0.025898122
0.025617481
0.025335331
0.025051633
0.024766362
0.024479508
0.024191071
0.023901067
0.023609525
0.023316483
0.037225399
0.036861334
0.036505492
0.036157403
0.035816602
0.035482643
0.035155099
0.034833557
0.034517621
0.034206909
0.033901053
0.033599698
0.033302501
0.033009131
0.03271927
0.032432608
0.032148846
0.031867695
0.031588877
0.031312121
0.031037165
0.030763757
0.030491653
0.030220617
0.029950424
0.029680854
0.029411698
0.029142756
0.028873835
0.028604754
0.028335338
0.028065426
0.027794862
0.027523504
0.027251219
0.026977886
0.026703394
0.026427645
0.026150551
0.025872038
0.025592044
0.025310519
0.025027427
0.024742743
0.024456458
0.024168575
0.023879108
0.023588089
0.023295555
0.037119937
0.036760349
0.036408717
0.036064588
0.035727517
0.035397077
0.035072854
0.034754451
0.034441483
0.034133581
0.033830388
0.033531558
0.033236758
0.032945666
0.03265797
0.032373367
0.032091566
0.031812285
0.031535248
0.031260191
0.030986858
0.030715
0.030444377
0.030174759
0.029905922
0.029637651
0.02936974
0.029101991
0.028834215
0.028566233
0.028297874
0.028028976
0.027759388
0.027488969
0.027217589
0.026945127
0.026671476
0.026396538
0.026120227
0.025842471
0.025563209
0.025282392
0.024999986
0.024715967
0.024430328
0.02414307
0.023854213
0.023563785
0.023271829
0.037001601
0.036647017
0.036300089
0.035960387
0.03562749
0.035300985
0.034980479
0.034665588
0.034355944
0.034051189
0.033750979
0.033454979
0.033162865
0.032874325
0.032589056
0.032306763
0.032027161
0.031749975
0.031474937
0.031201787
0.030930274
0.030660155
0.030391196
0.030123169
0.029855854
0.029589042
0.029322528
0.02905612
0.02878963
0.028522883
0.028255709
0.027987951
0.02771946
0.027450097
0.027179733
0.026908251
0.026635544
0.026361518
0.026086088
0.025809183
0.025530744
0.025250724
0.024969089
0.024685819
0.024400905
0.024114353
0.02382618
0.023536419
0.023245111
0.036869653
0.03652062
0.036178914
0.035844131
0.035515868
0.035193738
0.034877363
0.034566379
0.034260431
0.033959178
0.033662287
0.033369436
0.033080314
0.032794616
0.03251205
0.03223233
0.031955179
0.031680328
0.031407517
0.031136493
0.03086701
0.030598832
0.030331727
0.030065475
0.029799859
0.029534674
0.029269721
0.029004808
0.028739754
0.028474385
0.028208535
0.027942051
0.027674784
0.0274066
0.027137372
0.026866984
0.026595333
0.026322326
0.02604788
0.025771926
0.025494407
0.025215278
0.024934506
0.024652072
0.02436797
0.024082206
0.0237948
0.023505784
0.023215201
0.036723337
0.036380428
0.036044485
0.03571513
0.035391986
0.035074688
0.03476288
0.034456213
0.034154354
0.033856974
0.033563756
0.033274391
0.032988579
0.032706029
0.032426457
0.032149587
0.031875151
0.031602889
0.031332547
0.03106388
0.030796648
0.030530621
0.030265574
0.030001291
0.02973756
0.029474181
0.029210959
0.028947707
0.028684247
0.028420408
0.02815603
0.027890959
0.027625053
0.027358178
0.027090212
0.026821041
0.026550563
0.026278688
0.026005337
0.02573044
0.025453945
0.025175806
0.024895994
0.024614491
0.024331292
0.024046405
0.023759851
0.023471664
0.023181889
0.036561893
0.036225699
0.03589608
0.035572685
0.035255164
0.034943176
0.034636386
0.034334469
0.034037106
0.033743988
0.033454812
0.033169286
0.032887121
0.032608038
0.032331765
0.032058036
0.031786594
0.031517186
0.031249567
0.0309835
0.030718752
0.0304551
0.030192324
0.029930214
0.029668566
0.029407181
0.029145872
0.028884454
0.028622755
0.028360608
0.028097855
0.027834347
0.027569946
0.027304519
0.027037948
0.026770123
0.026500943
0.026230321
0.02595818
0.025684454
0.025409091
0.025132049
0.024853299
0.024572827
0.024290628
0.024006712
0.023721102
0.023433833
0.023144953
0.036384551
0.036055685
0.03573297
0.035416086
0.035104711
0.034798529
0.034497229
0.034200508
0.033908068
0.033619617
0.033334871
0.03305355
0.032775382
0.032500101
0.032227447
0.031957165
0.031689007
0.031422732
0.031158104
0.030894892
0.030632873
0.030371829
0.03011155
0.029851829
0.029592469
0.029333278
0.029074071
0.028814672
0.02855491
0.028294624
0.02803366
0.027771873
0.027509127
0.027245296
0.026980262
0.026713918
0.026446168
0.026176927
0.025906119
0.025633684
0.025359569
0.025083735
0.024806157
0.024526821
0.024245725
0.02396288
0.023678312
0.023392056
0.023104163
0.036190541
0.035869633
0.035554422
0.035244617
0.034939928
0.034640064
0.034344743
0.034053683
0.033766608
0.033483246
0.03320333
0.032926599
0.032652794
0.032381664
0.032112962
0.031846445
0.031581878
0.031319028
0.031057669
0.03079758
0.030538546
0.030280356
0.030022808
0.029765703
0.029508849
0.02925206
0.028995157
0.028737968
0.02848033
0.028222084
0.027963081
0.027703181
0.027442251
0.027180168
0.02691682
0.026652102
0.026385921
0.026118195
0.025848852
0.025577833
0.025305088
0.025030582
0.024754291
0.024476203
0.024196318
0.023914651
0.023631227
0.023346085
0.023059277
0.035979095
0.035666792
0.0353597
0.03505756
0.034760112
0.034467097
0.034178258
0.033893339
0.033612087
0.03333425
0.033059582
0.032787837
0.032518776
0.03225216
0.031987757
0.031725338
0.031464678
0.031205557
0.030947759
0.030691073
0.030435292
0.030180214
0.029925644
0.029671392
0.029417271
0.029163102
0.028908714
0.028653939
0.028398619
0.0281426
0.02788574
0.027627901
0.027368955
0.027108784
0.026847279
0.026584338
0.026319873
0.026053804
0.025786064
0.025516594
0.025245349
0.024972296
0.024697414
0.024420692
0.024142134
0.023861755
0.023579585
0.023295662
0.023010043
0.036057384
0.035749451
0.035446419
0.035148074
0.034854197
0.03456456
0.034278937
0.033997099
0.033718816
0.033443859
0.033171998
0.032903008
0.032636661
0.032372736
0.032111011
0.031851268
0.031593292
0.03133687
0.031081795
0.030827862
0.030574869
0.03032262
0.030070923
0.029819589
0.029568437
0.029317287
0.029065969
0.028814315
0.028562166
0.028309368
0.028055775
0.027801246
0.027545651
0.027288867
0.027030779
0.026771281
0.026510278
0.026247683
0.025983421
0.025717427
0.025449647
0.025180039
0.024908571
0.024635225
0.024359995
0.024082885
0.023803914
0.023523112
0.023240522
0.022956201
0.035798262
0.035500872
0.035207781
0.034918823
0.034633818
0.034352575
0.0340749
0.033800593
0.033529453
0.033261275
0.032995854
0.032732985
0.032472461
0.032214079
0.031957633
0.031702923
0.031449746
0.031197906
0.030947205
0.030697452
0.030448455
0.03020003
0.029951992
0.029704163
0.029456369
0.029208439
0.02896021
0.028711521
0.02846222
0.028212158
0.027961195
0.027709197
0.027456039
0.027201601
0.026945774
0.026688458
0.026429559
0.026168997
0.025906699
0.025642604
0.025376662
0.025108833
0.02483909
0.024567417
0.02429381
0.024018276
0.023740837
0.023461525
0.023180385
0.022897478
0.035518791
0.035232642
0.034950167
0.034671242
0.034395727
0.034123468
0.033854306
0.033588071
0.033324591
0.033063689
0.032805182
0.032548889
0.032294624
0.032042202
0.031791437
0.031542143
0.031294135
0.031047229
0.030801243
0.030555996
0.03031131
0.030067009
0.02982292
0.029578875
0.029334708
0.029090257
0.028845365
0.028599881
0.028353658
0.028106555
0.027858439
0.02760918
0.027358658
0.027106761
0.026853383
0.026598429
0.026341811
0.026083451
0.025823282
0.025561246
0.025297297
0.025031398
0.024763526
0.024493668
0.024221822
0.023948
0.023672224
0.023394529
0.023114964
0.022833593
0.035218278
0.034944074
0.034672891
0.034404647
0.034139244
0.033876567
0.033616489
0.033358876
0.033103583
0.03285046
0.032599352
0.032350099
0.032102539
0.031856505
0.031611831
0.031368349
0.031125889
0.030884282
0.03064336
0.030402956
0.030162904
0.029923039
0.0296832
0.029443227
0.029202965
0.02896226
0.028720965
0.028478935
0.028236031
0.02799212
0.027747073
0.027500769
0.027253094
0.027003939
0.026753207
0.026500804
0.02624665
0.025990671
0.025732803
0.025472994
0.0252112
0.02494739
0.024681542
0.024413648
0.024143709
0.02387174
0.023597765
0.023321823
0.023043963
0.022764255
0.035159994
0.034896077
0.034634518
0.034375299
0.034118386
0.033863718
0.033611221
0.033360804
0.033112365
0.03286579
0.032620959
0.032377741
0.032136001
0.031895599
0.03165639
0.031418227
0.03118096
0.030944436
0.030708502
0.030473004
0.03023779
0.030002705
0.029767598
0.029532317
0.029296715
0.029060646
0.028823965
0.028586533
0.028348216
0.02810888
0.027868401
0.027626657
0.027383533
0.027138922
0.026892721
0.026644837
0.026395184
0.026143685
0.025890272
0.025634887
0.025377479
0.02511801
0.024856454
0.024592792
0.024327018
0.024059139
0.023789171
0.023517142
0.023243093
0.022967076
0.022689165
0.034801425
0.034551594
0.034303369
0.034056781
0.033811839
0.033568527
0.033326808
0.033086628
0.032847919
0.032610598
0.032374572
0.03213974
0.031905991
0.031673208
0.031441268
0.031210043
0.030979401
0.030749209
0.03051933
0.030289625
0.030059955
0.029830179
0.029600159
0.029369756
0.029138831
0.02890725
0.028674879
0.028441588
0.028207249
0.02797174
0.027734943
0.027496743
0.027257032
0.027015711
0.026772682
0.026527859
0.026281161
0.026032517
0.025781864
0.025529148
0.025274324
0.025017359
0.024758229
0.02449692
0.024233431
0.023967771
0.02369996
0.023430029
0.023158022
0.022883992
0.022608013
0.034419348
0.034184296
0.033950078
0.033716775
0.033484437
0.033253093
0.033022744
0.032793373
0.032564947
0.032337414
0.032110711
0.031884763
0.031659485
0.031434785
0.03121056
0.030986705
0.030763108
0.03053965
0.030316214
0.030092676
0.029868912
0.029644795
0.029420199
0.029194999
0.028969067
0.028742279
0.028514512
0.028285645
0.02805556
0.027824143
0.027591284
0.027356877
0.027120822
0.026883023
0.026643394
0.026401851
0.026158322
0.02591274
0.025665048
0.025415196
0.025163147
0.024908869
0.024652345
0.024393566
0.024132532
0.023869258
0.023603767
0.023336093
0.023066283
0.022794392
0.034013329
0.033793723
0.033574164
0.033354777
0.033135661
0.032916883
0.032698487
0.032480491
0.032262895
0.03204568
0.031828813
0.031612247
0.031395922
0.031179769
0.030963711
0.030747661
0.030531527
0.030315211
0.030098611
0.02988162
0.02966413
0.029446027
0.0292272
0.029007534
0.028786916
0.028565232
0.02834237
0.028118218
0.02789267
0.027665619
0.027436963
0.027206606
0.026974454
0.02674042
0.026504423
0.026266389
0.026026249
0.025783943
0.02553942
0.025292636
0.025043558
0.024792161
0.02453843
0.024282361
0.024023961
0.023763247
0.023500245
0.023234995
0.022967546
0.022697964
0.033583023
0.033379495
0.033175215
0.032970355
0.032765056
0.032559427
0.032353551
0.032147482
0.031941253
0.031734879
0.031528356
0.031321663
0.031114769
0.030907628
0.030700185
0.030492376
0.030284129
0.030075363
0.029865995
0.029655936
0.02944509
0.029233361
0.029020651
0.028806858
0.028591881
0.028375618
0.028157968
0.027938829
0.027718105
0.027495699
0.027271519
0.027045474
0.026817481
0.026587461
0.026355338
0.026121045
0.025884522
0.025645713
0.025404575
0.025161069
0.024915166
0.024666848
0.024416105
0.024162937
0.023907356
0.023649381
0.023389046
0.023126392
0.022861474
0.022594365
0.033128183
0.032941326
0.032752911
0.032563155
0.032372241
0.032180319
0.03198751
0.031793902
0.031599565
0.031404542
0.03120886
0.031012526
0.030815534
0.030617863
0.030419482
0.030220347
0.030020406
0.0298196
0.029617862
0.029415118
0.029211291
0.029006299
0.028800058
0.028592479
0.028383474
0.028172953
0.027960827
0.027747005
0.027531399
0.027313924
0.027094495
0.026873033
0.026649461
0.026423707
0.026195705
0.025965395
0.025732723
0.02549764
0.025260108
0.025020096
0.02477758
0.024532547
0.024284992
0.024034921
0.023782349
0.023527303
0.023269817
0.023009939
0.022747727
0.022483261
0.032648673
0.03247903
0.032307024
0.032132911
0.031956918
0.031779232
0.03160001
0.031419378
0.031237435
0.031054257
0.030869899
0.030684396
0.030497768
0.030310018
0.030121138
0.029931105
0.029739889
0.029547448
0.029353733
0.029158689
0.028962255
0.028764363
0.028564944
0.028363923
0.028161224
0.02795677
0.027750483
0.027542283
0.027332094
0.02711984
0.026905445
0.026688839
0.026469955
0.026248728
0.026025101
0.025799019
0.025570437
0.025339314
0.025105617
0.024869321
0.024630409
0.024388873
0.024144714
0.023897942
0.023648579
0.023396653
0.023142207
0.02288529
0.022625966
0.02236432
0.03214448
0.031992539
0.031837434
0.03167946
0.031518883
0.031355926
0.031190782
0.03102361
0.03085454
0.030683679
0.03051111
0.030336895
0.030161078
0.029983688
0.029804737
0.029624226
0.029442143
0.029258467
0.029073167
0.028886205
0.028697534
0.028507105
0.02831486
0.02812074
0.027924682
0.027726621
0.02752649
0.027324222
0.027119751
0.02691301
0.026703935
0.026492464
0.026278538
0.026062103
0.025843107
0.025621506
0.02539726
0.025170336
0.024940707
0.024708356
0.02447327
0.024235449
0.023994899
0.023751635
0.023505684
0.023257079
0.023005868
0.022752105
0.022495856
0.022237214
0.031615722
0.031481907
0.031344139
0.031202749
0.031058036
0.030910261
0.030759648
0.030606387
0.03045064
0.030292542
0.030132202
0.029969709
0.029805133
0.029638524
0.029469918
0.029299336
0.029126787
0.028952267
0.028775765
0.028597258
0.028416718
0.028234108
0.028049388
0.02786251
0.027673427
0.027482083
0.027288427
0.027092401
0.026893949
0.026693017
0.026489549
0.026283494
0.026074801
0.025863425
0.025649323
0.025432457
0.025212797
0.024990315
0.024764993
0.024536819
0.024305789
0.024071906
0.023835183
0.023595641
0.023353311
0.023108234
0.022860459
0.022610047
0.022357068
0.02210162
0.031062661
0.030947327
0.030827268
0.030702846
0.030574395
0.030442205
0.030306532
0.030167595
0.030025585
0.029880663
0.029732965
0.029582605
0.029429675
0.02927425
0.029116386
0.028956124
0.028793494
0.02862851
0.028461178
0.028291492
0.028119441
0.027945002
0.02776815
0.027588853
0.027407073
0.027222771
0.027035904
0.026846428
0.026654299
0.02645947
0.026261899
0.026061542
0.025858358
0.02565231
0.025443365
0.025231494
0.025016672
0.02479888
0.024578107
0.024354348
0.024127605
0.023897887
0.023665215
0.023429614
0.023191121
0.022949781
0.02270565
0.022458792
0.022209282
0.021957223
0.030485711
0.030389136
0.030287088
0.030179956
0.030068103
0.029951849
0.029831475
0.02970723
0.02957933
0.029447961
0.029313284
0.029175436
0.029034532
0.028890667
0.028743919
0.028594349
0.028442005
0.02828692
0.028129116
0.027968605
0.02780539
0.027639465
0.027470818
0.02729943
0.027125278
0.026948335
0.02676857
0.02658595
0.026400442
0.026212012
0.026020624
0.025826247
0.025628848
0.0254284
0.025224878
0.02501826
0.024808531
0.024595679
0.0243797
0.024160596
0.023938376
0.023713056
0.023484661
0.023253224
0.023018787
0.0227814
0.022541124
0.022298028
0.022052192
0.021803725
0.029885455
0.029807832
0.029724018
0.029634427
0.029539444
0.029439414
0.029334645
0.029225409
0.029111945
0.028994463
0.028873147
0.028748154
0.028619622
0.028487666
0.028352382
0.028213852
0.02807214
0.027927297
0.027779362
0.027628363
0.027474318
0.027317236
0.027157118
0.02699396
0.026827752
0.026658478
0.02648612
0.026310657
0.026132066
0.025950323
0.025765404
0.025577287
0.025385948
0.02519137
0.024993535
0.024792432
0.024588051
0.024380391
0.024169452
0.023955246
0.023737787
0.023517098
0.023293211
0.023066164
0.022836005
0.022602791
0.022366585
0.022127463
0.02188551
0.02164084
0.029262647
0.029204079
0.029138642
0.029066762
0.028988849
0.028905268
0.028816347
0.02872238
0.028623626
0.028520318
0.028412657
0.028300824
0.028184973
0.028065239
0.027941736
0.027814564
0.027683804
0.027549523
0.027411777
0.027270608
0.027126048
0.026978122
0.026826845
0.026672225
0.026514264
0.02635296
0.026188306
0.026020292
0.025848906
0.025674135
0.025495966
0.025314384
0.025129377
0.024940936
0.024749052
0.024553722
0.024354945
0.024152726
0.023947076
0.02373801
0.023525552
0.02330973
0.023090583
0.022868155
0.0226425
0.02241368
0.022181764
0.021946832
0.021708974
0.021468311
0.028618228
0.02857872
0.028531712
0.028477634
0.028416913
0.028349932
0.028277035
0.028198535
0.028114709
0.028025806
0.027932048
0.027833632
0.027730729
0.027623491
0.027512052
0.027396523
0.027277004
0.027153578
0.027026313
0.026895268
0.02676049
0.026622014
0.026479871
0.02633408
0.026184656
0.02603161
0.025874944
0.025714662
0.025550761
0.025383238
0.025212091
0.025037314
0.024858906
0.024676864
0.024491191
0.02430189
0.02410897
0.023912442
0.023712325
0.023508643
0.023301424
0.023090706
0.022876532
0.022658953
0.022438029
0.022213826
0.02198642
0.021755896
0.02152235
0.021285906
0.027953341
0.02793278
0.027904169
0.027867888
0.027824403
0.027774094
0.027717327
0.027654424
0.027585679
0.027511356
0.027431692
0.027346899
0.027257164
0.027162655
0.027063518
0.026959882
0.026851859
0.026739547
0.026623028
0.026502375
0.026377647
0.026248893
0.026116155
0.025979466
0.025838853
0.025694335
0.025545929
0.025393647
0.025237498
0.025077489
0.024913627
0.024745917
0.024574366
0.024398981
0.024219772
0.024036751
0.023849936
0.023659345
0.023465005
0.023266947
0.023065206
0.022859826
0.022650857
0.022438357
0.02222239
0.02200303
0.021780356
0.02155446
0.021325441
0.021093432
0.027269159
0.027267456
0.027257156
0.027238555
0.027212269
0.02717862
0.027138011
0.027090762
0.027037185
0.026977552
0.026912114
0.026841095
0.026764697
0.026683098
0.026596459
0.026504922
0.026408611
0.026307637
0.026202096
0.02609207
0.025977633
0.025858846
0.025735761
0.025608424
0.025476871
0.025341134
0.02520124
0.025057211
0.024909067
0.024756825
0.0246005
0.024440107
0.024275661
0.02410718
0.023934681
0.023758185
0.023577717
0.023393304
0.023204979
0.023012781
0.022816752
0.022616943
0.02241341
0.022206216
0.021995433
0.021781139
0.02156342
0.02134237
0.021118096
0.020890737
0.026567506
0.026584372
0.026591842
0.026590829
0.026581667
0.026564556
0.026540063
0.026508446
0.02647005
0.026425148
0.026374004
0.026316851
0.0262539
0.026185342
0.026111347
0.026032068
0.025947642
0.025858189
0.025763817
0.025664621
0.025560683
0.025452076
0.025338864
0.025221101
0.025098836
0.02497211
0.02484096
0.024705419
0.024565515
0.024421274
0.024272722
0.024119883
0.02396278
0.023801438
0.023635885
0.023466149
0.023292262
0.02311426
0.022932182
0.022746074
0.022555987
0.022361976
0.022164105
0.021962443
0.021757066
0.02154806
0.021335515
0.021119531
0.020900218
0.020677724
0.025850596
0.02588498
0.025910051
0.025926354
0.025933783
0.025933115
0.025924668
0.025908554
0.025885286
0.025855079
0.02581823
0.025774969
0.025725517
0.025670072
0.025608813
0.025541901
0.025469484
0.025391692
0.02530864
0.025220434
0.025127167
0.02502892
0.024925767
0.024817772
0.024704994
0.024587483
0.024465285
0.024338442
0.024206992
0.02407097
0.02393041
0.023785344
0.023635805
0.023481826
0.023323441
0.023160687
0.022993605
0.022822236
0.022646628
0.022466834
0.02228291
0.022094919
0.02190293
0.021707019
0.021507268
0.021303767
0.021096613
0.020885909
0.020671772
0.020454356
0.025119026
0.025171305
0.025213958
0.025246614
0.025270469
0.025285965
0.025293045
0.025292335
0.025284114
0.02526847
0.025245853
0.025216439
0.025180473
0.025138151
0.025089661
0.025035172
0.024974837
0.024908795
0.024837169
0.024760072
0.024677605
0.024589859
0.024496917
0.02439885
0.024295726
0.024187604
0.024074538
0.023956579
0.023833774
0.023706164
0.023573794
0.023436702
0.02329493
0.023148518
0.022997509
0.022841947
0.022681879
0.022517355
0.022348429
0.02217516
0.021997611
0.021815853
0.021629959
0.021440012
0.021246098
0.021048315
0.020846762
0.020641549
0.020432798
0.020220669
0.024375789
0.024445057
0.024504231
0.02455359
0.024593852
0.02462465
0.024647089
0.024661489
0.024667798
0.024666616
0.024658143
0.024642444
0.024619889
0.024590634
0.024554886
0.024512815
0.02446458
0.024410325
0.024350179
0.024284263
0.024212683
0.024135539
0.024052918
0.023964902
0.023871564
0.023772972
0.023669187
0.023560269
0.02344627
0.023327242
0.023203234
0.023074295
0.022940472
0.022801813
0.022658369
0.02251019
0.02235733
0.022199847
0.0220378
0.021871256
0.021700284
0.021524959
0.021345363
0.021161582
0.02097371
0.020781847
0.0205861
0.020386582
0.02018342
0.019976781
0.023623196
0.02370868
0.023783841
0.02384904
0.023904719
0.023951135
0.023988921
0.024017675
0.024038244
0.024051232
0.024056434
0.024054353
0.024045104
0.024028778
0.024005682
0.023975963
0.023939787
0.0238973
0.023848638
0.023793922
0.023733268
0.023666778
0.023594548
0.023516663
0.023433205
0.023344248
0.02324986
0.023150105
0.023045045
0.022934738
0.022819239
0.022698604
0.022572889
0.022442146
0.022306434
0.02216581
0.022020334
0.021870069
0.021715084
0.021555448
0.021391238
0.021222535
0.021049426
0.020872003
0.020690365
0.020504615
0.020314867
0.020121239
0.019923861
0.019722907
0.022863824
0.022964695
0.023055114
0.023135429
0.023206021
0.023267233
0.023319464
0.023363014
0.02339745
0.023424066
0.023442689
0.023453915
0.023457551
0.023454036
0.023443461
0.02342596
0.02340174
0.023370946
0.023333711
0.023290165
0.023240422
0.023184592
0.023122774
0.023055059
0.022981533
0.022902274
0.022817359
0.022726856
0.022630832
0.022529353
0.022422479
0.022310273
0.022192794
0.022070105
0.021942268
0.021809347
0.021671408
0.02152852
0.021380757
0.021228195
0.021070917
0.020909007
0.02074256
0.020571671
0.020396444
0.020216989
0.020033422
0.019845866
0.019654456
0.019459373
0.022100464
0.022215812
0.022320652
0.022415305
0.022500116
0.022575415
0.022641525
0.022698711
0.02274715
0.022787434
0.022819011
0.022843012
0.022859279
0.022868139
0.022869765
0.02286437
0.022851945
0.022832709
0.022806787
0.022774319
0.022735422
0.022690205
0.022638771
0.022581215
0.022517626
0.022448089
0.022372681
0.022291478
0.022204552
0.022111972
0.022013805
0.021910118
0.021800977
0.021686449
0.021566602
0.021441506
0.021311232
0.021175855
0.021035454
0.02089011
0.020739911
0.020584948
0.020425317
0.020261122
0.020092469
0.019919473
0.019742254
0.019560939
0.019375668
0.019186627
0.021336098
0.021464942
0.021583283
0.021691417
0.021789657
0.02187831
0.021957663
0.022027979
0.022089505
0.022142536
0.022187199
0.022223984
0.022252349
0.022273275
0.022286718
0.022292937
0.022292082
0.02228428
0.02226948
0.022247945
0.022219771
0.022185065
0.022143935
0.022096478
0.022042785
0.021982944
0.021917036
0.021845139
0.02176733
0.021683682
0.021594266
0.021499154
0.021398417
0.021292127
0.021180355
0.021063176
0.020940667
0.020812908
0.020679982
0.020541976
0.020398981
0.020251094
0.020098415
0.019941051
0.019779114
0.019612723
0.019442
0.019267078
0.019088099
0.018905257
0.020573885
0.020715198
0.020846046
0.020966727
0.02107753
0.021178732
0.021270596
0.02135337
0.021427292
0.0214926
0.021549505
0.021598269
0.021639068
0.021671471
0.021696471
0.021713973
0.021724336
0.021727468
0.021723634
0.021712853
0.021695219
0.021670865
0.021639904
0.021602433
0.021558543
0.021508324
0.02145186
0.021389231
0.021320516
0.021245791
0.021165131
0.021078612
0.020986308
0.020888294
0.020784647
0.020675446
0.020560771
0.020440707
0.020315341
0.020184764
0.020049072
0.019908364
0.019762746
0.019612329
0.019457228
0.019297564
0.019133466
0.018965068
0.018792515
0.018616008
0.019654237
0.019817327
0.019969903
0.020112177
0.020244402
0.020366832
0.020479711
0.020583274
0.020677746
0.020763344
0.020840279
0.020908749
0.020968951
0.021021039
0.021065106
0.021101563
0.021129883
0.021150973
0.021164736
0.021171381
0.02117102
0.021163784
0.021149553
0.021128572
0.021100919
0.021066688
0.021025967
0.020978841
0.020925393
0.020865702
0.020799847
0.020727905
0.020649954
0.020566071
0.020476336
0.020380827
0.020279627
0.02017282
0.020060495
0.01994274
0.019819653
0.019691331
0.019557878
0.019419403
0.01927602
0.019127847
0.01897501
0.01881764
0.018655872
0.018489857
0.0183198
0.018896931
0.019069835
0.019232498
0.019385083
0.019527801
0.019660866
0.019784488
0.019898873
0.020004219
0.020100718
0.020188556
0.02026791
0.020338951
0.020401834
0.020456711
0.020503782