/*--------------------------------*- C++ -*----------------------------------*\
| =========                 |                                                 |
| \\      /  F ield         | OpenFOAM: The Open Source CFD Toolbox           |
|  \\    /   O peration     | Version:  2312                                  |
|   \\  /    A nd           | Website:  www.openfoam.com                      |
|    \\/     M anipulation  |                                                 |
\*---------------------------------------------------------------------------*/
FoamFile
{
    version     2.0;
    format      ascii;
    arch        "LSB;label=32;scalar=64";
    class       volScalarField;
    location    "0.1";
    object      f_Bilger;
}
// * * * * * * * * * * * * * * * * * * * * * * * * * * * * * * * * * * * * * //

dimensions      [0 0 0 0 0 0 0];

internalField   nonuniform List<scalar> 
3250
(
0.1186209
0.11739179
0.11619292
0.11502214
0.11387742
0.11275685
0.11165857
0.11058087
0.10952207
0.10848058
0.10745489
0.10644355
0.10544514
0.10445834
0.10348185
0.10251443
0.10155489
0.10060208
0.099654895
0.098712271
0.09777319
0.09683667
0.095901772
0.0949676
0.094033296
0.093098045
0.092161076
0.09122166
0.090279113
0.089332798
0.088382125
0.08742655
0.086465582
0.085498782
0.084525761
0.083546186
0.082559779
0.081566321
0.080565647
0.079557652
0.078542291
0.077519577
0.076489578
0.07545244
0.074408453
0.07335783
0.072300815
0.071237745
0.07016901
0.11859294
0.11736497
0.11616716
0.11499739
0.11385362
0.11273393
0.1116365
0.1105596
0.10950155
0.10846078
0.10743578
0.10642508
0.10542729
0.10444107
0.10346514
0.10249825
0.10153922
0.1005869
0.099640179
0.098698001
0.097759345
0.096823234
0.095888729
0.094954934
0.094020992
0.09308609
0.092149457
0.091210365
0.09026813
0.089322117
0.088371735
0.087416442
0.086455748
0.085489213
0.084516449
0.083537125
0.082550962
0.081557741
0.080557299
0.079549531
0.078534392
0.077511897
0.076482117
0.075445198
0.074401395
0.073350949
0.072294109
0.071231218
0.070162686
0.11853715
0.11731145
0.11611577
0.11494799
0.11380611
0.11268821
0.11159247
0.11051715
0.10946062
0.10842128
0.10739763
0.10638822
0.10539165
0.1044066
0.10343178
0.10246596
0.10150794
0.10055658
0.09961078
0.098669484
0.097731673
0.096796372
0.095862643
0.094929592
0.093996366
0.093062152
0.09212618
0.091187726
0.090246106
0.089300685
0.088350875
0.087396136
0.086435977
0.08546996
0.084497699
0.083518862
0.082533173
0.081540413
0.080540419
0.079533089
0.078518378
0.077496301
0.076466934
0.075430422
0.074386996
0.073336908
0.072280419
0.071217877
0.070149709
0.1184536
0.11723129
0.1160388
0.11487402
0.11373497
0.11261973
0.11152651
0.11045358
0.1093993
0.10836211
0.10734049
0.106333
0.10533827
0.10435497
0.10338181
0.10241757
0.10146106
0.10051114
0.099566717
0.098626739
0.097690189
0.096756095
0.095823524
0.094891584
0.093959425
0.093026236
0.09209125
0.091153744
0.090213039
0.0892685
0.088319541
0.087365624
0.08640626
0.085441012
0.084469496
0.083491383
0.082506396
0.081514318
0.080514988
0.079508304
0.078494224
0.077472764
0.076444002
0.075408081
0.07436522
0.073315672
0.072259711
0.071197691
0.070130048
0.11834239
0.11712459
0.11593633
0.11477555
0.11364026
0.11252857
0.1114387
0.11036894
0.10931767
0.10828332
0.1072644
0.10625948
0.10526719
0.1042862
0.10331525
0.10235311
0.10139861
0.10045061
0.099508019
0.098569791
0.097634916
0.096702426
0.095771393
0.094840928
0.093910184
0.092978355
0.092044678
0.091108431
0.090168938
0.089225569
0.088277738
0.08732491
0.0863666
0.085402372
0.084431843
0.083454687
0.082470629
0.081479453
0.080481001
0.079475172
0.078461925
0.077441277
0.07641331
0.075378166
0.074336054
0.073287227
0.072231972
0.071170647
0.070103691
0.11821158
0.11699908
0.11581581
0.11465971
0.11352884
0.11242132
0.11133539
0.11026936
0.10922162
0.10819061
0.10717487
0.10617296
0.10518354
0.10420527
0.10323692
0.10227725
0.10132511
0.10037936
0.099438919
0.098502748
0.097569841
0.096639235
0.095710007
0.094781274
0.093852193
0.092921961
0.09198982
0.09105505
0.090116981
0.089174983
0.088228476
0.087276927
0.086319852
0.085356819
0.084387448
0.083411413
0.082428444
0.081438326
0.080440902
0.079436074
0.078423801
0.077404105
0.076377065
0.075342826
0.074301593
0.073253618
0.072199194
0.071138685
0.070072535
0.11806524
0.11685866
0.11568095
0.11453009
0.11340416
0.1123013
0.11121978
0.11015792
0.10911412
0.10808685
0.10707466
0.10607612
0.1050899
0.10411468
0.10314923
0.10219233
0.10124282
0.10029959
0.099361551
0.098427678
0.09749697
0.09656847
0.095641261
0.094714464
0.09378724
0.092858794
0.091928368
0.09099525
0.090058771
0.089118306
0.088173278
0.087223156
0.086267461
0.085305763
0.084337685
0.083362903
0.08238115
0.081392212
0.080395936
0.079392224
0.078381038
0.077362402
0.076336397
0.075303167
0.074262915
0.073215894
0.072162402
0.071102805
0.070037553
0.11789198
0.11669239
0.11552126
0.1143766
0.1132565
0.11215916
0.11108285
0.11002592
0.10898679
0.10796394
0.10695594
0.1059614
0.10497896
0.10400735
0.10304533
0.1020917
0.10114531
0.10020505
0.099269863
0.09833871
0.097410605
0.096484597
0.095559775
0.094635268
0.093710243
0.092783908
0.091855512
0.090924348
0.08998975
0.089051098
0.088107819
0.087159386
0.086205323
0.085245204
0.084278655
0.083305355
0.082325038
0.081337496
0.080342576
0.079340184
0.078330284
0.0773129
0.076288117
0.075256078
0.074216986
0.073171095
0.072118707
0.071060192
0.069996003
0.11768992
0.11649847
0.115335
0.11419756
0.11308427
0.11199335
0.1109231
0.10987191
0.10883821
0.10782053
0.10681742
0.10582751
0.10484949
0.10388208
0.10292406
0.10197424
0.10103149
0.1000947
0.099162829
0.098234845
0.097309773
0.096386669
0.095464631
0.094542793
0.09362033
0.092696456
0.091770427
0.090841539
0.089909133
0.088972595
0.088031354
0.08708489
0.086132729
0.08517445
0.084209682
0.083238108
0.082259466
0.08127355
0.080280211
0.079279356
0.078270953
0.077255028
0.076231667
0.075201016
0.074163276
0.073118704
0.072067605
0.071010353
0.069947402
0.11745713
0.11627504
0.11512038
0.11399123
0.11288576
0.11180222
0.11073896
0.10969437
0.10866693
0.10765518
0.1066577
0.10567314
0.1047002
0.10373763
0.10278421
0.10183878
0.10090021
0.099967422
0.099039365
0.098115032
0.097193452
0.096273693
0.09535486
0.094436096
0.093516584
0.092595545
0.091672241
0.090745975
0.089816095
0.08888199
0.087943097
0.0869989
0.08604893
0.08509277
0.084130054
0.083160469
0.082183756
0.081199713
0.080208193
0.079209109
0.078202429
0.077188184
0.076166461
0.075137406
0.074101225
0.073058173
0.07200856
0.070952764
0.069891241
0.11719157
0.11602014
0.11487549
0.11375578
0.11265922
0.1115841
0.11052879
0.10949172
0.10847141
0.10746641
0.10647534
0.10549688
0.10452973
0.10357267
0.1026245
0.10168407
0.10075027
0.099822042
0.098898338
0.097978166
0.097060569
0.096144624
0.095229446
0.094314188
0.093398042
0.092480235
0.091560039
0.090636765
0.089709765
0.088778436
0.087842222
0.086900611
0.08595314
0.084999397
0.084039021
0.083071704
0.082097192
0.081115285
0.080125841
0.079128776
0.078124063
0.077111733
0.076091878
0.075064645
0.074030241
0.072988925
0.071941011
0.070886877
0.069826985
0.11689116
0.11573173
0.1145984
0.11348935
0.11240284
0.11133721
0.11029087
0.10926231
0.10825004
0.10725267
0.10626885
0.10529727
0.10433667
0.10338583
0.10244359
0.10150882
0.10058042
0.099657341
0.098738558
0.097823093
0.096909999
0.095998367
0.095087324
0.094176031
0.093263691
0.092349542
0.091432862
0.090512971
0.08958923
0.088661042
0.087727858
0.086789173
0.08584453
0.084893523
0.083935795
0.082971045
0.081999022
0.081019533
0.080032438
0.079037659
0.07803517
0.077025008
0.076007267
0.074982096
0.073949705
0.072910355
0.071864364
0.070812113
0.069754068
0.11655372
0.11540774
0.11428707
0.11318995
0.1121147
0.11105972
0.11002344
0.1090044
0.10800116
0.10701235
0.10603666
0.10507279
0.10411953
0.10317569
0.10224011
0.10131168
0.10038934
0.099472039
0.098558782
0.097648601
0.096740564
0.095833776
0.094927375
0.094020536
0.093112472
0.09220243
0.091289701
0.090373611
0.089453531
0.088528873
0.087599094
0.086663696
0.085722231
0.084774298
0.083819547
0.082857681
0.081888457
0.080911684
0.079927231
0.07893502
0.077935032
0.076927307
0.075911941
0.074889089
0.073858961
0.072821822
0.071777994
0.070727863
0.069671896
0.11617701
0.11504599
0.11393941
0.11285557
0.11179286
0.11074972
0.10972465
0.10871622
0.10772303
0.10674377
0.10577713
0.10482187
0.1038768
0.10294074
0.10201259
0.10109124
0.10017565
0.099264803
0.098357711
0.097453426
0.096551033
0.095649651
0.094748432
0.093846565
0.092943274
0.09203782
0.091129501
0.090217656
0.089301664
0.088380948
0.087454972
0.086523247
0.085585332
0.084640833
0.083689407
0.082730765
0.081764667
0.08079093
0.079809427
0.078820087
0.077822894
0.076817892
0.075805181
0.07478492
0.073757322
0.072722657
0.071681248
0.070633487
0.069579843
0.11575874
0.11464427
0.11355327
0.11248413
0.11143529
0.11040526
0.1093926
0.10839592
0.10741387
0.10644517
0.10548857
0.10454286
0.10360686
0.10267945
0.10175953
0.10084603
0.099937935
0.099034243
0.098133991
0.09723625
0.096340122
0.095444741
0.094549276
0.093652929
0.092754939
0.091854578
0.090951158
0.090044029
0.089132579
0.088216242
0.087294491
0.086366847
0.085432877
0.084492195
0.083544465
0.082589405
0.081626783
0.080656421
0.079678199
0.078692049
0.077697963
0.076695989
0.075686231
0.074668852
0.073644068
0.072612154
0.071573438
0.070528313
0.069477255
0.11529657
0.11420028
0.11312643
0.11207346
0.11103991
0.11002432
0.10902533
0.10804159
0.10707183
0.10611478
0.10516924
0.10423405
0.10330807
0.10239019
0.10147935
0.10057453
0.099674702
0.098778913
0.097886216
0.096995702
0.096106494
0.095217743
0.094328635
0.093438389
0.092546257
0.091651527
0.090753522
0.089851606
0.088945179
0.088033684
0.087116606
0.086193476
0.085263869
0.084327409
0.083383768
0.082432672
0.081473895
0.080507269
0.079532676
0.078550059
0.077559412
0.07656079
0.075554301
0.074540111
0.073518445
0.072489577
0.071453842
0.070411638
0.069363445
0.11478809
0.11371172
0.11265664
0.11162139
0.11060457
0.10960482
0.10862081
0.10765128
0.10669498
0.10575072
0.10481734
0.1038937
0.10297871
0.1020713
0.10117045
0.10027515
0.099384417
0.098497315
0.097612924
0.096730359
0.09584876
0.094967303
0.094085189
0.093201655
0.09231597
0.091427437
0.090535394
0.089639216
0.088738319
0.087832156
0.086920226
0.086002067
0.085077267
0.084145458
0.083206322
0.082259593
0.081305055
0.080342544
0.079371954
0.078393229
0.077406374
0.076411447
0.075408562
0.074397891
0.073379661
0.072354154
0.071321707
0.070282725
0.069237693
0.11423088
0.1131762
0.11214159
0.11112567
0.11012711
0.10914464
0.108177
0.10722297
0.10628139
0.1053511
0.104431
0.10351999
0.10261702
0.10172108
0.10083115
0.099946267
0.09906549
0.098187899
0.097312604
0.096438743
0.095565483
0.094692016
0.093817566
0.09294139
0.092062772
0.091181033
0.090295526
0.089405643
0.088510811
0.087610498
0.086704214
0.08579151
0.084871985
0.083945281
0.083011091
0.082069157
0.081119272
0.080161281
0.079195084
0.078220636
0.077237945
0.076247077
0.075248152
0.074241347
0.073226894
0.07220508
0.071176247
0.070140807
0.06909925
0.11362247
0.11259134
0.11157895
0.11058401
0.10960531
0.10864161
0.10769176
0.10675461
0.10582904
0.10491397
0.10400832
0.10311107
0.10222121
0.10133774
0.10045972
0.099586205
0.098716282
0.097849066
0.096983695
0.096119334
0.095255173
0.094390429
0.093524349
0.092656207
0.091785308
0.090910991
0.090032627
0.089149622
0.088261419
0.087367501
0.086467391
0.085560652
0.084646896
0.083725776
0.082796996
0.081860308
0.080915515
0.079962471
0.079001084
0.078031316
0.077053184
0.076066761
0.075072172
0.074069601
0.073059285
0.072041515
0.071016642
0.06998508
0.06894733
0.1139846
0.11296041
0.11195473
0.11096637
0.10999414
0.10903691
0.10809356
0.10716298
0.10624411
0.1053359
0.10443732
0.10354736
0.10266504
0.1017894
0.1009195
0.10005441
0.099193237
0.098335109
0.097479171
0.09662459
0.09577056
0.094916297
0.094061045
0.093204072
0.092344675
0.09148218
0.090615945
0.089745359
0.088869847
0.087988866
0.087101917
0.086208534
0.085308298
0.084400831
0.0834858
0.08256292
0.081631954
0.080692714
0.079745067
0.078788928
0.077824269
0.076851113
0.075869541
0.074879687
0.073881738
0.072875939
0.071862588
0.070842037
0.069814711
0.068781119
0.11323738
0.11224224
0.11126397
0.11030148
0.10935373
0.10841967
0.10749825
0.10658848
0.10568936
0.1047999
0.10391915
0.10304615
0.10217998
0.10131972
0.10046449
0.099613399
0.098765599
0.097920248
0.097076528
0.096233641
0.09539081
0.09454728
0.093702322
0.092855228
0.09200532
0.091151946
0.090294484
0.089432344
0.088564967
0.087691832
0.086812452
0.085926381
0.085033211
0.08413258
0.083224169
0.082307704
0.08138296
0.080449763
0.079507986
0.078557557
0.077598457
0.076630717
0.075654427
0.074669726
0.073676812
0.072675932
0.071667391
0.070651548
0.069628834
0.06859977
0.11242953
0.11146553
0.11051665
0.10958195
0.10866049
0.10775131
0.10685349
0.1059661
0.10508822
0.10421896
0.1033574
0.10250268
0.10165391
0.10081025
0.099970842
0.099134861
0.098301493
0.097469938
0.096639416
0.095809163
0.094978435
0.094146508
0.09331268
0.092476272
0.091636629
0.090793125
0.089945159
0.089092162
0.088233596
0.087368957
0.086497778
0.085619628
0.084734117
0.083840896
0.082939661
0.082030153
0.081112158
0.080185514
0.079250107
0.078305875
0.077352808
0.076390948
0.075420392
0.074441288
0.073453841
0.072458305
0.071454989
0.070444259
0.069426552
0.068402403
0.11155864
0.11062789
0.10971043
0.10880545
0.10791211
0.10702959
0.10615705
0.10529365
0.10443857
0.10359097
0.10275003
0.10191494
0.10108488
0.10025905
0.09943666
0.098616932
0.097799095
0.096982393
0.096166084
0.095349441
0.094531755
0.093712334
0.092890507
0.092065623
0.091237055
0.090404201
0.089566484
0.088723358
0.087874306
0.087018845
0.086156526
0.085286936
0.084409703
0.083524494
0.08263102
0.081729036
0.080818342
0.07989879
0.078970276
0.078032752
0.077086216
0.076130723
0.075166377
0.074193337
0.073211813
0.072222067
0.071224414
0.070219223
0.069206938
0.068188108
0.11152977
0.11062236
0.109727
0.10884301
0.1079697
0.10710637
0.1062523
0.10540675
0.10456899
0.10373828
0.10291386
0.10209498
0.10128091
0.10047088
0.099664169
0.09886003
0.098057735
0.097256564
0.096455805
0.095654758
0.094852735
0.094049064
0.093243086
0.092434163
0.091621675
0.090805021
0.089983628
0.089156945
0.088324448
0.087485644
0.086640071
0.085787299
0.084926937
0.084058629
0.08318206
0.082296957
0.08140309
0.080500276
0.079588378
0.078667307
0.077737026
0.076797546
0.07584893
0.074891295
0.073924808
0.072949687
0.071966202
0.070974673
0.069975472
0.068969043
0.067955949
0.11048618
0.10961846
0.10876063
0.10791216
0.1070725
0.10624106
0.10541725
0.10460045
0.10379
0.10298525
0.10218555
0.10139022
0.10059858
0.099809956
0.099023669
0.098239039
0.09745539
0.096672052
0.095888359
0.095103654
0.094317293
0.09352864
0.092737073
0.091941988
0.091142796
0.090338928
0.089529838
0.088715002
0.087893921
0.087066127
0.08623118
0.085388672
0.084538232
0.083679523
0.082812249
0.081936155
0.081051026
0.080156695
0.07925304
0.078339986
0.077417509
0.076485632
0.07554443
0.074594031
0.07363461
0.072666396
0.071689667
0.070704748
0.069712013
0.068711903
0.067704975
0.10937066
0.10854484
0.10772667
0.10691577
0.10611173
0.10531409
0.10452237
0.10373605
0.1029546
0.10217745
0.10140402
0.10063373
0.099865977
0.099100145
0.098335622
0.097571788
0.096808025
0.096043713
0.095278237
0.094510986
0.093741356
0.092968754
0.092192595
0.091412311
0.090627346
0.089837163
0.089041245
0.088239097
0.087430248
0.086614254
0.085790699
0.084959198
0.084119401
0.083270993
0.082413696
0.081547274
0.080671529
0.079786311
0.078891513
0.077987076
0.077072988
0.076149287
0.07521606
0.074273444
0.073321629
0.07236085
0.071391396
0.070413599
0.069427839
0.068434559
0.10818128
0.10739955
0.10662315
0.10585186
0.1050854
0.10432344
0.10356563
0.10281157
0.1020608
0.10131288
0.10056731
0.099823578
0.099081166
0.098339534
0.097598132
0.096856405
0.09611379
0.095369723
0.09462364
0.093874977
0.093123175
0.092367682
0.091607955
0.09084346
0.090073678
0.089298106
0.088516257
0.087727667
0.086931891
0.086128513
0.085317142
0.084497418
0.083669012
0.082831632
0.08198502
0.081128958
0.080263269
0.079387819
0.078502518
0.077607322
0.076702234
0.075787305
0.074862637
0.073928379
0.072984731
0.07203194
0.071070305
0.070100167
0.069121927
0.068136067
0.10691638
0.10618086
0.1054483
0.10471861
0.10399166
0.10326727
0.10254518
0.10182511
0.10110673
0.10038966
0.099673521
0.098957874
0.098242276
0.097526264
0.096809356
0.096091061
0.095370875
0.094648291
0.093922796
0.093193876
0.09246102
0.091723718
0.090981467
0.090233775
0.089480157
0.088720146
0.087953287
0.087179146
0.08639731
0.08560739
0.08480902
0.084001867
0.083185625
0.082360024
0.081524829
0.080679842
0.079824905
0.078959902
0.078084762
0.077199456
0.076304003
0.075398469
0.074482969
0.073557666
0.072622771
0.071678544
0.070725294
0.069763378
0.068793212
0.06781531
0.10557452
0.10488727
0.10420054
0.1035144
0.10282886
0.10214386
0.10145928
0.10077494
0.10009061
0.099406025
0.098720881
0.098034837
0.097347526
0.096658558
0.095967523
0.095273994
0.094577528
0.093877677
0.09317398
0.092465976
0.091753199
0.091035187
0.090311478
0.08958162
0.088845168
0.088101688
0.087350761
0.086591985
0.085824978
0.085049378
0.08426485
0.083471085
0.082667803
0.081854757
0.081031735
0.08019856
0.079355095
0.078501243
0.077636951
0.076762207
0.075877048
0.074981554
0.074075855
0.073160127
0.072234595
0.071299532
0.070355257
0.069402142
0.068440621
0.067471221
0.10415458
0.10351755
0.10287857
0.10223785
0.10159555
0.10095172
0.10030638
0.099659461
0.099010833
0.09836033
0.097707738
0.097052805
0.096395244
0.095734741
0.095070955
0.094403526
0.093732077
0.093056213
0.092375533
0.091689626
0.090998076
0.090300465
0.089596378
0.088885402
0.088167132
0.087441172
0.086707138
0.085964661
0.08521339
0.084452996
0.083683169
0.08290363
0.082114125
0.081314431
0.080504359
0.079683756
0.078852505
0.07801053
0.077157796
0.076294311
0.075420126
0.074535341
0.073640098
0.07273459
0.071819053
0.070893775
0.069959088
0.069015375
0.068063085
0.067102755
0.10265577
0.10207079
0.10148136
0.10088785
0.10029053
0.099689601
0.09908518
0.098477314
0.097865987
0.097251126
0.096632608
0.096010268
0.095383899
0.094753263
0.094118093
0.093478093
0.092832949
0.092182328
0.091525884
0.090863259
0.090194086
0.089517997
0.08883462
0.088143585
0.087444527
0.086737088
0.086020921
0.085295691
0.084561082
0.083816793
0.083062547
0.082298091
0.081523198
0.080737672
0.079941349
0.079134097
0.078315823
0.077486471
0.076646027
0.075794516
0.07493201
0.074058623
0.073174514
0.072279891
0.071375004
0.070460155
0.069535688
0.068601999
0.06765955
0.066708885
0.10107766
0.10054643
0.10000824
0.099463596
0.098912909
0.098356498
0.097794596
0.09722736
0.096654875
0.096077165
0.095494198
0.094905895
0.094312129
0.093712738
0.093107525
0.092496264
0.091878703
0.09125457
0.090623574
0.089985411
0.089339766
0.088686319
0.088024743
0.087354712
0.086675902
0.085987994
0.085290679
0.084583657
0.083866645
0.083139376
0.082401602
0.081653101
0.080893673
0.080123148
0.079341387
0.078548285
0.077743769
0.076927806
0.076100402
0.075261603
0.074411498
0.073550218
0.072677942
0.07179489
0.070901329
0.069997573
0.069083981
0.06816096
0.067228982
0.066288602
0.099420297
0.098944321
0.098458895
0.09796465
0.09746212
0.096951741
0.09643386
0.095908737
0.095376559
0.094837442
0.094291445
0.093738571
0.093178774
0.092611966
0.092038021
0.091456779
0.090868054
0.090271632
0.08966728
0.089054748
0.088433773
0.087804082
0.087165394
0.086517429
0.085859904
0.08519254
0.084515066
0.083827218
0.083128748
0.082419422
0.081699023
0.080967359
0.08022426
0.079469583
0.078703214
0.077925073
0.077135112
0.07633332
0.075519724
0.074694391
0.073857428
0.073008986
0.072149259
0.071278484
0.070396943
0.069504965
0.06860292
0.06769123
0.066770378
0.065840926
0.097684157
0.097264758
0.096833444
0.096390966
0.095937972
0.095475011
0.095002535
0.094520905
0.094030403
0.093531238
0.093023552
0.092507432
0.09198291
0.09144997
0.090908556
0.090358577
0.089799905
0.089232389
0.088655852
0.088070098
0.087474915
0.086870079
0.086255357
0.085630511
0.084995302
0.084349491
0.083692845
0.083025138
0.082346157
0.0816557
0.080953585
0.080239649
0.079513752
0.078775778
0.078025642
0.077263287
0.076488691
0.075701866
0.07490286
0.074091761
0.073268698
0.072433838
0.071587393
0.070729618
0.06986081
0.068981312
0.068091508
0.067191831
0.066282776
0.065364917
0.095870254
0.095508528
0.095132474
0.094742945
0.094340699
0.093926388
0.093500563
0.09306368
0.092616112
0.092158153
0.09169003
0.091211906
0.09072389
0.090226037
0.089718359
0.089200829
0.088673383
0.088135926
0.087588338
0.087030477
0.086462182
0.085883278
0.085293577
0.084692888
0.084081012
0.083457752
0.082822914
0.08217631
0.08151776
0.0808471
0.080164178
0.079468862
0.078761044
0.078040635
0.077307578
0.076561842
0.07580343
0.075032377
0.074248755
0.073452672
0.072644278
0.071823759
0.070991345
0.070147307
0.06929196
0.06842566
0.067548805
0.066661841
0.065765273
0.064859689
0.093980171
0.093676955
0.093357084
0.093021476
0.092671002
0.092306399
0.091928312
0.091537284
0.091133773
0.090718156
0.090290736
0.089851751
0.089401382
0.088939753
0.088466942
0.087982983
0.087487873
0.086981575
0.086464023
0.085935129
0.08539478
0.084842849
0.084279198
0.083703676
0.08311613
0.082516402
0.081904336
0.081279783
0.0806426
0.079992654
0.079329828
0.078654023
0.077965158
0.077263177
0.076548048
0.075819767
0.075078363
0.074323895
0.073556457
0.072776181
0.071983235
0.071177826
0.070360202
0.069530653
0.068689507
0.067837136
0.066973952
0.066100415
0.065217042
0.06432443
0.092016122
0.091771936
0.091508941
0.091227986
0.090930096
0.09061606
0.090286618
0.089942388
0.089583907
0.089211626
0.088825921
0.088427102
0.088015414
0.087591049
0.087154146
0.0867048
0.086243064
0.085768957
0.085282468
0.084783558
0.084272164
0.083748208
0.083211594
0.082662218
0.082099966
0.081524723
0.080936371
0.080334798
0.079719897
0.07909157
0.078449733
0.077794318
0.077125276
0.076442579
0.075746223
0.075036233
0.074312662
0.073575592
0.072825144
0.072061468
0.071284755
0.070495233
0.069693167
0.068878864
0.068052669
0.06721497
0.066366192
0.065506808
0.064637347
0.063758418
0.089981101
0.089795936
0.089590346
0.089364468
0.089119763
0.088856925
0.088576838
0.08828016
0.087967509
0.0876394
0.087296277
0.086938513
0.086566418
0.086180242
0.085780184
0.085366395
0.084938984
0.084498023
0.08404355
0.083575575
0.083094086
0.082599048
0.08209041
0.081568112
0.08103208
0.080482239
0.07991851
0.079340817
0.078749089
0.078143263
0.077523289
0.076889128
0.076240764
0.075578197
0.074901452
0.074210581
0.073505661
0.072786801
0.072054144
0.071307864
0.070548171
0.069775314
0.068989577
0.068191283
0.067380796
0.066558518
0.065724888
0.064880391
0.06402557
0.063161046
0.087876453
0.087751765
0.0876044
0.087433473
0.087242422
0.08703112
0.086800897
0.08655231
0.086286101
0.08600282
0.08570298
0.08538701
0.085055276
0.084708086
0.08434569
0.083968292
0.083576054
0.083169096
0.082747505
0.082311339
0.081860629
0.081395387
0.080915604
0.080421259
0.079912321
0.079388754
0.078850515
0.078297565
0.077729869
0.077147397
0.07655013
0.075938065
0.075311212
0.074669603
0.07401329
0.073342352
0.072656892
0.071957045
0.071242975
0.070514879
0.069772989
0.069017573
0.068248935
0.067467416
0.066673395
0.065867288
0.065049551
0.064220681
0.063381234
0.062531842
0.085709702
0.085642637
0.085552381
0.085437819
0.085301322
0.085141323
0.084961364
0.084761127
0.08454178
0.08430378
0.084047744
0.083774134
0.083483373
0.083175815
0.082851761
0.082511463
0.082155128
0.081782922
0.08139498
0.080991401
0.080572261
0.080137612
0.079687487
0.079221906
0.078740875
0.078244395
0.077732462
0.077205071
0.076662221
0.076103915
0.075530168
0.074941006
0.07433647
0.073716621
0.073081539
0.072431329
0.07176612
0.071086071
0.07039137
0.069682236
0.068958923
0.068221718
0.067470942
0.066706957
0.065930155
0.065140971
0.064339871
0.063527368
0.062704028
0.061870498
0.083484446
0.083476118
0.083441998
0.083381251
0.083297722
0.083190428
0.08306165
0.082909464
0.082737292
0.082544767
0.082332868
0.082101992
0.08185264
0.0815852
0.081300016
0.080997381
0.080677547
0.08034072
0.079987076
0.079616757
0.079229876
0.078826526
0.078406778
0.07797069
0.077518306
0.07704966
0.076564786
0.076063711
0.075546468
0.075013093
0.074463632
0.073898141
0.073316691
0.07271937
0.072106286
0.07147757
0.070833378
0.070173891
0.069499321
0.068809909
0.06810593
0.06738769
0.066655529
0.065909826
0.06515099
0.064379469
0.063595746
0.062800343
0.061993841
0.061176898
0.081207131
0.081256128
0.081277068
0.08127082
0.081239535
0.081182578
0.081103145
0.081000384
0.080876226
0.080728853
0.080561305
0.080373302
0.080165613
0.079938594
0.079692638
0.079428075
0.079145191
0.078844231
0.078525406
0.078188896
0.077834851
0.0774634
0.07707465
0.076668693
0.076245608
0.075805464
0.075348327
0.074874257
0.07438332
0.073875581
0.073351118
0.072810014
0.072252371
0.071678303
0.071087946
0.070481456
0.069859012
0.069220821
0.068567116
0.067898161
0.06721425
0.066515708
0.065802896
0.065076206
0.064336065
0.063582936
0.062817315
0.062039736
0.061250792
0.060451154
0.078883839
0.078988574
0.079063871
0.079110879
0.07913086
0.079124595
0.079093906
0.079038231
0.078960283
0.078859373
0.078736829
0.078591397
0.078425484
0.078238986
0.078032434
0.077806177
0.07756053
0.077295771
0.077012143
0.076709858
0.076389099
0.076050027
0.075692783
0.07531749
0.074924259
0.074513193
0.074084385
0.073637931
0.073173921
0.072692455
0.072193635
0.071677576
0.071144405
0.070594263
0.070027312
0.069443732
0.068843727
0.068227526
0.067595385
0.066947587
0.066284447
0.065606309
0.064913551
0.064206582
0.063485844
0.062751814
0.062005
0.061245951
0.06047527
0.059693638
0.076521907
0.076680545
0.076808658
0.076907411
0.076977935
0.077021224
0.077038324
0.077029942
0.076997542
0.076940629
0.076861651
0.07675999
0.076636233
0.076490033
0.076322879
0.07613498
0.075926677
0.075698289
0.075450076
0.075182282
0.074895118
0.074588775
0.07426342
0.073919207
0.073556276
0.073174757
0.072774776
0.072356452
0.071919908
0.071465268
0.070992663
0.070502234
0.069994133
0.069468527
0.068925603
0.068365563
0.067788636
0.067195071
0.066585146
0.065959164
0.065317458
0.064660392
0.06398836
0.063301785
0.062601127
0.061886874
0.061159548
0.060419708
0.059667969
0.058905024
0.074129495
0.074339864
0.074518862
0.074667613
0.07478719
0.074878596
0.074942789
0.074980637
0.074992629
0.074980039
0.074943782
0.074883157
0.074800687
0.074695984
0.074568181
0.07441849
0.074247439
0.074055419
0.073842668
0.073609468
0.073356057
0.073082644
0.072789425
0.072476577
0.072144268
0.071792653
0.071421882
0.071032103
0.070623463
0.070196111
0.069750204
0.069285907
0.068803396
0.068302864
0.067784517
0.067248582
0.066695309
0.066124968
0.065537856
0.064934297
0.064314641
0.063679268
0.063028588
0.062363042
0.0616831
0.060989265
0.06028207
0.059562086
0.058829937
0.058086327
0.071715542
0.071975137
0.072202752
0.072399442
0.072566224
0.072704063
0.072813862
0.072896447
0.072952541
0.072982972
0.072988181
0.072969098
0.072926522
0.072860854
0.072771845
0.072661494
0.072527346
0.072371548
0.072194104
0.07199543
0.071775764
0.071535328
0.07127434
0.070993001
0.0706915
0.070370014
0.070028718
0.069667782
0.069287374
0.068887668
0.068468843
0.068031086
0.067574598
0.067099589
0.066606291
0.06609495
0.065565835
0.065019237
0.064455471
0.063874878
0.063277826
0.062664711
0.062035957
0.06139202
0.060733383
0.06006056
0.059374095
0.058674569
0.057962618
0.057238951
0.069289736
0.069595749
0.069869398
0.070111657
0.070323484
0.070505789
0.070659427
0.070785191
0.070883811
0.070955991
0.071002334
0.071023473
0.071019986
0.070992438
0.070941507
0.070867655
0.070770872
0.070651951
0.070509324
0.070344945
0.070158853
0.06995127
0.069722446
0.069472605
0.06920195
0.068910681
0.06859899
0.068267065
0.067915097
0.067543278
0.067151809
0.066740896
0.06631076
0.065861632
0.065393761
0.064907414
0.064402878
0.063880461
0.063340496
0.06278334
0.062209376
0.061619016
0.061012698
0.060390888
0.059754084
0.059102809
0.058437619
0.057759101
0.0570679
0.056364737
0.066862503
0.067211857
0.067528659
0.067813821
0.068068236
0.068292755
0.068488174
0.06865524
0.068794647
0.068907052
0.068993059
0.069053248
0.069088168
0.069097996
0.069083883
0.069046171
0.068984433
0.068900459
0.068793873
0.068663628
0.068510773
0.068335716
0.068138818
0.067920297
0.067680373
0.067419256
0.067137154
0.066834272
0.066510818
0.066167001
0.065803038
0.065419155
0.065015588
0.064592588
0.06415042
0.063689368
0.063209735
0.062711846
0.062196049
0.061662716
0.061112243
0.060545056
0.059961606
0.05936237
0.058747855
0.058118597
0.057475157
0.056818132
0.056148175
0.055466012
0.064022611
0.064445145
0.064834381
0.065191147
0.065516266
0.065810546
0.066074758
0.06630963
0.06651585
0.066694062
0.066844875
0.066968858
0.067066545
0.067138427
0.067184922
0.067206564
0.067203692
0.067176731
0.067126538
0.067053154
0.066956745
0.066837924
0.066694752
0.066529379
0.066341834
0.066132355
0.065901165
0.065648483
0.065374528
0.065079518
0.064763678
0.06442724
0.064070443
0.063693539
0.063296794
0.062880489
0.062444921
0.061990408
0.06151729
0.061025927
0.060516704
0.059990032
0.059446345
0.058886106
0.058309803
0.057717952
0.057111096
0.056489805
0.055854681
0.055206386
0.054545648
0.061590964
0.062049308
0.062474796
0.062868142
0.063230056
0.063561247
0.063862395
0.064134152
0.064377135
0.064591931
0.064779093
0.064939143
0.065072573
0.065179841
0.065261376
0.0653176
0.065348884
0.065355371
0.065338039
0.065297066
0.065232696
0.065145204
0.065035145
0.064900985
0.064743875
0.06456438
0.064362723
0.064139129
0.063893824
0.063627035
0.063338999
0.063029958
0.062700165
0.062349882
0.061979389
0.061588978
0.06117896
0.060749664
0.060301442
0.059834666
0.059349733
0.058847061
0.058327098
0.057790313
0.057237204
0.056668294
0.056084133
0.055485297
0.054872393
0.054246088
0.053607116
0.059196917
0.059687156
0.060145176