/*--------------------------------*- C++ -*----------------------------------*\
| =========                 |                                                 |
| \\      /  F ield         | OpenFOAM: The Open Source CFD Toolbox           |
|  \\    /   O peration     | Version:  2312                                  |
|   \\  /    A nd           | Website:  www.openfoam.com                      |
|    \\/     M anipulation  |                                                 |
\*---------------------------------------------------------------------------*/
FoamFile
{
    version     2.0;
    format      ascii;
    arch        "LSB;label=32;scalar=64";
    class       volScalarField;
    location    "0.1";
    object      k;
}
// * * * * * * * * * * * * * * * * * * * * * * * * * * * * * * * * * * * * * //

dimensions      [0 2 -2 0 0 0 0];

internalField   nonuniform List<scalar> 
3250
(
20.411552
20.092362
19.780755
19.476567
19.179632
18.889788
18.60687
18.33072
18.061179
17.798093
17.541308
17.290676
17.046051
16.807291
16.574257
16.346813
16.124828
15.908171
15.696718
15.490347
15.288936
15.092371
14.900538
14.713325
14.530624
14.352329
14.178336
14.008545
13.842856
13.681172
13.523397
13.369439
13.219205
13.072606
12.929554
12.789963
12.653748
12.520826
12.391116
12.264539
12.141017
12.020475
11.90284
11.788039
11.676
11.566658
11.459949
11.35581
11.254182
20.40721
20.088218
19.776799
19.472789
19.176024
18.88634
18.603576
18.327572
18.05817
17.795216
17.538557
17.288045
17.043535
16.804885
16.571955
16.344611
16.122721
15.906156
15.69479
15.488502
15.287171
15.090683
14.898922
14.711779
14.529145
14.350914
14.176983
14.007251
13.841618
13.679988
13.522265
13.368356
13.21817
13.071617
12.928609
12.789059
12.652884
12.520001
12.390328
12.263786
12.140299
12.01979
11.902185
11.787414
11.675404
11.56609
11.459408
11.355294
11.253691
20.398533
20.079936
19.768893
19.465239
19.168813
18.879451
18.596993
18.32128
18.052156
17.789466
17.533059
17.282788
17.038508
16.800076
16.567356
16.340212
16.118512
15.902129
15.690938
15.484816
15.283646
15.08731
14.895695
14.708692
14.526192
14.34809
14.174282
14.004667
13.839147
13.677625
13.520006
13.366197
13.216106
13.069644
12.926724
12.787258
12.651164
12.518358
12.38876
12.262289
12.13887
12.018426
11.900885
11.786173
11.674222
11.564964
11.458335
11.354272
11.252718
20.38553
20.067526
19.757044
19.453925
19.158005
18.869126
18.587127
18.311851
18.043143
17.780849
17.524821
17.27491
17.030973
16.79287
16.560463
16.333618
16.112205
15.896095
15.685165
15.479294
15.278362
15.082255
14.89086
14.704066
14.521767
14.343857
14.170234
14.000796
13.835445
13.674086
13.516622
13.362962
13.213014
13.066689
12.9239
12.784562
12.648588
12.515899
12.386411
12.260048
12.136731
12.016386
11.898939
11.784318
11.672454
11.56328
11.456731
11.352745
11.251264
20.368215
20.050999
19.741266
19.438857
19.143613
18.855376
18.573988
18.299294
18.031139
17.769374
17.513848
17.264417
17.020938
16.783272
16.551282
16.324836
16.103804
15.888058
15.677477
15.471938
15.271325
15.075523
14.884419
14.697905
14.515874
14.33822
14.164842
13.99564
13.830515
13.669371
13.512115
13.358654
13.208896
13.062755
12.920141
12.78097
12.645159
12.512624
12.383285
12.257064
12.133884
12.01367
11.896349
11.781849
11.670101
11.561039
11.454597
11.350714
11.249331
20.347843
20.031554
19.722701
19.421128
19.126678
18.839197
18.558527
18.284517
18.017014
17.75587
17.500936
17.25207
17.009129
16.771977
16.540478
16.314501
16.093917
15.8786
15.668428
15.463281
15.263043
15.0676
14.87684
14.690654
14.508938
14.331586
14.158497
13.989572
13.824712
13.663823
13.506811
13.353583
13.204051
13.058124
12.915717
12.776744
12.641123
12.50877
12.379606
12.253554
12.130535
12.010475
11.893302
11.778945
11.667334
11.558403
11.452087
11.348325
11.247058
20.325049
20.009796
19.701927
19.401289
19.107728
18.821091
18.541226
18.267981
18.001207
17.740757
17.486485
17.23825
16.995913
16.759336
16.528386
16.302934
16.082851
15.868013
15.658299
15.453591
15.253773
15.058731
14.868355
14.682538
14.501174
14.32416
14.151394
13.982779
13.818217
13.657612
13.500873
13.347908
13.198626
13.052941
12.910765
12.772014
12.636605
12.504456
12.375489
12.249624
12.126785
12.006899
11.889892
11.775694
11.664236
11.555452
11.449278
11.345651
11.244514
20.298058
19.984032
19.677327
19.377795
19.085286
18.799649
18.520735
18.248396
17.982485
17.722856
17.469369
17.221882
16.980257
16.744361
16.514062
16.289231
16.069742
15.855472
15.646301
15.442112
15.24279
15.048224
14.858303
14.672922
14.491975
14.315361
14.142979
13.974731
13.810521
13.650254
13.493838
13.341183
13.192199
13.046799
12.904897
12.766409
12.631252
12.499345
12.37061
12.244967
12.122343
12.002661
11.885852
11.771843
11.660566
11.551957
11.44595
11.342484
11.241501
20.266579
19.953982
19.648635
19.350392
19.059108
18.774637
18.496832
18.225549
17.960643
17.701974
17.4494
17.202784
16.961992
16.72689
16.49735
16.273243
16.054446
15.840838
15.6323
15.428717
15.229974
15.035963
14.846573
14.6617
14.481241
14.305093
14.133158
13.965338
13.801539
13.641666
13.485628
13.333335
13.184698
13.039631
12.898049
12.759867
12.625004
12.49338
12.364915
12.239533
12.117158
11.997716
11.881136
11.767348
11.656283
11.547877
11.442066
11.338787
11.237985
20.23031
19.919358
19.615573
19.318815
19.028941
18.745812
18.469284
18.199217
17.93547
17.677904
17.426383
17.180772
16.940938
16.706751
16.478084
16.254812
16.036813
15.823967
15.616159
15.413273
15.215198
15.021826
14.833048
14.648761
14.468863
14.293253
14.121833
13.954508
13.791182
13.631763
13.47616
13.324284
13.176048
13.031365
12.890151
12.752323
12.617799
12.4865
12.358348
12.233265
12.111178
11.992012
11.875698
11.762164
11.651344
11.543173
11.437586
11.334524
11.23393
20.188935
19.879858
19.577854
19.282786
18.994521
18.712922
18.43785
18.169169
17.906742
17.650436
17.400115
17.155648
16.916907
16.683763
16.456092
16.233772
16.016683
15.804708
15.597732
15.395642
15.198329
15.005686
14.817606
14.633988
14.454731
14.279734
14.108903
13.942141
13.779355
13.620454
13.465348
13.313949
13.166169
13.021925
12.881131
12.743707
12.60957
12.478643
12.350847
12.226107
12.104348
11.985498
11.869486
11.756243
11.645703
11.537799
11.432471
11.329656
11.229298
20.142128
19.83517
19.535177
19.242022
18.955574
18.675703
18.402277
18.135163
17.87423
17.619346
17.370382
17.127211
16.889705
16.657741
16.431197
16.209954
15.993895
15.782904
15.576868
15.375679
15.179229
14.98741
14.800121
14.617259
14.438726
14.264425
14.094259
13.928135
13.765961
13.607646
13.453102
13.302243
13.154981
13.011232
12.870915
12.733947
12.600249
12.469743
12.342351
12.217999
12.096612
11.978119
11.86245
11.749537
11.639312
11.531712
11.426675
11.32414
11.224052
20.089553
19.784971
19.487235
19.196224
18.911816
18.633885
18.362305
18.09695
17.837693
17.584406
17.336966
17.095248
16.85913
16.628491
16.403213
16.183179
15.968275
15.75839
15.553412
15.353235
15.157752
14.966861
14.780459
14.598448
14.420729
14.247208
14.07779
13.912383
13.750896
13.593241
13.439329
13.289076
13.142395
12.999205
12.859423
12.722969
12.589764
12.459731
12.332793
12.208877
12.087908
11.969817
11.854534
11.741991
11.632122
11.524864
11.420155
11.317934
11.218149
20.030864
19.72893
19.433709
19.145088
18.862954
18.587186
18.317666
18.054272
17.796884
17.545379
17.299639
17.059542
16.824972
16.595811
16.371946
16.153262
15.939648
15.730997
15.527199
15.328151
15.13375
14.943893
14.758483
14.577421
14.400612
14.227963
14.05938
13.894774
13.734055
13.577136
13.423931
13.274354
13.128324
12.985757
12.846573
12.710693
12.578039
12.448535
12.322105
12.198676
12.078175
11.960533
11.845681
11.733552
11.62408
11.517204
11.412862
11.310994
11.211546
19.965705
19.666705
19.374272
19.088301
18.808687
18.535318
18.268081
18.006863
17.751548
17.50202
17.258165
17.019868
16.787016
16.559496
16.337197
16.120011
15.90783
15.700548
15.498062
15.300268
15.107067
14.91836
14.73405
14.554043
14.378244
14.206563
14.038908
13.875192
13.715326
13.559225
13.406805
13.257981
13.112673
12.970799
12.83228
12.697038
12.564997
12.43608
12.310214
12.187327
12.067346
11.950204
11.835831
11.724162
11.615133
11.508681
11.404747
11.30327
11.204199
19.893713
19.597949
19.308589
19.025542
18.748707
18.477985
18.213268
17.95445
17.701423
17.454077
17.212303
16.975993
16.745038
16.519329
16.298762
16.083231
15.872632
15.666864
15.465825
15.269417
15.077542
14.890106
14.707013
14.528171
14.353489
14.182879
14.01625
13.853517
13.694595
13.539399
13.387846
13.239855
13.095346
12.954238
12.816455
12.681919
12.550555
12.422289
12.297048
12.174759
12.055355
11.938765
11.824923
11.713763
11.605224
11.499242
11.395759
11.294716
11.196061
19.81452
19.522307
19.236322
18.956483
18.682701
18.414884
18.152935
17.896754
17.646241
17.401293
17.161807
16.92768
16.69881
16.475094
16.25643
16.042719
15.83386
15.629756
15.43031
15.235427
15.045012
14.858973
14.677219
14.49966
14.326208
14.156775
13.991276
13.829626
13.671743
13.517543
13.366946
13.219872
13.076242
12.935979
12.799006
12.665248
12.53463
12.407081
12.282527
12.1609
12.042129
11.926148
11.812891
11.702293
11.594293
11.488829
11.385844
11.285279
11.187084
19.727755
19.439421
19.157124
18.880792
18.610349
18.34571
18.086788
17.833492
17.585729
17.343405
17.106423
16.874687
16.648099
16.426564
16.209985
15.998267
15.791314
15.589034
15.391333
15.19812
15.009305
14.824798
14.644511
14.468359
14.296254
14.128114
13.963853
13.803392
13.646647
13.49354
13.343991
13.197923
13.055259
12.915922
12.779838
12.646933
12.517135
12.390372
12.266573
12.145671
12.027596
11.912284
11.799669
11.689688
11.58228
11.477385
11.374946
11.274907
11.177216
19.633041
19.348931
19.070648
18.798137
18.531328
18.270151
18.014528
17.764376
17.519611
17.280147
17.045895
16.816765
16.592668
16.373512
16.159207
15.949664
15.744791
15.544502
15.348706
15.157317
14.970248
14.787414
14.60873
14.434114
14.263481
14.096752
13.933845
13.774682
13.619182
13.467269
13.318867
13.173898
13.032288
12.893964
12.758852
12.626881
12.497979
12.372076
12.249103
12.128994
12.011681
11.8971
11.785187
11.675881
11.569122
11.46485
11.363009
11.263544
11.166405
19.815182
19.530008
19.250476
18.976549
18.70818
18.445317
18.187897
17.935854
17.689116
17.447607
17.21125
16.979964
16.753667
16.532276
16.315706
16.103874
15.896695
15.694085
15.49596
15.302237
15.112832
14.927664
14.746651
14.569712
14.396767
14.227738
14.062546
13.901113
13.743362
13.589219
13.438607
13.291453
13.147682
13.007222
12.870002
12.73595
12.604995
12.477069
12.352104
12.230032
12.110787
11.994305
11.880522
11.769376
11.660806
11.554753
11.45116
11.349972
11.251134
11.154597
19.698256
19.418286
19.143701
18.874479
18.61059
18.351992
18.098636
17.850466
17.607422
17.369438
17.136444
16.90837
16.68514
16.46668
16.252913
16.04376
15.839145
15.638987
15.443209
15.251733
15.064481
14.881374
14.702336
14.52729
14.35616
14.18887
14.025346
13.865513
13.709297
13.556626
13.407427
13.261628
13.119159
12.979948
12.843927
12.711026
12.581177
12.454312
12.330366
12.209273
12.090968
11.975389
11.862473
11.75216
11.64439
11.539106
11.436252
11.335774
11.237618
11.141737
19.571884
19.297514
19.028254
18.764101
18.505037
18.251036
18.00206
17.758067
17.519007
17.284824
17.05546
16.830852
16.610934
16.39564
16.184898
15.97864
15.776794
15.579286
15.386046
15.196999
15.012073
14.831196
14.654294
14.481296
14.312129
14.146721
13.985002
13.826901
13.672347
13.52127
13.3736
13.22927
13.08821
12.950352
12.81563
12.683976
12.555324
12.42961
12.306769
12.186736
12.069451
11.95485
11.842875
11.733465
11.626563
11.522113
11.420061
11.320352
11.222936
11.127767
19.435705
19.167341
18.903797
18.645083
18.391201
18.142136
17.897867
17.658363
17.423586
17.193492
16.968032
16.747153
16.5308
16.318912
16.11143
15.908289
15.709426
15.514774
15.324267
15.137839
14.955422
14.776948
14.60235
14.43156
14.264511
14.101135
13.941364
13.785132
13.632371
13.483015
13.336997
13.194252
13.054715
12.918318
12.784999
12.654693
12.527336
12.402864
12.281217
12.162331
12.046148
11.932606
11.821647
11.713214
11.607251
11.503703
11.402517
11.303642
11.207027
11.112628
19.555788
19.289379
19.027436
18.770002
18.517108
18.268771
18.024992
17.785764
17.551069
17.320882
17.095171
16.873898
16.657021
16.444492
16.236262
16.032277
15.832484
15.636824
15.44524
15.257672
15.074058
14.894337
14.718448
14.546328
14.377914
14.213143
14.051952
13.894278
13.740058
13.589228
13.441725
13.297487
13.156449
13.018551
12.88373
12.751923
12.623069
12.497106
12.373975
12.253615
12.135966
12.02097
11.90857
11.798708
11.691329
11.586379
11.483804
11.383554
11.285577
11.189827
11.096259
19.391812
19.132588
18.877483
18.626563
18.379876
18.137454
17.899317
17.665471
17.435913
17.21063
16.989604
16.772808
16.560209
16.351772
16.147455
15.947216
15.751007
15.558779
15.370482
15.186061
15.005464
14.828635
14.655517
14.486055
14.320189
14.157863
13.999018
13.843594
13.691534
13.542777
13.397264
13.254937
13.115734
12.979598
12.846469
12.716287
12.588994
12.464532
12.342841
12.223865
12.107547
11.993829
11.882657
11.773975
11.66773
11.56387
11.462343
11.3631
11.266091
11.171271
11.078599
19.216641
18.965041
18.717199
18.473198
18.233106
17.996975
17.76484
17.536722
17.312634
17.092576
16.876542
16.664518
16.456483
16.25241
16.052271
15.856029
15.663647
15.475085
15.290298
15.109242
14.93187
14.758132
14.587978
14.421359
14.25822
14.098511
13.942176
13.789162
13.639414
13.492878
13.349498
13.209217
13.071981
12.937734
12.806418
12.677979
12.552361
12.429507
12.309362
12.191871
12.07698
11.964634
11.85478
11.747365
11.642338
11.539648
11.439246
11.341084
11.245115
11.151295
19.030024
18.786486
18.546327
18.309652
18.076549
17.847086
17.621315
17.399276
17.180994
16.966485
16.755755
16.548803
16.34562
16.14619
15.950495
15.758508
15.570202
15.385544
15.204498
15.027028
14.853093
14.682652
14.51566
14.352074
14.191846
14.034929
13.881275
13.730834
13.583557
13.439393
13.298291
13.160199
13.025065
12.892837
12.763462
12.636887
12.51306
12.391927
12.273436
12.157535
12.044172
11.933294
11.824852
11.718794
11.615072
11.513636
11.41444
11.317437
11.222582
11.129833
18.831753
18.596711
18.364654
18.13571
17.909985
17.687567
17.468524
17.252914
17.040776
16.832142
16.627031
16.425454
16.227415
16.03291
15.84193
15.65446
15.470481
15.28997
15.1129
14.939241
14.768962
14.602026
14.438398
14.278039
14.120909
13.966966
13.816167
13.668468
13.523824
13.382188
13.243515
13.107756
12.974864
12.84479
12.717485
12.592899
12.470984
12.351688
12.234964
12.120761
12.009029
11.899721
11.792787
11.688179
11.585851
11.485756
11.387849
11.292085
11.198421
11.106818
18.621676
18.395553
18.172011
17.951196
17.733235
17.518235
17.306283
17.09745
16.891794
16.68936
16.490183
16.294286
16.101684
15.912388
15.726397
15.543707
15.364311
15.188192
15.015334
14.845716
14.679312
14.516096
14.356037
14.199105
14.045264
13.894479
13.746712
13.601926
13.46008
13.321133
13.185043
13.051766
12.921259
12.793478
12.668376
12.545908
12.426028
12.30869
12.193847
12.081453
11.971461
11.863825
11.758499
11.655438
11.554597
11.455932
11.3594
11.264958
11.172566
11.082187
18.399702
18.182911
17.968282
17.755985
17.546167
17.338951
17.134444
16.932734
16.733894
16.537984
16.345053
16.155139
15.968268
15.784463
15.603735
15.426092
15.251533
15.080055
14.911649
14.746301
14.583997
14.424715
14.268434
14.115128
13.96477
13.817331
13.672779
13.531081
13.392202
13.256106
13.122756
12.992113
12.864138
12.738789
12.616027
12.495809
12.378092
12.262834
12.149991
12.039521
11.931378
11.825521
11.721906
11.62049
11.521232
11.424088
11.32902
11.235986
11.144948
11.055872
18.165814
17.958744
17.753413
17.550009
17.348698
17.149624
16.952909
16.758658
16.566962
16.377895
16.191519
16.007886
15.827037
15.649005
15.473813
15.301479
15.132014
14.965424
14.801708
14.640864
14.482883
14.327752
14.175458
14.025982
13.879304
13.7354
13.594244
13.455811
13.32007
13.186991
13.05654
12.928686
12.803391
12.680621
12.560338
12.442503
12.327079
12.214026
12.103305
11.994874
11.888694
11.784724
11.682925
11.583256
11.485678
11.390152
11.296639
11.205101
11.115503
11.027812
17.92007
17.723091
17.52742
17.333265
17.14081
16.950218
16.761629
16.575165
16.39093
16.209015
16.029496
15.852439
15.677896
15.505913
15.336526
15.169763
15.005645
14.844188
14.685402
14.529292
14.375857
14.225095
14.076998
13.931555
13.788753
13.648574
13.511
13.37601
13.24358
13.113684
12.986295
12.861384
12.738921
12.618875
12.501212
12.385898
12.272899
12.162178
12.053701
11.947429
11.843327
11.741356
11.64148
11.543662
11.447864
11.354051
11.262187
11.172236
11.084164
10.997943
17.662621
17.476071
17.290395
17.10582
16.92255
16.740764
16.560618
16.38225
16.205782
16.031317
15.858946
15.688748
15.520789
15.355126
15.191807
15.03087
14.872349
14.716267
14.562646
14.411497
14.262831
14.116653
13.972961
13.831753
13.693023
13.55676
13.422952
13.291584
13.162637
13.036092
12.911927
12.790118
12.670639
12.553464
12.438563
12.325908
12.215467
12.107208
12.001099
11.897108
11.7952
11.695341
11.597497
11.501635
11.407721
11.31572
11.225599
11.137327
11.050871
10.966205
17.393714
17.217894
17.042517
16.867826
16.694042
16.521359
16.349952
16.179974
16.011559
15.844827
15.679882
15.516815
15.355706
15.196624
15.039626
14.884765
14.732081
14.581611
14.433384
14.287421
14.143742
14.002358
13.863278
13.726506
13.592042
13.459884
13.330025
13.202456
13.077166
12.954139
12.83336
12.71481
12.598467
12.484311
12.372316
12.262458
12.154709
12.049042
11.945429
11.843839
11.744243
11.64661
11.55091
11.457111
11.365182
11.275094
11.186815
11.100315
11.015565
10.932542
17.113701
16.948872
16.784059
16.61952
16.455491
16.292183
16.129785
15.968464
15.808369
15.649633
15.492373
15.336694
15.182687
15.030432
14.88
14.731451
14.584839
14.440208
14.297597
14.157038
14.018557
13.882174
13.747907
13.615767
13.485761
13.357893
13.232164
13.10857
12.987106
12.867764
12.750532
12.635397
12.522343
12.411352
12.302406
12.195483
12.090562
11.987617
11.886625
11.78756
11.690395
11.595103
11.501657
11.410029
11.320192
11.232116
11.145776
11.061144
10.978192
10.896902
16.823051
16.669424
16.515395
16.361235
16.207195
16.053498
15.900347
15.747923
15.596389
15.445889
15.296553
15.148498
15.001827
14.856632
14.712993
14.570981
14.430661
14.292086
14.155305
14.020357
13.887278
13.756097
13.626837
13.499519
13.374156
13.25076
13.129336
13.00989
12.892421
12.776926
12.6634
12.551834
12.442218
12.33454
12.228784
12.124935
12.022973
11.922881
11.824636
11.728218
11.633602
11.540767
11.449687
11.360338
11.272697
11.186737
11.102434
11.019764
10.938704
10.859235
16.522349
16.380082
16.237007
16.093408
15.949547
15.805659
15.661959
15.518639
15.375875
15.233823
15.092625
14.952408
14.813286
14.675361
14.538726
14.40346
14.269638
14.137322
14.00657
13.87743
13.749947
13.624157
13.500091
13.377777
13.257236
13.138486
13.02154
12.906407
12.793095
12.681607
12.571941
12.464096
12.358065
12.253842
12.151416
12.050776
11.951908
11.854796
11.759423
11.665773
11.573825
11.48356
11.394957
11.307996
11.222655
11.138912
11.056745
10.976134
10.897057
10.819501
16.212311
16.0815
15.949494
15.816585
15.683044
15.549118
15.415031
15.280986
15.147167
15.013744
14.880866
14.748673
14.617288
14.486823
14.357379
14.229048
14.101911
13.976041
13.851503
13.728355
13.606648
13.486426
13.36773
13.250593
13.135043
13.021105
12.908799
12.798141
12.689143
12.581814
12.476158
12.37218
12.269878
12.169249
12.07029
11.972991
11.877344
11.783339
11.690961
11.600198
11.511034
11.423453
11.337438
11.252971
11.170034
11.088608
11.008677
10.930219
10.853219
10.777664
15.89378
15.774454
15.653569
15.531423
15.408293
15.284433
15.160074
15.03543
14.910694
14.786042
14.661636
14.537621
14.414131
14.291287
14.1692
14.047969
13.927684
13.808426
13.690268
13.573277
13.457511
13.343023
13.229858
13.118058
13.007658
12.898689
12.791176
12.685143
12.580607
12.477583
12.376081
12.276109
12.177672
12.080773
11.985411
11.891582
11.799283
11.708506
11.619243
11.531483
11.445217
11.36043
11.27711
11.195242
11.114812
11.035805
10.958204
10.881995
10.807163
10.733698
15.567733
15.459851
15.350073
15.238699
15.12601
15.012266
14.897703
14.78254
14.666978
14.5512
14.435376
14.319659
14.204191
14.0891
13.974504
13.860512
13.74722
13.634718
13.523087
13.4124
13.302722
13.194113
13.086626
12.980308
12.875202
12.771345
12.668769
12.567501
12.467565
12.368982
12.271768
12.175935
12.081494
11.988451
11.896811
11.806575
11.717744
11.630313
11.544279
11.459637
11.376377
11.294492
11.213972
11.134806
11.056983
10.98049
10.905316
10.831448
10.758874
10.687588
15.235274
15.138721
15.039966
14.939308
14.837029
14.73339
14.628634
14.522982
14.416638
14.309793
14.202621
14.095282
13.987924
13.880682
13.773682
13.667038
13.560854
13.455226
13.350242
13.245981
13.142517
13.039914
12.938233
12.837527
12.737844
12.639228
12.541715
12.44534
12.350132
12.256116
12.163313
12.071742
11.981417
11.892351
11.80455
11.718023
11.632772
11.548799
11.466105
11.384686
11.304539
11.225659
11.14804
11.071675
10.996555
10.922671
10.850015
10.778578
10.70835
10.639329
14.897635
14.812218
14.724328
14.634261
14.542296
14.448694
14.353695
14.257526
14.160394
14.06249
13.963994
13.86507
13.765872
13.666539
13.567202
13.467982
13.368988
13.270323
13.17208
13.074345
12.977196
12.880704
12.784936
12.68995
12.595801
12.502536
12.4102
12.31883
12.228462
12.139125
12.050846
11.963648
11.87755
11.792569
11.708717
11.626004
11.54444
11.46403
11.384777
11.306683
11.229748
11.153971
11.079349
11.005878
10.933553
10.862369
10.79232
10.7234
10.655603
10.588929
14.556171
14.481616
14.404359
14.324685
14.24287
14.159168
14.073821
13.987051
13.899066
13.810061
13.720216
13.629699
13.538664
13.447258
13.355615
13.263858
13.172104
13.080458
12.989019
12.897879
12.80712
12.716819
12.627047
12.537869
12.449342
12.361522
12.274455
12.188186
12.102754
12.018194
11.934537
11.85181
11.770037
11.689239
11.609432
11.530633
11.452851
11.376099
11.300382
11.225706
11.152075
11.079491
11.007955
10.937467
10.868024
10.799625
10.732267
10.665947
10.600661
10.536413
14.212346
14.148302
14.081368
14.011817
13.939916
13.865914
13.790046
13.712531
13.633575
13.553371
13.4721
13.38993
13.30702
13.223515
13.139553
13.05526
12.970757
12.886152
12.801548
12.717041
12.632718
12.54866
12.464942
12.381633
12.298796
12.21649
12.134767
12.053675
11.973257
11.893554
11.8146
11.736427
11.659063
11.582532
11.506857
11.432054
11.358141
11.285131
11.213034
11.141861
11.071617
11.00231
10.933942
10.866517
10.800037
10.734502
10.669913
10.606269
10.54357
10.481823
13.867721
13.81376
13.756764
13.696995
13.634704
13.570133
13.503507
13.435041
13.364936
13.293381
13.220554
13.146624
13.071746
12.996071
12.919734
12.842864
12.765583
12.688004
12.61023
12.532361
12.454487
12.376694
12.299059
12.221655
12.144549
12.067803
11.991474
11.915614
11.840269
11.765484
11.691297
11.617744
11.544856
11.472663
11.401188
11.330455
11.260482
11.191287
11.122885
11.055287
10.988505
10.922547
10.857421
10.793132
10.729687
10.667087
10.605338
10.54444
10.484398
10.425221
13.523941
13.479561
13.432048
13.381646
13.328594
13.273119
13.215436
13.155751
13.094258
13.031141
12.966575
12.900723
12.83374
12.765773
12.696959
12.627428
12.557301
12.486691
12.415705
12.344443
12.272999
12.20146
12.129906
12.058413
11.987052
11.915886
11.844977
11.774379
11.704143
11.634316
11.56494
11.496054
11.427693
11.359888
11.29267
11.226062
11.160088
11.094768
11.03012
10.966159
10.9029
10.840355
10.778533
10.717444
10.657096
10.597496
10.538649
10.480561
10.423238
10.366692
13.182709
13.147341
13.108789
13.067277
13.023025
12.976247
12.927145
12.875913
12.822736
12.767791
12.711245
12.653258
12.59398
12.533554
12.472115
12.409792
12.346705
12.282969
12.218689
12.153967
12.088896
12.023566
11.958059
11.892454
11.826821
11.761228
11.695737
11.630408
11.565292
11.50044
11.435896
11.371703
11.307899
11.244518
11.181591
11.119149
11.057215
10.995814
10.934967
10.874691
10.815005
10.755922
10.697456
10.639619
10.582421
10.525873
10.469983
10.414758
10.360208
10.306348
12.845765
12.818786
12.788612
12.75545
12.719503
12.680964
12.640022
12.596857
12.551644
12.504548
12.45573
12.405341
12.353527
12.300425
12.246167
12.190878
12.134676
12.077673
12.019977
11.961687
11.902897
11.843697
11.784169
11.724392
11.66444
11.604382
11.544282
11.484199
11.424189
11.364304
11.304591
11.245095
11.185856
11.126911
11.068295
11.010038
10.95217
10.894715
10.837699
10.781141
10.725061
10.669477
10.614406
10.55986
10.505854
10.4524
10.399509
10.347191
10.295458
10.244328
12.530831
12.514886
12.495609
12.473178
12.447775
12.419579
12.388768
12.355511
12.319975
12.282319
12.242699
12.201264
12.158158
12.113517
12.067475
12.020156
11.971681
11.922165
11.871717
11.820441
11.768436
11.715796
11.662608
11.608956
11.554918
11.500568
11.445975
11.391205
11.336319
11.281373
11.226421
11.171512
11.116692
11.062004
11.007487
10.953177
10.899107
10.845309
10.79181
10.738637
10.685812
10.633358
10.581295
10.529641
10.478413
10.427626
10.377295
10.327434
10.278056
10.229173
10.180807
12.200885
12.191816
12.179522
12.164158
12.145878
12.124839
12.101197
12.075104
12.046709
12.016157
11.983591
11.949148
11.912961
11.875158
11.835864
11.795198
11.753274
11.710202
11.666086
11.621028
11.575123
11.528462
11.481133
11.433218
11.384792
11.335931
11.286703
11.237173
11.187403
11.137451
11.087371
11.037212
10.987023
10.936847
10.886725
10.836695
10.786792
10.737048
10.687493
10.638157
10.589063
10.540236
10.491697
10.443468
10.395568
10.348013
10.300821
10.254008
10.207588
10.161576
10.115997
11.881195
11.878272
11.872216
11.863216
11.851391
11.836878
11.81981
11.80032
11.778539
11.754597
11.72862
11.700734
11.671061
11.639717
11.606819
11.572476
11.536798
11.499886
11.461841
11.422758
11.382729
11.341842
11.300181
11.257827
11.214854
11.171335
11.127337
11.082926
11.038162
10.993103
10.947804
10.902314
10.856683
10.810954
10.76517
10.71937
10.673589
10.627862
10.58222
10.536692
10.491307
10.446088
10.401061
10.356247
10.311667
10.267341
10.223288
10.179524
10.136067
10.092934
10.050151
11.573532
11.575875
11.575317
11.571992
11.565928
11.557287
11.546171
11.532693
11.516967
11.499105
11.479219
11.45742
11.433817
11.408516
11.381621
11.353236
11.323459
11.292386
11.260111
11.226723
11.19231
11.156954
11.120736
11.083733
11.046017
11.007659
10.968725
10.929279
10.889379
10.849083
10.808445
10.767515
10.726341
10.684969
10.643439
10.601793
10.560066
10.518294
10.476509
10.434741
10.39302
10.351372
10.309822
10.268394
10.22711
10.185992
10.145059
10.10433
10.063825
10.023563
9.9835691
11.279415
11.286289
11.290472
11.292032
11.291058
11.287641
11.281833
11.273759
11.263505
11.25117
11.236848
11.220636
11.202629
11.182922
11.161608
11.13878
11.114527
11.088937
11.062097
11.034089
11.004995
10.974893
10.943857
10.911962
10.879275
10.845865
10.811796
10.777128
10.741919
10.706226
10.670099
10.63359
10.596745
10.559609
10.522223
10.484629
10.446862
10.408959
10.370952
10.332872
10.294749
10.256611
10.218483
10.180391
10.142358
10.104406
10.066557
10.028832
9.9912502
9.9538321
9.9166064
11.000328
11.010982
11.019172
11.024939
11.028341
11.02944
11.028322
11.025043
11.019666
11.012288
11.002985
10.99184
10.978932
10.964346
10.948162
10.930462
10.911326
10.890833
10.869062
10.846088
10.821985
10.796827
10.770682
10.743618
10.715702
10.686995
10.657559
10.627452
10.596731
10.565448
10.533654
10.501397
10.468723
10.435676
10.402297
10.368625
10.334699
10.300552
10.266218
10.231729
10.197114
10.162401
10.127618
10.092789
10.05794
10.023094
9.9882722
9.9534976
9.9187909
9.8841737
9.8496755
10.737636
10.75136
10.762854
10.772141
10.779255
10.784241
10.787147
10.788023
10.786947
10.783961
10.779121
10.772509
10.764189
10.754232
10.742708
10.729686
10.715237
10.699431
10.682336
10.664022
10.644556
10.624002
10.602426
10.57989
10.556453
10.532174
10.507112
10.48132
10.454851
10.427758
10.400086
10.371884
10.343194
10.31406
10.284521
10.254616
10.224382
10.193852
10.163061
10.132038
10.100815
10.06942
10.037879
10.006218
9.9744634
9.942638
9.9107654
9.8788678
9.8469674
9.8150866
9.7832559
10.492601
10.508731
10.522875
10.535032
10.54522
10.553461
10.559788
10.564235
10.566846
10.567662
10.566748
10.564142
10.55989
10.554063
10.546714
10.537905
10.527696
10.516146
10.503316
10.489266
10.474056
10.457745
10.44039
10.422047
10.402773
10.38262
10.361642
10.339889
10.317411
10.294256
10.270469
10.246094
10.221173
10.195747
10.169854
10.14353
10.116812
10.089733
10.062326
10.034621
10.006647
9.9784336
9.9500072
9.9213939
9.8926188
9.8637062
9.8346798
9.8055624
9.7763766
9.7471456
9.7179006
10.266383
10.284322
10.300515
10.314943
10.327607
10.338513
10.347676
10.355116
10.360859
10.364936
10.367383
10.368236
10.367547
10.365356
10.361694
10.356627
10.350198
10.342462
10.333468
10.323269
10.311917
10.299464
10.28596
10.271456
10.256002
10.239647
10.222438
10.204422
10.185644
10.166149
10.14598
10.125177
10.103781
10.081828
10.059356
10.0364
10.012994
9.989171
9.9649611
9.9403948
9.915501
9.8903074
9.8648407
9.8391268
9.8131906
9.7870566
9.7607484
9.7342892
9.7077018
9.6810099
9.654245
10.06007
10.079292
10.096998
10.113158
10.127754
10.14078
10.152236
10.162127
10.170467
10.177272
10.182566
10.186374
10.188728
10.189658
10.189207
10.187417
10.184306
10.179933
10.174338
10.167565
10.159657
10.150661
10.14062
10.129579
10.117582
10.104673
10.090894
10.076287
10.060894
10.044755
10.027909
10.010395
9.9922499
9.9735087
9.9542059
9.9343747
9.9140472
9.8932546
9.8720265
9.850392
9.8283788
9.806014
9.7833236
9.760333
9.7370669
9.7135494
9.689804
9.6658539
9.6417221
9.6174322
9.593016
9.8747086
9.8947641
9.9135221
9.9309384
9.9469844
9.9616405
9.9748941
9.9867396
9.9971774
10.006214
10.013859
10.020129
10.025044
10.028626
10.030902
10.0319
10.031652
10.030204
10.027562
10.023783
10.018897
10.012946
10.005965
9.9979947
9.9890727
9.9792375
9.9685271
9.9569788
9.9446292
9.9315153
9.9176731
9.9031375
9.8879427
9.8721217
9.8557063
9.8387274
9.8212151
9.8031987
9.7847065
9.7657661
9.7464042
9.7266467
9.706519
9.6860456
9.6652507
9.644158
9.6227905
9.6011714
9.5793233
9.5572699