/*--------------------------------*- C++ -*----------------------------------*\
| =========                 |                                                 |
| \\      /  F ield         | OpenFOAM: The Open Source CFD Toolbox           |
|  \\    /   O peration     | Version:  2312                                  |
|   \\  /    A nd           | Website:  www.openfoam.com                      |
|    \\/     M anipulation  |                                                 |
\*---------------------------------------------------------------------------*/
FoamFile
{
    version     2.0;
    format      ascii;
    arch        "LSB;label=32;scalar=64";
    class       volScalarField;
    location    "0.1";
    object      Ma;
}
// * * * * * * * * * * * * * * * * * * * * * * * * * * * * * * * * * * * * * //

dimensions      [0 0 0 0 0 0 0];

internalField   nonuniform List<scalar> 
3250
(
0.0080175551
0.0079254306
0.0078348412
0.0077456689
0.007657804
0.0075711456
0.0074856003
0.0074010817
0.0073175101
0.0072348119
0.0071529187
0.0070717678
0.0069913009
0.0069114644
0.0068322086
0.0067534881
0.0066752608
0.0065974882
0.0065201349
0.0064431688
0.0063665603
0.0062902829
0.0062143124
0.0061386273
0.0060632083
0.0059880384
0.0059131029
0.005838389
0.005763886
0.0056895851
0.0056154794
0.0055415639
0.0054678351
0.0053942914
0.0053209329
0.005247761
0.0051747788
0.0051019909
0.0050294033
0.0049570232
0.0048848593
0.0048129213
0.0047412202
0.0046697683
0.0045985789
0.0045276662
0.0044570455
0.004386732
0.0043167424
0.0080157384
0.0079236963
0.0078331842
0.0077440845
0.007656288
0.007569694
0.0074842094
0.0073997482
0.007316231
0.0072335842
0.0071517399
0.0070706353
0.0069902125
0.0069104179
0.0068312021
0.0067525198
0.0066743289
0.0065965912
0.0065192713
0.0064423372
0.0063657595
0.0062895116
0.0062135695
0.0061379117
0.006062519
0.0059873745
0.0059124635
0.0058377733
0.0057632931
0.0056890144
0.0056149302
0.0055410355
0.0054673269
0.0053938029
0.0053204634
0.0052473101
0.005174346
0.0051015757
0.0050290053
0.0049566419
0.0048844944
0.0048125724
0.0047408869
0.0046694503
0.0045982758
0.0045273777
0.0044567713
0.0043864717
0.0043164957
0.0080121041
0.0079202266
0.007829869
0.0077409143
0.0076532543
0.007566789
0.0074814258
0.0073970793
0.0073136705
0.0072311265
0.0071493796
0.0070683677
0.0069880329
0.0069083221
0.0068291862
0.0067505801
0.0066724621
0.006594794
0.0065175409
0.0064406707
0.0063641543
0.0062879653
0.0062120798
0.0061364766
0.0060611364
0.0059860426
0.0059111805
0.0058365375
0.005762103
0.0056878685
0.0056138271
0.0055399739
0.0054663056
0.0053928207
0.0053195192
0.0052464029
0.0051734747
0.0051007395
0.0050282031
0.0049558731
0.0048837579
0.0048118676
0.0047402131
0.0046688067
0.0045976618
0.0045267926
0.0044562143
0.0043859422
0.0043159931
0.0080066557
0.0079150246
0.0078248982
0.0077361608
0.0076487053
0.0075624325
0.0074772511
0.0073930763
0.0073098301
0.00722744
0.0071458392
0.0070649659
0.006984763
0.0069051777
0.0068261616
0.0067476697
0.0066696608
0.006592097
0.0065149438
0.0064381694
0.0063617449
0.0062856441
0.0062098436
0.006134322
0.0060590605
0.0059840426
0.0059092537
0.0058346815
0.0057603155
0.0056861472
0.00561217
0.0055383789
0.005464771
0.0053913446
0.0053181
0.005245039
0.0051721647
0.0050994818
0.0050269965
0.0049547162
0.0048826496
0.0048108066
0.0047391984
0.0046678372
0.0045967363
0.0045259102
0.004455374
0.004385143
0.0043152341
0.0079993984
0.0079080951
0.0078182762
0.0077298278
0.0076426442
0.0075566277
0.0074716881
0.0073877418
0.0073047118
0.0072225265
0.0071411201
0.0070604314
0.006980404
0.0069009859
0.006822129
0.0067437891
0.0066659255
0.0065885007
0.0065114805
0.0064348335
0.0063585314
0.0062825482
0.0062068606
0.0061314478
0.0060562911
0.0059813742
0.0059066829
0.0058322049
0.00575793
0.0056838498
0.005609958
0.0055362497
0.0054627221
0.0053893737
0.0053162048
0.0052432174
0.0051704148
0.0050978016
0.0050253843
0.0049531702
0.0048811681
0.0048093882
0.0047378415
0.0046665403
0.0045954981
0.0045247293
0.0044542489
0.0043840726
0.0043142171
0.0079908559
0.0078999378
0.0078104804
0.0077223716
0.0076355077
0.0075497925
0.0074651372
0.0073814597
0.007298684
0.0072167397
0.0071355618
0.0070550903
0.0069752694
0.0068960479
0.0068173785
0.0067392176
0.0066615249
0.0065842636
0.0065074
0.0064309031
0.006354745
0.0062789002
0.0062033456
0.0061280609
0.0060530276
0.0059782297
0.0059036532
0.0058292861
0.0057551185
0.0056811422
0.0056073509
0.0055337401
0.005460307
0.0053870504
0.0053139708
0.0052410701
0.0051683518
0.0050958208
0.0050234834
0.0049513473
0.0048794213
0.0048077155
0.0047362412
0.0046650107
0.0045940375
0.0045233362
0.0044529216
0.0043828097
0.004313017
0.0079813006
0.0078908134
0.0078017603
0.0077140316
0.0076275255
0.0075421476
0.0074578107
0.0073744342
0.0072919434
0.0072102691
0.0071293474
0.0070491192
0.0069695299
0.006890529
0.0068120699
0.0067341096
0.0066566087
0.006579531
0.0065028431
0.0064265148
0.0063505185
0.006274829
0.0061994239
0.006124283
0.0060493883
0.0059747241
0.0059002767
0.0058260344
0.0057519873
0.0056781278
0.0056044496
0.0055309485
0.0054576218
0.0053844685
0.0053114892
0.005238686
0.0051660627
0.0050936241
0.0050213768
0.0049493284
0.0048774879
0.0048058656
0.0047344728
0.0046633219
0.0045924265
0.004521801
0.0044514606
0.004381421
0.0043116992
0.0079699857
0.0078800081
0.0077914335
0.0077041546
0.007618072
0.0075330934
0.0074491336
0.0073661136
0.0072839603
0.0072026059
0.0071219879
0.0070420483
0.0069627335
0.0068839941
0.0068057844
0.0067280622
0.0066507889
0.0065739289
0.0064974497
0.0064213214
0.006345517
0.0062700121
0.0061947845
0.0061198144
0.0060450844
0.005970579
0.0058962849
0.0058221908
0.0057482871
0.0056745663
0.0056010225
0.0055276517
0.0054544514
0.0053814209
0.0053085609
0.0052358738
0.0051633633
0.0050910346
0.0050188944
0.0049469503
0.0048752116
0.0048036886
0.0047323927
0.0046613365
0.0045905335
0.0045199983
0.0044497461
0.0043797927
0.0043101551
0.0079567893
0.0078674049
0.0077793873
0.0076926322
0.0076070429
0.0075225296
0.0074390091
0.0073564046
0.0072746447
0.0071936633
0.0071133993
0.0070337963
0.0069548017
0.0068763674
0.0067984486
0.0067210043
0.0066439966
0.0065673908
0.006491155
0.0064152603
0.0063396801
0.0062643906
0.0061893703
0.0061145998
0.0060400621
0.0059657423
0.0058916273
0.0058177063
0.0057439701
0.0056704114
0.0055970248
0.0055238063
0.0054507538
0.0053778668
0.0053051463
0.0052325948
0.0051602163
0.0050880161
0.005016001
0.004944179
0.0048725594
0.0048011525
0.0047299699
0.0046590244
0.0045883294
0.0045178998
0.0044477507
0.0043778981
0.004308359
0.0079415852
0.0078528823
0.0077655049
0.007679352
0.0075943299
0.0075103516
0.0074273366
0.00734521
0.0072639028
0.0071833507
0.0071034943
0.0070242786
0.0069456528
0.0068675698
0.0067899861
0.0067128619
0.0066361602
0.0065598473
0.0064838921
0.0064082665
0.0063329448
0.0062579037
0.0061831222
0.0061085818
0.0060342659
0.0059601601
0.0058862518
0.0058125305
0.0057389874
0.0056656158
0.0055924103
0.0055193675
0.0054464856
0.0053737642
0.0053012046
0.0052288097
0.0051565834
0.0050845315
0.0050126609
0.0049409797
0.0048694974
0.0047982245
0.0047271728
0.0046563549
0.0045857847
0.0045154769
0.0044454468
0.0043757106
0.0043062852
0.0079242426
0.0078363146
0.0077496652
0.0076641972
0.0075798204
0.007496451
0.0074140112
0.0073324288
0.007251637
0.0071715738
0.0070921816
0.0070134073
0.0069352015
0.0068575188
0.0067803172
0.0067035578
0.0066272049
0.0065512259
0.0064755908
0.0064002721
0.0063252451
0.0062504873
0.0061759784
0.0061017005
0.0060276377
0.005953776
0.0058801035
0.0058066101
0.0057332875
0.0056601294
0.0055871308
0.0055142886
0.0054416013
0.005369069
0.0052966932
0.0052244769
0.0051524246
0.005080542
0.0050088364
0.004937316
0.0048659905
0.0047948706
0.0047239682
0.0046532962
0.0045828685
0.0045126998
0.0044428056
0.0043732022
0.0043039066
0.0079046265
0.0078175716
0.0077317428
0.007647047
0.0075633979
0.0074807152
0.0073989243
0.0073179559
0.0072377459
0.0071582344
0.0070793663
0.0070010904
0.0069233591
0.0068461286
0.0067693585
0.0066930113
0.0066170527
0.0065414511
0.0064661776
0.006391206
0.0063165122
0.0062420747
0.0061678741
0.0060938931
0.0060201165
0.005946531
0.0058731253
0.0057998898
0.0057268167
0.0056539001
0.0055811356
0.0055085205
0.0054360536
0.0053637353
0.0052915674
0.0052195534
0.0051476979
0.0050760071
0.0050044881
0.0049331498
0.0048620018
0.0047910552
0.0047203219
0.004649815
0.0045795485
0.0045095373
0.004439797
0.004370344
0.0043011955
0.007882598
0.0077965194
0.0077116083
0.0076277763
0.0075449416
0.0074630276
0.0073819632
0.0073016825
0.007222124
0.0071432307
0.0070649499
0.0069872325
0.0069100331
0.0068333096
0.0067570234
0.0066811385
0.0066056221
0.0065304439
0.0064555763
0.006380994
0.0063066743
0.0062325964
0.0061587418
0.0060850942
0.006011639
0.0059383636
0.0058652575
0.0057923116
0.0057195188
0.0056468736
0.0055743721
0.005502012
0.0054297927
0.0053577148
0.0052857807
0.005213994
0.0051423597
0.0050708843
0.0049995752
0.0049284415
0.0048574931
0.0047867411
0.0047161979
0.0046458765
0.0045757913
0.0045059571
0.0044363898
0.0043671058
0.0042981225
0.0078580146
0.0077730202
0.0076891286
0.0076062567
0.0075243271
0.0074432678
0.0073630115
0.0072834956
0.0072046622
0.007126457
0.00704883
0.0069717345
0.0068951274
0.0068189687
0.0067432215
0.0066678518
0.0065928283
0.006518122
0.0064437069
0.0063695589
0.0062956562
0.0062219794
0.0061485109
0.0060752351
0.0060021385
0.0059292093
0.0058564376
0.005783815
0.005711335
0.0056389927
0.0055667848
0.0054947095
0.0054227666
0.0053509573
0.0052792842
0.0052077513
0.0051363642
0.0050651293
0.0049940547
0.0049231495
0.0048524239
0.0047818895
0.0047115585
0.0046414444
0.0045715616
0.0045019252
0.0044325511
0.0043634559
0.0042946572
0.0078307305
0.007746933
0.0076641671
0.0075823557
0.0075014264
0.0074213118
0.0073419489
0.007263279
0.0071852476
0.0071078038
0.0070309004
0.0069544935
0.0068785423
0.0068030091
0.0067278592
0.0066530603
0.0065785829
0.0065043999
0.0064304864
0.0063568198
0.0062833798
0.0062101478
0.0061371075
0.0060642444
0.0059915458
0.0059190007
0.0058466001
0.0057743363
0.0057022036
0.0056301977
0.0055583159
0.0054865569
0.005414921
0.0053434099
0.0052720267
0.0052007759
0.0051296631
0.0050586956
0.0049878814
0.0049172301
0.0048467522
0.0047764594
0.0047063643
0.0046364805
0.0045668226
0.0044974059
0.0044282465
0.0043593612
0.0042907676
0.0078005972
0.0077181136
0.0076365842
0.0075559379
0.007476108
0.007397032
0.0073186517
0.0072409126
0.0071637639
0.0070871583
0.0070110517
0.0069354031
0.0068601745
0.0067853307
0.006710839
0.0066366695
0.0065627944
0.0064891884
0.0064158283
0.006342693
0.0062697634
0.0061970225
0.0061244549
0.0060520474
0.0059797882
0.0059076674
0.0058356767
0.0057638094
0.0056920605
0.0056204263
0.0055489047
0.0054774953
0.0054061987
0.0053350173
0.0052639547
0.0051930156
0.0051222063
0.0050515343
0.0049810081
0.0049106376
0.0048404336
0.0047704079
0.0047005737
0.0046309446
0.0045615355
0.0044923618
0.0044234399
0.0043547866
0.0042864199
0.0077674642
0.0076864158
0.0076062376
0.0075268651
0.0074482376
0.0073702981
0.0072929933
0.0072162733
0.0071400914
0.0070644041
0.0069891708
0.0069143536
0.0068399174
0.0067658297
0.0066920604
0.0066185815
0.0065453676
0.0064723952
0.0063996428
0.006327091
0.0062547223
0.006182521
0.0061104731
0.0060385664
0.0059667904
0.0058951362
0.0058235963
0.0057521651
0.0056808383
0.0056096131
0.0055384881
0.0054674633
0.0053965403
0.0053257218
0.005255012
0.0051844161
0.005113941
0.0050435944
0.0049733854
0.004903324
0.0048334216
0.0047636903
0.0046941433
0.0046247948
0.0045556597
0.0044867537
0.0044180933
0.0043496956
0.0042815788
0.0077311795
0.0076516915
0.0075729832
0.007494997
0.0074176786
0.007340977
0.0072648441
0.0071892351
0.0071141075
0.007039422
0.0069651416
0.006891232
0.0068176611
0.0067443994
0.0066714192
0.0065986952
0.0065262041
0.0064539245
0.0063818368
0.0063099235
0.0062381686
0.0061665579
0.0060950788
0.0060237205
0.0059524737
0.0058813305
0.0058102846
0.0057393313
0.0056684671
0.0055976902
0.0055269998
0.0054563968
0.0053858834
0.0053154629
0.00524514
0.0051749207
0.0051048121
0.0050348225
0.0049649614
0.0048952393
0.0048256677
0.0047562594
0.0046870276
0.0046179869
0.0045491525
0.0044805403
0.0044121669
0.0043440498
0.0042762072
0.0076915908
0.007613792
0.0075366756
0.0074601916
0.0073842925
0.0073089335
0.0072340724
0.0071596694
0.0070856869
0.0070120898
0.0069388452
0.0068659225
0.0067932928
0.0067209297
0.0066488085
0.0065769064
0.0065052025
0.0064336776
0.0063623143
0.0062910969
0.0062200111
0.0061490445
0.0060781859
0.006007426
0.0059367566
0.0058661712
0.0057956646
0.005725233
0.0056548741
0.0055845867
0.0055143712
0.0054442291
0.0053741632
0.0053041776
0.0052342777
0.0051644699
0.005094762
0.0050251627
0.004955682
0.0048863308
0.0048171212
0.0047480659
0.004679179
0.004610475
0.0045419694
0.0044736785
0.0044056191
0.0043378088
0.0042702662
0.0077251467
0.0076485466
0.0075725686
0.0074971691
0.0074223061
0.0073479396
0.0072740312
0.0072005448
0.0071274459
0.0070547023
0.0069822834
0.0069101605
0.0068383067
0.0067666971
0.0066953082
0.0066241186
0.0065531081
0.0064822585
0.0064115529
0.0063409763
0.0062705147
0.006200156
0.0061298894
0.0060597054
0.0059895961
0.0059195547
0.0058495761
0.0057796563
0.0057097926
0.0056399837
0.0055702294
0.0055005309
0.0054308906
0.0053613122
0.0052918005
0.0052223614
0.0051530021
0.0050837308
0.005014557
0.004945491
0.0048765442
0.004807729
0.0047390588
0.0046705477
0.0046022109
0.0045340639
0.0044661234
0.0043984065
0.0043309309
0.0042637154
0.0076764228
0.0076018966
0.0075278733
0.0074543184
0.0073811981
0.00730848
0.0072361328
0.0071641267
0.0070924331
0.007021025
0.0069498767
0.0068789641
0.0068082643
0.0067377563
0.00666742
0.0065972372
0.0065271908
0.0064572652
0.0063874463
0.006317721
0.0062480779
0.0061785066
0.0061089984
0.0060395454
0.0059701413
0.005900781
0.0058314606
0.0057621773
0.0056929297
0.0056237176
0.005554542
0.0054854049
0.0054163096
0.0053472607
0.0052782637
0.0052093252
0.0051404532
0.0050716565
0.005002945
0.0049343297
0.0048658225
0.0047974362
0.0047291847
0.0046610823
0.0045931447
0.0045253877
0.0044578283
0.0043904838
0.0043233721
0.0042565124
0.0076238035
0.0075514937
0.0074795609
0.0074079799
0.007336726
0.0072657745
0.0071951015
0.0071246837
0.0070544989
0.0069845254
0.0069147428
0.0068451316
0.0067756735
0.0067063511
0.0066371484
0.0065680503
0.006499043
0.0064301138
0.0063612511
0.0062924446
0.0062236849
0.006154964
0.0060862749
0.0060176118
0.00594897
0.0058803459
0.0058117372
0.0057431425
0.0056745616
0.0056059955
0.0055374462
0.005468917
0.0054004119
0.0053319365
0.005263497
0.0051951011
0.0051267571
0.0050584747
0.0049902644
0.0049221378
0.0048541072
0.004786186
0.0047183883
0.0046507293
0.0045832246
0.0045158907
0.0044487447
0.0043818041
0.0043150873
0.0042486136
0.0075671455
0.007497195
0.0074274893
0.007358013
0.0072887505
0.0072196853
0.0071508013
0.007082082
0.0070135114
0.0069450739
0.0068767543
0.0068085381
0.0067404114
0.0066723613
0.0066043755
0.0065364424
0.0064685516
0.0064006935
0.0063328592
0.0062650411
0.0061972323
0.006129427
0.0060616203
0.0059938082
0.005925988
0.0058581578
0.0057903167
0.0057224648
0.0056546033
0.0055867345
0.0055188615
0.0054509886
0.0053831211
0.0053152653
0.0052474283
0.0051796187
0.0051118456
0.0050441192
0.0049764509
0.0049088527
0.0048413375
0.0047739194
0.0047066128
0.0046394334
0.0045723972
0.004505521
0.0044388224
0.0043723191
0.0043060297
0.0042399737
0.0075738709
0.0075063125
0.0074388637
0.0073715217
0.0073042812
0.0072371359
0.0071700779
0.0071030988
0.0070361894
0.0069693402
0.0069025417
0.0068357842
0.0067690585
0.0067023553
0.0066356661
0.0065689826
0.0065022971
0.0064356025
0.0063688924
0.0063021611
0.0062354034
0.0061686152
0.006101793
0.0060349341
0.0059680366
0.0059010996
0.0058341231
0.0057671077
0.0057000551
0.0056329681
0.00556585
0.0054987054
0.0054315396
0.005364359
0.0052971709
0.0052299836
0.0051628061
0.0050956486
0.005028522
0.0049614383
0.0048944102
0.0048274514
0.0047605761
0.0046937996
0.0046271379
0.0045606074
0.0044942255
0.00442801
0.0043619789
0.004296151
0.0042305463
0.0075059383
0.0074411769
0.0073763707
0.0073115279
0.0072466538
0.0071817514
0.0071168217
0.0070518641
0.0069868769
0.0069218573
0.0068568021
0.0067917073
0.006726569
0.006661383
0.0065961452
0.0065308514
0.0064654979
0.0064000812
0.0063345983
0.0062690464
0.0062034234
0.0061377277
0.0060719583
0.0060061148
0.0059401976
0.0058742077
0.0058081468
0.0057420175
0.005675823
0.0056095674
0.0055432557
0.0054768937
0.0054104879
0.0053440458
0.0052775758
0.0052110871
0.0051445897
0.0050780946
0.0050116135
0.0049451592
0.0048787449
0.004812385
0.0047460944
0.0046798889
0.0046137848
0.0045477992
0.0044819497
0.0044162546
0.0043507325
0.004285402
0.0042202843
0.0074334435
0.0073716218
0.0073095962
0.0072473862
0.0071850075
0.0071224728
0.0070597918
0.0069969721
0.0069340195
0.0068709382
0.0068077312
0.0067444007
0.0066809481
0.0066173742
0.0065536795
0.0064898644
0.0064259291
0.0063618738
0.0062976989
0.0062334049
0.0061689926
0.0061044633
0.0060398185
0.0059750603
0.0059101911
0.0058452142
0.0057801332
0.0057149523
0.0056496767
0.005584312
0.0055188645
0.0054533413
0.0053877505
0.0053221006
0.005256401
0.0051906621
0.0051248948
0.0050591109
0.0049933231
0.0049275448
0.00486179
0.0047960737
0.0047304115
0.0046648196
0.004599315
0.0045339151
0.0044686382
0.0044035028
0.0043385276
0.0042737324
0.0073562874
0.0072975431
0.007238432
0.007178985
0.0071192282
0.0070591838
0.0069988705
0.0069383041
0.006877498
0.0068164634
0.0067552098
0.0066937454
0.0066320772
0.0065702111
0.0065081526
0.0064459063
0.0063834766
0.0063208676
0.0062580831
0.0061951272
0.0061320035
0.0060687163
0.0060052697
0.0059416684
0.005877917
0.005814021
0.005749986
0.0056858182
0.0056215243
0.0055571117
0.0054925882
0.0054279625
0.0053632436
0.0052984416
0.0052335669
0.005168631
0.0051036458
0.0050386241
0.0049735793
0.0049085256
0.004843478
0.004778452
0.0047134637
0.0046485302
0.0045836687
0.0045188975
0.0044542349
0.0043897
0.004325312
0.0042610909
0.0072743871
0.0072188514
0.0071627834
0.007106225
0.0070492127
0.0069917782
0.0069339492
0.0068757496
0.0068172003
0.0067583198
0.0066991241
0.0066396274
0.0065798423
0.0065197802
0.0064594512
0.0063988646
0.006338029
0.0062769522
0.006215642
0.0061541055
0.0060923498
0.0060303819
0.0059682089
0.0059058378
0.0058432758
0.0057805304
0.0057176095
0.0056545211
0.0055912738
0.0055278767
0.0054643391
0.0054006712
0.0053368834
0.005272987
0.0052089938
0.0051449161
0.005080767
0.0050165603
0.0049523103
0.0048880321
0.0048237412
0.004759454
0.0046951873
0.0046309587
0.0045667861
0.0045026881
0.0044386837
0.0043747922
0.0043110335
0.0042474279
0.007187679
0.007135475
0.0070825715
0.0070290214
0.0069748711
0.0069201618
0.0068649299
0.0068092076
0.0067530233
0.0066964024
0.0066393677
0.0065819393
0.0065241357
0.0064659733
0.0064074672
0.0063486314
0.0062894787
0.0062300209
0.0061702694
0.0061102349
0.0060499277
0.0059893578
0.0059285349
0.0058674689
0.0058061694
0.0057446461
0.0056829091
0.0056209683
0.0055588344
0.0054965179
0.0054340299
0.0053713821
0.0053085865
0.0052456554
0.005182602
0.0051194399
0.005056183
0.0049928462
0.0049294448
0.0048659946
0.0048025121
0.0047390142
0.0046755187
0.0046120435
0.0045486073
0.0044852292
0.0044219286
0.0043587254
0.0042956398
0.004232693
0.0070961208
0.0070473616
0.0069977355
0.0069473057
0.0068961285
0.0068442542
0.0067917277
0.0067385891
0.0066848745
0.0066306161
0.0065758432
0.0065205821
0.0064648567
0.0064086888
0.0063520986
0.0062951045
0.0062377235
0.0061799716
0.0061218639
0.0060634145
0.0060046371
0.0059455446
0.0058861498
0.005826465
0.0057665024
0.0057062742
0.0056457923
0.005585069
0.0055241167
0.0054629477
0.005401575
0.0053400116
0.0052782709
0.0052163668
0.0051543136
0.0050921261
0.0050298194
0.0049674094
0.0049049122
0.0048423447
0.004779724
0.0047170681
0.0046543951
0.0045917239
0.0045290736
0.0044664638
0.0044039146
0.0043414463
0.0042790797
0.0042168364
0.0069996939
0.0069544811
0.0069082349
0.0068610286
0.0068129277
0.0067639911
0.0067142722
0.0066638189
0.0066126742
0.0065608775
0.0065084641
0.0064554665
0.0064019141
0.0063478341
0.0062932512
0.0062381887
0.0061826677
0.0061267084
0.0060703295
0.0060135487
0.0059563828
0.005898848
0.0058409598
0.0057827333
0.0057241832
0.005665324
0.00560617
0.0055467354
0.0054870345
0.0054270816
0.0053668912
0.005306478
0.0052458569
0.0051850431
0.0051240523
0.0050629004
0.0050016038
0.0049401792
0.0048786439
0.0048170155
0.0047553123
0.0046935526
0.0046317556
0.0045699406
0.0045081275
0.0044463366
0.0043845882
0.0043229033
0.0042613032
0.00419981
0.0068984061
0.0068568279
0.0068140522
0.0067701619
0.0067252309
0.0066793268
0.0066325105
0.0065848374
0.0065363575
0.0064871167
0.0064371566
0.0063865153
0.0063352279
0.0062833264
0.0062308406
0.006177798
0.0061242243
0.0060701434
0.0060155777
0.0059605485
0.005905076
0.0058491792
0.0057928767
0.0057361862
0.0056791249
0.0056217098
0.0055639573
0.0055058837
0.0054475054
0.0053888384
0.005329899
0.0052707034
0.005211268
0.0051516097
0.0050917451
0.0050316916
0.0049714666
0.0049110879
0.0048505739
0.0047899431
0.0047292144
0.0046684073
0.0046075415
0.004546637
0.0044857144
0.0044247944
0.0043638982
0.004303047
0.0042422628
0.004181568
0.0067922943
0.0067544233
0.0067151952
0.0066747011
0.0066330231
0.0065902362
0.006546409
0.0065016035
0.0064558766
0.0064092802
0.0063618619
0.0063136654
0.0062647309
0.0062150956
0.0061647938
0.0061138574
0.0060623162
0.006010198
0.005957529
0.0059043339
0.0058506359
0.0057964574
0.0057418196
0.005686743
0.0056312473
0.0055753519
0.0055190753
0.0054624362
0.0054054525
0.0053481424
0.0052905238
0.0052326146
0.0051744327
0.0051159961
0.0050573232
0.0049984324
0.0049393422
0.0048800718
0.0048206401
0.0047610669
0.0047013719
0.0046415754
0.0045816977
0.0045217598
0.0044617827
0.0044017877
0.0043417966
0.0042818312
0.004221914
0.0041620677
0.0066814262
0.0066473184
0.0066116994
0.0065746679
0.0065363133
0.0064967176
0.0064559558
0.0064140966
0.0063712029
0.0063273325
0.0062825385
0.0062368698
0.0061903716
0.0061430859
0.0060950515
0.0060463044
0.0059968786
0.0059468055
0.005896115
0.0058448349
0.0057929919
0.0057406111
0.0056877166
0.0056343317
0.0055804784
0.0055261785
0.0054714528
0.0054163219
0.0053608059
0.0053049246
0.0052486976
0.0051921446
0.0051352849
0.0050781381
0.0050207236
0.0049630612
0.0049051707
0.0048470721
0.0047887856
0.0047303317
0.0046717311
0.0046130048
0.0045541741
0.0044952604
0.0044362855
0.0043772714
0.0043182402
0.0042592144
0.0042002169
0.0041412709
0.0065659033
0.0065355958
0.0065036305
0.0064701129
0.0064351382
0.0063987948
0.0063611637
0.0063223192
0.0062823299
0.0062412589
0.0061991643
0.0061561
0.0061121159
0.0060672584
0.0060215704
0.0059750922
0.0059278612
0.0058799128
0.0058312801
0.0057819942
0.0057320849
0.0056815801
0.0056305068
0.0055788906
0.0055267562
0.0054741275
0.0054210277
0.0053674792
0.0053135041
0.0052591241
0.0052043605
0.0051492344
0.0050937667
0.0050379784
0.0049818904
0.0049255235
0.0048688987
0.0048120371
0.0047549599
0.0046976886
0.0046402446
0.0045826499
0.0045249264
0.0044670963
0.004409182
0.004351206
0.0042931912
0.0042351604
0.004177137
0.0041191448
0.0064458627
0.0064193725
0.0063910869
0.0063611172
0.0063295637
0.00629652
0.0062620721
0.0062262995
0.0061892755
0.0061510679
0.0061117397
0.006071349
0.0060299501
0.0059875933
0.0059443257
0.0059001911
0.0058552306
0.0058094829
0.0057629844
0.0057157694
0.0056678703
0.0056193181
0.0055701422
0.0055203708
0.0054700309
0.0054191487
0.0053677493
0.0053158573
0.0052634967
0.0052106907
0.0051574625
0.0051038346
0.0050498295
0.0049954696
0.0049407769
0.0048857736
0.0048304817
0.0047749234
0.004719121
0.0046630968
0.0046068732
0.0045504727
0.0044939182
0.0044372325
0.0043804386
0.0043235598
0.0042666193
0.0042096404
0.0041526472
0.0040956637
0.006321479
0.0062988016
0.0062742015
0.0062477961
0.0062196881
0.0061899763
0.0061587502
0.0061260939
0.0060920845
0.0060567943
0.0060202898
0.0059826335
0.0059438832
0.005904093
0.0058633135
0.0058215919
0.0057789727
0.0057354977
0.0056912061
0.0056461352
0.0056003203
0.0055537948
0.0055065907
0.0054587385
0.0054102675
0.0053612058
0.0053115809
0.005261419
0.0052107459
0.0051595867
0.005107966
0.005055908
0.0050034365
0.0049505752
0.0048973475
0.0048437766
0.0047898858
0.0047356983
0.0046812372
0.0046265258
0.0045715873
0.0045164451
0.0044611226
0.0044056435
0.0043500314
0.0042943099
0.004238503
0.0041826345
0.0041267288
0.0040708105
0.0061929648
0.0061740752
0.0061531445
0.0061303002
0.006105644
0.0060792799
0.0060512992
0.0060217898
0.005990832
0.0059585013
0.0059248677
0.005889997
0.0058539502
0.0058167847
0.0057785541
0.0057393087
0.0056990959
0.0056579604
0.0056159441
0.0055730869
0.0055294266
0.005484999
0.0054398385
0.0053939777
0.005347448
0.0053002797
0.0052525019
0.0052041427
0.0051552297
0.0051057895
0.0050558483
0.0050054317
0.0049545649
0.0049032729
0.0048515802
0.0047995112
0.0047470903
0.0046943416
0.0046412891
0.0045879571
0.0045343696
0.0044805507
0.0044265245
0.0043723153
0.0043179473
0.0042634448
0.004208832
0.0041541335
0.004099374
0.0040445785
0.0060605954
0.0060454283
0.0060281229
0.0060088187
0.005987601
0.0059645832
0.0059398549
0.0059135086
0.0058856254
0.0058562841
0.0058255571
0.0057935128
0.0057602149
0.0057257235
0.0056900947
0.0056533816
0.0056156341
0.0055768991
0.0055372213
0.0054966427
0.0054552034
0.0054129414
0.0053698931
0.0053260932
0.0052815751
0.0052363707
0.005190511
0.0051440259
0.0050969443
0.0050492945
0.0050011041
0.0049524
0.0049032088
0.0048535566
0.004803469
0.0047529716
0.0047020897
0.0046508484
0.0045992726
0.0045473874
0.0044952174
0.0044427876
0.0043901228
0.0043372477
0.0042841872
0.0042309661
0.0041776092
0.0041241413
0.0040705877
0.0040169738
0.0059246375
0.0059131384
0.0058994074
0.0058835851
0.0058657659
0.0058460774
0.0058245909
0.0058014083
0.0057766079
0.0057502726
0.0057224753
0.005693287
0.005662773
0.0056309956
0.005598013
0.0055638804
0.0055286497
0.00549237
0.0054550879
0.0054168476
0.0053776909
0.0053376579
0.0052967868
0.0052551141
0.0052126747
0.0051695024
0.0051256297
0.0050810879
0.0050359076
0.0049901183
0.0049437489
0.0048968276
0.0048493822
0.0048014398
0.0047530273
0.0047041711
0.0046548974
0.0046052322
0.0045552013
0.0045048305
0.0044541452
0.0044031709
0.004351933
0.004300457
0.0042487682
0.0041968918
0.0041448532
0.0040926774
0.0040403904
0.0039880175
0.0057854412
0.0057774954
0.0057672603
0.0057548707
0.00574041
0.0057239987
0.005705719
0.0056856864
0.0056639612
0.0056406347
0.0056157769
0.005589462
0.0055617558
0.0055327221
0.0055024206
0.005470908
0.0054382378
0.0054044608
0.0053696252
0.0053337767
0.005296959
0.0052592136
0.0052205802
0.0051810968
0.0051408
0.0050997248
0.0050579051
0.0050153738
0.0049721624
0.0049283018
0.0048838222
0.0048387528
0.0047931223
0.0047469591
0.0047002908
0.0046531448
0.0046055482
0.0045575277
0.0045091099
0.0044603212
0.0044111877
0.0043617356
0.0043119908
0.0042619791
0.0042117265
0.0041612587
0.0041106012
0.0040597797
0.0040088203
0.0039577489
0.0056433884
0.0056388716
0.0056320259
0.0056229709
0.0056117974
0.0055986204
0.0055835157
0.0055665869
0.0055479075
0.0055275793
0.0055056567
0.0054822203
0.0054573334
0.0054310622
0.0054034664
0.005374604
0.0053445295
0.0053132948
0.0052809492
0.0052475397
0.0052131111
0.0051777063
0.0051413662
0.0051041299
0.0050660353
0.0050271186
0.0049874149
0.004946958
0.0049057807
0.0048639149
0.0048213917
0.0047782414
0.0047344936
0.0046901775
0.0046453215
0.0045999539
0.0045541025
0.0045077947
0.0044610578
0.0044139186
0.0043664039
0.0043185405
0.0042703546
0.0042218727
0.004173121
0.0041241256
0.0040749124
0.0040255074
0.0039759371
0.0039262276
0.0054989084
0.005497674
0.0054940867
0.0054882549
0.0054802741
0.0054702473
0.0054582539
0.0054443934
0.0054287332
0.0054113631
0.0053923525
0.0053717875
0.005349719
0.0053262176
0.0053013414
0.0052751494
0.0052476965
0.005219035
0.0051892151
0.0051582844
0.0051262886
0.0050932713
0.0050592744
0.0050243379
0.0049885006
0.0049517995
0.0049142707
0.0048759488
0.0048368676
0.0047970598
0.0047565573
0.0047153911
0.0046735917
0.0046311888
0.0045882118
0.0045446895
0.0045006502
0.0044561221
0.0044111327
0.0043657097
0.0043198803
0.0042736715
0.0042271101
0.0041802229
0.0041330364
0.0040855771
0.0040378712
0.0039899449
0.003941825
0.0038935377
0.005352473
0.0053543506
0.0053538706
0.005351133
0.0053462299
0.0053392539
0.005330289
0.0053194239
0.005306728
0.0052922879
0.0052761662
0.0052584384
0.0052391717
0.0052184362
0.005196282
0.0051727702
0.005147955
0.0051218887
0.0050946217
0.0050662018
0.0050366751
0.0050060857
0.0049744758
0.0049418861
0.0049083558
0.0048739228
0.0048386234
0.0048024932
0.0047655664
0.0047278764
0.0046894557
0.0046503359
0.004610548
0.0045701224
0.0045290889
0.0044874767
0.0044453149
0.0044026318
0.0043594556
0.0043158142
0.0042717352
0.004227246
0.0041823737
0.0041371454
0.0040915878
0.0040457276
0.0039995913
0.0039532053
0.0039065965
0.0038597913
0.0052045972
0.0052093956
0.0052118523
0.0052120588
0.0052101003
0.0052060618
0.0052000246
0.0051920649
0.0051822654
0.0051706909
0.005157412
0.0051425014
0.0051260151
0.005108017
0.0050885749
0.0050677423
0.0050455708
0.005022112
0.0049974164
0.004971531
0.004944502
0.0049163736
0.0048871879
0.0048569857
0.0048258065
0.0047936884
0.0047606682
0.0047267816
0.0046920634
0.0046565471
0.0046202657
0.0045832512
0.004545535
0.0045071477
0.0044681196
0.0044284802
0.0043882588
0.0043474842
0.0043061847
0.0042643886
0.0042221237
0.0041794175
0.0041362975
0.0040927908
0.0040489244
0.0040047252
0.0039602196
0.0039154342
0.0038703963
0.003825132
0.0050558395
0.0050633489
0.0050685541
0.0050715362
0.0050723724
0.0050711396
0.0050679128
0.0050627635
0.0050557644
0.0050469815
0.0050364874
0.0050243378
0.0050105973
0.00499532
0.0049785716
0.004960396
0.0049408644
0.0049200152
0.0048979004
0.0048745642
0.0048500535
0.0048244115
0.0047976798
0.0047698992
0.0047411089
0.0047113468