/*--------------------------------*- C++ -*----------------------------------*\
| =========                 |                                                 |
| \\      /  F ield         | OpenFOAM: The Open Source CFD Toolbox           |
|  \\    /   O peration     | Version:  2312                                  |
|   \\  /    A nd           | Website:  www.openfoam.com                      |
|    \\/     M anipulation  |                                                 |
\*---------------------------------------------------------------------------*/
FoamFile
{
    version     2.0;
    format      ascii;
    arch        "LSB;label=32;scalar=64";
    class       volScalarField;
    location    "0.1";
    object      nut;
}
// * * * * * * * * * * * * * * * * * * * * * * * * * * * * * * * * * * * * * //

dimensions      [0 2 -1 0 0 0 0];

internalField   nonuniform List<scalar> 
3250
(
0.034305374
0.034149856
0.033999565
0.033854469
0.033714535
0.033579735
0.033450043
0.033325437
0.033205897
0.033091408
0.03298196
0.032877545
0.032778162
0.032683811
0.0325945
0.032510238
0.032431041
0.032356927
0.03228792
0.032224048
0.03216534
0.032111833
0.032063564
0.032020575
0.031982911
0.031950621
0.031923755
0.031902366
0.03188651
0.031876244
0.031871627
0.031872721
0.031879588
0.031892291
0.031910895
0.031935465
0.031966066
0.032002764
0.032045626
0.032094717
0.032150103
0.03221185
0.032280022
0.032354681
0.032435853
0.032523588
0.03261799
0.032719124
0.032827063
0.03430176
0.034146409
0.033996278
0.033851333
0.033711545
0.033576884
0.033447325
0.033322845
0.033203427
0.033089055
0.032979718
0.032875411
0.03277613
0.032681878
0.032592662
0.032508491
0.032429381
0.032355352
0.032286425
0.03222263
0.032163997
0.032110561
0.032062361
0.032019438
0.031981839
0.03194961
0.031922802
0.03190147
0.031885668
0.031875454
0.031870888
0.031872031
0.031878945
0.031891693
0.03191034
0.031934951
0.031965592
0.032002328
0.032045226
0.032094352
0.032149771
0.032211548
0.032279747
0.032354428
0.032435629
0.032523406
0.032617845
0.032719016
0.032826989
0.034294505
0.034139487
0.033989674
0.033845033
0.033705535
0.033571152
0.033441859
0.033317635
0.033198462
0.033084325
0.032975214
0.032871124
0.032772052
0.032678
0.032588976
0.032504991
0.03242606
0.032352202
0.032283442
0.032219806
0.032161327
0.032108039
0.032059982
0.032017197
0.03197973
0.031947629
0.031920946
0.031899733
0.031884046
0.031873944
0.031869485
0.031870731
0.031877745
0.03189059
0.03190933
0.031934031
0.031964758
0.032001578
0.032044557
0.032093759
0.032149252
0.0322111
0.032279366
0.032354108
0.032435375
0.032523225
0.032617734
0.032718971
0.032827008
0.034283619
0.034129098
0.03397976
0.033835574
0.033696511
0.033562546
0.033433653
0.033309812
0.033191007
0.033077224
0.032968453
0.032864688
0.03276593
0.032672181
0.032583448
0.032499742
0.032421081
0.032347483
0.032278973
0.032215578
0.032157332
0.032104269
0.032056428
0.032013853
0.031976588
0.031944682
0.031918187
0.031897156
0.031881645
0.031871713
0.031867418
0.031868823
0.03187599
0.031888983
0.031907866
0.031932705
0.031963566
0.032000515
0.032043617
0.03209294
0.032148548
0.032210506
0.032278877
0.03235372
0.032435089
0.032523044
0.032617656
0.03271899
0.032827119
0.034269113
0.034115254
0.033966549
0.033822969
0.033684486
0.033551075
0.033422715
0.033299386
0.033181071
0.033067759
0.032959441
0.032856112
0.032757773
0.032664427
0.032576082
0.03249275
0.032414449
0.032341198
0.032273023
0.032209952
0.032152017
0.032099255
0.032051705
0.03200941
0.031972416
0.031940772
0.03191453
0.031893743
0.031878469
0.031868764
0.031864691
0.031866309
0.031873682
0.031886874
0.03190595
0.031930976
0.031962017
0.031999139
0.03204241
0.032091894
0.032147658
0.032209766
0.032278282
0.032353265
0.032434772
0.032522865
0.03261761
0.032719074
0.032827326
0.034252043
0.034098961
0.033951001
0.033808132
0.033670331
0.033537575
0.033409841
0.033287113
0.033169376
0.033056619
0.032948834
0.032846018
0.032748172
0.032655301
0.032567414
0.032484523
0.032406646
0.032333805
0.032266025
0.032203335
0.032145768
0.032093361
0.032046154
0.03200419
0.031967516
0.031936182
0.031910239
0.031889741
0.031874746
0.031865312
0.031861499
0.03186337
0.031870988
0.031884416
0.031903721
0.031928967
0.031960222
0.031997551
0.03204102
0.032090697
0.032146647
0.032208934
0.032277622
0.032352773
0.032434444
0.032522697
0.032617599
0.032719214
0.032827611
0.034232941
0.034080729
0.033933601
0.033791529
0.033654491
0.033522466
0.033395434
0.033273379
0.033156288
0.033044152
0.032936964
0.032834722
0.032737429
0.032645089
0.032557714
0.032475317
0.032397916
0.032325534
0.032258197
0.032195934
0.032138779
0.03208677
0.032039948
0.031998356
0.031962041
0.031931053
0.031905446
0.031885272
0.031870591
0.03186146
0.031857941
0.031860096
0.031867988
0.031881682
0.031901243
0.031926737
0.031958232
0.031995793
0.032039487
0.03208938
0.032145539
0.032208028
0.032276911
0.03235225
0.032434105
0.032522539
0.032617616
0.0327194
0.032827959
0.034210322
0.03405914
0.033912996
0.033771867
0.033635733
0.033504573
0.033378372
0.033257114
0.033140788
0.033029387
0.032922906
0.032821345
0.032724706
0.032632997
0.032546229
0.032464417
0.03238758
0.032315742
0.032248929
0.032187172
0.032130507
0.03207897
0.032032604
0.031991452
0.031955564
0.031924988
0.031899778
0.03187999
0.031865681
0.03185691
0.031853739
0.031856231
0.031864449
0.031878458
0.031898324
0.031924114
0.031955894
0.031993731
0.032037691
0.032087842
0.03214425
0.03220698
0.032276095
0.032351659
0.032433733
0.03252238
0.032617664
0.032719647
0.032828399
0.034183944
0.034033962
0.033888966
0.033748937
0.033613855
0.033483705
0.033358471
0.033238143
0.03312271
0.033012167
0.032906511
0.032805743
0.032709867
0.032618893
0.032532834
0.032451704
0.032375526
0.032304322
0.032238122
0.032176957
0.032120863
0.032069878
0.032024044
0.031983407
0.031948016
0.031917921
0.031893177
0.031873839
0.031859964
0.031851615
0.031848851
0.031851737
0.031860336
0.031874714
0.031894937
0.031921071
0.031953185
0.031991344
0.032035617
0.03208607
0.032142769
0.032205781
0.032275169
0.032350996
0.032433326
0.032522222
0.032617747
0.032719963
0.03282894
0.034153555
0.034004955
0.033861281
0.033722517
0.033588648
0.033459661
0.033335543
0.033216285
0.03310188
0.032992326
0.03288762
0.032787766
0.032692771
0.032602644
0.032517401
0.032437059
0.032361639
0.032291168
0.032225674
0.032165191
0.032109755
0.032059406
0.032014187
0.031974144
0.031939327
0.031909788
0.03188558
0.031866761
0.031853389
0.031845525
0.031843231
0.031846572
0.031855611
0.031870415
0.03189105
0.031917583
0.031950082
0.031988615
0.032033248
0.03208405
0.032141086
0.032204424
0.032274127
0.032350259
0.032432885
0.032522068
0.03261787
0.032720355
0.032829591
0.034118896
0.033971871
0.033829704
0.033692383
0.033559897
0.033432235
0.033309389
0.033191352
0.03307812
0.032969692
0.032866071
0.03276726
0.032673269
0.032584109
0.032499798
0.032420354
0.032345801
0.032276165
0.032211478
0.032151773
0.032097089
0.032047466
0.032002949
0.031963585
0.031929423
0.031900518
0.031876923
0.031858697
0.031845899
0.031838591
0.031836834
0.031840695
0.031850237
0.031865527
0.031886633
0.031913622
0.031946563
0.031985522
0.032030568
0.032081768
0.03213919
0.032202901
0.032272964
0.032349446
0.03243241
0.03252192
0.03261804
0.032720831
0.032830363
0.034079698
0.033934453
0.03379399
0.0336583
0.033527376
0.033401213
0.033279805
0.033163148
0.033051243
0.032944091
0.032841695
0.032744064
0.032651209
0.032563144
0.032479887
0.032401459
0.032327886
0.032259197
0.032195422
0.032136599
0.032082766
0.032033966
0.031990243
0.031951647
0.031918229
0.031890041
0.031867141
0.031849587
0.031837439
0.03183076
0.031829612
0.031834061
0.031844174
0.031860016
0.031881656
0.031909162
0.031942602
0.031982044
0.032027558
0.032079211
0.032137071
0.032201204
0.032271678
0.032348556
0.032431903
0.032521784
0.032618263
0.032721401
0.032831267
0.034035684
0.033892436
0.033753884
0.033620025
0.033490856
0.033366375
0.033246581
0.033131475
0.033021059
0.032915338
0.032814319
0.032718014
0.032626435
0.032539599
0.032457526
0.032380241
0.032307769
0.032240143
0.032177394
0.032119562
0.032066686
0.03201881
0.031975981
0.031938248
0.031905665
0.031878285
0.031856166
0.031839368
0.031827951
0.031821979
0.031821517
0.031826629
0.031837382
0.031853845
0.031876086
0.031904173
0.031938176
0.031978163
0.032024204
0.032076366
0.032134718
0.032199328
0.032270262
0.032347586
0.032431365
0.032521664
0.032618546
0.032722074
0.032832317
0.033986572
0.033845551
0.03370913
0.033577312
0.033450099
0.033327495
0.033209502
0.033096125
0.032987371
0.032883248
0.032783766
0.03268894
0.032598785
0.032513321
0.032432571
0.032356561
0.032285319
0.032218879
0.032157277
0.032100551
0.032048744
0.0320019
0.03196007
0.031923302
0.031891652
0.031865175
0.031843929
0.031827975
0.031817376
0.031812195
0.031812498
0.031818351
0.031829822
0.031846979
0.031869892
0.031898629
0.031933261
0.031973857
0.032020487
0.032073219
0.032132123
0.032197266
0.032268716
0.032346539
0.0324308
0.032521566
0.032618899
0.032722863
0.032833527
0.033932074
0.033793521
0.033659464
0.033529909
0.033404866
0.033284342
0.033168347
0.033056889
0.032949979
0.032847628
0.032749852
0.032656668
0.032568094
0.032484154
0.032404872
0.032330278
0.032260403
0.032195281
0.032134951
0.032079454
0.032028835
0.031983139
0.031942417
0.031906722
0.031876109
0.031850635
0.031830359
0.031815345
0.031805654
0.031801353
0.031802506
0.031809183
0.031821452
0.031839381
0.031863041
0.031892501
0.031927833
0.031969107
0.032016392
0.032069758
0.032129275
0.032195012
0.032267036
0.032345414
0.032430212
0.032521497
0.032619332
0.03272378
0.032834912
0.033871896
0.033736067
0.033604616
0.033477558
0.03335491
0.033236683
0.033122893
0.033013553
0.032908679
0.032808286
0.032712394
0.032621023
0.032534195
0.032451938
0.032374279
0.032301249
0.032232884
0.032169219
0.032110296
0.032056158
0.032006851
0.031962424
0.031922928
0.031888419
0.031858953
0.031834588
0.031815386
0.03180141
0.031792725
0.031789396
0.031791492
0.03179908
0.031812231
0.031831015
0.031855501
0.031885762
0.031921869
0.031963892
0.032011903
0.032065971
0.032126168
0.032192561
0.032265221
0.032344213
0.032429606
0.032521466
0.032619856
0.03272484
0.032836489
0.033805745
0.033672906
0.033544317
0.033420003
0.033299984
0.033184281
0.033072914
0.032965901
0.032863264
0.032765024
0.032671203
0.032581826
0.032496919
0.032416513
0.032340638
0.03226933
0.032202625
0.032140564
0.032083189
0.032030546
0.031982684
0.031939653
0.031901508
0.031868304
0.031840101
0.031816958
0.031798938
0.031786106
0.031778527
0.03177627
0.031779403
0.031787996
0.031802119
0.031821844
0.031847242
0.031878385
0.031915346
0.031958195
0.032007006
0.032061848
0.032122793
0.032189911
0.032263271
0.032342941
0.032428989
0.032521482
0.032620484
0.032726059
0.032838277
0.033733325
0.033603756
0.033478297
0.033356981
0.033239839
0.033126897
0.033018182
0.032913717
0.032813529
0.032717645
0.032626091
0.032538898
0.032456095
0.032377716
0.032303796
0.032234374
0.032169489
0.032109185
0.032053507
0.032002503
0.031956225
0.031914725
0.03187806
0.031846288
0.031819469
0.031797666
0.031780943
0.031769366
0.031763002
0.03176192
0.031766192
0.031775886
0.031791077
0.031811834
0.031838232
0.031870344
0.031908242
0.031951998
0.032001687
0.032057378
0.032119146
0.032187058
0.032261187
0.032341601
0.032428369
0.032521557
0.032621231
0.032727454
0.032840297
0.033654346
0.033528336
0.033406285
0.033288237
0.03317423
0.033064297
0.032958471
0.032856783
0.032759266
0.032665951
0.032576871
0.03249206
0.032411552
0.032335386
0.0322636
0.032196236
0.032133338
0.032074952
0.032021127
0.031971913
0.031927365
0.031887538
0.03185249
0.031822282
0.031796976
0.031776637
0.031761331
0.031751125
0.031746088
0.031746292
0.031751808
0.031762707
0.031779064
0.031800951
0.031828443
0.031861613
0.031900536
0.031945285
0.031995933
0.032052555
0.032115221
0.032184004
0.032258974
0.032340202
0.032427756
0.032521704
0.032622113
0.032729045
0.032842573
0.033694424
0.033568524
0.03344637
0.033328018
0.033213516
0.033102911
0.032996245
0.032893557
0.032794887
0.032700272
0.032609749
0.032523357
0.032441135
0.032363123
0.032289363
0.032219897
0.032154773
0.032094036
0.032037737
0.031985928
0.031938662
0.031895997
0.03185799
0.031824703
0.031796198
0.03177254
0.031753795
0.031740032
0.031731319
0.031727729
0.031729333
0.031736204
0.031748417
0.031766044
0.031789163
0.031817846
0.03185217
0.03189221
0.031938041
0.031989736
0.03204737
0.032111017
0.032180748
0.032256636
0.032338751
0.032427163
0.03252194
0.03262315
0.032730856
0.032845129
0.033597128
0.033475576
0.033357591
0.033243236
0.033132569
0.033025645
0.032922513
0.032823223
0.032727818
0.032636345
0.032548846
0.032465366
0.03238595
0.032310642
0.032239489
0.032172539
0.032109842
0.032051449
0.031997413
0.031947791
0.031902638
0.031862016
0.031825984
0.031794607
0.031767951
0.031746081
0.031729067
0.031716978
0.031709888
0.031707868
0.031710992
0.031719336
0.031732974
0.031751982
0.031776438
0.031806416
0.031841994
0.031883248
0.031930253
0.031983086
0.032041821
0.032106533
0.032177295
0.03225418
0.032337259
0.032426603
0.032522282
0.032624363
0.03273291
0.032847993
0.033492097
0.033375233
0.03326174
0.033151692
0.033045158
0.032942202
0.032842883
0.032747256
0.032655376
0.032567293
0.032483059
0.032402723
0.032326336
0.032253949
0.032185613
0.032121381
0.032061308
0.032005448
0.031953859
0.031906601
0.031863734
0.03182532
0.031791425
0.031762115
0.031737458
0.031717523
0.031702382
0.031692107
0.031686772
0.031686452
0.031691223
0.03170116
0.031716342
0.031736846
0.031762749
0.03179413
0.031831066
0.031873635
0.031921913
0.031975979
0.032035907
0.032101773
0.032173651
0.032251616
0.03233574
0.032426094
0.03252275
0.032625775
0.032735234
0.032851197
0.033379078
0.033267246
0.033158575
0.033053152
0.032951059
0.032852367
0.032757145
0.032665459
0.032577368
0.032492933
0.032412211
0.03233526
0.032262135
0.032192892
0.032127591
0.032066287
0.03200904
0.03195591
0.031906958
0.031862249
0.031821845
0.031785814
0.031754224
0.031727143
0.031704643
0.031686796
0.031673676
0.031665358
0.031661917
0.031663432
0.031669979
0.031681638
0.031698487
0.031720606
0.031748073
0.031780968
0.031819371
0.03186336
0.031913014
0.031968411
0.032029628
0.032096741
0.032169826
0.032248958
0.032334211
0.032425657
0.032523368
0.032627413
0.03273786
0.032854776
0.033367127
0.033257839
0.033151386
0.033047874
0.032947402
0.032850063
0.032755938
0.032665107
0.032577643
0.032493616
0.032413093
0.03233614
0.032262819
0.032193195
0.032127329
0.032065285
0.032007126
0.031952916
0.031902719
0.031856602
0.031814632
0.031776877
0.031743408
0.031714296
0.031689612
0.031669433
0.031653832
0.031642887
0.031636674
0.031635274
0.031638763
0.031647224
0.031660736
0.03167938
0.031703237
0.031732388
0.031766915
0.031806898
0.031852417
0.031903553
0.031960384
0.03202299
0.032091446
0.032165832
0.032246222
0.03233269
0.032425312
0.03252416
0.032629306
0.032740819
0.032858769
0.033231483
0.033128171
0.033027451
0.03292944
0.03283425
0.032741984
0.032652736
0.032566595
0.032483643
0.032403959
0.032327619
0.032254695
0.03218526
0.032119382
0.03205713
0.031998574
0.031943783
0.031892826
0.031845772
0.031802692
0.031763658
0.031728743
0.03169802
0.031671565
0.031649454
0.031631764
0.031618573
0.031609962
0.031606009
0.031606797
0.031612407
0.031622922
0.031638424
0.031658995
0.03168472
0.03171568
0.03175196
0.03179364
0.031840804
0.031893531
0.031951904
0.032016001
0.032085903
0.032161685
0.032243426
0.032331202
0.032425088
0.032525158
0.032631486
0.032744147
0.032863225
0.033086865
0.032989901
0.032895271
0.032803107
0.032713533
0.032626665
0.032542607
0.032461458
0.032383312
0.032308256
0.032236374
0.032167748
0.032102456
0.032040575
0.031982181
0.031927349
0.031876154
0.031828671
0.031784974
0.03174514
0.031709245
0.031677366
0.03164958
0.031625967
0.031606607
0.031591581
0.031580969
0.031574855
0.031573321
0.031576453
0.031584333
0.031597047
0.03161468
0.031637316
0.031665041
0.03169794
0.031736097
0.031779596
0.031828521
0.031882956
0.03194298
0.032008677
0.032080126
0.032157407
0.032240597
0.032329774
0.032425014
0.032526392
0.032633986
0.032747878
0.032933148
0.0328429
0.032754717
0.032668746
0.032585124
0.032503978
0.032425425
0.032349576
0.032276532
0.032206392
0.032139248
0.03207519
0.032014305
0.031956676
0.031902387
0.031851519
0.031804154
0.031760371
0.031720251
0.031683876
0.031651326
0.031622683
0.031598029
0.031577448
0.031561023
0.031548838
0.031540978
0.03153753
0.031538579
0.031544213
0.031554517
0.03156958
0.031589489
0.031614331
0.031644194
0.031679164
0.031719327
0.031764771
0.031815579
0.031871838
0.031933629
0.032001036
0.03207414
0.032153022
0.032237761
0.032328436
0.032425123
0.0325279
0.032636843
0.032752031
0.032770259
0.032687089
0.032605707
0.032526272
0.032448935
0.032373837
0.032301105
0.032230862
0.032163219
0.032098284
0.03203616
0.031976943
0.03192073
0.031867611
0.031817677
0.031771016
0.031727716
0.031687863
0.031651544
0.031618844
0.03158985
0.031564648
0.031543325
0.031525968
0.031512665
0.031503504
0.031498574
0.031497963
0.031501762
0.03151006
0.031522947
0.031540512
0.031562846
0.031590039
0.031622179
0.031659357
0.03170166
0.031749176
0.031801993
0.031860196
0.031923871
0.031993102
0.032067971
0.032148561
0.032234953
0.032327225
0.032425457
0.032529724
0.032640103
0.032756674
0.032598187
0.032522449
0.032448212
0.032375651
0.03230493
0.0322362
0.032169603
0.032105269
0.032043324
0.031983884
0.031927059
0.031872958
0.031821683
0.031773333
0.031728006
0.031685798
0.031646801
0.03161111
0.031578816
0.03155001
0.031524785
0.031503231
0.03148544
0.031471503
0.031461513
0.031455562
0.031453741
0.031456144
0.031462863
0.031473991
0.03148962
0.031509845
0.031534756
0.031564447
0.031599009
0.031638533
0.031683111
0.031732832
0.031787784
0.031848056
0.031913735
0.031984906
0.032061654
0.032144062
0.032232211
0.032326184
0.032426057
0.03253191
0.032643817
0.032761863
0.032416991
0.032349026
0.03228227
0.032216911
0.032153126
0.032091079
0.032030923
0.0319728
0.031916845
0.031863185
0.03181194
0.031763225
0.031717153
0.03167383
0.031633362
0.03159585
0.031561396
0.031530099
0.031502056
0.031477365
0.031456123
0.031438426
0.03142437
0.031414052
0.031407567
0.031405012
0.031406483
0.031412076
0.031421888
0.031436014
0.03145455
0.031477592
0.031505235
0.031537574
0.031574703
0.031616717
0.031663707
0.031715766
0.031772984
0.031835451
0.031903256
0.031976486
0.032055228
0.032139565
0.032229581
0.032325357
0.032426975
0.032534511
0.032648042
0.032767653
0.032226812
0.032166944
0.032107988
0.032050146
0.031993606
0.031938546
0.03188513
0.03183351
0.031783831
0.03173623
0.031690838
0.031647777
0.031607169
0.031569128
0.031533767
0.031501196
0.031471521
0.031444849
0.031421283
0.031400926
0.031383882
0.03137025
0.031360133
0.031353631
0.031350845
0.031351875
0.031356821
0.031365783
0.031378861
0.031396154
0.031417761
0.031443781
0.031474312
0.031509452
0.031549296
0.031593942
0.031643485
0.031698017
0.031757633
0.031822423
0.031892479
0.031967889
0.032048741
0.032135121
0.032227113
0.0323248
0.032428264
0.032537583
0.032652834
0.032774106
0.032027886
0.031976415
0.031925558
0.031875528
0.031826528
0.031778743
0.031732351
0.031687514
0.031644387
0.031603117
0.031563842
0.031526696
0.031491807
0.031459297
0.031429288
0.031401895
0.031377233
0.031355414
0.031336548
0.031320743
0.031308108
0.03129875
0.031292774
0.031290286
0.031291391
0.031296193
0.031304797
0.031317307
0.031333825
0.031354455
0.031379299
0.031408458
0.031442033
0.031480125
0.031522834
0.031570257
0.031622492
0.031679635
0.031741781
0.031809025
0.031881456
0.031959168
0.032042249
0.032130785
0.032224865
0.03232457
0.032429985
0.032541188
0.032658257
0.032781285
0.031820548
0.031777746
0.031735262
0.031693318
0.031652127
0.031611889
0.031572788
0.031534999
0.031498686
0.031464004
0.031431101
0.031400119
0.031371194
0.031344457
0.031320036
0.031298054
0.031278632
0.031261888
0.031247939
0.0312369
0.031228884
0.031224002
0.031222366
0.031224087
0.031229274
0.031238035
0.031250478
0.031266713
0.031286844
0.031310979
0.031339224
0.031371682
0.031408459
0.031449656
0.031495377
0.031545722
0.03160079
0.031660681
0.031725491
0.031795316
0.03187025
0.031950386
0.032035814
0.032126623
0.032222901
0.032324733
0.032432203
0.032545392
0.032664379
0.032789256
0.03160525
0.031571354
0.031537484
0.031503869
0.031470735
0.031438289
0.031406725
0.031376229
0.031346972
0.031319119
0.031292827
0.031268245
0.031245517
0.031224783
0.031206175
0.031189826
0.031175863
0.031164409
0.031155589
0.031149521
0.031146326
0.03114612
0.031149019
0.031155139
0.031164593
0.031177495
0.031193957
0.03121409
0.031238005
0.031265812
0.031297619
0.031333536
0.031373668
0.031418122
0.031467002
0.031520412
0.031578454
0.031641229
0.031708835
0.031781371
0.031858933
0.031941615
0.032029508
0.032122705
0.032221294
0.032325361
0.032434991
0.032550267
0.032671269
0.032798093
0.031382565
0.031357773
0.031332719
0.031307644
0.031282779
0.031258341
0.031234535
0.031211551
0.031189571
0.031168767
0.031149305
0.031131342
0.031115028
0.03110051
0.031087929
0.031077422
0.031069124
0.031063165
0.031059673
0.031058775
0.031060595
0.031065255
0.031072877
0.031083579
0.031097482
0.031114701
0.031135354
0.031159555
0.03118742
0.031219061
0.031254591
0.031294121
0.031337761
0.031385619
0.031437803
0.03149442
0.031555573
0.031621366
0.0316919
0.031767275
0.031847588
0.031932937
0.032023414
0.032119112
0.032220122
0.032326531
0.032438426
0.03255589
0.032679006
0.03280787
0.031153201
0.03113766
0.031121583
0.031105216
0.031088797
0.03107255
0.031056686
0.031041405
0.031026895
0.031013336
0.0310009
0.030989751
0.030980047
0.030971941
0.030965581
0.030961111
0.03095867
0.030958395
0.03096042
0.030964877
0.030971896
0.030981603
0.030994124
0.031009585
0.031028107
0.031049813
0.031074823
0.031103256
0.03113523
0.031170863
0.031210268
0.031253562
0.031300857
0.031352264
0.031407893
0.031467854
0.031532253
0.031601195
0.031674785
0.031753123
0.03183631
0.031924444
0.03201762
0.032115932
0.032219471
0.032328329
0.032442591
0.032562344
0.032687669
0.032818667
0.030918008
0.030911813
0.030904822
0.030897284
0.030889442
0.030881527
0.030873756
0.030866332
0.030859453
0.030853303
0.03084806
0.030843896
0.030840974
0.030839454
0.030839488
0.030841227
0.030844817
0.030850399
0.030858113
0.030868095
0.030880481
0.030895403
0.03091299
0.030933372
0.030956676
0.030983028
0.031012552
0.031045371
0.031081607
0.031121379
0.031164807
0.031212009
0.031263099
0.031318193
0.031377403
0.031440841
0.031508615
0.031580834
0.031657603
0.031739026
0.031825205
0.031916239
0.032012225
0.03211326
0.032219437
0.032330845
0.032447575
0.032569713
0.032697342
0.032830564
0.030677984
0.030681169
0.030683314
0.030684674
0.030685493
0.030686004
0.03068643
0.03068698
0.030687853
0.030689241
0.030691326
0.030694286
0.030698289
0.030703499
0.030710077
0.030718176
0.030727947
0.030739538
0.030753093
0.030768753
0.030786659
0.030806946
0.030829749
0.030855202
0.030883436
0.030914581
0.030948764
0.030986112
0.03102675
0.031070803
0.031118391
0.031169635
0.031224655
0.031283566
0.031346485
0.031413526
0.0314848
0.031560416
0.031640483
0.031725106
0.03181439
0.031908434
0.03200734
0.032111203
0.032220118
0.032334177
0.032453472
0.032578088
0.032708112
0.032843648
0.030434282
0.03044681
0.030458082
0.030468347
0.030477853
0.030486834
0.030495513
0.030504104
0.030512809
0.030521824
0.030531334
0.030541521
0.030552558
0.030564614
0.030577853
0.030592433
0.030608511
0.030626239
0.030645764
0.030667233
0.030690789
0.030716574
0.030744726
0.030775383
0.030808679
0.030844747
0.03088372
0.030925728
0.030970898
0.031019358
0.031071232
0.031126644
0.031185715
0.031248566
0.031315314
0.031386075
0.031460963
0.03154009
0.031623566
0.031711499
0.031803994
0.031901154
0.03200308
0.032109871
0.032221622
0.032338427
0.032460378
0.032587562
0.032720069
0.032858002
0.030188211
0.030209973
0.030230288
0.030249402
0.030267559
0.030284994
0.030301929
0.030318579
0.030335147
0.03035183
0.030368818
0.030386295
0.030404438
0.030423418
0.030443402
0.030464555
0.030487035
0.030510997
0.030536595
0.030563978
0.030593293
0.030624685
0.030658297
0.030694269
0.03073274
0.030773846
0.030817723
0.030864504
0.030914319
0.030967299
0.031023572
0.031083264
0.031146498
0.031213397
0.031284082
0.031358671
0.031437279
0.031520022
0.03160701
0.031698353
0.031794158
0.031894531
0.031999573
0.032109384
0.032224061
0.032343701
0.032468394
0.032598232
0.032733302
0.032873711
0.029941225
0.029972037
0.03000124
0.030029075
0.030055782
0.030081591
0.030106724
0.030131392
0.0301558
0.030180144
0.030204616
0.030229401
0.030254677
0.030280618
0.030307395
0.030335174
0.030364116
0.03039438
0.030426122
0.030459494
0.030494648
0.030531731
0.030570889
0.030612266
0.030656003
0.030702239
0.030751114
0.030802763
0.030857319
0.030914916
0.030975684
0.031039752
0.031107246
0.03117829
0.031253007
0.031331519
0.031413941
0.031500392
0.031590984
0.031685828
0.031785033
0.031888706
0.03199695
0.032109866
0.032227554
0.032350109
0.032477624
0.032610192
0.032747901
0.03289086
0.02969493
0.029734521
0.02977238
0.029808735
0.029843819
0.029877856
0.029911062
0.029943647
0.029975813
0.030007756
0.030039665
0.030071724
0.030104115
0.030137011
0.030170584
0.030205002
0.030240428
0.030277023
0.030314947
0.030354353
0.030395394
0.030438222
0.030482985
0.030529828
0.030578896
0.030630332
0.030684276
0.030740866
0.030800239
0.03086253
0.030927871
0.030996394
0.031068226
0.031143495
0.031222326
0.03130484
0.031391158
0.031481396
0.031575672
0.031674096
0.031776779
0.03188383
0.031995352
0.032111449
0.03223222
0.032357762
0.032488171
0.032623538
0.032763953
0.032909528
0.029451062
0.029499079
0.029545278
0.029589873
0.029633086
0.029675133
0.029716223
0.029756559
0.02979634
0.029835757
0.029874999
0.029914247
0.029953681
0.029993476
0.030033802
0.030074828
0.030116718
0.030159636
0.030203739
0.030249185
0.030296129
0.030344722
0.030395116
0.030447459
0.030501896
0.030558573
0.030617631
0.030679211
0.030743453
0.030810492
0.030880463
0.0309535
0.031029732
0.031109288
0.031192294
0.031278875
0.031369152
0.031463244
0.031561268
0.031663337
0.031769564
0.031880057
0.031994922
0.032114263
0.032238181
0.032366774
0.032500137
0.032638363
0.032781544
0.032929792
0.029211469
0.029267475
0.029321617
0.029374093
0.029425111
0.029474876
0.029523588
0.029571442
0.029618628
0.029665335
0.029711744
0.029758037
0.02980439
0.029850974
0.02989796
0.029945516
0.029993805
0.030042989
0.03009323
0.030144683
0.030197505
0.03025185
0.030307868
0.030365709
0.030425521
0.03048745
0.03055164
0.030618232
0.030687368
0.030759185
0.030833819
0.030911406
0.030992076
0.031075961
0.031163187
0.03125388
0.031348163
0.031446156
0.031547977
0.031653742
0.031763562
0.031877548
0.031995807
0.032118444
0.032245559
0.032377252
0.032513619
0.032654753
0.032800748
0.032951718
0.02897809
0.029041564
0.02910317
0.029163089
0.029221511
0.029278628
0.029334627
0.029389694
0.029444011
0.029497757
0.02955111
0.029604243
0.029657329
0.029710539
0.029764039
0.029817994
0.029872567
0.029927919
0.029984209
0.030041594
0.03010023
0.030160271
0.030221868
0.030285171
0.03035033
0.03041749
0.030486797
0.030558393
0.03063242
0.030709017
0.030788322
0.03087047
0.030955594
0.031043825
0.031135293
0.031230122
0.031328438
0.031430361
0.031536011
0.031645503
0.03175895
0.031876465
0.031998153
0.032124121
0.03225447
0.0323893
0.032528709
0.032672789
0.032821635
0.032975362
0.028752914
0.028823258
0.028891774
0.02895862
0.029023971
0.029088
0.029150881
0.029212787
0.02927389
0.029334359
0.029394365
0.029454074
0.029513653
0.029573267
0.029633078
0.02969325
0.029753941
0.02981531
0.029877515
0.029940711
0.030005053
0.030070694
0.030137785
0.030206476
0.030276916
0.030349251
0.030423626
0.030500185
0.03057907
0.030660421
0.030744374
0.030831068
0.030920634
0.031013206
0.031108912
0.031207879
0.031310233
0.031416094
0.031525583
0.031638815
0.031755906
0.031876965
0.032002102
0.032131421
0.032265026
0.032403016
0.032545489
0.032692539
0.03284426
0.033000768
0.028537941
0.028614491
0.02868929
0.028762479
0.028834211
0.028904642
0.02897393
0.029042233
0.029109712
0.029176524
0.02924283
0.029308788
0.029374558
0.029440297
0.029506162
0.029572312
0.029638903
0.029706089
0.029774025
0.029842864
0.029912758
0.02998386
0.030056318
0.030130282
0.030205899
0.030283315
0.030362675
0.030444122
0.030527798
0.030613843
0.030702393
0.030793587
0.030887557
0.030984435
0.031084352
0.031187434
0.031293806
0.03140359
0.031516907
0.031633872
0.0317546
0.031879203
0.032007788
0.032140461
0.032277326
0.032418482
0.032564027
0.032714055
0.032868661
0.033027961
0.028335128
0.028417166
0.028497563
0.028576446
0.028653949
0.028730208
0.028805364
0.02887956
0.02895294
0.029025652
0.029097844
0.029169665
0.029241264
0.029312792
0.029384399
0.029456237
0.029528456
0.029601207
0.029674641
0.029748907
0.029824154
0.029900531
0.029978186
0.030057266
0.030137916
0.030220281
0.030304504
0.030390728
0.030479094
0.03056974
0.030662803
0.030758421
0.030856725
0.030957849
0.03106192
0.031169067
0.031279413
0.031393081
0.031510191
0.031630858
0.031755198
0.03188332
0.032015334
0.032151345
0.032291456
0.032435766
0.032584373
0.032737371
0.032894856
0.033056944
0.028058089
0.028146382
0.028233116
0.028318371
0.028402247
0.028484856
0.028566314
0.028646742
0.028726268
0.028805021
0.028883132
0.028960739
0.029037979
0.029114991
0.029191917
0.0292689
0.029346082
0.029423608
0.029501622
0.029580271
0.0296597
0.029740054
0.029821478
0.029904116
0.029988112
0.03007361
0.030160751
0.030249678
0.030340531
0.030433448
0.030528568
0.030626028
0.030725961
0.0308285
0.030933776
0.031041917
0.031153051
0.0312673
0.031384787
0.03150563
0.031629945
0.031757846
0.031889443
0.032024845
0.032164156
0.032307479
0.032454913
0.032606554
0.032762498
0.032922839
0.033087694
0.027881433
0.027973399
0.028064023
0.028153363
0.028241494
0.028328503
0.028414487
0.028499548
0.028583794
0.028667339
0.028750301
0.028832802
0.028914967
0.028996925