/*--------------------------------*- C++ -*----------------------------------*\
| =========                 |                                                 |
| \\      /  F ield         | OpenFOAM: The Open Source CFD Toolbox           |
|  \\    /   O peration     | Version:  2312                                  |
|   \\  /    A nd           | Website:  www.openfoam.com                      |
|    \\/     M anipulation  |                                                 |
\*---------------------------------------------------------------------------*/
FoamFile
{
    version     2.0;
    format      ascii;
    arch        "LSB;label=32;scalar=64";
    class       volScalarField;
    location    "0.1";
    object      omega;
}
// * * * * * * * * * * * * * * * * * * * * * * * * * * * * * * * * * * * * * //

dimensions      [0 0 -1 0 0 0 0];

internalField   nonuniform List<scalar> 
3250
(
594.99575
588.35861
581.79435
575.30269
568.8832
562.53534
556.25849
550.05191
543.91482
537.84634
531.84552
525.9114
520.04292
514.23902
508.49859
502.82047
497.20352
491.64654
486.14832
480.70766
475.32333
469.99409
464.71871
459.49596
454.32461
449.20343
444.13122
439.10678
434.12892
429.19649
424.30834
419.46335
414.66046
409.89861
405.17679
400.49402
395.84939
391.242
386.67105
382.13575
377.6354
373.16936
368.73703
364.33796
359.97204
355.63906
351.33829
347.06949
342.83245
594.93187
588.29664
581.73425
575.24438
568.82662
562.48045
556.20522
550.00022
543.86465
537.79764
531.79826
525.86552
519.99839
514.1958
508.45663
502.77976
497.164
491.60819
486.11111
480.67156
475.2883
469.9601
464.68575
459.46399
454.29361
449.17338
444.10209
439.07854
434.10156
429.16997
424.28265
419.43847
414.63637
409.87529
405.15421
400.47217
395.82825
391.22157
386.65129
382.11666
377.61697
373.15157
368.7199
364.3215
359.95616
355.62359
351.32326
347.05488
342.81824
594.80471
588.17334
581.61467
575.12839
568.7141
562.37126
556.09927
549.89739
543.76483
537.70074
531.70418
525.77418
519.9097
514.10967
508.373
502.69854
497.08513
491.53159
486.03672
480.59931
475.21813
469.89197
464.61958
459.39974
454.23122
449.11281
444.04328
439.02145
434.04614
429.11619
424.23045
419.38782
414.58722
409.82761
405.10796
400.42732
395.78476
391.1794
386.61042
382.07706
377.57861
373.11443
368.68397
364.28677
359.92253
355.59094
351.29157
347.02412
342.7884
594.6143
587.98874
581.43566
574.95476
568.54566
562.20783
555.94067
549.74345
543.61541
537.55568
531.56334
525.63741
519.77688
513.98068
508.24771
502.57684
496.96692
491.41676
485.92517
480.49095
475.11287
469.78971
464.52024
459.30324
454.13748
449.02175
443.95484
438.93555
433.96271
429.03516
424.15177
419.31143
414.51305
409.7556
405.03807
400.35949
395.71894
391.11554
386.54848
382.01699
377.52036
373.05798
368.62927
364.23379
359.87118
355.54113
351.24324
346.97725
342.74296
594.36071
587.7429
581.19727
574.72355
568.32136
561.99021
555.72947
549.53847
543.41643
537.3625
531.37576
525.45526
519.59998
513.80886
508.08082
502.41472
496.80942
491.26375
485.77651
480.34651
474.97253
469.65336
464.38776
459.17452
454.01242
448.90024
443.83678
438.82086
433.85129
428.92693
424.04664
419.20932
414.41389
409.6593
404.94457
400.26871
395.63081
391.03001
386.46548
381.93646
377.44225
372.98223
368.55583
364.1626
359.80217
355.47418
351.17831
346.91428
342.68191
594.06217
587.45349
580.91663
574.45137
568.05732
561.73402
555.48086
549.29717
543.18219
537.13508
531.15494
525.24082
519.39171
513.60657
507.88431
502.22382
496.62396
491.08356
485.60143
480.17639
474.80723
469.49273
464.23167
459.02285
453.86503
448.75703
443.69763
438.68565
433.71992
428.79929
423.92264
419.08886
414.29688
409.54566
404.83419
400.16153
395.52675
390.92899
386.36742
381.8413
377.34992
372.89266
368.46897
364.07837
359.72048
355.39495
351.10147
346.83977
342.60969
593.7278
587.12934
580.60232
574.14652
567.7616
561.44709
555.20242
549.02692
542.91985
536.88037
530.90762
525.00064
519.15844
513.37999
507.66421
502.00999
496.41621
490.8817
485.4053
479.98581
474.62203
469.31276
464.05678
458.85289
453.69987
448.59652
443.54166
438.53409
433.57265
428.6562
423.78361
418.95379
414.16566
409.4182
404.7104
400.04131
395.41001
390.81564
386.25739
381.7345
377.24628
372.79211
368.37143
363.98377
359.62873
355.30596
351.01516
346.75608
342.52857
593.33138
586.74505
580.22969
573.78513
567.41102
561.10694
554.87233
548.70654
542.60884
536.57842
530.61442
524.7159
518.88189
513.11136
507.40325
501.75647
496.16989
490.64237
485.17274
479.75982
474.40242
469.09934
463.84937
458.65132
453.50398
448.40616
443.35666
438.35431
433.39795
428.48644
423.61866
418.79353
414.00996
409.26695
404.56348
399.89861
395.27143
390.68108
386.12675
381.60769
377.12321
372.67268
368.25556
363.87137
359.51971
355.20023
350.91262
346.65666
342.4322
592.86837
586.2962
579.79447
573.36302
567.00156
560.70966
554.48679
548.33234
542.24559
536.22574
530.27196
524.38333
518.55888
512.7976
507.09845
501.46035
495.88218
490.3628
484.90108
479.49583
474.14587
468.85001
463.60707
458.41583
453.27512
448.18373
443.14049
438.14423
433.19379
428.28805
423.42589
418.60622
413.82798
409.09014
404.39173
399.73179
395.10941
390.52375
385.97399
381.45939
376.97927
372.533
368.12003
363.73989
359.39217
355.07652
350.79265
346.54034
342.31945
592.33393
585.77811
579.29211
572.87581
566.52894
560.2511
554.0418
547.90044
541.82632
535.81868
529.8767
523.99947
518.18605
512.43545
506.74663
501.11854
495.55007
490.0401
484.58749
479.19109
473.84972
468.56219
463.32734
458.14397
453.01089
447.92693
442.89091
437.90167
432.95807
428.05897
423.20328
418.38991
413.6178
408.88595
404.19337
399.5391
394.92227
390.34201
385.79752
381.28806
376.81296
372.37159
367.96341
363.58793
359.24476
354.93354
350.654
346.40591
342.18914
591.72297
585.18585
578.71784
572.31886
565.98867
559.72691
553.53312
547.40672
541.34704
535.35336
529.42486
523.56066
517.75985
512.02145
506.34445
500.7278
495.17041
489.67119
484.229
478.84271
473.51114
468.23314
463.00753
457.83314
452.70879
447.63331
442.60553
437.62431
432.68851
427.79701
422.94871
418.14254
413.37744
408.65242
403.96649
399.31872
394.70821
390.13411
385.59564
381.09206
376.62269
372.18692
367.7842
363.41406
359.07608
354.76993
350.49533
346.25207
342.04003
591.03013
584.51422
578.06662
571.68728
565.37601
559.13249
552.95628
546.84685
540.80356
534.82569
528.91248
523.06307
517.27655
511.55199
505.88838
500.2847
494.73988
489.25284
483.82246
478.44762
473.12717
467.85997
462.64484
457.48062
452.36616
447.30029
442.28186
437.30974
432.38278
427.49988
422.65996
417.86194
413.10479
408.3875
403.70911
399.06869
394.46535
389.89824
385.3666
380.86967
376.4068
371.97737
367.58083
363.21673
358.88464
354.58424
350.31526
346.07748
341.8708
590.24973
583.75772
577.33311
570.9759
564.68595
558.46298
552.30658
546.21626
540.19142
534.23138
528.33539
522.50262
516.73221
511.02323
505.3747
499.78563
494.25496
488.78164
483.36456
478.00262
472.69469
467.43963
462.2363
457.08354
451.98022
446.92517
441.91726
436.95537
432.03836
427.16515
422.33466
417.54582
412.79761
408.08903
403.41913
398.78699
394.19171
389.63248
385.10851
380.61907
376.16351
371.74121
367.35165
362.99434
358.66889
354.37497
350.11231
345.88071
341.68007
589.37582
582.91058
576.51172
570.1793
563.91323
557.71327
551.57906
545.51015
539.50598
533.56589
527.68918
521.87506
516.12268
510.43114
504.7995
499.22678
493.71196
488.25399
482.85181
477.50431
472.21039
466.96894
461.77881
456.63888
451.54802
446.50509
441.50896
436.55851
431.65265
426.79028
421.97034
417.19178
412.45358
407.75475
403.09435
398.47146
393.88522
389.33479
384.81941
380.33836
375.89098
371.47667
367.0949
362.7452
358.42718
354.14051
349.88494
345.66027
341.4664
588.40214
581.96673
575.59657
569.29178
563.05231
556.87799
550.76852
544.72346
538.74231
532.82447
526.96924
521.17589
515.44359
509.77149
504.15867
498.60417
493.107
487.66614
482.28054
476.94913
471.67082
466.44452
461.2691
456.14347
451.06648
446.03704
441.05403
436.11634
431.22289
426.3726
421.56441
416.79729
412.07023
407.38226
402.73244
398.11987
393.54368
389.00306
384.49725
380.02553
375.58726
371.18184
366.80875
362.46753
358.15779
353.8792
349.63152
345.41457
341.22825
587.3221
580.91978
574.58146
568.30732
562.09739
555.95152
549.86947
543.85088
537.89528
532.0021
526.17071
520.4004
514.69038
509.03984
503.44789
497.9136
492.436
487.01412
481.64691
476.33335
471.07235
465.86285
460.70375
455.59396
450.53237
445.51789
440.54942
435.62588
430.74619
425.90929
421.11413
416.3597
411.645
406.96907
402.33098
397.72984
393.1648
388.63506
384.13985
379.67848
375.25032
370.85476
366.4913
362.15948
357.85891
353.58929
349.35037
345.14198
340.96403
586.12879
579.76305
573.45992
567.21966
561.04235
554.92793
548.87619
542.88685
536.95947
531.09355
525.28849
519.54364
513.85825
508.23152
502.66262
497.15066
491.6947
486.29378
480.94689
475.65304
470.41117
465.22023
460.07915
454.98686
449.94228
444.94433
439.99193
435.08401
430.21952
425.39741
420.61665
415.87623
411.17518
406.51255
401.88742
397.29891
392.74619
388.22845
383.74496
379.29503
374.87801
370.49335
366.14052
361.81908
357.52866
353.26894
349.03969
344.84076
340.67207
584.815
578.48953
572.22516
566.02221
559.88083
553.80102
547.78267
541.82553
535.92923
530.09332
524.31726
518.60044
512.94215
507.34165
501.79814
496.31076
490.87861
485.50076
480.17626
474.9041
469.68329
464.51278
459.39154
454.31852
449.29267
444.31291
439.3782
434.48748
429.63972
424.83389
420.06897
415.34398
410.65796
406.00996
401.3991
396.82449
392.28532
387.7808
383.31021
378.87286
374.46812
370.09545
365.75432
361.44431
357.16505
352.91623
348.69764
344.50913
340.35063
583.37313
577.09189
570.87007
564.70808
558.60614
552.56434
546.58263
540.66083
534.79864
528.99568
523.25145
517.56538
511.93685
506.36513
500.84948
495.38907
489.98306
484.63054
479.33059
474.08225
468.88454
463.73646
458.637
453.58512
448.57981
443.62002
438.70471
433.83287
429.00347
424.2155
419.46798
414.75992
410.09038
405.45845
400.86323
396.30388
391.77958
387.28957
382.83312
378.40958
374.01832
369.65879
365.33051
361.03304
356.76603
352.52918
348.32228
344.1452
339.99788
588.0849
581.79526
575.56248
569.38726
563.2701
557.21133
551.21112
545.26951
539.38639
533.56154
527.79462
522.08522
516.43282
510.83685
505.29663
499.81147
494.38058
489.00317
483.67837
478.40529
473.18301
468.01058
462.88704
457.81141
452.78267
447.79984
442.86189
437.96783
433.11664
428.30733
423.53891
418.81041
414.12087
409.46938
404.85502
400.27692
395.73426
391.22623
386.75209
382.31113
377.90269
373.52617
369.18104
364.86681
360.58306
356.32944
352.10569
347.91158
343.74701
339.61193
586.30775
580.07326
573.89338
567.76902
561.70079
555.68914
549.73433
543.83649
537.99559
532.21149
526.48392
520.81253
515.19688
509.63644
504.1306
498.67871
493.28005
487.93385
482.6393
477.39555
472.20172
467.05689
461.96013
456.91049
451.90701
446.94871
442.03461
437.16373
432.33508
427.5477
422.80061
418.09287
413.42355
408.79175
404.19656
399.63716
395.11271
390.62244
386.16562
381.74155
377.34959
372.98916
368.65973
364.36083
360.09206
355.85307
351.6436
347.46346
343.31253
339.19081
584.37319
578.19862
572.07634
566.00734
559.99239
554.03204
548.12667
542.27648
536.48155
530.7418
525.05708
519.42708
513.85143
508.32968
502.86127
497.44562
492.08204
486.76983
481.50822
476.2964
471.13353
466.01875
460.95115
455.92983
450.95384
446.02225
441.13411
436.28847
431.48436
426.72085
421.99699
417.31186
412.66455
408.05417
403.47987
398.94081
394.43619
389.96525
385.52728
381.1216
376.74759
372.40468
368.09234
363.81014
359.55767
355.3346
351.14068
346.97573
342.83965
338.73246
582.27208
576.16256
570.10281
564.09395
558.13687
552.23224
546.38055
540.58212
534.83712
529.14557
523.50737
517.92233
512.39014
506.91042
501.48267
496.10637
490.78091
485.50561
480.27978
475.10265
469.97342
464.89128
459.85536
454.86479
449.91868
445.01611
440.15617
435.33794
430.56049
425.82291
421.12428
416.46371
411.8403
407.25321
402.70159
398.18463
393.70155
389.25161
384.83412
380.44842
376.0939
371.77001
367.47624
363.21217
358.97741
354.77164
350.59461
346.44616
342.3262
338.23477
586.07946
579.99497
573.95596
567.96397
562.02028
556.12591
550.28167
544.48816
538.74583
533.05494
527.41561
521.82785
516.29154
510.80646
505.37228
499.98861
494.65497
489.37081
484.13554
478.94849
473.80896
468.7162
463.66944
458.66786
453.71064
448.7969
443.92579
439.09642
434.30791
429.55936
424.84989
420.17861
415.54466
410.94717
406.38532
401.85828
397.36527
392.90554
388.47837
384.08307
379.71902
375.38563
371.08236
366.80873
362.56431
358.34874
354.16171
350.003
345.87243
341.7699
337.69551
583.53737
577.53228
571.5695
565.65077
559.77753
553.95097
548.17202
542.44144
536.75977
531.1274
525.54456
520.01135
514.52774
509.09361
503.7087
498.37271
493.08521
487.84575
482.65377
477.50867
472.40982
467.35652
462.34803
457.38361
452.46245
447.58374
442.74666
437.95037
433.19401
428.47672
423.79766
419.15598
414.55082
409.98137
405.44682
400.94638
396.47929
392.04482
387.64227
383.27099
378.93036
374.61983
370.33886
366.087
361.86385
357.66904
353.5023
349.3634
345.25217
341.16848
337.11235
580.79366
574.87416
568.99359
563.1539
557.35668
551.60328
545.8948
540.23211
534.61592
529.04671
523.52483
518.05051
512.62379
507.24466
501.91294
496.62842
491.39074
486.19953
481.05429
475.95449
470.89956
465.88886
460.92171
455.99739
451.11518
446.2743
441.47398
436.7134
431.99175
427.30823
422.66201
418.05227
413.47822
408.93904
404.43398
399.96225
395.52315
391.11595
386.73999
382.39464
378.0793
373.79344
369.53656
365.30822
361.10802
356.93564
352.7908
348.6733
344.58296
340.51961
577.83798
572.01057
566.21851
560.46389
554.74851
549.0739
543.44129
537.85174
532.30606
526.80488
521.34869
515.93779
510.57238
505.2525
499.9781
494.74903
489.56505
484.42582
479.33095
474.27998
469.27239
464.30759
459.38499
454.50391
449.66368
444.86357
440.10285
435.38077
430.69655
426.04942
421.43859
416.8633
412.32276
407.81622
403.34293
398.90217
394.49322
390.11542
385.76811
381.45071
377.16264
372.90338
368.67245
364.46945
360.29399
356.14578
352.02456
347.93013
343.86236
339.82114
574.65986
568.93137
563.23436
557.57113
551.94369
546.35373
540.80268
535.29173
529.82185
524.39382
519.00824
513.66555
508.36605
503.10989
497.89714
492.72772
487.60148
482.51818
477.4775
472.47905
467.52238
462.60698
457.7323
452.89774
448.10267
443.34643
438.62833
433.94767
429.30371
424.69574
420.123
415.58477
411.0803
406.60887
402.16978
397.76232
393.38582
389.03965
384.72318
380.43585
376.17711
371.94646
367.74347
363.56773
359.4189
355.29669
351.20087
347.13128
343.0878
339.07039
571.24882
565.62633
560.03119
554.46595
548.9328
543.43363
537.97004
532.54341
527.15486
521.80531
516.49551
511.22602
505.99726
500.80952
495.66293
490.55755
485.49332
480.47007
475.48757
470.54552
465.64354
460.78118
455.95798
451.17338
446.42682
441.7177
437.04538
432.40921
427.80851
423.24259
418.71077
414.21234
409.74661
405.31291
400.91054
396.53886
392.19723
387.88503
383.60168
379.34665
375.11941
370.9195
366.74651
362.60005
358.47982
354.38554
350.31702
346.2741
342.25672
338.26485
567.5944
562.08526
556.59909
551.13867
545.7064
540.3044
534.93444
529.59808
524.29661
519.03112
513.80248
508.61141
503.45844
498.34399
493.26832
488.23157
483.23378
478.2749
473.35477
468.47318
463.62982
458.82434
454.05632
449.3253
444.63076
439.97216
435.34893
430.76046
426.20614
421.68533
417.19738
412.74164
408.31746
403.9242
399.56123
395.22792
390.92367
386.6479
382.40008
378.17968
373.98622
369.81928
365.67845
361.56339
357.47382
353.4095
349.37024
345.35593
341.36652
337.40202
563.68634
558.29812
552.92824
547.5797
542.25516
536.95692
531.68699
526.44708
521.23868
516.06302
510.92115
505.81392
500.74201
495.70595
490.70612
485.74279
480.81609
475.92608
471.07269
466.2558
461.47519
456.73058
452.02162
447.34794
442.70908
438.10456
433.53388
428.99649
424.49182
420.0193
415.57832
411.16829
406.78859
402.43864
398.11784
393.8256
389.56138
385.32462
381.11482
376.9315
372.77422
368.64256
364.53617
360.45474
356.39799
352.36573
348.3578
344.37411
340.41463
336.47941
559.51461
554.25511
549.00904
543.77968
538.56991
533.38227
528.21895
523.0819
517.97275
512.89293
507.84364
502.82588
497.84049
492.8881
487.96925
483.08431
478.23354
473.41708
468.63498
463.8872
459.17362
454.49404
449.8482
445.23579
440.65643
436.10971
431.5952
427.11239
422.6608
418.23988
413.84911
409.48793
405.15578
400.85212
396.57639
392.32807
388.10663
383.91156
379.74241
375.59873
371.4801
367.38616
363.31658
359.27107
355.24942
351.25143
347.27698
343.32601
339.39852
335.49457
555.06967
549.94682
544.83227
539.72955
534.64179
529.57175
524.52186
519.49423
514.49073
509.51294
504.56223
499.63977
494.74653
489.88331
485.05075
480.24937
475.47952
470.74148
466.03539
461.36132
456.71922
452.10901
447.53049
442.98343
438.46755
433.9825
429.5279
425.10334
420.70837
416.34253
412.00533
407.69628
403.41487
399.16061
394.93299
390.73152
386.55573
382.40517
378.27939
374.178
370.10063
366.04693
362.01663
358.00947
354.02525
350.06382
346.1251
342.20904
338.31567
334.44508
550.34255
545.36444
540.38924
535.42077
530.4624
525.51713
520.58761
515.67618
510.78487
505.91547
501.06953
496.24836
491.4531
486.68469
481.94392
477.23141
472.54768
467.89308
463.26789
458.67226
454.10627
449.5699
445.06307
440.58561
436.13733
431.71795
427.32717
422.96465
418.63
414.32282
410.04269
405.78918
401.56183
397.36019
393.18382
389.03227
384.90513
380.80196
376.7224
372.66607
368.63265
364.62184
360.63338
356.66706
352.72272
348.80025
344.89958
341.0207
337.16367
333.3286
545.32514
540.49988
535.67195
530.84543
526.02395
521.21074
516.40868
511.62032
506.84791
502.0934
497.35854
492.64481
487.9535
483.28571
478.64237
474.02423
469.43193
464.86597
460.32671
455.81443
451.3293
446.87141
442.44076
438.03729
433.66086
429.3113
424.98838
420.69182
416.42131
412.17652
407.95709
403.76264
399.59277
395.44711
391.32525
387.2268
383.15138
379.09864
375.06823
371.05983
367.07315
363.10794
359.16399
355.24112
351.33919
347.45814
343.59793
339.7586
335.94021
332.14292
540.01035
535.34607
530.67334
525.99651
521.31945
516.64566
511.97823
507.31993
502.6732
498.04021
493.42287
488.82285
484.24159
479.68035
475.1402
470.62205
466.12665
461.65463
457.20648
452.78258
448.38321
444.00856
439.65873
435.33375
431.03357
426.75811
422.5072
418.28065
414.07822
409.89966
405.74465
401.6129
397.50407
393.41783
389.35385
385.31177
381.29129
377.29208
373.31386
369.35635
365.4193
361.50252
357.60582
353.72907
349.87218
346.0351
342.21786
338.42049
334.64312
330.88593
534.39244
529.89717
525.38751
520.86806
516.34298
511.81596
507.29036
502.76913
498.25495
493.75016
489.25686
484.77689
480.31187
475.86321
471.43213
467.01968
462.62676
458.2541
453.90234
449.57196
445.26336
440.97683
436.71256
432.4707
428.25127
424.05428
419.87965
415.72727
411.59698
407.48858
403.40185
399.33654
395.2924
391.26913
387.26648
383.28416
379.32189
375.37943
371.45652
367.55295
363.66851
359.80305
355.95643
352.12856
348.3194
344.52894
340.75722
337.00433
333.27044
329.55573
528.46729
524.14887
519.81
515.45553
511.08986
506.71694
502.34031
497.96317
493.58837
489.21848
484.85576
480.50224
476.15969
471.8297
467.51363
463.21267
458.92787
454.66009
450.41008
446.17845
441.96571
437.77226
433.59841
429.44437
425.31029
421.19625
417.10227
413.0283
408.97428
404.94009
400.92556
396.93053
392.95479
388.99815
385.06038
381.14126
377.24059
373.35815
369.49377
365.64725
361.81848
358.00731
354.21368
350.43753
346.67886
342.9377
339.21414
335.50832
331.8204
328.15063
522.23279
518.09874
513.93812
509.75602
505.55704
501.34536
497.12475
492.89861
488.66999
484.44164
480.21602
475.99531
471.78148
467.57625
463.38114
459.1975
455.02649
450.86913
446.72629
442.5987
438.48698
434.39164
430.31309
426.25166
422.20759
418.18105
414.17214
410.18092
406.20738
402.25149
398.31317
394.39231
390.4888
386.60248
382.73321
378.88083
375.04519
371.22614
367.42354
363.63729
359.86728
356.11345
352.37577
348.65423
344.94887
341.25978
337.58708
333.93093
330.29156
326.66924
515.68917
511.74661
507.77131
503.7686
499.7433
495.6998
491.64204
487.57364
483.49784
479.41757
475.33545
471.25387
467.17492
463.1005
459.03228
454.97175
450.92021
446.87882
442.84856
438.8303
434.82477
430.8326
426.85429
422.89029
418.94092
415.00646
411.08711
407.18299
403.29419
399.42077
395.5627
391.71998
387.89254
384.08031
380.28321
376.50114
372.73402
368.98176
365.24428
361.52152
357.81344
354.12004
350.44132
346.77733
343.12816
339.49394
335.87482
332.27103
328.68282
325.11049
508.83936
505.09484
501.31147
497.49476
493.64973
489.78095
485.89259
481.9884
478.07182
474.14594
470.21357
466.27724
462.33922
458.40155
454.46605
450.53435
446.60789
442.68796
438.77567
434.872
430.97781
427.09384
423.2207
419.35894
415.50898
411.6712
407.84587
404.03324
400.23346
396.44667
392.67295
388.91233
385.16485
381.43049
377.70926
374.00111
370.30603
366.62399
362.95498
359.29899
355.65604
352.02618
348.40947
344.806
341.21592
337.6394
334.07664
330.5279
326.99348
323.47373
501.68952
498.14886
494.56336
490.93868
487.28
483.59206
479.87917
476.14528
472.39397
468.62852
464.85186
461.06669
457.27542
453.48024
449.68312
445.88583
442.08993
438.29683
434.50778
430.72389
426.94612
423.17531
419.41221
415.65745
411.91156
408.17501
404.44818
400.73139
397.0249
393.3289
389.64357
385.96904
382.30539
378.6527
375.01103
371.38041
367.7609
364.15253
360.55534
356.96941
353.39479
349.8316
346.27994
342.73999
339.21191
335.69592
332.1923
328.70133
325.22336
321.75877
494.24944
490.91757
487.53507
484.1077
480.64078
477.13917
473.60732
470.04932
466.4689
462.86946
459.25411
455.62566
451.98666
448.33945
444.68612
441.02857
437.3685
433.70743
430.04674
426.38765
422.73123
419.07844
415.43013
411.78703
408.14979
404.51895
400.895
397.27835
393.66933
390.06824
386.47533
382.8908
379.31483
375.74755
372.18911
368.63961
365.09917
361.56788
358.04587
354.53325
351.03015
347.53674
344.05319
340.57971
337.11653
333.66393
330.22221
326.79172
323.37283
319.96599
486.53306
483.41382
480.23844
477.01277
473.74218
470.43164
467.0857
463.70856
460.30406
456.87571
453.42675
449.96013
446.47853
442.98438
439.47991
435.96713
432.44786
428.92376
425.39629
421.86679
418.33646
414.80635
411.27742
407.75049
404.22631
400.70553
397.18872
393.67637
390.16893
386.66675
383.17019
379.67951
376.19497
372.71679
369.24518
365.78032
362.32238
358.87155
355.42799
351.9919
348.56347
345.14291
341.73047
338.3264
334.93099
331.54457
328.16749
324.80014
321.44296
318.09642
478.55884
475.65483
472.68955
469.66887
466.5982
463.48254
460.32653
457.13443
453.91016
450.65734
447.37928
444.07903
440.75939
437.42291
434.07192
430.70853
427.33467
423.95209
420.56238
417.16698
413.76718
410.36415
406.95892
403.55244
400.14554
396.73896
393.33336
389.92933
386.52738
383.12798
379.73154
376.33842
372.94895
369.56343
366.18214
362.80533
359.43324
356.06613
352.70424
349.34781
345.9971
342.6524
339.31398
335.98219
332.65735
329.33985
326.03008
322.7285
319.43558
316.15183
470.35028
467.66262
464.90907
462.09544
459.22711
456.30909
453.34602
450.3422
447.30161
444.22791
441.1245
437.9945
434.84077
431.66597
428.47249
425.26258
422.03823
418.8013
415.55347
412.29627
409.03108
405.75917
402.48167
399.1996
395.9139
392.62539
389.33483
386.04287
382.75014
379.45716
376.16442
372.87239
369.58144
366.29197
363.00433
359.71883
356.43579
353.15554
349.87837
346.60461
343.33457
340.0686
336.80704
333.55027
330.2987
327.05276
323.81289
320.5796
317.35341
314.13487
461.93622
459.46443
456.92273
454.31677
451.65188
448.93299
446.16471
443.35134
440.49685
437.60495
434.67904
431.72231
428.73768
425.72783
422.69526
419.64227
416.57094
413.48321
410.38084
407.26543
404.13847
401.00128
397.85511
394.70104
391.5401
388.37319
385.20116
382.02474
378.84462
375.66142
372.47572
369.28803
366.09884
362.90858
359.71769
356.52656
353.33558
350.14513
346.95558
343.76732
340.58072
337.3962
334.21416
331.03504
327.8593
324.68742
321.5199
318.3573
315.20019
312.04916
453.35121
451.09304
448.7616
446.36238
443.90052
441.38086
438.80791
436.18591
433.51879
430.81023
428.06366
425.28226
422.46896
419.62651
416.75742
413.86405
410.94853
408.01287
405.0589
402.0883
399.1026
396.10321
393.09145
390.06848
387.0354
383.9932
380.94277
377.88495
374.82049
371.7501
368.67441
365.59403
362.50949
359.42133
356.33002
353.23605
350.13987
347.04192
343.94265
340.8425
337.74191
334.64136
331.5413
328.44225
325.34471
322.24921
319.15633
316.06666
312.9808
309.89942
446.60315
444.6357
442.58696
440.46241
438.26725
436.0064
433.68452
431.30597
428.87487
426.39508
423.8702
421.30362
418.69848
416.05773
413.3841
410.68014
407.94819
405.19045
402.40895
399.60557
396.78205
393.93997
391.08082
388.20595
385.31661
382.41394
379.499
376.57277
373.63614
370.68993
367.73493
364.77183
361.8013
358.82396
355.8404
352.85117
349.85682
346.85787
343.85482
340.84818
337.83847
334.82618
331.81184
328.796
325.77918
322.76198
319.74498
316.72878
313.71405
310.70144
307.69165
437.5989
435.83605
433.99061
432.06766
430.07206
428.00846
425.88124
423.69457
421.4524
419.15845
416.8162
414.42896
411.99981
409.53163
407.02714
404.48886
401.91914
399.32018
396.69402
394.04256
391.36758
388.6707
385.95346
383.21725
380.46336
377.693
374.90728
372.10724
369.29381
366.46791
363.63035
360.78191
357.92332
355.05525
352.17837
349.29329
346.40062
343.50093
340.5948
337.68281
334.76551
331.84348
328.9173
325.98756
323.05486
320.11985
317.18315
314.24543
311.3074
308.36975
305.43325
428.57201
427.00459
425.35427
423.62568
421.82327
419.95131
418.01389
416.01491
413.95809
411.84694
409.6848
407.47484
405.22002
402.92316
400.58688
398.21367
395.80584
393.36557
390.89489
388.39571
385.86978
383.31879
380.74426
378.14764
375.53026
372.89336
370.23808
367.56552
364.87667
362.17247
359.45381
356.72152
353.97638
351.21913
348.45048
345.67111
342.88168
340.08284
337.27521
334.45942
331.63611
328.80588
325.9694
323.12729
320.28023
317.4289
314.57398
311.7162
308.8563
305.99504
303.13321
419.58248
418.19929
416.73395
415.19055
413.57305
411.8853
410.13103
408.3138
406.43705
404.50405
402.51794
400.48168
398.39811
396.26989
394.09957
391.88952
389.64201
387.35915
385.04295
382.69528
380.3179
377.91245
375.48049
373.02348
370.54275
368.03957
365.51514
362.97056
360.40687
357.82506
355.22605
352.61071
349.97988
347.33435
344.67488
342.0022
339.31702
336.62005
333.91196
331.19345
328.46518
325.72785
322.98213
320.22875
317.4684
314.70182
311.92976
309.15298
306.37226
303.58842
300.80229
410.69549
409.48347
408.19109
406.82184
405.37915
403.86637
402.28681
400.64366
398.94002
397.17887
395.36308
393.49539
391.57844
389.61474
387.60667
385.55651
383.46641
381.33841
379.17444
376.97632
374.74579
372.48445
370.19384
367.8754
365.53047
363.16035
360.76622
358.34923
355.91043
353.45083
350.9714
348.47305
345.95664
343.423
340.87295
338.30726
335.72669
333.13198
330.52387
327.90309
325.27036
322.62643
319.97204
317.30793
314.63486
311.95362
309.26501
306.56982
303.86889
301.16308
298.45325
401.98074
400.92523
399.79214
398.58432
397.30462
395.95588
394.54091
393.06248
391.52331
389.92605
388.27325
386.56741
384.81092
383.00608
381.15511
379.26011
377.32311
375.34604
373.33073
371.27893
369.1923
367.07241
364.92075
362.73871
360.52765
358.28883
356.02344
353.73263
351.41748
349.079
346.71819
344.33596
341.93322
339.51084
337.06965
334.61047
332.13409
329.64131
327.1329
324.60964
322.07229
319.52164
316.95847
314.38358
311.79778
309.20189
306.59675
303.98321
301.36215
298.73445
296.10102
393.51185
392.5969
391.60807
390.54753
389.41751
388.22032
386.95825
385.63361
384.2487
382.80578
381.30709
379.75481
378.15106
376.49791
374.79735
373.05132
371.26167
369.43018
367.55858
365.6485
363.70151
361.7191
359.70272
357.65372
355.57338
353.46295
351.32361
349.15649
346.96267
344.74317
342.49899
340.23105
337.94029
335.62759
333.2938
330.93978
328.56635
326.17434
323.76455
321.3378
318.89489
316.43666
313.96391
311.4775
308.97826
306.46707
303.94479
301.41233
298.87059
296.32049
293.763
385.36568
384.57445
383.71382
382.78527
381.79043
380.73101
379.60879
378.42561
377.1833
375.88374
374.52878
373.12028
371.66007
370.14993
368.59163
366.98688
365.33736
363.64467
361.91038
360.13601
358.32302
356.4728
354.5867
352.66602
350.71199
348.7258
346.7086
344.66149
342.58552
340.48172
338.35107
336.19452
334.01297
331.80734
329.5785
327.32731
325.05462
322.76128
320.44813
318.11601
315.76576
313.39824
311.0143
308.61481
306.20067
303.77276
301.332
298.87932
296.41566
293.94198
291.45927
377.62171
376.93693
376.18783
375.37524
374.50018
373.56379
372.56731
371.51207
370.39948
369.23097
368.00804
366.73217
365.40487
364.02766
362.60202
361.12944
359.61136
358.04923
356.44444
354.79835
353.11229
351.38753
349.62534
347.82692
345.99343
344.126
342.22572
340.29364
338.3308
336.33819
334.31678
332.2675
330.19126
328.08896
325.96149
323.80972
321.63451
319.43672
317.21721
314.97685
312.7165
310.43704
308.13936
305.82435
303.49294
301.14605
298.78462
296.40962
294.022
291.62278
289.21294
370.36165
369.76609
369.11171
368.39874
367.62757
366.79881
365.91316
364.97149
363.97474
362.92392
361.82014
360.66453
359.45828
358.20258
356.89865
355.54773
354.15105
352.70982
351.22527
349.69859
348.13096
346.52353
344.87743
343.19378
341.47365
339.7181
337.92814
336.10478
334.24899
332.36173
330.44395
328.49655
326.52044
324.51651
322.48562
320.42866
318.34648
316.23996
314.10998
311.9574
309.78311
307.58801
305.37302
303.13904
300.88702
298.61791
296.33268
294.03231
291.7178
289.39016
287.05043
363.66932
363.1463
362.57016
361.94053
361.25728
360.52048
359.73035
358.88729
357.99179
357.04448
356.04606
354.99733
353.89913
352.75236
351.55797
350.31693
349.03024
347.6989
346.32394
344.90638
343.44725
341.94755
340.4083
338.83048
337.21508
335.56306
333.87538
332.15296
330.39672
328.60757
326.78642
324.93414
323.05161
321.13971
319.19929
317.23122
315.23636
313.21557
311.16974
309.09975
307.00649
304.89088
302.75383
300.59629
298.4192
296.22355
294.01031
291.7805
289.53512
287.27521