/*--------------------------------*- C++ -*----------------------------------*\
| =========                 |                                                 |
| \\      /  F ield         | OpenFOAM: The Open Source CFD Toolbox           |
|  \\    /   O peration     | Version:  2312                                  |
|   \\  /    A nd           | Website:  www.openfoam.com                      |
|    \\/     M anipulation  |                                                 |
\*---------------------------------------------------------------------------*/
FoamFile
{
    version     2.0;
    format      ascii;
    arch        "LSB;label=32;scalar=64";
    class       volVectorField;
    location    "0.1";
    object      U;
}
// * * * * * * * * * * * * * * * * * * * * * * * * * * * * * * * * * * * * * //

dimensions      [0 1 -1 0 0 0 0];

internalField   nonuniform List<vector> 
3250
(
(3.8567275 0.0067847456 0)
(3.804871 0.0066790849 0)
(3.7540728 0.006581949 0)
(3.704257 0.0064926154 0)
(3.6553534 0.0064104758 0)
(3.6072969 0.0063349223 0)
(3.5600275 0.0062654022 0)
(3.5134896 0.0062014066 0)
(3.4676316 0.0061424687 0)
(3.4224059 0.0060881591 0)
(3.3777682 0.0060380823 0)
(3.3336776 0.0059918734 0)
(3.2900962 0.0059491956 0)
(3.2469887 0.0059097371 0)
(3.2043227 0.0058732091 0)
(3.1620679 0.0058393437 0)
(3.1201966 0.0058078919 0)
(3.0786831 0.0057786221 0)
(3.0375037 0.0057513183 0)
(2.9966366 0.005725779 0)
(2.9560618 0.0057018158 0)
(2.9157611 0.0056792526 0)
(2.8757178 0.0056579237 0)
(2.8359168 0.0056376741 0)
(2.7963446 0.0056183577 0)
(2.756989 0.0055998369 0)
(2.7178392 0.0055819822 0)
(2.6788857 0.0055646709 0)
(2.6401204 0.0055477873 0)
(2.6015362 0.0055312216 0)
(2.5631274 0.0055148697 0)
(2.5248894 0.0054986326 0)
(2.4868187 0.0054824165 0)
(2.4489128 0.0054661323 0)
(2.4111704 0.005449696 0)
(2.3735912 0.0054330284 0)
(2.3361757 0.0054160571 0)
(2.2989255 0.0053987156 0)
(2.2618432 0.005380947 0)
(2.2249319 0.0053627024 0)
(2.1881959 0.0053439457 0)
(2.15164 0.0053246519 0)
(2.1152701 0.0053048185 0)
(2.0790923 0.0052845258 0)
(2.043114 0.005263786 0)
(2.007343 0.0052423316 0)
(1.9717872 0.0052201733 0)
(1.9364551 0.0051971398 0)
(1.9013558 0.0051731464 0)
(3.8556305 0.020455919 0)
(3.8038241 0.020142152 0)
(3.7530727 0.019854298 0)
(3.7033009 0.019590089 0)
(3.6544385 0.019347573 0)
(3.6064207 0.019124909 0)
(3.5591878 0.018920415 0)
(3.5126842 0.018732541 0)
(3.4668586 0.018559859 0)
(3.4216634 0.018401056 0)
(3.3770547 0.018254916 0)
(3.3329915 0.018120318 0)
(3.289436 0.017996219 0)
(3.2463532 0.017881656 0)
(3.2037105 0.01777573 0)
(3.161478 0.017677606 0)
(3.1196279 0.017586503 0)
(3.0781346 0.017501695 0)
(3.0369744 0.0174225 0)
(2.9961257 0.01734828 0)
(2.9555685 0.017278436 0)
(2.9152845 0.017212405 0)
(2.8752573 0.017149658 0)
(2.8354718 0.017089696 0)
(2.7959145 0.017032049 0)
(2.7565731 0.016976273 0)
(2.7174369 0.016921948 0)
(2.6784966 0.01686868 0)
(2.6397439 0.016816093 0)
(2.6011719 0.016763833 0)
(2.5627749 0.016711566 0)
(2.5245482 0.016658977 0)
(2.4864885 0.016605765 0)
(2.4485932 0.01655165 0)
(2.4108611 0.016496369 0)
(2.3732918 0.016439673 0)
(2.3358859 0.016381333 0)
(2.2986451 0.016321137 0)
(2.2615718 0.016258894 0)
(2.2246694 0.016194431 0)
(2.1879419 0.016127597 0)
(2.1513945 0.016058265 0)
(2.1150326 0.015986333 0)
(2.0788628 0.015911787 0)
(2.0428922 0.015834602 0)
(2.0071287 0.015754488 0)
(1.9715801 0.015671308 0)
(1.9362551 0.015584893 0)
(1.9011627 0.015495147 0)
(3.8534374 0.034103785 0)
(3.8017311 0.033583394 0)
(3.7510734 0.033106162 0)
(3.7013892 0.032668319 0)
(3.6526091 0.032266565 0)
(3.6046687 0.031897839 0)
(3.5575085 0.031559336 0)
(3.5110734 0.031248471 0)
(3.4653125 0.030962867 0)
(3.4201784 0.030700329 0)
(3.3756274 0.03045883 0)
(3.3316189 0.030236493 0)
(3.2881152 0.03003158 0)
(3.2450815 0.029842475 0)
(3.2024855 0.029667675 0)
(3.1602974 0.029505779 0)
(3.1184895 0.029355482 0)
(3.0770365 0.029215562 0)
(3.0359147 0.029084875 0)
(2.9951026 0.028962347 0)
(2.9545804 0.028846972 0)
(2.91433 0.028737803 0)
(2.8743349 0.028633947 0)
(2.8345801 0.028534564 0)
(2.7950523 0.028438862 0)
(2.7557392 0.02834609 0)
(2.7166303 0.028255542 0)
(2.6777162 0.028166548 0)
(2.6389887 0.028078479 0)
(2.600441 0.027990735 0)
(2.5620673 0.027902753 0)
(2.5238633 0.027814 0)
(2.4858254 0.027723974 0)
(2.4479512 0.027632203 0)
(2.4102395 0.027538241 0)
(2.37269 0.027441676 0)
(2.3353033 0.02734212 0)
(2.298081 0.027239216 0)
(2.2610257 0.027132639 0)
(2.2241408 0.027022093 0)
(2.1874304 0.026907314 0)
(2.1508994 0.026788073 0)
(2.1145537 0.026664176 0)
(2.0783995 0.026535508 0)
(2.0424442 0.026401973 0)
(2.0066955 0.026263287 0)
(1.9711613 0.026119186 0)
(1.9358503 0.02596951 0)
(1.9007716 0.025814109 0)
(3.8501509 0.047712853 0)
(3.7985945 0.046988318 0)
(3.7480769 0.046323952 0)
(3.6985241 0.045714534 0)
(3.6498672 0.045155437 0)
(3.6020425 0.04464239 0)
(3.5549912 0.04417148 0)
(3.5086588 0.043739104 0)
(3.4629946 0.043341941 0)
(3.417952 0.04297693 0)
(3.3734874 0.04264124 0)
(3.3295607 0.042332249 0)
(3.2861345 0.042047526 0)
(3.2431744 0.041784813 0)
(3.2006483 0.041542009 0)
(3.1585267 0.041317154 0)
(3.1167821 0.041108419 0)
(3.0753893 0.040914094 0)
(3.034325 0.040732575 0)
(2.9935678 0.04056236 0)
(2.953098 0.040402036 0)
(2.9128978 0.040250274 0)
(2.8729507 0.040105822 0)
(2.833242 0.039967502 0)
(2.7937583 0.039834198 0)
(2.7544876 0.03970486 0)
(2.7154195 0.039578494 0)
(2.6765445 0.039454161 0)
(2.6378548 0.039330972 0)
(2.5993434 0.039208089 0)
(2.5610048 0.03908472 0)
(2.5228346 0.038960116 0)
(2.4848293 0.038833573 0)
(2.4469867 0.038704428 0)
(2.4093056 0.038572058 0)
(2.3717856 0.038435882 0)
(2.3344276 0.038295358 0)
(2.2972331 0.038149985 0)
(2.2602048 0.037999303 0)
(2.223346 0.037842895 0)
(2.186661 0.037680384 0)
(2.1501548 0.037511441 0)
(2.1138331 0.03733578 0)
(2.0777024 0.037153192 0)
(2.0417699 0.036963495 0)
(2.0060432 0.036766384 0)
(1.9705307 0.03656154 0)
(1.9352407 0.036348761 0)
(1.9001825 0.036127879 0)
(3.8457751 0.061267737 0)
(3.7944178 0.060342508 0)
(3.7440866 0.059494142 0)
(3.6947084 0.058716024 0)
(3.6462153 0.058002221 0)
(3.5985446 0.05734728 0)
(3.5516382 0.056746197 0)
(3.5054422 0.056194369 0)
(3.4599068 0.055687551 0)
(3.4149857 0.055221826 0)
(3.3706362 0.054793573 0)
(3.3268183 0.054399438 0)
(3.2834953 0.054036308 0)
(3.2406331 0.053701292 0)
(3.1982 0.053391697 0)
(3.1561667 0.053105014 0)
(3.1145063 0.052838897 0)
(3.0731937 0.052591153 0)
(3.0322059 0.052359726 0)
(2.9915217 0.052142687 0)
(2.9511217 0.051938224 0)
(2.9109883 0.051744629 0)
(2.8711051 0.051560298 0)
(2.8314577 0.051383712 0)
(2.7920327 0.051213442 0)
(2.7528185 0.051048137 0)
(2.7138045 0.050886518 0)
(2.6749817 0.050727378 0)
(2.6363422 0.050569577 0)
(2.5978792 0.050412035 0)
(2.5595873 0.050253735 0)
(2.521462 0.050093713 0)
(2.4835002 0.049931066 0)
(2.4456997 0.04976494 0)
(2.4080592 0.049594537 0)
(2.3705785 0.049419109 0)
(2.3332586 0.049237961 0)
(2.2961011 0.049050448 0)
(2.2591086 0.048855979 0)
(2.2222847 0.048654012 0)
(2.1856335 0.048444063 0)
(2.1491602 0.0482257 0)
(2.1128705 0.047998548 0)
(2.0767709 0.047762305 0)
(2.0408687 0.047516703 0)
(2.0051715 0.047261406 0)
(1.9696877 0.046996048 0)
(1.9344257 0.046720397 0)
(1.8993948 0.046434257 0)
(3.8406282 0.073980195 0)
(3.7895049 0.072869943 0)
(3.7393925 0.071851926 0)
(3.6902193 0.070918258 0)
(3.6419188 0.070061812 0)
(3.594429 0.069276048 0)
(3.5476928 0.068554961 0)
(3.5016572 0.067893023 0)
(3.4562731 0.067285139 0)
(3.411495 0.066726605 0)
(3.3672806 0.066213069 0)
(3.3235907 0.0657405 0)
(3.280389 0.065305157 0)
(3.2376419 0.064903562 0)
(3.1953182 0.064532477 0)
(3.1533889 0.06418888 0)
(3.1118275 0.06386995 0)
(3.0706092 0.063573045 0)
(3.0297113 0.06329569 0)
(2.9891131 0.063035559 0)
(2.9487952 0.06279047 0)
(2.9087403 0.062558364 0)
(2.8689324 0.062337305 0)
(2.829357 0.062125465 0)
(2.7900012 0.061921116 0)
(2.7508534 0.06172263 0)
(2.7119033 0.061528464 0)
(2.6731419 0.061337162 0)
(2.6345614 0.061147345 0)
(2.5961553 0.060957712 0)
(2.5579183 0.060767033 0)
(2.5198461 0.060574149 0)
(2.4819354 0.060377965 0)
(2.4441843 0.060177454 0)
(2.4065917 0.059971652 0)
(2.3691574 0.059759655 0)
(2.3318824 0.059540626 0)
(2.2947684 0.059313786 0)
(2.2578181 0.059078419 0)
(2.2210351 0.058833872 0)
(2.1844238 0.058579555 0)
(2.1479891 0.058314944 0)
(2.1117371 0.058039577 0)
(2.0756742 0.057753069 0)
(2.0398076 0.057455076 0)
(2.0041452 0.057145216 0)
(1.9686951 0.056823098 0)
(1.9334661 0.056488451 0)
(1.8984673 0.056141065 0)
(3.8348714 0.086018528 0)
(3.7840094 0.084736313 0)
(3.7341417 0.08356061 0)
(3.6851978 0.082482359 0)
(3.6371125 0.081493331 0)
(3.5898251 0.080585979 0)
(3.5432793 0.079753369 0)
(3.4974232 0.078989117 0)
(3.4522085 0.078287339 0)
(3.4075904 0.077642596 0)
(3.3635273 0.077049859 0)
(3.3199808 0.076504465 0)
(3.276915 0.076002088 0)
(3.2342968 0.075538703 0)
(3.1920956 0.075110562 0)
(3.1502829 0.074714167 0)
(3.1088324 0.074346249 0)
(3.0677198 0.074003749 0)
(3.0269229 0.073683797 0)
(2.9864209 0.0733837 0)
(2.9461952 0.073100925 0)
(2.9062284 0.072833087 0)
(2.8665048 0.072577938 0)
(2.8270103 0.072333356 0)
(2.7877321 0.07209734 0)
(2.7486588 0.071867995 0)
(2.7097802 0.071643534 0)
(2.6710877 0.071422263 0)
(2.6325736 0.071202584 0)
(2.5942314 0.070982983 0)
(2.556056 0.070762035 0)
(2.5180433 0.070538389 0)
(2.4801901 0.070310778 0)
(2.4424945 0.070078007 0)
(2.4049556 0.069838956 0)
(2.3675734 0.069592579 0)
(2.3303487 0.069337899 0)
(2.2932836 0.069074013 0)
(2.2563808 0.068800089 0)
(2.2196438 0.068515367 0)
(2.1830772 0.06821916 0)
(2.1466861 0.067910853 0)
(2.1104763 0.067589906 0)
(2.0744546 0.067255854 0)
(2.0386281 0.066908282 0)
(2.0030047 0.066546769 0)
(1.9675926 0.066170892 0)
(1.9324006 0.065780351 0)
(1.897438 0.065374918 0)
(3.8280577 0.098308023 0)
(3.7775046 0.096854221 0)
(3.7279261 0.095521163 0)
(3.6792534 0.094298629 0)
(3.6314226 0.093177301 0)
(3.5843745 0.092148629 0)
(3.5380541 0.091204758 0)
(3.4924104 0.090338451 0)
(3.4473962 0.089543033 0)
(3.4029675 0.088812336 0)
(3.3590836 0.088140652 0)
(3.3157068 0.087522688 0)
(3.2728019 0.08695353 0)
(3.2303366 0.086428606 0)
(3.1882805 0.085943657 0)
(3.1466058 0.085494705 0)
(3.1052868 0.085078034 0)
(3.0642996 0.084690163 0)
(3.0236223 0.084327828 0)
(2.9832345 0.083987961 0)
(2.943118 0.08366768 0)
(2.9032556 0.083364267 0)
(2.8636322 0.083075164 0)
(2.8242336 0.082797951 0)
(2.7850474 0.082530347 0)
(2.7460625 0.082270193 0)
(2.707269 0.08201545 0)
(2.6686582 0.081764189 0)
(2.6302228 0.081514584 0)
(2.5919565 0.08126491 0)
(2.5538542 0.08101354 0)
(2.5159121 0.080758936 0)
(2.4781272 0.080499648 0)
(2.4404976 0.080234316 0)
(2.4030225 0.079961662 0)
(2.365702 0.07968049 0)
(2.3285372 0.079389689 0)
(2.2915302 0.079088226 0)
(2.2546837 0.078775153 0)
(2.2180014 0.0784496 0)
(2.1814879 0.078110781 0)
(2.1451484 0.077757991 0)
(2.1089889 0.077390608 0)
(2.0730161 0.07700809 0)
(2.0372372 0.076609951 0)
(2.0016602 0.076195723 0)
(1.9662933 0.075764959 0)
(1.9311453 0.075317323 0)
(1.8962256 0.074852576 0)
(3.8201152 0.11083908 0)
(3.7699214 0.10921508 0)
(3.7206793 0.10772593 0)
(3.6723221 0.10636028 0)
(3.6247876 0.10510772 0)
(3.5780181 0.10395873 0)
(3.53196 0.10290453 0)
(3.4865637 0.10193705 0)
(3.4417829 0.10104882 0)
(3.3975749 0.10023296 0)
(3.3538998 0.099483079 0)
(3.3107207 0.098793262 0)
(3.2680034 0.098158007 0)
(3.2257161 0.097572197 0)
(3.1838293 0.097031061 0)
(3.1423156 0.096530144 0)
(3.10115 0.096065282 0)
(3.0603089 0.095632571 0)
(3.019771 0.095228351 0)
(2.9795166 0.094849181 0)
(2.9395274 0.094491826 0)
(2.8997869 0.094153235 0)
(2.8602802 0.093830535 0)
(2.8209936 0.09352101 0)
(2.7819149 0.093222096 0)
(2.7430332 0.092931367 0)
(2.7043388 0.092646531 0)
(2.6658235 0.092365419 0)
(2.62748 0.092085979 0)
(2.5893023 0.091806272 0)
(2.5512855 0.091524465 0)
(2.5134258 0.09123883 0)
(2.4757205 0.090947738 0)
(2.438168 0.090649657 0)
(2.4007674 0.090343148 0)
(2.3635191 0.09002687 0)
(2.3264243 0.089699568 0)
(2.2894851 0.089360085 0)
(2.2527044 0.089007349 0)
(2.216086 0.088640383 0)
(2.1796346 0.0882583 0)
(2.1433555 0.087860304 0)
(2.1072547 0.087445689 0)
(2.071339 0.087013835 0)
(2.0356158 0.086564189 0)
(2.0000929 0.086096235 0)
(1.9647788 0.085609496 0)
(1.9296823 0.085103606 0)
(1.8948128 0.084578307 0)
(3.81097 0.12360015 0)
(3.7611885 0.1218085 0)
(3.7123327 0.12016559 0)
(3.6643379 0.11865894 0)
(3.6171438 0.11727712 0)
(3.5706944 0.11600963 0)
(3.5249379 0.1148468 0)
(3.4798258 0.11377972 0)
(3.4353135 0.11280017 0)
(3.3913592 0.11190054 0)
(3.3479242 0.11107377 0)
(3.3049727 0.11031334 0)
(3.2624712 0.10961316 0)
(3.2203888 0.10896757 0)
(3.1786967 0.10837129 0)
(3.1373684 0.1078194 0)
(3.0963792 0.10730728 0)
(3.0557064 0.10683061 0)
(3.0153292 0.10638533 0)
(2.9752281 0.10596762 0)
(2.9353857 0.10557391 0)
(2.8957856 0.10520081 0)
(2.8564135 0.10484512 0)
(2.8172558 0.10450384 0)
(2.7783009 0.10417412 0)
(2.7395381 0.10385326 0)
(2.7009581 0.10353871 0)
(2.6625527 0.10322808 0)
(2.6243151 0.10291907 0)
(2.5862395 0.10260953 0)
(2.5483212 0.10229743 0)
(2.5105566 0.10198084 0)
(2.4729432 0.10165795 0)
(2.4354795 0.10132706 0)
(2.3981649 0.10098656 0)
(2.3609998 0.10063498 0)
(2.3239857 0.1002709 0)
(2.2871246 0.099893054 0)
(2.2504199 0.099500236 0)
(2.2138752 0.099091361 0)
(2.1774954 0.098665443 0)
(2.1412859 0.098221591 0)
(2.1052529 0.097759017 0)
(2.0694031 0.097277024 0)
(2.0337441 0.096774991 0)
(1.9982837 0.096252354 0)
(1.9630305 0.095708605 0)
(1.9279933 0.095143347 0)
(1.8931817 0.094556306 0)
(3.8005455 0.13657753 0)
(3.7512324 0.13462205 0)
(3.7028155 0.13282888 0)
(3.6552324 0.13118445 0)
(3.6084252 0.12967633 0)
(3.5623399 0.12829308 0)
(3.5169262 0.12702416 0)
(3.4721375 0.12585986 0)
(3.4279306 0.1247912 0)
(3.384265 0.12380987 0)
(3.3411033 0.12290817 0)
(3.2984107 0.12207895 0)
(3.2561549 0.12131555 0)
(3.2143058 0.1206118 0)
(3.1728355 0.1199619 0)
(3.1317182 0.11936047 0)
(3.0909301 0.11880244 0)
(3.0504491 0.11828307 0)
(3.0102548 0.11779792 0)
(2.9703287 0.1173428 0)
(2.9306534 0.11691377 0)
(2.8912134 0.11650712 0)
(2.8519946 0.11611935 0)
(2.812984 0.11574713 0)
(2.7741703 0.11538735 0)
(2.735543 0.11503704 0)
(2.6970934 0.1146934 0)
(2.6588135 0.11435377 0)
(2.6206967 0.11401566 0)
(2.5827376 0.11367668 0)
(2.5449316 0.1133346 0)
(2.5072755 0.11298729 0)
(2.469767 0.11263277 0)
(2.4324046 0.11226915 0)
(2.3951881 0.11189469 0)
(2.358118 0.11150772 0)
(2.3211959 0.11110673 0)
(2.2844241 0.11069028 0)
(2.247806 0.11025706 0)
(2.2113455 0.10980589 0)
(2.1750474 0.10933565 0)
(2.1389174 0.10884539 0)
(2.1029617 0.10833421 0)
(2.0671872 0.10780135 0)
(2.0316014 0.10724612 0)
(1.9962124 0.10666791 0)
(1.9610287 0.10606618 0)
(1.9260593 0.1054405 0)
(1.8913138 0.10479057 0)
(3.7887633 0.14975528 0)
(3.7399775 0.14764122 0)
(3.6920547 0.14570258 0)
(3.6449354 0.1439248 0)
(3.598564 0.14229445 0)
(3.5528887 0.1407992 0)
(3.5078615 0.13942769 0)
(3.4634374 0.13816941 0)
(3.4195748 0.13701466 0)
(3.3762348 0.13595445 0)
(3.3333814 0.13498045 0)
(3.290981 0.13408492 0)
(3.2490024 0.13326064 0)
(3.2074165 0.1325009 0)
(3.1661966 0.13179944 0)
(3.1253177 0.13115039 0)
(3.0847566 0.13054826 0)
(3.0444921 0.1299879 0)
(3.0045045 0.12946448 0)
(2.9647759 0.12897344 0)
(2.9252895 0.1285105 0)
(2.8860304 0.12807161 0)
(2.8469849 0.12765296 0)
(2.8081405 0.12725093 0)
(2.7694863 0.12686213 0)
(2.7310123 0.12648331 0)
(2.6927101 0.12611143 0)
(2.654572 0.12574359 0)
(2.6165919 0.12537706 0)
(2.5787645 0.12500924 0)
(2.5410856 0.12463769 0)
(2.5035522 0.12426009 0)
(2.4661622 0.12387428 0)
(2.4289145 0.12347819 0)
(2.3918089 0.12306992 0)
(2.3548463 0.12264765 0)
(2.3180283 0.12220972 0)
(2.2813576 0.12175457 0)
(2.2448374 0.12128077 0)
(2.2084721 0.12078701 0)
(2.1722666 0.12027209 0)
(2.1362265 0.11973495 0)
(2.1003583 0.11917462 0)
(2.064669 0.11859026 0)
(2.0291661 0.11798111 0)
(1.9938579 0.11734651 0)
(1.9587529 0.1166859 0)
(1.9238603 0.1159988 0)
(1.8891896 0.11528491 0)
(3.7755434 0.16311511 0)
(3.7273463 0.16084926 0)
(3.6799755 0.15877139 0)
(3.6333743 0.15686597 0)
(3.5874901 0.15511868 0)
(3.5422734 0.15351633 0)
(3.4976783 0.15204675 0)
(3.453662 0.1506987 0)
(3.4101847 0.14946179 0)
(3.3672092 0.14832636 0)
(3.3247009 0.14728348 0)
(3.2826276 0.14632483 0)
(3.2409594 0.14544267 0)
(3.1996685 0.14462976 0)
(3.1587291 0.14387937 0)
(3.1181171 0.14318518 0)
(3.0778105 0.14254129 0)
(3.0377888 0.14194212 0)
(2.9980329 0.14138248 0)
(2.9585257 0.14085744 0)
(2.9192512 0.14036238 0)
(2.880195 0.13989294 0)
(2.8413438 0.13944497 0)
(2.8026859 0.1390146 0)
(2.7642107 0.13859812 0)
(2.7259087 0.13819204 0)
(2.6877719 0.13779306 0)
(2.649793 0.13739804 0)
(2.6119663 0.13700402 0)
(2.5742867 0.1366082 0)
(2.5367505 0.13620791 0)
(2.4993549 0.13580067 0)
(2.462098 0.13538409 0)
(2.424979 0.13495598 0)
(2.3879981 0.13451423 0)
(2.3511561 0.1340569 0)
(2.3144552 0.13358218 0)
(2.2778979 0.13308838 0)
(2.2414879 0.13257394 0)
(2.2052295 0.13203745 0)
(2.1691279 0.1314776 0)
(2.1331889 0.13089324 0)
(2.097419 0.13028332 0)
(2.0618254 0.12964692 0)
(2.0264157 0.12898322 0)
(1.9911982 0.12829152 0)
(1.9561817 0.1275712 0)
(1.9213753 0.12682178 0)
(1.8867888 0.12604293 0)
(3.7608038 0.17663618 0)
(3.7132597 0.17422704 0)
(3.6665012 0.17201774 0)
(3.6204752 0.16999187 0)
(3.5751318 0.16813426 0)
(3.5304244 0.16643092 0)
(3.4863094 0.16486895 0)
(3.4427462 0.1634364 0)
(3.3996971 0.16212222 0)
(3.3571268 0.16091615 0)
(3.3150022 0.15980867 0)
(3.2732928 0.15879089 0)
(3.23197 0.15785458 0)
(3.1910073 0.15699201 0)
(3.1503801 0.15619598 0)
(3.1100654 0.15545975 0)
(3.0700421 0.15477697 0)
(3.0302906 0.15414173 0)
(2.9907929 0.15354841 0)
(2.9515324 0.15299177 0)
(2.9124939 0.15246684 0)
(2.8736637 0.15196893 0)
(2.8350292 0.15149362 0)
(2.7965792 0.15103672 0)
(2.7583035 0.15059426 0)
(2.7201933 0.1501625 0)
(2.6822409 0.14973786 0)
(2.6444397 0.149317 0)
(2.606784 0.1488967 0)
(2.5692693 0.14847397 0)
(2.5318923 0.14804593 0)
(2.4946504 0.1476099 0)
(2.457542 0.14716332 0)
(2.4205668 0.14670382 0)
(2.3837249 0.14622914 0)
(2.3470177 0.14573718 0)
(2.3104473 0.14522599 0)
(2.2740167 0.14469375 0)
(2.2377296 0.14413878 0)
(2.2015907 0.14355955 0)
(2.1656051 0.14295467 0)
(2.1297789 0.14232288 0)
(2.0941188 0.14166306 0)
(2.058632 0.1409742 0)
(2.0233264 0.14025543 0)
(1.9882103 0.139506 0)
(1.9532926 0.13872526 0)
(1.9185825 0.1379127 0)
(1.8840899 0.13706797 0)
(3.7444618 0.19029503 0)
(3.6976372 0.18775294 0)
(3.651554 0.18542171 0)
(3.6061624 0.18328414 0)
(3.5614158 0.18132428 0)
(3.5172705 0.17952743 0)
(3.4736856 0.17787999 0)
(3.430623 0.17636937 0)
(3.388047 0.17498391 0)
(3.3459244 0.17371277 0)
(3.304224 0.17254588 0)
(3.262917 0.17147385 0)
(3.2219762 0.17048794 0)
(3.1813766 0.16957997 0)
(3.1410948 0.1687423 0)
(3.1011092 0.16796777 0)
(3.0613995 0.16724965 0)
(3.0219473 0.16658162 0)
(2.9827355 0.16595774 0)
(2.9437483 0.16537241 0)
(2.9049713 0.16482033 0)
(2.8663916 0.16429653 0)
(2.8279972 0.16379626 0)
(2.7897775 0.16331507 0)
(2.7517231 0.16284871 0)
(2.7138256 0.16239319 0)
(2.6760777 0.16194469 0)
(2.6384734 0.16149963 0)
(2.6010075 0.16105458 0)
(2.5636758 0.16060631 0)
(2.5264754 0.16015178 0)
(2.489404 0.15968809 0)
(2.4524606 0.15921252 0)
(2.4156448 0.15872251 0)
(2.3789573 0.15821565 0)
(2.3423996 0.1576897 0)
(2.3059742 0.15714255 0)
(2.2696842 0.15657227 0)
(2.2335336 0.15597705 0)
(2.1975273 0.15535526 0)
(2.1616706 0.1547054 0)
(2.1259697 0.15402611 0)
(2.0904316 0.1533162 0)
(2.0550634 0.15257461 0)
(2.0198734 0.15180038 0)
(1.9848699 0.15099273 0)
(1.9500619 0.15015096 0)
(1.9154589 0.14927454 0)
(1.8810707 0.14836312 0)
(3.7264336 0.20406545 0)
(3.6803977 0.20140274 0)
(3.6350549 0.19896092 0)
(3.5903591 0.19672209 0)
(3.5462674 0.19466963 0)
(3.5027391 0.19278819 0)
(3.4597364 0.19106356 0)
(3.4172236 0.18948256 0)
(3.3751676 0.18803297 0)
(3.3335372 0.18670342 0)
(3.2923034 0.18548334 0)
(3.2514389 0.18436287 0)
(3.2109185 0.1833328 0)
(3.1707185 0.18238453 0)
(3.130817 0.18151 0)
(3.0911936 0.18070165 0)
(3.0518293 0.17995238 0)
(3.0127068 0.17925553 0)
(2.97381 0.17860479 0)
(2.935124 0.17799425 0)
(2.8966353 0.1774183 0)
(2.8583317 0.17687165 0)
(2.8202021 0.17634929 0)
(2.7822366 0.17584649 0)
(2.7444262 0.17535874 0)
(2.7067633 0.1748818 0)
(2.6692412 0.17441161 0)
(2.6318542 0.17394436 0)
(2.5945977 0.17347641 0)
(2.5574681 0.17300432 0)
(2.5204626 0.17252485 0)
(2.4835796 0.17203492 0)
(2.4468182 0.17153163 0)
(2.4101786 0.17101225 0)
(2.3736616 0.17047421 0)
(2.3372692 0.16991513 0)
(2.3010039 0.16933277 0)
(2.2648693 0.16872505 0)
(2.2288696 0.16809006 0)
(2.1930098 0.16742605 0)
(2.1572956 0.16673143 0)
(2.1217332 0.16600476 0)
(2.0863298 0.16524475 0)
(2.0510929 0.16445028 0)
(2.0160306 0.16362035 0)
(1.9811516 0.1627541 0)
(1.946465 0.16185083 0)
(1.9119803 0.16090997 0)
(1.8777076 0.15993115 0)
(3.7066354 0.21791839 0)
(3.6614593 0.2151495 0)
(3.616924 0.21261041 0)
(3.5729877 0.2102826 0)
(3.5296109 0.20814888 0)
(3.4867566 0.20619335 0)
(3.44439 0.20440125 0)
(3.4024784 0.20275891 0)
(3.360991 0.2012536 0)
(3.319899 0.19987349 0)
(3.2791757 0.19860754 0)
(3.2387957 0.19744547 0)
(3.1987355 0.19637765 0)
(3.1589732 0.19539507 0)
(3.1194884 0.1944893 0)
(3.080262 0.19365241 0)
(3.0412765 0.19287695 0)
(3.0025155 0.19215592 0)
(2.9639641 0.19148269 0)
(2.9256085 0.19085104 0)
(2.8874362 0.19025506 0)
(2.8494357 0.18968918 0)
(2.8115967 0.18914813 0)
(2.7739102 0.18862689 0)
(2.7363678 0.18812072 0)
(2.6989626 0.18762512 0)
(2.6616885 0.18713583 0)
(2.6245403 0.18664879 0)
(2.587514 0.18616017 0)
(2.5506064 0.18566632 0)
(2.5138153 0.1851638 0)
(2.4771394 0.18464935 0)
(2.4405782 0.18411991 0)
(2.4041323 0.18357258 0)
(2.3678029 0.18300464 0)
(2.3315922 0.18241356 0)
(2.2955032 0.18179695 0)
(2.2595396 0.18115263 0)
(2.2237059 0.18047857 0)
(2.1880073 0.17977291 0)
(2.1524498 0.17903396 0)
(2.1170399 0.17826019 0)
(2.0817848 0.17745025 0)
(2.0466924 0.17660293 0)
(2.0117708 0.1757172 0)
(1.9770289 0.17479216 0)
(1.9424759 0.17382705 0)
(1.9081215 0.17282129 0)
(1.8739759 0.1717745 0)
(3.6849835 0.23182185 0)
(3.6407402 0.22896352 0)
(3.5970815 0.22634257 0)
(3.55397 0.22394 0)
(3.5113701 0.22173817 0)
(3.4692486 0.21972071 0)
(3.4275739 0.21787245 0)
(3.3863163 0.21617926 0)
(3.3454478 0.21462801 0)
(3.3049423 0.21320644 0)
(3.2647751 0.21190314 0)
(3.2249231 0.21070742 0)
(3.1853647 0.20960929 0)
(3.1460797 0.20859938 0)
(3.1070494 0.20766891 0)
(3.0682563 0.20680961 0)
(3.0296841 0.20601372 0)
(2.9913179 0.20527391 0)
(2.9531438 0.20458328 0)
(2.9151491 0.20393529 0)
(2.8773225 0.20332377 0)
(2.8396533 0.20274288 0)
(2.8021321 0.20218707 0)
(2.7647506 0.20165111 0)
(2.7275014 0.20112999 0)
(2.6903781 0.200619 0)
(2.6533753 0.20011363 0)
(2.6164885 0.19960964 0)
(2.5797142 0.19910297 0)
(2.5430497 0.1985898 0)
(2.5064932 0.19806649 0)
(2.4700441 0.19752961 0)
(2.4337022 0.19697592 0)
(2.3974685 0.19640238 0)
(2.3613446 0.1958061 0)
(2.325333 0.19518441 0)
(2.2894371 0.19453482 0)
(2.2536609 0.19385499 0)
(2.2180091 0.1931428 0)
(2.1824873 0.19239627 0)
(2.1471017 0.19161363 0)
(2.111859 0.19079326 0)
(2.0767666 0.18993375 0)
(2.0418325 0.18903381 0)
(2.0070652 0.18809237 0)
(1.9724737 0.18710849 0)
(1.9380673 0.18608137 0)
(1.9038558 0.18501043 0)
(1.8698497 0.18389523 0)
(3.6613952 0.24574087 0)
(3.6181593 0.24281227 0)
(3.5754478 0.24012709 0)
(3.533228 0.23766605 0)
(3.4914687 0.23541116 0)
(3.4501403 0.23334574 0)
(3.4092148 0.23145427 0)
(3.3686658 0.22972229 0)
(3.3284682 0.22813632 0)
(3.2885986 0.22668378 0)
(3.2490347 0.2253529 0)
(3.2097557 0.22413267 0)
(3.1707421 0.22301279 0)
(3.1319756 0.22198356 0)
(3.0934391 0.22103591 0)
(3.0551169 0.22016127 0)
(3.0169941 0.21935157 0)
(2.9790572 0.21859922 0)
(2.9412935 0.21789703 0)
(2.9036917 0.2172382 0)
(2.8662413 0.21661632 0)
(2.8289328 0.21602527 0)
(2.7917577 0.21545929 0)
(2.7547086 0.21491288 0)
(2.7177788 0.21438084 0)
(2.6809627 0.21385822 0)
(2.6442557 0.21334032 0)
(2.6076539 0.21282267 0)
(2.5711543 0.21230104 0)
(2.5347549 0.21177141 0)
(2.4984546 0.21122997 0)
(2.4622529 0.21067311 0)
(2.4261503 0.21009744 0)
(2.3901482 0.20949975 0)
(2.3542487 0.20887703 0)
(2.3184545 0.20822646 0)
(2.2827695 0.20754541 0)
(2.2471979 0.20683145 0)
(2.2117449 0.20608232 0)
(2.1764163 0.20529598 0)
(2.1412184 0.20447053 0)
(2.1061583 0.2036043 0)
(2.0712437 0.20269579 0)
(2.0364827 0.20174368 0)
(2.0018841 0.20074681 0)
(1.9674569 0.19970423 0)
(1.9332107 0.19861513 0)
(1.8991555 0.19747886 0)
(1.8653019 0.19629501 0)
(3.6784315 0.26288372 0)
(3.6357894 0.25963764 0)
(3.5936366 0.25666039 0)
(3.5519442 0.25393095 0)
(3.5106844 0.25142986 0)
(3.4698304 0.24913899 0)
(3.4293569 0.24704146 0)
(3.3892394 0.2451215 0)
(3.349455 0.24336443 0)
(3.3099818 0.2417565 0)
(3.2707989 0.24028489 0)
(3.231887 0.23893756 0)
(3.1932274 0.23770325 0)
(3.154803 0.23657136 0)
(3.1165974 0.23553197 0)
(3.0785955 0.23457571 0)
(3.0407832 0.23369377 0)
(3.0031472 0.23287783 0)
(2.9656754 0.23212005 0)
(2.9283567 0.23141299 0)
(2.8911808 0.23074962 0)
(2.8541384 0.23012328 0)
(2.8172212 0.22952764 0)
(2.7804217 0.22895671 0)
(2.7437333 0.22840478 0)
(2.7071504 0.22786644 0)
(2.670668 0.22733652 0)
(2.6342823 0.22681015 0)
(2.5979901 0.22628265 0)
(2.5617891 0.22574961 0)
(2.525678 0.22520684 0)
(2.4896561 0.22465035 0)
(2.4537235 0.22407639 0)
(2.4178812 0.22348139 0)
(2.3821311 0.22286201 0)
(2.3464757 0.22221509 0)
(2.3109182 0.22153769 0)
(2.2754627 0.22082706 0)
(2.2401139 0.22008064 0)
(2.2048773 0.21929609 0)
(2.1697589 0.21847125 0)
(2.1347655 0.21760416 0)
(2.0999044 0.21669305 0)
(2.0651834 0.21573636 0)
(2.0306111 0.21473272 0)
(1.9961962 0.21368095 0)
(1.9619481 0.21258004 0)
(1.9278765 0.21142916 0)
(1.8939916 0.21022765 0)
(1.8603043 0.20897506 0)
(3.6494969 0.27674461 0)
(3.6080876 0.27347151 0)
(3.5670943 0.27046976 0)
(3.5264936 0.26771838 0)
(3.486263 0.26519794 0)
(3.4463803 0.26289028 0)
(3.4068244 0.26077843 0)
(3.3675749 0.25884656 0)
(3.3286123 0.25707982 0)
(3.2899179 0.25546434 0)
(3.2514741 0.2539871 0)
(3.2132639 0.25263589 0)
(3.1752716 0.25139924 0)
(3.137482 0.25026637 0)
(3.0998811 0.24922713 0)
(3.0624557 0.24827196 0)
(3.0251934 0.24739183 0)
(2.9880828 0.24657821 0)
(2.9511133 0.24582305 0)
(2.9142752 0.24511869 0)
(2.8775595 0.24445791 0)
(2.8409582 0.24383382 0)
(2.8044642 0.24323991 0)
(2.7680709 0.24266998 0)
(2.7317728 0.24211812 0)
(2.6955652 0.24157873 0)
(2.6594441 0.24104646 0)
(2.6234063 0.24051625 0)
(2.5874495 0.23998326 0)
(2.5515721 0.2394429 0)
(2.5157733 0.2388908 0)
(2.4800531 0.23832283 0)
(2.4444122 0.23773508 0)
(2.4088523 0.23712384 0)
(2.3733755 0.23648562 0)
(2.3379848 0.23581715 0)
(2.3026841 0.23511534 0)
(2.2674777 0.23437734 0)
(2.2323707 0.23360049 0)
(2.197369 0.23278233 0)
(2.1624789 0.23192062 0)
(2.1277075 0.23101333 0)
(2.0930625 0.23005861 0)
(2.0585519 0.22905484 0)
(2.0241843 0.22800059 0)
(1.9899691 0.22689466 0)
(1.9559156 0.225736 0)
(1.9220337 0.22452379 0)
(1.8883339 0.22325733 0)
(1.8548272 0.22193614 0)
(3.6183106 0.29046993 0)
(3.5782144 0.28719888 0)
(3.5384572 0.28419943 0)
(3.4990214 0.28145094 0)
(3.4598896 0.27893416 0)
(3.4210449 0.27663107 0)
(3.3824702 0.27452479 0)
(3.3441494 0.27259949 0)
(3.3060667 0.27084034 0)
(3.2682068 0.26923339 0)
(3.2305551 0.26776555 0)
(3.1930977 0.26642452 0)
(3.1558214 0.26519871 0)
(3.1187135 0.26407721 0)
(3.0817622 0.26304972 0)
(3.0449563 0.26210652 0)
(3.0082855 0.26123844 0)
(2.9717401 0.26043676 0)
(2.9353112 0.25969326 0)
(2.8989904 0.25900013 0)
(2.8627703 0.25834996 0)
(2.8266443 0.25773569 0)
(2.7906062 0.25715062 0)
(2.7546509 0.25658839 0)
(2.7187738 0.25604291 0)
(2.6829712 0.25550842 0)
(2.6472399 0.2549794 0)
(2.6115777 0.25445062 0)
(2.5759831 0.25391707 0)
(2.5404551 0.25337402 0)
(2.5049938 0.25281695 0)
(2.4695997 0.25224158 0)
(2.4342742 0.25164384 0)
(2.3990194 0.2510199 0)
(2.3638382 0.25036615 0)
(2.328734 0.24967917 0)
(2.293711 0.24895579 0)
(2.2587741 0.24819302 0)
(2.2239289 0.24738811 0)
(2.1891814 0.24653852 0)
(2.1545385 0.24564191 0)
(2.1200076 0.24469618 0)
(2.0855965 0.24369942 0)
(2.0513137 0.24264995 0)
(2.0171681 0.2415463 0)
(1.9831691 0.24038722 0)
(1.9493265 0.23917167 0)
(1.9156503 0.2378988 0)
(1.8821511 0.23656791 0)
(1.8488401 0.23517847 0)
(3.5848022 0.30401049 0)
(3.5460988 0.30077343 0)
(3.5076539 0.29780582 0)
(3.4694559 0.29508758 0)
(3.4314929 0.29259987 0)
(3.3937529 0.29032497 0)
(3.3562235 0.28824623 0)
(3.3188927 0.286348 0)
(3.2817486 0.28461553 0)
(3.2447794 0.28303497 0)
(3.2079739 0.28159325 0)
(3.1713211 0.28027804 0)
(3.1348104 0.27907773 0)
(3.0984319 0.27798134 0)
(3.062176 0.27697851 0)
(3.0260339 0.27605943 0)
(2.989997 0.27521479 0)
(2.9540576 0.27443579 0)
(2.9182084 0.27371407 0)
(2.8824428 0.27304169 0)
(2.8467549 0.2724111 0)
(2.8111393 0.27181509 0)
(2.7755913 0.27124685 0)
(2.7401067 0.27069983 0)
(2.7046823 0.27016783 0)
(2.6693152 0.26964491 0)
(2.6340034 0.26912543 0)
(2.5987455 0.268604 0)
(2.5635408 0.26807548 0)
(2.5283892 0.26753498 0)
(2.4932915 0.26697786 0)
(2.4582488 0.26639969 0)
(2.4232633 0.2657963 0)
(2.3883376 0.26516371 0)
(2.3534751 0.26449819 0)
(2.3186799 0.26379623 0)
(2.2839566 0.26305452 0)
(2.2493106 0.26227 0)
(2.2147478 0.26143982 0)
(2.1802749 0.26056135 0)
(2.1458989 0.25963218 0)
(2.1116276 0.25865012 0)
(2.0774692 0.25761322 0)
(2.0434326 0.25651975 0)
(2.0095268 0.2553682 0)
(1.9757615 0.25415729 0)
(1.9421468 0.25288596 0)
(1.9086929 0.25155338 0)
(1.8754105 0.25015884 0)
(1.8423112 0.24870175 0)
(3.5863187 0.3207681 0)
(3.5489074 0.31731465 0)
(3.5116752 0.31414636 0)
(3.4746178 0.31124283 0)
(3.4377299 0.30858478 0)
(3.4010051 0.30615396 0)
(3.3644363 0.30393316 0)
(3.3280162 0.30190611 0)
(3.2917368 0.30005747 0)
(3.2555903 0.29837274 0)
(3.2195686 0.29683825 0)
(3.1836637 0.29544106 0)
(3.1478678 0.29416894 0)
(3.1121732 0.29301032 0)
(3.0765725 0.29195426 0)
(3.0410587 0.29099038 0)
(3.0056251 0.29010884 0)
(2.9702654 0.2893003 0)
(2.9349737 0.28855589 0)
(2.8997445 0.28786717 0)
(2.864573 0.28722611 0)
(2.8294546 0.28662507 0)
(2.7943856 0.28605675 0)