/*--------------------------------*- C++ -*----------------------------------*\
| =========                 |                                                 |
| \\      /  F ield         | OpenFOAM: The Open Source CFD Toolbox           |
|  \\    /   O peration     | Version:  2312                                  |
|   \\  /    A nd           | Website:  www.openfoam.com                      |
|    \\/     M anipulation  |                                                 |
\*---------------------------------------------------------------------------*/
FoamFile
{
    version     2.0;
    format      ascii;
    arch        "LSB;label=32;scalar=64";
    class       volScalarField;
    location    "0.06";
    object      CH4;
}
// * * * * * * * * * * * * * * * * * * * * * * * * * * * * * * * * * * * * * //

dimensions      [0 0 0 0 0 0 0];

internalField   nonuniform List<scalar> 
3275
(
0.96858396
0.85942318
0.74121271
0.63906023
0.55526382
0.48880237
0.43499455
0.39091354
0.3542864
0.32355505
0.29746953
0.27877843
0.2609194
0.2456011
0.2325018
0.22120751
0.21138016
0.2027468
0.19509508
0.18826009
0.18211259
0.17654894
0.17148498
0.16685259
0.16259568
0.15866766
0.15502947
0.15164809
0.14849542
0.14554736
0.14278312
0.14018466
0.13773623
0.13542399
0.13323576
0.13116072
0.12918924
0.12731271
0.1255234
0.12381431
0.12217915
0.12061215
0.11910807
0.11766214
0.11626975
0.11492664
0.11362936
0.11237435
0.11115834
0.10997825
0.10883123
0.10771462
0.95132428
0.82623865
0.71468844
0.62019855
0.54230139
0.48025697
0.42915546
0.38684324
0.35136239
0.32141258
0.29588012
0.27751016
0.25993445
0.24482172
0.23187274
0.22069118
0.21095003
0.20238369
0.19478489
0.18799227
0.18187913
0.17634368
0.17130311
0.16669033
0.16245001
0.15853614
0.15491011
0.15153926
0.14839576
0.14545575
0.1426986
0.14010643
0.13766359
0.13535636
0.13317262
0.13110163
0.12913382
0.12726062
0.12547433
0.12376802
0.12213538
0.1205707
0.11906874
0.11762473
0.11623414
0.1148928
0.11359712
0.1123436
0.11112897
0.10995018
0.10880439
0.1076889
0.90240239
0.75856219
0.66305321
0.58393857
0.51734054
0.46385083
0.41793943
0.37892675
0.34563949
0.3172027
0.29274674
0.27500212
0.25798742
0.24327755
0.23062455
0.2196656
0.21009497
0.20166142
0.19416758
0.18745907
0.18141418
0.17593478
0.17094076
0.16636701
0.16215973
0.15827406
0.15467228
0.15132244
0.14819726
0.14527331
0.14253033
0.13995071
0.13751906
0.13522183
0.13304708
0.13098419
0.12902371
0.12715716
0.12537693
0.12367615
0.12204858
0.12048854
0.11899086
0.11755076
0.11616381
0.1148259
0.11353339
0.11228282
0.11107093
0.10989472
0.10875134
0.10763809
0.79362177
0.65290346
0.59108411
0.53401417
0.4826283
0.441122
0.4021247
0.36761233
0.33738601
0.31108982
0.28817035
0.27131815
0.25512738
0.24100004
0.22877853
0.21814573
0.2088258
0.20058795
0.1932491
0.18666502
0.18072126
0.17532503
0.17040014
0.16588443
0.16172631
0.15788263
0.154317
0.15099848
0.14790062
0.14500064
0.14227882
0.13971796
0.13730301
0.13502074
0.13285942
0.13080865
0.12885913
0.12700254
0.12523139
0.12353889
0.1219189
0.12036583
0.11887454
0.11744034
0.11605885
0.11472605
0.11343827
0.1121921
0.11098432
0.10981193
0.10867213
0.10756223
0.57294159
0.51931661
0.50198709
0.47541388
0.44348633
0.41202666
0.38235866
0.35350218
0.3269623
0.30329721
0.28229114
0.2665471
0.25142149
0.23803298
0.22636469
0.21615282
0.2071579
0.19917466
0.19203802
0.18561666
0.17980544
0.17451839
0.16968441
0.16524512
0.16115182
0.15736356
0.15384566
0.15056856
0.14750685
0.14463861
0.1419448
0.1394088
0.13701601
0.13475357
0.13261008
0.13057538
0.12864043
0.12679706
0.12503795
0.12335645
0.12174655
0.12020273
0.11871997
0.11729362
0.11591941
0.11459337
0.11331187
0.11207154
0.1108692
0.1097019
0.10856686
0.1074614
0.226334
0.38084154
0.41721014
0.41780597
0.40458081
0.38388105
0.36048457
0.33807081
0.31548236
0.29461791
0.27568415
0.26112846
0.24720628
0.234637
0.22358951
0.21385362
0.20522828
0.19753577
0.19063088
0.18439659
0.17873814
0.17357725
0.16884851
0.16449784
0.16047982
0.15675601
0.1532937
0.15006486
0.14704532
0.14421413
0.14155305
0.1390461
0.13667923
0.13444
0.13231737
0.13030151
0.12838361
0.12655574
0.12481075
0.12314217
0.12154409
0.12001113
0.11853837
0.11712125
0.11575558
0.11443748
0.11316335
0.11192988
0.11073393
0.10957259
0.10844313
0.10734289
0.10680297
0.2815946
0.34674012
0.36687935
0.36631735
0.35556947
0.33910045
0.32173769
0.3035024
0.28544507
0.26864472
0.25528773
0.24264755
0.23094483
0.2205587
0.21133364
0.20310719
0.19572985
0.18907712
0.18304705
0.17755586
0.17253342
0.16792044
0.16366742
0.15973247
0.15607988
0.15267908
0.1495037
0.14653091
0.14374083
0.1411161
0.13864144
0.13630337
0.13408996
0.13199056
0.12999567
0.12809677
0.12628616
0.12455692
0.12290272
0.12131784
0.119797
0.1183354
0.11692859
0.11557246
0.1142632
0.1129973
0.11177147
0.11058266
0.10942798
0.10830474
0.10721033
0.060734472
0.20674551
0.28349815
0.31767832
0.32837118
0.32626163
0.31703445
0.3042377
0.29012159
0.27527529
0.26078444
0.24867475
0.23744293
0.22671717
0.21707041
0.20842137
0.20064759
0.1936297
0.18726585
0.18147064
0.17617245
0.17131024
0.16683154
0.16269205
0.15885387
0.15528439
0.15195545
0.14884261
0.14592457
0.14318269
0.14060061
0.13816386
0.13585965
0.13367659
0.13160451
0.12963431
0.12775778
0.12596752
0.12425683
0.1226196
0.12105027
0.11954374
0.11809531
0.11670067
0.1153558
0.11405699
0.1128008
0.11158401
0.11040362
0.10925681
0.10814092
0.1070534
0.040397501
0.15445263
0.23111508
0.27299214
0.29216414
0.29737942
0.29423933
0.28635921
0.27574764
0.26417181
0.25223734
0.24138314
0.23156738
0.2219752
0.21313277
0.20511878
0.19784757
0.19123103
0.18519136
0.17966091
0.17458113
0.16990085
0.16557507
0.1615652
0.15783772
0.1543635
0.15111707
0.14807615
0.14522115
0.14253484
0.14000196
0.137609
0.13534392
0.13319597
0.13115552
0.1292139
0.1273633
0.12559663
0.12390746
0.12228992
0.12073865
0.11924873
0.11781561
0.1164351
0.11510332
0.11381665
0.11257175
0.11136547
0.11019487
0.10905721
0.10794988
0.10687036
0.029922208
0.11827788
0.18889595
0.2337503
0.25852351
0.26953761
0.27153553
0.26803863
0.2610824
0.25220966
0.24293696
0.23365452
0.22508498
0.21673807
0.20875977
0.20143283
0.19470905
0.18853238
0.18285009
0.17761301
0.17277635
0.16829935
0.16414499
0.16028082
0.15667812
0.15331149
0.15015843
0.14719903
0.14441559
0.14179243
0.13931555
0.13697247
0.13475201
0.13264413
0.1306398
0.12873086
0.12690991
0.12517023
0.12350569
0.12191071
0.12038014
0.11890925
0.11749368
0.1161294
0.11481264
0.11353991
0.11230796
0.11111375
0.10995441
0.10882725
0.10772975
0.10665943
0.023693161
0.09302337
0.15538749
0.19998022
0.22793412
0.24318433
0.24944269
0.24967733
0.24608568
0.23995463
0.23291794
0.22553523
0.21812567
0.21097386
0.20397197
0.19737562
0.19123789
0.18553532
0.18024082
0.17532392
0.17075393
0.16650088
0.16253607
0.15883352
0.15536962
0.15212297
0.14907426
0.14620613
0.14350296
0.14095073
0.13853683
0.13624992
0.13407976
0.1320171
0.13005356
0.12818154
0.12639412
0.12468499
0.12304836
0.12147893
0.11997182
0.11852253
0.11712688
0.11578101
0.1144813
0.11322441
0.11200718
0.11082667
0.10968012
0.10856491
0.10747859
0.10641874
0.019536371
0.075013364
0.12896891
0.17132235
0.20057104
0.21866221
0.22823284
0.23168897
0.2309649
0.22752727
0.22250252
0.21684835
0.21088065
0.20474234
0.19877589
0.19296444
0.18744399
0.18224456
0.17736477
0.17279254
0.16851126
0.1645018
0.16074402
0.15721865
0.15390736
0.150793
0.14785963
0.1450926
0.1424785
0.14000512
0.13766134
0.13543705
0.13332303
0.13131088
0.12939297
0.12756229
0.12581244
0.12413755
0.12253222
0.12099147
0.11951072
0.1180857
0.11671244
0.11538728
0.11410677
0.1128677
0.11166704
0.11050198
0.10936984
0.1082681
0.10719438
0.10614633
0.016521964
0.061819979
0.10813421
0.14722358
0.17639657
0.19615525
0.2081616
0.21425083
0.21604528
0.21490326
0.21191759
0.20781449
0.20321166
0.19825965
0.19314424
0.18822448
0.18334123
0.17866791
0.17422577
0.17001989
0.1660474
0.16229985
0.15876567
0.1554324
0.15228717
0.1493172
0.14651006
0.14385393
0.14133774
0.1389512
0.13668477
0.13452965
0.13247773
0.13052155
0.12865422
0.12686942
0.12516131
0.12352449
0.121954
0.1204452
0.11899381
0.11759584
0.11624757
0.11494552
0.11368644
0.11246727
0.11128514
0.11013734
0.10902131
0.10793464
0.10687502
0.10584018
0.014209175
0.051882435
0.09161271
0.12705913
0.1552359
0.17572497
0.18939281
0.19753697
0.20146254
0.20232929
0.20114693
0.19862151
0.19524851
0.19142704
0.18726995
0.18311891
0.17894667
0.17481621
0.1708302
0.1670091
0.16336318
0.15989421
0.15659903
0.15347196
0.15050567
0.14769181
0.14502155
0.142486
0.14007651
0.13778479
0.13560299
0.13352368
0.13153992
0.12964524
0.12783357
0.12609931
0.12443722
0.12284243
0.1213104
0.11983692
0.11841801
0.11704999
0.1157294
0.11445297
0.11321765
0.11202056
0.11085899
0.10973035
0.10863222
0.10756228
0.10651834
0.10549819
0.01236649
0.044198695
0.078394216
0.1102104
0.13683256
0.15734208
0.17201545
0.18168352
0.18733806
0.18994172
0.19035104
0.18926068
0.18714121
0.18433333
0.18114267
0.17773024
0.17423927
0.17070308
0.16718704
0.16376556
0.16046132
0.15728565
0.15424339
0.15133557
0.14856034
0.1459138
0.14339072
0.14098519
0.13869104
0.13650206
0.13441213
0.13241528
0.13050578
0.12867819
0.12692734
0.12524836
0.12363667
0.12208795
0.12059814
0.11916343
0.11778023
0.11644516
0.11515502
0.11390681
0.11269768
0.11152493
0.11038603
0.10927854
0.10820017
0.10714873
0.10612211
0.1051182
0.010859834
0.03811671
0.067703417
0.096111254
0.12089
0.14091268
0.1560579
0.16678004
0.17378449
0.177835
0.1796514
0.17983834
0.17888035
0.17710056
0.17476169
0.17212866
0.16926836
0.16631761
0.16330781
0.16029679
0.15734642
0.15447659
0.15169947
0.14902265
0.14644967
0.14398097
0.14161487
0.13934844
0.13717803
0.13509954
0.13310864
0.13120084
0.1293717
0.12761683
0.12593198
0.12431309
0.12275624
0.12125771
0.11981394
0.11842157
0.11707738
0.11577832
0.11452151
0.1133042
0.11212375
0.1109777
0.10986366
0.10877939
0.10772271
0.10669159
0.10568402
0.10469798
0.0096046023
0.03320297
0.058956025
0.084269704
0.1071025
0.12630023
0.14150093
0.15287563
0.16088452
0.16610443
0.16912072
0.17045593
0.17053987
0.16971972
0.16823656
0.16630372
0.16410052
0.16169006
0.15918591
0.15661245
0.15402504
0.1514712
0.14896945
0.14653388
0.14417318
0.141892
0.13969205
0.13757332
0.1355347
0.13357422
0.13168933
0.12987708
0.12813432
0.12645776
0.12484411
0.12329013
0.1217926
0.12034843
0.11895459
0.11760816
0.11630636
0.11504648
0.11382594
0.11264227
0.1114931
0.11037615
0.10928925
0.10823032
0.10719736
0.10618844
0.10520172
0.10423525
0.0085436134
0.029161829
0.051714457
0.074272515
0.095176353
0.11334404
0.12828953
0.13998519
0.14869315
0.15482432
0.1588374
0.16116985
0.16220195
0.16224626
0.16156368
0.16034032
0.15872951
0.15687893
0.15484351
0.15270658
0.15050568
0.14827546
0.14605698
0.14387121
0.14173154
0.13964658
0.13762117
0.13565816
0.13375891
0.13192359
0.13015145
0.12844107
0.12679058
0.12519785
0.12366056
0.12217628
0.12074257
0.11935695
0.11801694
0.11672013
0.11546413
0.11424663
0.11306537
0.11191817
0.11080291
0.10971755
0.10866013
0.10762874
0.10662155
0.10563681
0.1046728
0.1037277
0.0076364929
0.025787112
0.04565031
0.06577995
0.08484245
0.10187397
0.11634386
0.12809583
0.13724062
0.14404912
0.14886551
0.15204398
0.15391081
0.15474744
0.15478872
0.15423397
0.15322453
0.15188257
0.15032986
0.14859867
0.14678116
0.1448972
0.14296726
0.14103794
0.1391266
0.13724546
0.13540208
0.13360205
0.13184918
0.13014575
0.12849276
0.1268903
0.12533781
0.12383429
0.12237839
0.12096857
0.11960313
0.11828023
0.11699799
0.11575447
0.11454773
0.11337585
0.11223691
0.11112905
0.1100504
0.10899917
0.10797361
0.10697201
0.10599273
0.10503417
0.1040948
0.10317303
0.0068536166
0.022932468
0.040517342
0.058516251
0.075862129
0.091721373
0.10556874
0.11717313
0.12653588
0.13381491
0.13925498
0.14313246
0.14571862
0.14725932
0.14796737
0.14802291
0.14758117
0.14675672
0.14565204
0.14432297
0.14287476
0.14132736
0.13970683
0.13803874
0.13636143
0.13469052
0.1330356
0.13140494
0.12980478
0.12823945
0.12671157
0.12522276
0.12377374
0.1223646
0.120995
0.11966427
0.11837147
0.11711544
0.11589485
0.11470829
0.11355427
0.11243127
0.11133774
0.11027209
0.10923279
0.10821826
0.10722699
0.10625749
0.10530829
0.10437797
0.10346518
0.006172584
0.020491386
0.03613043
0.052259831
0.068028475
0.082726325
0.095861569
0.1071672
0.11657022
0.12414139
0.13004227
0.13447939
0.13767091
0.13982523
0.14113061
0.14175272
0.14183342
0.14149583
0.14083434
0.13991297
0.13881044
0.13759855
0.13625954
0.13487963
0.13344029
0.13198489
0.13052362
0.12906771
0.12762581
0.12620415
0.12480685
0.123437
0.12209657
0.12078673
0.11950812
0.11826097
0.11704506
0.11585993
0.11470483
0.11357886
0.112481
0.11141014
0.11036508
0.10934457
0.10834736
0.10737214
0.10641763
0.10548255
0.10456563
0.10366564
0.10278124
0.0055760734
0.018384539
0.032349214
0.046834795
0.061165
0.074741814
0.087118405
0.098018071
0.10732116
0.11503411
0.12125137
0.12611903
0.12980606
0.13248413
0.13431611
0.13545064
0.13601877
0.13613314
0.13589091
0.1353658
0.13461809
0.13370713
0.13267932
0.13154951
0.13036774
0.12913304
0.12786912
0.12659218
0.12531322
0.12404012
0.12277822
0.12153217
0.12030505
0.11909911
0.11791591
0.11675658
0.11562167
0.11451136
0.11342549
0.11236367
0.11132534
0.11030983
0.1093163
0.10834383
0.10739145
0.10645815
0.10554288
0.10464457
0.10376218
0.10289464
0.10204072
0.0050504569
0.016551641
0.029065616
0.042102319
0.055125148
0.067636312
0.079238312
0.089660224
0.098756057
0.10648694
0.11289509
0.11807625
0.12215574
0.12527084
0.12755883
0.12914976
0.13016188
0.13069944
0.13085195
0.13069551
0.13029667
0.12969804
0.12894702
0.12809172
0.12713938
0.12613481
0.12507619
0.1239811
0.12286887
0.1217485
0.12062609
0.11950808
0.11839854
0.11730068
0.11621695
0.11514946
0.11409941
0.11306767
0.11205463
0.1110604
0.1100849
0.10912789
0.1081889
0.10726734
0.10636253
0.10547373
0.10460016
0.10374099
0.10289537
0.10206246
0.10124126
0.0045848596
0.01494605
0.026195253
0.03795154
0.049788999
0.061296738
0.07212787
0.082026832
0.090835486
0.09848462
0.1049772
0.11036826
0.11474588
0.11821596
0.12089084
0.12288149
0.1242922
0.12521749
0.1257406
0.12593329
0.12585847
0.12556851
0.12510086
0.12449966
0.12378225
0.12300125
0.1221356
0.1212381
0.12029561
0.11933145
0.11835161
0.11736529
0.11637704
0.115391
0.11441036
0.1134384
0.1124768
0.11152715
0.11059038
0.10966702
0.10875751
0.10786206
0.10698055
0.1061127
0.10525814
0.10441642
0.103587
0.1027693
0.10196268
0.10116654
0.0041704988
0.013531114
0.023671405
0.034293048
0.045057446
0.055627421
0.06570474
0.075055144
0.083518585
0.091007251
0.097495661
0.1030068
0.10759757
0.11134602
0.11434118
0.11667526
0.11843811
0.11971367
0.12057783
0.12109774
0.1213323
0.12133069
0.12113806
0.12079003
0.12031088
0.11973312
0.1190807
0.11835708
0.11759389
0.11679226
0.11595665
0.11510511
0.11424125
0.11337025
0.11249573
0.11162271
0.1107528
0.10988853
0.10903122
0.10818182
0.10734129
0.10651035
0.10568915
0.10487772
0.10407601
0.10328386
0.10250101
0.10172708
0.10096165
0.10020417
0.0038002057
0.012277628
0.021440699
0.031054093
0.04084796
0.050546666
0.059896772
0.068688314
0.076766436
0.084033695
0.090445123
0.09599923
0.1007274
0.10468366
0.1079358
0.11055825
0.11262658
0.1142137
0.11538742
0.1162092
0.11673377
0.11700856
0.1170752
0.11697064
0.11672528
0.11636003
0.11590269
0.11536159
0.11477392
0.11412013
0.1134435
0.11272977
0.11199262
0.11123941
0.11047316
0.10970232
0.10892682
0.10815093
0.10737609
0.10660343
0.10583465
0.10507102
0.10431283
0.10356041
0.10281405
0.10207389
0.10133992
0.10061202
0.099889971
0.09917328
0.0034680732
0.01116203
0.019459981
0.028175007
0.037091374
0.045984271
0.054640235
0.062874378
0.07054171
0.077541782
0.083817365
0.089349041
0.094147905
0.098247715
0.10169751
0.10455531
0.10688295
0.10874235
0.11019282
0.11128949
0.11208246
0.1126163
0.11293055
0.11305992
0.1130339
0.11287881
0.11261631
0.11226057
0.11183543
0.11134148
0.11081462
0.11023304
0.10963332
0.10900048
0.10834297
0.10767799
0.10699872
0.10631403
0.10562439
0.1049309
0.10423632
0.10354268
0.10285004
0.10215904
0.10147038
0.1007845
0.10010166
0.099421952
0.09874545
0.098071631
0.0031691907
0.0101651
0.017694012
0.025606472
0.0337294
0.041879621
0.049878552
0.057565653
0.064808528
0.071508509
0.077601701
0.083056316
0.087867861
0.092053467
0.095646017
0.098688764
0.10123076
0.10332322
0.1050169
0.10636025
0.10739831
0.10817209
0.1087185
0.10907036
0.10925628
0.10930097
0.10922704
0.10905306
0.10879327
0.10846062
0.10807101
0.1076364
0.10716485
0.10664829
0.10610487
0.10555194
0.10496854
0.10437807
0.10377619
0.10316366
0.10254529
0.10192434
0.10129956
0.10067217
0.10004337
0.099413917
0.098784298
0.098154853
0.097526073
0.096897101
0.0028994431
0.0092710025
0.016113749
0.023307434
0.030712663
0.038180192
0.045561357
0.052718298
0.059532467
0.06591026
0.071785368
0.077118127
0.081892637
0.086112806
0.089797949
0.092978394
0.095691525
0.097978494
0.099881649
0.10144266
0.10270126
0.10369442
0.10445603
0.10501667
0.10540355
0.10564067
0.10574934
0.10574734
0.10565185
0.10547749
0.10523318
0.10493469
0.10458735
0.10419228
0.10377227
0.1033169
0.10283547
0.10234415
0.10183243
0.10130154
0.10076072
0.1002156
0.099660601
0.099098654
0.098531661
0.097960601
0.097386161
0.096808826
0.096230101
0.095647736
0.002655356
0.0084665641
0.014695048
0.021243477
0.027999136
0.03484033
0.041643735
0.048291997
0.054680609
0.060723078
0.06635385
0.071528916
0.076224503
0.080434436
0.084166965
0.087441369
0.090284671
0.092728747
0.094807948
0.096557269
0.098011013
0.099201877
0.1001604
0.10091465
0.10149002
0.10190929
0.10219279
0.10235821
0.1024216
0.10239723
0.10229735
0.10213509
0.10191355
0.10164293
0.10133296
0.10098365
0.10061208
0.10021151
0.099787153
0.099344558
0.09888137
0.098417144
0.097932789
0.09743766
0.096934197
0.096423297
0.095905837
0.095381978
0.094856305
0.094321801
0.0024339749
0.0077407378
0.013417679
0.019385565
0.025552879
0.031820247
0.038085597
0.044249711
0.0502216
0.055922973
0.061291238
0.066280824
0.070862942
0.075024095
0.078763836
0.08209226
0.085027404
0.087592809
0.0898154
0.091723769
0.093346846
0.094712936
0.095849052
0.096780485
0.097530545
0.09812047
0.098569443
0.098894568
0.099111263
0.099233349
0.099272827
0.099241268
0.099146436
0.09899793
0.098799974
0.098560603
0.098287905
0.097982469
0.097647369
0.097296492
0.096915924
0.09652261
0.096113822
0.095688571
0.095250255
0.094801062
0.094342409
0.093871891
0.093404647
0.092917725
0.0022327709
0.0070841848
0.01226456
0.017709045
0.023343016
0.029085175
0.03485114
0.040557459
0.046125704
0.05148616
0.056580624
0.061364041
0.065804932
0.069884774
0.073596583
0.076943064
0.079934671
0.082587634
0.084922142
0.086960794
0.088727343
0.090245726
0.091539347
0.092630577
0.093540423
0.094288341
0.094892163
0.095368082
0.095730759
0.095993432
0.096167932
0.096264955
0.096293046
0.096261096
0.096175773
0.096044704
0.095872413
0.095662357
0.095421013
0.095152817
0.094856508
0.094538033
0.094207225
0.093851974
0.093479565
0.093093191
0.092696281
0.092285559
0.09186643
0.091433326
0.0020495663
0.0064889537
0.011221172
0.01619286
0.021342912
0.026604658
0.031908371
0.037184121
0.042364843
0.047389276
0.052204411
0.056767175
0.061045233
0.065016941
0.068670613
0.072003264
0.075019135
0.077728204
0.080144699
0.082285743
0.08417022
0.085817838
0.087248413
0.088481328
0.089535153
0.090427395
0.091174356
0.091791065
0.092291299
0.092687574
0.092991235
0.093212514
0.093360279
0.093442801
0.093467013
0.093440099
0.093367815
0.093252994
0.09310482
0.092921462
0.092707952
0.09247007
0.092209827
0.091926122
0.091622124
0.091298472
0.090966752
0.090614734
0.090248281
0.089868299
0.0018824744
0.0059482291
0.010275088
0.014818924
0.019529485
0.024351953
0.029228686
0.034101239
0.038912619
0.043609566
0.048144599
0.052477584
0.0565767
0.06041875
0.063988888
0.067279907
0.07029117
0.073027465
0.075497869
0.077714626
0.079692142
0.081446135
0.082992939
0.084348965
0.08553029
0.086552364
0.087429822
0.088176366
0.088804714
0.089326579
0.089752646
0.090092655
0.090355341
0.090548657
0.090679669
0.090754988
0.090780122
0.090759888
0.090700469
0.090603918
0.09047169
0.090314858
0.090127052
0.089914451
0.0896799
0.089423426
0.089150002
0.088857382
0.08854785
0.088221844
0.0017298522
0.0054561327
0.0094156113
0.01357162
0.017882657
0.022303515
0.026786496
0.03128283
0.035744312
0.040125034
0.044383034
0.048481671
0.052390605
0.056086297
0.059552061
0.062777707
0.0657589
0.06849629
0.070994631
0.073261921
0.075308551
0.077146558
0.078788984
0.080249353
0.081541257
0.082678047
0.083672605
0.084537191
0.085283348
0.085921847
0.086462642
0.086914873
0.087286895
0.087586346
0.087820135
0.087994577
0.088115242
0.088187161
0.088215197
0.088202912
0.088153273
0.088073106
0.087959668
0.087817644
0.087653738
0.08746281
0.087250142
0.087016713
0.086765111
0.08649369
0.0015902614
0.0050075656
0.0086334808
0.012437396
0.016384891
0.020438567
0.024558893
0.028705201
0.03283686
0.036914565
0.040901636
0.044765161
0.04847691
0.05201391
0.055358678
0.058499132
0.06142824
0.064143464
0.066646071
0.068940463
0.07103352
0.072933966
0.074651798
0.076197803
0.077583164
0.07881914
0.079916828
0.08088698
0.081739881
0.082485259
0.083132235
0.083689285
0.084164234
0.084564306
0.084896125
0.085165738
0.085378611
0.085539709
0.085653586
0.085724109
0.085754761
0.085749629
0.085710369
0.085640876
0.085543024
0.08541764
0.085267317
0.085092468
0.084900835
0.084683658
0.0014624373
0.0045980811
0.0079206367
0.011404436
0.015020814
0.018738727
0.022525352
0.026346772
0.030168818
0.033958017
0.037682582
0.041313344
0.044824541
0.048194391
0.051405425
0.054444559
0.057302956
0.059975701
0.062461341
0.064761352
0.066879626
0.068821973
0.070595644
0.072208895
0.073670623
0.074990059
0.076176527
0.077239249
0.078187201
0.079029011
0.07977288
0.080426537
0.080997205
0.0814916
0.081915951
0.082276005
0.082577011
0.082823771
0.083020665
0.083171602
0.08328015
0.083349756
0.083382994
0.083382624
0.083351451
0.083291236
0.08320362
0.083089075
0.082952501
0.082791143
0.0013452621
0.0042237822
0.0072700304
0.010462392
0.013776899
0.017187696
0.020667464
0.024187899
0.027720302
0.031236277
0.034708469
0.038111301
0.041421628
0.044619263
0.047687337
0.050612468
0.053384762
0.055997656
0.058447639
0.060733884
0.062857832
0.064822807
0.066633639
0.068296299
0.069817567
0.071204755
0.072465469
0.073607417
0.074638257
0.075565481
0.07639632
0.077137687
0.07779613
0.078377812
0.078888486
0.079333514
0.07971787
0.080046124
0.08032247
0.080550729
0.080734403
0.080876721
0.080980478
0.081048339
0.081082757
0.081085607
0.081059318
0.08100384
0.080924604
0.080817751
0.0012377443
0.0038812373
0.0066754693
0.0096021659
0.012641207
0.015770985
0.018968704
0.022210713
0.025472922
0.028731302
0.031962438
0.035144095
0.038255742
0.041279006
0.044198016
0.046999624
0.049673481
0.052211998
0.054610201
0.056865502
0.058977406
0.060947187
0.062777602
0.064472606
0.06603707
0.06747653
0.068796969
0.070004636
0.071105891
0.072107081
0.073014448
0.073834048
0.074571703
0.075232958
0.075823059
0.076346926
0.076809171
0.077214088
0.077565645
0.077867497
0.078123009
0.078335273
0.078507081
0.07864101
0.078739408
0.078804318
0.078837693
0.078840792
0.078816642
0.078763949
0.0011390009
0.003567412
0.0061314896
0.0088157234
0.011603162
0.014475685
0.01741422
0.020398969
0.023409704
0.026426127
0.029428273
0.032396942
0.035314105
0.038163283
0.040929852
0.043601268
0.046167191
0.04861952
0.050952336
0.053161777
0.055245855
0.05720422
0.059037917
0.060749173
0.062341175
0.063817859
0.065183712
0.066443607
0.067602657
0.068666092
0.06963916
0.07052705
0.071334824
0.072067375
0.072729388
0.073325319
0.073859366
0.074335487
0.074757377
0.075128474
0.075451962
0.075730781
0.075967629
0.076164988
0.076325125
0.076450081
0.076541729
0.076601696
0.076631817
0.076632724
0.0010482447
0.0032796135
0.0056332499
0.008095946
0.010653367
0.013290269
0.015990646
0.018737894
0.021515011
0.024304863
0.027090473
0.029855345
0.032583776
0.035261156
0.037874232
0.040411307
0.042862391
0.04521927
0.04747551
0.049626408
0.05166888
0.053601322
0.055423422
0.057135975
0.058740729
0.06024021
0.061637563
0.062936394
0.064140647
0.065254484
0.066282188
0.067228082
0.068096465
0.068891557
0.069617455
0.070278107
0.070877282
0.071418557
0.071905311
0.072340716
0.072727742
0.073069145
0.073367479
0.073625105
0.073844193
0.074026726
0.074174523
0.074289243
0.07437246
0.074425326
0.0009647726
0.0030154462
0.0051764447
0.007436503
0.0097834504
0.012204419
0.014685941
0.017214056
0.019774457
0.022352676
0.024934301
0.027505212
0.030051816
0.032561282
0.035021751
0.037422519
0.039754174
0.042008686
0.044179452
0.046261283
0.048250364
0.050144161
0.051941314
0.053641489
0.055245236
0.056753882
0.05816939
0.059494238
0.060731298
0.061883735
0.062954915
0.063948325
0.06486751
0.065716015
0.066497341
0.067214906
0.06787202
0.068471861
0.069017461
0.069511691
0.069957264
0.070356728
0.070712458
0.071026664
0.071301394
0.071538537
0.071739837
0.071906899
0.072041211
0.07214399
0.00088794036
0.0027727623
0.0047572425
0.0068317462
0.0089859267
0.01120888
0.013489239
0.015815239
0.018174818
0.020555752
0.022945814
0.025332944
0.027705431
0.030052086
0.032362412
0.03462675
0.036836409
0.038983754
0.041062267
0.043066569
0.044992412
0.046836634
0.048597094
0.050272588
0.051862729
0.053367845
0.054788899
0.05612738
0.057385209
0.058564642
0.059668196
0.060698569
0.061658582
0.062551121
0.063379091
0.064145379
0.064852821
0.065504176
0.066102109
0.066649175
0.067147799
0.067600287
0.068008807
0.068375399
0.068701958
0.068990253
0.069241924
0.069458496
0.069641374
0.069791744
0.00081717249
0.0025496251
0.0043722021
0.0062766287
0.0082540877
0.010295328
0.01239072
0.014530324
0.016703951
0.018901257
0.021111867
0.023325497
0.025532085
0.027721928
0.029885807
0.032015111
0.034101935
0.036139174
0.038120581
0.040040809
0.041895422
0.043680882
0.045394519
0.047034482
0.048599665
0.050089616
0.051504472
0.052844887
0.054111955
0.055307133
0.056432166
0.057489029
0.058479862
0.059406924
0.060272545
0.061079087
0.061828911
0.062524354
0.063167697
0.063761159
0.064306873
0.064806877
0.065263112
0.065677414
0.066051512
0.066387027
0.066685476
0.066948275
0.067176739
0.067371982
0.00075194773
0.0023442954
0.0040182218
0.0057666091
0.007581911
0.0094562613
0.011381497
0.013349188
0.015350707
0.017377288
0.019420118
0.021470428
0.023519593
0.025559228
0.027581288
0.029578159
0.031542744
0.03346854
0.035349695
0.037181051
0.038958175
0.040677361
0.042335622
0.043930666
0.045460855
0.046925151
0.048323043
0.049654502
0.05091993
0.052120092
0.05325606
0.054329158
0.055340907
0.056292982
0.05718717
0.058025328
0.058809358
0.059541172
0.060222673
0.060855733
0.061442177
0.06198377
0.062482209
0.062939111
0.063356015
0.063734375
0.064075568
0.064380881
0.064651521
0.064888508
0.0006917919
0.0021552013
0.0036925096
0.0052975847
0.0069639582
0.0086849116
0.010453509
0.0122626
0.014104851
0.015972818
0.017859003
0.019755926
0.021656197
0.023552589
0.025438111
0.027306076
0.029150174
0.03096453
0.032743756
0.034482996
0.036177958
0.037824926
0.039420771
0.040962938
0.042449431
0.043878782
0.04525
0.046562523
0.047816192
0.049011199
0.05014804
0.051227473
0.05225047
0.053218179
0.054131883
0.054992972
0.055802906
0.056563193
0.05727536
0.057940937
0.058561438
0.059138347
0.059673107
0.06016711
0.06062169
0.061038121
0.061417616
0.061761326
0.062070332
0.062345538
0.00063627248
0.0019809165
0.0033925402
0.0048658531
0.0063953016
0.0079751393
0.0095994444
0.011262137
0.012956985
0.014677642
0.016417716
0.018170819
0.019930617
0.021690886
0.023445569
0.025188825
0.02691508
0.028619083
0.030295942
0.031941169
0.033550704
0.035120945
0.036648753
0.038131459
0.039566857
0.040953191
0.042289128
0.043573717
0.044806363
0.0459868
0.047115052
0.048191399
0.049216339
0.050190557
0.051114889
0.051990294
0.052817827
0.053598611
0.054333817
0.055024643
0.055672299
0.056277985
0.05684289
0.057368171
0.057854953
0.058304324
0.058717323
0.059094952
0.059438152
0.059747696
0.00058499378
0.0018201427
0.0031160213
0.0044680592
0.0058714801
0.0073213602
0.0088126371
0.010340113
0.011898478
0.013482323
0.015086179
0.016704578
0.018332085
0.019963343
0.021593108
0.023216294
0.024828009
0.026423592
0.027998651
0.029549097
0.031071167
0.032561449
0.034016899
0.035434846
0.036812998
0.038149436
0.039442603
0.040691281
0.041894558
0.04305182
0.044162718
0.045227144
0.046245203
0.047217185
0.048143536
0.049024836
0.049861771
0.050655116
0.051405708
0.052114433
0.052782204
0.053409952
0.05399861
0.054549106
0.055062349
0.055539235
0.05598063
0.056387385
0.056760306
0.057100022
0.00053759304
0.0016716952
0.0028608661
0.0041011527
0.0053884409
0.0067185031
0.0080870023
0.0094894884
0.01092141
0.012378144
0.013855013
0.015347316
0.016850383
0.018359595
0.019870418
0.021378431
0.022879354
0.024369078
0.025843693
0.027299517
0.028733112
0.030141314
0.031521241
0.032870308
0.034186232
0.035467036
0.036711041
0.037916862
0.039083379
0.040209727
0.041295279
0.042339627
0.043342562
0.044304048
0.045224205
0.046103287
0.046941659
0.047739782
0.048498192
0.049217487
0.049898305
0.050541318
0.051147217
0.051716702
0.052250473
0.05274923
0.053213668
0.053644487
0.054042401
0.00049373711
0.0015344908
0.0026251716
0.0037623561
0.0049424946
0.0061619502
0.0074169974
0.0087038163
0.010018498
0.011357065
0.012715504
0.014089777
0.015475852
0.016869743
0.018267525
0.019665358
0.021059509
0.022446371
0.023822489
0.025184575
0.026529532
0.027854469
0.029156715
0.03043383
0.031683615
0.032904113
0.034093613
0.035250646
0.036373971
0.037462562
0.038515601
0.03953246
0.04051269
0.041456002
0.04236225
0.043231417
0.044063597
0.044858981
0.045617839
0.046340508
0.047027379
0.047678883
0.048295483
0.048877663
0.04942592
0.049940762
0.050422702
0.050872255
0.051289863
0.00045312008
0.0014075391
0.0024072017
0.0034491389
0.0045302821
0.005647495
0.0067975687
0.0079772127
0.0091830588
0.010411676
0.011659596
0.01292334
0.014199428