/*--------------------------------*- C++ -*----------------------------------*\
| =========                 |                                                 |
| \\      /  F ield         | OpenFOAM: The Open Source CFD Toolbox           |
|  \\    /   O peration     | Version:  2312                                  |
|   \\  /    A nd           | Website:  www.openfoam.com                      |
|    \\/     M anipulation  |                                                 |
\*---------------------------------------------------------------------------*/
FoamFile
{
    version     2.0;
    format      ascii;
    arch        "LSB;label=32;scalar=64";
    class       volScalarField;
    location    "0.06";
    object      CO2;
}
// * * * * * * * * * * * * * * * * * * * * * * * * * * * * * * * * * * * * * //

dimensions      [0 0 0 0 0 0 0];

internalField   nonuniform List<scalar> 
3275
(
0.0023179351
0.01409477
0.028933464
0.042426992
0.053313417
0.061381555
0.067140428
0.070993748
0.073293598
0.074361007
0.074496946
0.074067997
0.073132941
0.071898555
0.070499805
0.069023997
0.067527956
0.066046181
0.064599637
0.063200931
0.061857375
0.06057258
0.059347618
0.05818216
0.057074905
0.056023945
0.055027016
0.054081667
0.053185378
0.052335636
0.051529982
0.050766053
0.050041592
0.049354465
0.048702665
0.04808431
0.047497643
0.046941027
0.04641294
0.045911966
0.045436794
0.044986206
0.044559077
0.044154353
0.043770947
0.04340793
0.043064564
0.042740061
0.042433684
0.042144751
0.041872636
0.041616782
0.003336143
0.016824899
0.031095165
0.043826472
0.054081887
0.061675745
0.067165243
0.070867945
0.073089557
0.074123237
0.074252571
0.073830273
0.072911807
0.071697315
0.070318872
0.068862378
0.067383982
0.065917965
0.064485313
0.063098772
0.061765831
0.060490296
0.059273417
0.058115029
0.057013973
0.055968463
0.05497634
0.054035243
0.053142727
0.052296343
0.051493689
0.050732446
0.050010398
0.049325445
0.048675609
0.048059032
0.047473979
0.046918832
0.046392083
0.045892333
0.045418279
0.044968714
0.044542519
0.044138638
0.043756031
0.043393787
0.043051125
0.042727273
0.042421502
0.042133136
0.041861546
0.041606155
0.0061688659
0.02191434
0.034928823
0.046263107
0.055392788
0.062118461
0.067136925
0.070574957
0.072660207
0.073637586
0.073759798
0.073353634
0.072470181
0.071296076
0.069958445
0.068540566
0.067097352
0.065662711
0.064257704
0.062895364
0.061583545
0.060326434
0.059125645
0.057981335
0.056892625
0.055857974
0.054875431
0.053942812
0.053057822
0.05221814
0.051421472
0.050665592
0.049948364
0.049267754
0.048621842
0.04800882
0.047426997
0.04687479
0.046350724
0.045853426
0.045381618
0.044934114
0.044509809
0.044107662
0.043726672
0.043365946
0.043024687
0.042702137
0.042397577
0.04211034
0.041839798
0.041585367
0.011413851
0.028527911
0.039241824
0.04897718
0.056807044
0.062430867
0.066916579
0.070041381
0.071969525
0.072888229
0.073013472
0.072637728
0.071810573
0.070698125
0.069421914
0.068061725
0.066670873
0.065282841
0.063918865
0.062592437
0.061311969
0.060082217
0.058905331
0.057781945
0.056711597
0.055693105
0.054724824
0.053804832
0.052931057
0.052101366
0.051313626
0.050565749
0.049855714
0.049181589
0.048541539
0.04793383
0.047356834
0.046809023
0.046288971
0.045795344
0.045326902
0.044882488
0.044461022
0.04406149
0.043682929
0.043324463
0.042985302
0.042664699
0.042361952
0.042076404
0.041807432
0.041554455
0.0177719
0.033127016
0.043140119
0.051007392
0.057451135
0.062547088
0.066364894
0.069177941
0.070974237
0.071856676
0.072008267
0.071683333
0.070937063
0.069908458
0.068714312
0.067430497
0.066108638
0.064781871
0.063471777
0.062192505
0.060953213
0.059759417
0.058613966
0.057518119
0.056471955
0.055474761
0.054525292
0.053621966
0.052763002
0.051946513
0.051170579
0.050433288
0.049732774
0.049067236
0.048434951
0.047834283
0.047263687
0.046721708
0.046206981
0.045718228
0.045254255
0.044813947
0.04439626
0.044000213
0.043624881
0.043269415
0.042933039
0.042615024
0.042314685
0.04203138
0.041764498
0.041513464
0.014676062
0.033636835
0.04404379
0.051343949
0.057102044
0.061837705
0.065470103
0.067986631
0.069711938
0.070603971
0.070814411
0.070562498
0.069918019
0.068990044
0.067892481
0.066697646
0.06545575
0.064199808
0.062951946
0.061727138
0.06053543
0.059383216
0.058274154
0.057210216
0.056192102
0.055219633
0.054292023
0.053408079
0.052566354
0.051765243
0.051003068
0.050278124
0.049588722
0.048933211
0.048309998
0.047717561
0.047154449
0.046619293
0.0461108
0.045627755
0.045169019
0.044733524
0.04432027
0.043928315
0.043556771
0.043204822
0.04287171
0.04255673
0.042259216
0.041978544
0.041714116
0.041465368
0.0082214608
0.029571878
0.041922557
0.050088018
0.055922352
0.060450086
0.064053917
0.066532499
0.068217181
0.069170352
0.069472548
0.069315481
0.068789715
0.067976026
0.06698608
0.065889502
0.064735514
0.063557267
0.06237763
0.061212543
0.060073047
0.058966504
0.057897452
0.056868634
0.055881426
0.054936228
0.05403275
0.053170225
0.052347565
0.051563476
0.050816543
0.050105285
0.049428207
0.048783824
0.048170686
0.047587393
0.047032601
0.046505033
0.046003475
0.045526783
0.045073879
0.044643748
0.044235435
0.043848043
0.043480724
0.043132694
0.042803223
0.042491627
0.042197265
0.04191953
0.041657841
0.04141165
0.0054074567
0.023765057
0.037585105
0.046989061
0.053613669
0.058380965
0.06199433
0.064653906
0.066396435
0.067448116
0.067884959
0.067855494
0.067472409
0.066795724
0.065931857
0.06494945
0.063897187
0.062808685
0.061707826
0.060611737
0.059532625
0.058478963
0.057456298
0.056468253
0.055516972
0.054603515
0.053728158
0.052890617
0.052090221
0.051326028
0.050596925
0.049901693
0.049239056
0.048607722
0.048006405
0.047433848
0.04688883
0.046370179
0.045876778
0.045407561
0.044961522
0.044537707
0.044135218
0.043753205
0.043390867
0.043047458
0.042722279
0.042414675
0.042124031
0.041849762
0.041591307
0.041348135
0.0041398406
0.018891328
0.032465563
0.042748009
0.050170469
0.055567511
0.059432734
0.062277738
0.064241032
0.065439105
0.066047941
0.066185098
0.065963744
0.065448781
0.064729
0.063876308
0.062939242
0.061952246
0.060940508
0.059922548
0.058911906
0.057918303
0.056948404
0.056006816
0.055096533
0.054219351
0.053376176
0.052567267
0.051792414
0.051051074
0.050342473
0.049665683
0.049019681
0.048403391
0.047815714
0.047255552
0.046721827
0.046213487
0.045729521
0.045268957
0.044830867
0.044414372
0.044018633
0.04364286
0.043286301
0.042948252
0.042628054
0.042325085
0.042038758
0.041768515
0.041513818
0.041274157
0.0034515017
0.015335603
0.027661615
0.038077167
0.046081444
0.05203267
0.056406649
0.059512647
0.061713577
0.063168458
0.063968595
0.06430866
0.064270039
0.063937431
0.063379185
0.06267083
0.061861665
0.060987335
0.0600746
0.059143569
0.058209252
0.057282728
0.056371882
0.055482385
0.054618159
0.053781798
0.052974898
0.052198311
0.051452335
0.050736863
0.050051498
0.049395634
0.048768527
0.04816934
0.047597182
0.047051137
0.046530282
0.046033703
0.045560506
0.045109822
0.044680818
0.044272691
0.043884676
0.043516044
0.0431661
0.042834192
0.042519701
0.042222043
0.041940665
0.04167504
0.041424655
0.041189023
0.0030078314
0.01277207
0.023609601
0.033556694
0.04175461
0.048120952
0.052917561
0.056458222
0.058892815
0.060627101
0.061677285
0.062235944
0.062405996
0.062265818
0.061887008
0.061335955
0.06066615
0.059914685
0.059110111
0.058274264
0.057423729
0.056571017
0.055725309
0.054893404
0.054080209
0.05328917
0.052522622
0.051782053
0.051068307
0.050381752
0.049722396
0.049089986
0.048484082
0.047904108
0.047349404
0.046819249
0.046312894
0.045829575
0.045368528
0.044929003
0.044510264
0.044111599
0.043732323
0.043371775
0.043029324
0.042704372
0.042396348
0.042104712
0.041828948
0.041568562
0.041323072
0.041092016
0.0026829014
0.010880994
0.020321814
0.029498783
0.037532137
0.044088459
0.049209798
0.053116251
0.055877595
0.057854036
0.059199178
0.059996229
0.060384879
0.060447964
0.060258966
0.05987697
0.059356242
0.058736509
0.058048243
0.057315071
0.056555201
0.055782604
0.0550078
0.054238758
0.053481404
0.052740079
0.052017889
0.051316993
0.050638816
0.049984227
0.049353669
0.048747266
0.048164903
0.04760629
0.047071011
0.046558561
0.046068378
0.045599861
0.045152392
0.044725343
0.044318092
0.043930025
0.043560541
0.043209058
0.042875013
0.042557868
0.042257107
0.041972236
0.041702782
0.041448288
0.041208304
0.040982398
0.0024244854
0.0094431308
0.017671465
0.025992458
0.033625793
0.040149538
0.045448794
0.049604964
0.052719176
0.054959921
0.056550975
0.057615937
0.058229045
0.058501975
0.058504601
0.058301701
0.057937423
0.057456579
0.056891472
0.056267474
0.055604398
0.054917637
0.054219067
0.053517826
0.05282088
0.052133479
0.051459525
0.05080187
0.050162542
0.049542936
0.04894395
0.048366106
0.047809635
0.047274547
0.04676069
0.04626779
0.045795482
0.045343345
0.044910914
0.044497698
0.044103194
0.043726894
0.043368292
0.043026889
0.042702197
0.042393744
0.042101073
0.041823741
0.041561322
0.0413134
0.041079563
0.040859406
0.0022085458
0.0083163281
0.01552111
0.023009027
0.030125325
0.036447387
0.041777466
0.046093275
0.049449563
0.051986692
0.053812521
0.055109934
0.055964591
0.05644556
0.05664344
0.056617468
0.056417072
0.056080245
0.055643585
0.05513406
0.054572969
0.053977042
0.053359471
0.052730537
0.052098231
0.051468711
0.050846682
0.050235695
0.049638395
0.049056717
0.048492031
0.047945272
0.047417029
0.046907632
0.046417202
0.045945709
0.045493002
0.045058845
0.044642939
0.044244939
0.043864471
0.043501139
0.043154539
0.042824262
0.042509901
0.042211055
0.041927329
0.041658339
0.041403709
0.041163069
0.040936045
0.040722265
0.0020226797
0.0074085606
0.01375662
0.020478542
0.027040389
0.033055005
0.038294805
0.042672988
0.046194871
0.048945368
0.051030107
0.052535647
0.053604302
0.054302418
0.054690194
0.054841378
0.054802413
0.054614393
0.054309676
0.053918532
0.053463513
0.052962553
0.052430065
0.051877406
0.051313552
0.050745544
0.050178872
0.049617785
0.049065545
0.04852463
0.047996891
0.047483683
0.04698597
0.046504404
0.046039397
0.045591168
0.045159791
0.044745228
0.044347351
0.043965971
0.043600847
0.043251708
0.042918255
0.042600176
0.04229715
0.042008851
0.041734954
0.041475135
0.041229074
0.040996449
0.04077693
0.040570179
0.0018596824
0.0066593771
0.012289907
0.018326144
0.024340631
0.029993405
0.035056661
0.039410508
0.043021283
0.045928108
0.048204418
0.049936568
0.051191521
0.052083362
0.052665191
0.052987081
0.053107557
0.053065876
0.052896083
0.052625684
0.052279582
0.051876731
0.051432619
0.050959569
0.050467472
0.049964204
0.049456005
0.048947797
0.04844345
0.047945981
0.047457719
0.046980444
0.046515494
0.046063855
0.045626232
0.045203107
0.044794782
0.044401423
0.044023084
0.043659735
0.043311281
0.042977574
0.042658432
0.042353644
0.042062977
0.041786189
0.041523025
0.041273229
0.041036538
0.040812686
0.040601389
0.040402344
0.0017148886
0.0060281767
0.011054502
0.016484862
0.021981203
0.027252444
0.032084904
0.036346264
0.039977267
0.042982308
0.045404975
0.047308905
0.048763645
0.049822323
0.050577585
0.051071683
0.051345025
0.051446581
0.051409107
0.051261342
0.05102565
0.050722955
0.050369621
0.049978792
0.049561174
0.049125402
0.04867841
0.048225757
0.047771891
0.047320355
0.046873945
0.04643486
0.046004814
0.045585126
0.045176798
0.044780576
0.044396997
0.044026437
0.043669136
0.04332523
0.042994772
0.042677747
0.04237409
0.042083696
0.041806429
0.04154213
0.041290624
0.04105172
0.040825222
0.04061092
0.040408582
0.040217948
0.0015850136
0.0054869627
0.010000463
0.014898495
0.019915526
0.02480672
0.029378757
0.033498967
0.037093837
0.040143533
0.042666835
0.044706167
0.046315184
0.047550585
0.048454782
0.049102873
0.049529233
0.049767729
0.049858996
0.04983128
0.049707047
0.049505382
0.049244272
0.048937478
0.048596406
0.048230351
0.047846861
0.047452077
0.047050988
0.046647632
0.046245256
0.045846466
0.04545334
0.045067529
0.04469033
0.044322751
0.04396557
0.043619371
0.043284586
0.042961519
0.042650376
0.042351278
0.042064283
0.041789395
0.041526577
0.041275758
0.041036844
0.040809718
0.040594248
0.040390288
0.040197667
0.040016179
0.0014676593
0.0050160099
0.0090900745
0.013521079
0.018100571
0.022625291
0.026924448
0.030871626
0.034387167
0.037435646
0.040016837
0.042154899
0.043888302
0.045262098
0.046322666
0.047103499
0.047666638
0.048041597
0.048255573
0.048344839
0.048328901
0.048228883
0.048060446
0.047838646
0.047575478
0.04728077
0.046962588
0.046627577
0.04628122
0.045928015
0.045571625
0.045215043
0.044860701
0.044510567
0.044166229
0.043828955
0.043499758
0.043179434
0.042868604
0.042567746
0.042277218
0.041997281
0.041728117
0.041469842
0.041222523
0.040986179
0.040760799
0.040546342
0.040342747
0.040149931
0.039967796
0.039796236
0.0013609962
0.004601248
0.0082949359
0.012315426
0.01649854
0.020676796
0.024701922
0.0284572
0.031862175
0.034872295
0.037473709
0.039675827
0.041503614
0.042990892
0.044175235
0.045094787
0.045777072
0.04627369
0.046608896
0.046811092
0.046899781
0.046897967
0.046822642
0.046685893
0.046501238
0.046278879
0.046027275
0.045753489
0.045463441
0.045162039
0.044853321
0.04454064
0.044226759
0.043913951
0.043604081
0.043298671
0.042998961
0.042705957
0.04242047
0.042143147
0.041874501
0.041614933
0.041364752
0.041124188
0.040893409
0.040672532
0.040461628
0.040260736
0.040069864
0.039888999
0.039718112
0.0012635844
0.0042323871
0.0075936633
0.011251721
0.015077046
0.018931825
0.022688934
0.026242957
0.029516025
0.032459043
0.035048979
0.037283937
0.039177524
0.040753367
0.042040681
0.043071367
0.043877719
0.044482032
0.044926648
0.045235521
0.045427463
0.045520731
0.045534896
0.045483338
0.045377043
0.045227378
0.045043057
0.04483146
0.04459888
0.044350582
0.044090923
0.043823583
0.043551628
0.043277617
0.043003672
0.042731559
0.042462736
0.042198413
0.041939584
0.041687066
0.041441523
0.041203496
0.04097342
0.04075164
0.04053843
0.040333999
0.040138506
0.039952068
0.039774768
0.039606655
0.039447718
0.0011742658
0.0039017122
0.0069700643
0.010306413
0.013808732
0.017363841
0.020863309
0.024213438
0.027341016
0.030195553
0.032748281
0.034989036
0.036922275
0.038562902
0.039932636
0.0410572
0.041963904
0.04267983
0.04322286
0.043627904
0.043916536
0.044103955
0.044204563
0.044234943
0.044206645
0.044129421
0.044012506
0.043863539
0.043689141
0.043494875
0.043285331
0.04306449
0.042835686
0.042601738
0.042365003
0.042127472
0.041890812
0.041656425
0.041425483
0.041198966
0.040977687
0.040762323
0.040553435
0.040351481
0.040156838
0.039969813
0.03979065
0.039619546
0.039456658
0.039302099
0.03915591
0.0010920932
0.0036033098
0.0064116529
0.0094610744
0.01267118
0.015949533
0.019204084
0.022352305
0.0253267
0.02807749
0.030572739
0.032796571
0.03474642
0.036430051
0.037862585
0.039063909
0.040056416
0.040863238
0.041507039
0.042001899
0.04237588
0.042651365
0.042838067
0.042946969
0.042994361
0.042988191
0.042938603
0.042852161
0.042736191
0.042596495
0.042437763
0.042264275
0.042079581
0.041886735
0.041688297
0.041486467
0.041283101
0.041079783
0.040877853
0.040678443
0.040482513
0.040290871
0.0401042
0.039923069
0.039747959
0.039579268
0.039417329
0.039262418
0.039114766
0.038974562
0.038841948
0.0010162819
0.0033325571
0.0059086445
0.0087010569
0.011646339
0.014669311
0.017692417
0.020643554
0.023461342
0.026098037
0.028520379
0.03070879
0.032655586
0.034362817
0.035839927
0.037101523
0.038165351
0.039050644
0.039776881
0.040362879
0.040819008
0.041171265
0.041438409
0.041625098
0.041745711
0.041808451
0.041824104
0.041800113
0.041742333
0.041657367
0.041549749
0.041424149
0.041284235
0.041133286
0.040974017
0.040808819
0.040639714
0.040468455
0.040296538
0.040125238
0.039955652
0.039788715
0.039625223
0.039465857
0.039311196
0.039161729
0.039017875
0.038879988
0.03874837
0.038623291
0.00094617426
0.0030857757
0.0054532578
0.0080145591
0.010719458
0.013506981
0.016312232
0.019072774
0.021733472
0.024249483
0.026587542
0.028725882
0.03065318
0.032367031
0.033872147
0.035178503
0.0362996
0.037250964
0.038048949
0.038709818
0.039249039
0.039675112
0.040014589
0.040273503
0.040463657
0.040595042
0.040673606
0.04071043
0.040709962
0.040679771
0.040623114
0.04054562
0.040450842
0.040342331
0.04022286
0.040095023
0.039960964
0.039822596
0.039681557
0.039539248
0.039396896
0.039255553
0.039116126
0.038979398
0.038846043
0.038716641
0.038591689
0.038471617
0.038356793
0.038247515
0.00088121323
0.0028599928
0.00503922
0.0073919634
0.0098783325
0.012448959
0.015049853
0.017627428
0.020132719
0.022524322
0.024769931
0.026846733
0.02874094
0.030446761
0.031965055
0.033301844
0.034466852
0.035472183
0.036331218
0.037057716
0.037665011
0.038164695
0.038576008
0.038900579
0.039153785
0.039350302
0.039491381
0.039587308
0.039642607
0.039665853
0.039659923
0.039630495
0.039580851
0.039515076
0.039435767
0.039345807
0.039247374
0.039142555
0.039033107
0.038920534
0.038806185
0.038691224
0.038576654
0.038463356
0.038352096
0.038243536
0.038138251
0.038036742
0.037939437
0.037846687
0.00082092257
0.0026527706
0.00466141
0.0068253474
0.0091127642
0.011483712
0.013893491
0.016296477
0.018649661
0.020915366
0.023062927
0.02506937
0.026919374
0.028604665
0.030123044
0.031477228
0.032673654
0.033721345
0.034630929
0.03541381
0.036081507
0.036645324
0.0371189
0.037510971
0.037825236
0.038080645
0.03828049
0.038432948
0.038543812
0.038619228
0.038662807
0.038680542
0.038675927
0.03865301
0.038613904
0.038562135
0.038499683
0.03842888
0.038351576
0.038269327
0.038183619
0.038095709
0.038006684
0.037917516
0.037829056
0.037742045
0.037657128
0.037574875
0.037495777
0.037420241
0.00076489121
0.0024620839
0.0043155974
0.0063081202
0.0084141526
0.010601358
0.012832866
0.015070111
0.017275691
0.019415772
0.021461775
0.023391249
0.025188095
0.02684231
0.028349336
0.02970919
0.030925505
0.032004588
0.032954563
0.033784638
0.034504544
0.035124266
0.035654476
0.036103694
0.036479014
0.036793671
0.037047635
0.03725191
0.037416217
0.037541778
0.037635129
0.037698457
0.037738196
0.037757669
0.037758623
0.03774523
0.037718832
0.03768232
0.037637547
0.037586037
0.037529461
0.037469146
0.037406232
0.037341788
0.037276744
0.037211906
0.037147983
0.037085615
0.037025354
0.036967666
0.00071276123
0.0022862299
0.0039982477
0.0058347468
0.0077751864
0.0097933629
0.011858945
0.013939534
0.016002898
0.018019023
0.019961686
0.021809448
0.023546054
0.025160404
0.026646194
0.028001285
0.029226971
0.030327204
0.031307871
0.032176154
0.032940028
0.033607933
0.03418861
0.034689951
0.035119424
0.035486244
0.035796249
0.036051006
0.036264625
0.036437044
0.036578091
0.036686922
0.036770466
0.036831425
0.036871739
0.036896342
0.036905941
0.036903814
0.03689182
0.036871243
0.036844142
0.036811834
0.036775462
0.036736218
0.036695103
0.036652969
0.03661058
0.036568649
0.03652779
0.036488517
0.00066421829
0.0021237603
0.003706377
0.0054005369
0.0071896042
0.0090523061
0.010963736
0.012896811
0.014823981
0.016718908
0.018557875
0.020320786
0.021991708
0.023558987
0.025015097
0.02635624
0.027581796
0.028693717
0.029695923
0.030593755
0.03139352
0.032102136
0.032726832
0.033274611
0.033752363
0.034167358
0.034525362
0.034830969
0.035093572
0.035311508
0.035496578
0.035647952
0.035774523
0.035875537
0.035955574
0.036017515
0.036062366
0.036094635
0.036115268
0.036125675
0.036128265
0.036124247
0.036114683
0.036100989
0.036084205
0.036065208
0.03604479
0.036023761
0.036002792
0.035982431
0.00061898406
0.0019734306
0.0034374403
0.0050014817
0.0066520052
0.008371699
0.010140128
0.011934747
0.013732169
0.015509509
0.01724559
0.018921887
0.02052313
0.022037554
0.023456875
0.02477607
0.025993003
0.027107958
0.028123157
0.0290423
0.029870154
0.030612212
0.031274386
0.031862686
0.032383153
0.03284188
0.033244307
0.033595465
0.033901498
0.034165381
0.034394668
0.034587361
0.034753696
0.034892749
0.035011561
0.035109629
0.035190227
0.035256296
0.035309309
0.035350198
0.035382708
0.03540701
0.035424299
0.035436417
0.035444262
0.035448729
0.035450592
0.035450833
0.035450161
0.035449129
0.00057681021
0.0018341606
0.0031892467
0.0046341268
0.0061577003
0.0077458372
0.0093817727
0.011046795
0.01272117
0.014385183
0.016020143
0.017609226
0.019138076
0.020595153
0.021971808
0.023262182
0.024462979
0.025573133
0.026593429
0.027526129
0.028374615
0.029143075
0.029836229
0.030459076
0.031016765
0.03151448
0.031957146
0.032349508
0.032696458
0.033001902
0.033270726
0.033505188
0.033711663
0.033887981
0.034042848
0.034175334
0.034290595
0.03439016
0.034474437
0.03454658
0.034608517
0.034661069
0.034704873
0.034742981
0.034775628
0.034803793
0.034828063
0.034849858
0.034869787
0.034888422
0.00053747355
0.0017050043
0.0029598931
0.004295472
0.0057025924
0.0071696814
0.0086829757
0.010226978
0.011785119
0.013340543
0.01487692
0.016379171
0.017834036
0.019230445
0.020559698
0.021815443
0.022993546
0.024091882
0.025110052
0.026049086
0.026911142
0.02769924
0.028417008
0.029068473
0.029657909
0.030189697
0.03066816
0.031097544
0.031482057
0.031825529
0.032131903
0.032404331
0.032646809
0.032861069
0.033052448
0.03321852
0.033366567
0.033498459
0.033612595
0.033715403
0.033806759
0.033886446
0.033957759
0.034021615
0.034078795
0.034130876
0.034177329
0.03422091
0.03426169
0.034300215
0.00050077215
0.0015851264
0.0027477129
0.0039828924
0.0052830796
0.0066387592
0.0080386166
0.0094698333
0.010918549
0.012370448
0.01381139
0.01522802
0.016608273
0.017941747
0.019219923
0.020436235
0.021586007
0.02266632
0.02367583
0.024614536
0.025483543
0.026284833
0.02702105
0.027695314
0.028311066
0.028871937
0.029381623
0.02984382
0.03026219
0.030640238
0.030981393
0.031288798
0.031565675
0.031814565
0.032038717
0.032239417
0.032421264
0.032582294
0.03272748
0.032858397
0.032979378
0.033084628
0.033183355
0.033272906
0.03335415
0.033429556
0.033499288
0.033564627
0.033626008
0.033684499
0.00046652221
0.0014737832
0.0025512349
0.0036940754
0.0048959774
0.0061490844
0.0074440761
0.0087703543
0.010116359
0.011469996
0.012819118
0.01415202
0.015457873
0.016727071
0.017951467
0.019124496
0.020241184
0.02129807
0.022293081
0.023225383
0.024095194
0.024903595
0.025652353
0.026343757
0.026980478
0.027565441
0.028101719
0.028592456
0.029040808
0.029449879
0.029822702
0.030162166
0.030471101
0.030752076
0.031007707
0.031240052
0.031451828
0.031644106
0.031820403
0.031978436
0.032126539
0.032258292
0.032383211
0.03249814
0.032602263
0.032701237
0.032793875
0.032881089
0.032962807
0.03304132
0.00043455548
0.0013703086
0.0023691519
0.0034269704
0.004538455
0.0056970892
0.0068951762
0.0081239504
0.0093737894
0.010634519
0.011895776
0.013147395
0.014379771
0.015584169
0.016752955
0.017879742
0.018959449
0.019988282
0.020963654
0.021884079
0.022749047
0.023558876
0.024314569
0.025017671
0.025670146
0.026274263
0.026832498
0.027347458
0.027821815
0.028258251
0.028659422
0.029027917
0.029366248
0.029676804
0.029961908
0.030223665
0.030464238
0.030685319
0.030889043
0.031076327
0.031251199
0.031409166
0.031558812
0.031696144
0.031825477
0.031947211
0.032061791
0.032171173
0.032272059
0.032370882
0.00040471721
0.0012741013
0.002200294
0.0031797482
0.0042079831
0.0052795683
0.0063881284
0.0075264057
0.0086863994
0.0098595792
0.011037153
0.012210364
0.013370781
0.014510569
0.015622697
0.016701094
0.017740733
0.018737655
0.019688939
0.020592624
0.021447626
0.022253635
0.023010998
0.02372061
0.024383801
0.025002239
0.025577842
0.026112704
0.02660903
0.027069088
0.02749516
0.027889515
0.028254375
0.028591892
0.028904149
0.029193127
0.02946074
0.029708727
0.029938846
0.03015256
0.030351854
0.03053686
0.030711568
0.030872222
0.031024291
0.031167667
0.031303085
0.031433751
0.031555777
0.031673936
0.00037686439
0.0011846163
0.0020436088
0.0029507682
0.0039022914
0.0048936313
0.0059194892
0.0069738455
0.0080500494
0.0091409658
0.010239169
0.011337166
0.012427628
0.013503605
0.014558723
0.01558732
0.016584554
0.017546442
0.018469875
0.019352573
0.020193026
0.020990422
0.021744568
0.022455798
0.023124887
0.023752963
0.024341431
0.024891907
0.025406154
0.025886035
0.026333472
0.026750407
0.027138775
0.02750048
0.027837378
0.028151262
0.028443868
0.028716835
0.028971746
0.02921007
0.029433306
0.029642518
0.029839528
0.03002441
0.030199231
0.030365658
0.030520281
0.030672357
0.030812273
0.030950572
0.00035086434
0.0011013563
0.0018981441
0.0027385512
0.0036193326
0.0045366629
0.0054861215
0.0064627047
0.0074608808
0.0084746901
0.009497883
0.010524084
0.011546971
0.012560448
0.013558807
0.01453686
0.015490041
0.016414462
0.017306949
0.018165029
0.018986899
0.019771369
0.020517814
0.021226102
0.021896531
0.022529754
0.023126716
0.023688592
0.024216734
0.024712624
0.025177832
0.025613984
0.026022728
0.026405715
0.026764578
0.02710091
0.027416266
0.027712146
0.027989994
0.028251183
0.028497039
0.028728756
0.02894764
0.029154574
0.029350782
0.029537358
0.029714488
0.029885561
0.030044606
0.030202453
0.00032659355
0.0010238659
0.001763034
0.0025417572
0.0033572534
0.004206289
0.0050851615
0.0059897002
0.0069152989
0.0078569823
0.0088095033
0.0097674623
0.010725441
0.01167814
0.012620507
0.013547859
0.014455967
0.015341128
0.016200207
0.017030643
0.01783045
0.018598176
0.019332864
0.020034011
0.020701515
0.021335624
0.021936876
0.022506053
0.023044129
0.023552231
0.024031598
0.024483549
0.024909456
0.025310717
0.025688739
0.026044917
0.026380622
0.026697198
0.026995948
0.027278128
0.027544947
0.02779755
0.028037068
0.028264497
0.028480848
0.028687075
0.02888395
0.029072742
0.029252963
0.029428189
0.00030393735
0.00095172637
0.0016374877
0.0023591674
0.0031143693
0.0039003475
0.0047139887
0.0055518058
0.0064099562
0.0072842852
0.008170394
0.0090637247
0.0099596594
0.010853625
0.011741197
0.012618197
0.013480773
0.01432547
0.015149269
0.015949617
0.016724432
0.017472094
0.018191415
0.018881607
0.019542247
0.020173244
0.02077479
0.021347319
0.02189147
0.022408043
0.02289797
0.023362284
0.023802089
0.024218538
0.024612815
0.024986116
0.025339632
0.025674541
0.025992003
0.026293146
0.026579065
0.026850814
0.027109415
0.027355823
0.027590961
0.027815707
0.02803088
0.028237342
0.028435622
0.028627017
0.00028278927
0.00088455253
0.0015207797
0.0021896683
0.0028891436
0.003616864
0.0043702009
0.0051462292
0.0059417359
0.0067532481
0.0075770801
0.0084093934
0.0092462688
0.010083785
0.010918099
0.011745524
0.012562601
0.013366158
0.014153353
0.014921712
0.015669138
0.016393919
0.017094716
0.017770541
0.018420728
0.01904491
0.019642992
0.020215113
0.020761615
0.02128301
0.021779951
0.022253203
0.02270362
0.023132124
0.023539681
0.023927289
0.024295962
0.024646716
0.024980561
0.025298493
0.025601487
0.025890495
0.026166437
0.026430195
0.026682614
0.026924505
0.027156641
0.027379764
0.027594529
0.027801676
0.00026304594
0.00082198587
0.0014122455
0.0020322393
0.0026801699
0.0033540297
0.0040515909
0.0047703911
0.0055077362
0.0062607189
0.0070262498
0.0078011005
0.0085819551
0.0093654674
0.010148323
0.0109273
0.011699326
0.012461533
0.013211297
0.013946272
0.014664412
0.015363981
0.016043555
0.016702016
0.017338526
0.017952508
0.018543638
0.019111809
0.019657112
0.020179807
0.020680298
0.02115911
0.021616868
0.022054273
0.02247209
0.022871125
0.023252216
0.023616219
0.023963997
0.024296412
0.024614318
0.024918554
0.025209941
0.025489274
0.02575732
0.026014817
0.026262471
0.026500956
0.026730895
0.02695289
0.00024461203
0.00076369061
0.0013112683
0.0018859439
0.0024861565
0.0031101834
0.0037561265
0.0044219056
0.0051052552
0.0058037357
0.0065147551
0.0072355989
0.0079634668
0.0086955144
0.0094288988
0.010160825
0.010888594
0.011609643
0.012321586
0.013022244
0.013709666
0.014382152
0.01503825
0.015676767
0.016296753
0.016897489
0.017478469
0.018039395
0.018580151
0.019100782
0.01960148
0.020082555
0.020544426
0.020987595
0.021412635
0.021820175
0.022210883
0.022585461
0.022944626
0.023289107
0.023619637
0.023936942
0.02424174
0.024534733
0.024816606
0.02508802
0.025349612
0.025601989
0.025845723
0.026081359
0.0002273976
0.0007093551
0.0012172738
0.001749915
0.0023059159
0.0028837944
0.0034819322
0.0040985632
0.0047317758
0.0053795176
0.0060396101
0.0067097696
0.0073876333
0.008070789
0.0087568088
0.0094432839
0.010127861
0.010808275
0.011482386
0.012148202
0.012803903
0.013447862
0.014078652
0.014695052
0.015296052
0.015880837
0.016448782
0.016999438
0.017532527
0.018047921
0.01854563
0.019025784
0.019488618
0.019934457
0.020363701
0.020776813
0.021174304
0.021556727
0.02192466
0.022278703
0.022619467
0.022947568
0.023263621
0.023568232
0.023861999
0.024145505
0.024419314
0.024683967
0.024939981
0.025187849
0.00021131752
0.00065868788
0.0011297292
0.0016233463
0.0021383481
0.0026734517
0.0032272737
0.0037983141
0.0043849518
0.0049854548
0.0055979877
0.0062206266
0.0068513776
0.0074881978
0.0081290195
0.0087717765
0.0094144307
0.010055
0.010691583
0.011322386
0.01194574
0.012560121
0.013164162
0.01375666
0.014336582
0.014903065
0.015455405
0.015993053
0.016515606
0.017022803
0.017514508
0.017990698
0.018451454
0.018896946
0.01932742
0.019743191
0.020144625
0.020532136
0.020906173
0.021267209
0.02161574
0.021952272
0.022277317
0.022591391
0.022895001
0.023188649
0.023472825
0.023748004
0.024014641
0.024273177
0.00019629103
0.00061141521
0.0010481377
0.0015054899
0.0019824296
0.0024778452
0.002990546
0.0035192541
0.0040625948
0.0046190988
0.0051872153
0.0057653199
0.0063517281
0.0069447102
0.0075425084
0.0081433561
0.0087454977
0.0093472099
0.009946822
0.010542736
0.011133444
0.011717545
0.012293756
0.012860926
0.013418035
0.013964204
0.014498691
0.015020886
0.015530301
0.016026576
0.016509461
0.016978815
0.017434589
0.017876824
0.018305634
0.0187212
0.019123763
0.019513608
0.019891063
0.020256486
0.020610262
0.020952791
0.021284489
0.021605775
0.021917072
0.022218803
0.02251138
0.02279521
0.023070688
0.023338197
0.00018224143
0.00056727943
0.00097203439
0.0013956494
0.0018372116
0.0022957557
0.0027702557
0.0032596145
0.0037626625
0.0042781536
0.0048047701
0.0053411366
0.0058858271
0.0064373759
0.0069942896
0.007555061
0.0081181838
0.0086821684
0.0092455576
0.0098069428
0.010364979
0.010918397
0.011466017
0.01200676
0.012539648
0.013063819