/*--------------------------------*- C++ -*----------------------------------*\
| =========                 |                                                 |
| \\      /  F ield         | OpenFOAM: The Open Source CFD Toolbox           |
|  \\    /   O peration     | Version:  2312                                  |
|   \\  /    A nd           | Website:  www.openfoam.com                      |
|    \\/     M anipulation  |                                                 |
\*---------------------------------------------------------------------------*/
FoamFile
{
    version     2.0;
    format      ascii;
    arch        "LSB;label=32;scalar=64";
    class       volScalarField;
    location    "0.06";
    object      H2O;
}
// * * * * * * * * * * * * * * * * * * * * * * * * * * * * * * * * * * * * * //

dimensions      [0 0 0 0 0 0 0];

internalField   nonuniform List<scalar> 
3275
(
0.0018976731
0.011539264
0.023687573
0.034734605
0.043647226
0.05025254
0.054967278
0.058121957
0.060004824
0.060878703
0.060989995
0.060638818
0.059873296
0.058862715
0.05771757
0.056509339
0.055284544
0.054071428
0.052887155
0.051742047
0.050642089
0.049590239
0.048587373
0.047633223
0.046726723
0.045866311
0.045050134
0.044276185
0.043542402
0.042846725
0.042187143
0.041561721
0.040968611
0.040406066
0.039872443
0.039366202
0.038885903
0.038430206
0.037997866
0.037587723
0.037198704
0.036829812
0.036480124
0.036148781
0.03583489
0.035537691
0.03525658
0.034990912
0.034740084
0.034503537
0.034280759
0.034071294
0.0027312709
0.013774397
0.025457338
0.035880347
0.044276366
0.05049339
0.054987594
0.058018963
0.059837778
0.060684042
0.060789927
0.060444195
0.059692255
0.058697961
0.057569442
0.056377023
0.055166673
0.053966458
0.052793559
0.05165841
0.050567143
0.049522873
0.048526625
0.047578263
0.046676838
0.045820888
0.045008646
0.044238178
0.043507483
0.042814556
0.042157431
0.041534208
0.040943073
0.040382308
0.039850293
0.039345507
0.038866529
0.038412035
0.037980791
0.037571649
0.037183545
0.036815491
0.036466569
0.036135915
0.035822678
0.035526112
0.035245578
0.034980443
0.034730111
0.034494028
0.03427168
0.034062593
0.0050503963
0.017941078
0.02859592
0.037875199
0.045349589
0.050855838
0.05496441
0.057779096
0.059486272
0.060286444
0.060386498
0.060053975
0.0593307
0.058369471
0.057274364
0.056113559
0.054932012
0.053757484
0.052607218
0.051491881
0.050417906
0.049388721
0.048405646
0.047468809
0.046577492
0.045730432
0.044926033
0.044162506
0.043437973
0.042750532
0.042098307
0.041479475
0.040892286
0.040335077
0.039806274
0.039304399
0.038828065
0.038375978
0.03794693
0.037539796
0.037153532
0.036787164
0.036439789
0.036110555
0.035798642
0.035503318
0.035223933
0.034959864
0.034710524
0.034475365
0.034253875
0.034045574
0.0093444196
0.02335555
0.032126936
0.040097187
0.046507428
0.051111601
0.054784015
0.057342262
0.058920817
0.059672952
0.059775488
0.059467869
0.058790684
0.057879933
0.056835111
0.055721536
0.054582857
0.053446488
0.052329812
0.051243878
0.050195569
0.049188783
0.048225277
0.04730557
0.046429286
0.045595455
0.044802732
0.044049543
0.043334191
0.04265493
0.042010014
0.041397734
0.040816435
0.040264534
0.039740531
0.039243005
0.038770623
0.038322136
0.037896373
0.037492246
0.037108736
0.036744898
0.036399848
0.036072755
0.03576283
0.035469357
0.035191689
0.034929214
0.034681358
0.034447582
0.034227377
0.034020267
0.014549698
0.027120797
0.035318436
0.041759303
0.047034739
0.051206751
0.054332355
0.056635372
0.058105984
0.058828429
0.058952535
0.058686515
0.058075549
0.05723344
0.056255803
0.055204755
0.05412256
0.053036348
0.051963785
0.050916457
0.04990186
0.048924509
0.047986739
0.047089578
0.046233093
0.045416699
0.044639377
0.043899832
0.043196606
0.042528154
0.041892903
0.041289289
0.040715784
0.040170914
0.039653268
0.039161507
0.038694365
0.038250651
0.037829249
0.037429111
0.037049261
0.036688785
0.036346828
0.036022588
0.035715306
0.03542429
0.035148901
0.034888545
0.03464266
0.034410721
0.034192227
0.033986708
0.012015163
0.027538181
0.036058264
0.042034839
0.046748941
0.050625985
0.053599798
0.055660057
0.057072551
0.05780285
0.057975135
0.057768897
0.057241268
0.056481543
0.055582977
0.054604776
0.053588047
0.052559819
0.051538205
0.050535465
0.049559824
0.048616516
0.047708538
0.046837501
0.04600398
0.045207828
0.044448402
0.043724725
0.043035611
0.04237975
0.041755763
0.041162258
0.040597851
0.040061189
0.039550971
0.039065948
0.038604933
0.038166805
0.037750506
0.037355041
0.036979478
0.036622943
0.036284616
0.035963725
0.035659546
0.035371408
0.035098692
0.034840821
0.034597249
0.034367465
0.03415098
0.033947333
0.0067308377
0.024210237
0.034321629
0.04100662
0.045783138
0.049489954
0.052440379
0.054469572
0.055848807
0.056629159
0.056876564
0.056747975
0.056317535
0.055651374
0.054840914
0.053943156
0.052998396
0.052033776
0.051068017
0.05011417
0.049181275
0.048275358
0.047400134
0.04655785
0.045749632
0.044975807
0.044236137
0.043529996
0.042856491
0.042214565
0.041603057
0.041020756
0.040466438
0.039938888
0.039436917
0.03895938
0.038505177
0.038073261
0.03766264
0.037272377
0.036901588
0.036549444
0.036215162
0.035898007
0.035597287
0.035312358
0.035042622
0.034787522
0.03454653
0.034319151
0.034104908
0.033903353
0.0044270373
0.019456244
0.030770595
0.038469531
0.043893039
0.047795982
0.050754212
0.052931584
0.054358178
0.05521918
0.055576819
0.055552697
0.055239068
0.054685072
0.053977832
0.053173544
0.052312065
0.051420918
0.050519655
0.049622296
0.048738836
0.047876213
0.047038966
0.046230062
0.045451257
0.044703418
0.04398677
0.043301083
0.042645806
0.042020168
0.041423258
0.040854077
0.040311582
0.039794714
0.039302422
0.038833674
0.038387472
0.037962858
0.037558915
0.037174771
0.036809603
0.036462629
0.036133115
0.035820364
0.035523722
0.035242575
0.034976354
0.034724522
0.034486574
0.034262032
0.034050437
0.033851355
0.0033892511
0.015466164
0.026579271
0.034997419
0.041074122
0.045492632
0.048657057
0.050986236
0.052593568
0.053574419
0.054072868
0.054185158
0.054003937
0.053582342
0.052993063
0.052294972
0.051527804
0.050719759
0.049891458
0.049058063
0.04823066
0.047417206
0.046623158
0.045852288
0.045107047
0.044388906
0.043698606
0.043036359
0.042401994
0.041795065
0.04121494
0.040660858
0.040131982
0.039627431
0.039146304
0.038687705
0.038250749
0.037834576
0.037438357
0.037061297
0.036702637
0.036361656
0.036037668
0.035730025
0.035438114
0.035161356
0.034899213
0.034651175
0.034416761
0.034195516
0.033986998
0.033790789
0.0028257141
0.012555124
0.022646321
0.031173442
0.037726473
0.042598689
0.046179627
0.048722481
0.050524363
0.051715461
0.052370526
0.052648934
0.052617316
0.052345012
0.051887981
0.051308058
0.050645601
0.049929795
0.049182547
0.04842032
0.047655403
0.046896866
0.046151164
0.045422941
0.044715407
0.044030685
0.043370083
0.042734298
0.042123574
0.041537824
0.040976721
0.040439771
0.039926364
0.039435815
0.038967394
0.038520352
0.038093933
0.037687388
0.037299985
0.036931015
0.036579793
0.036245663
0.035927998
0.035626202
0.035339707
0.035067976
0.034810505
0.034566815
0.034336454
0.034118988
0.033914001
0.033721091
0.0024624851
0.010456381
0.019328973
0.027472571
0.034184132
0.039396201
0.043323142
0.04622185
0.04821503
0.049634875
0.05049465
0.05095202
0.05109124
0.050976478
0.050666349
0.050215207
0.049666843
0.049051625
0.048392928
0.047708627
0.047012302
0.046314194
0.04562182
0.044940748
0.044274991
0.043627375
0.042999809
0.042393511
0.041809174
0.041247098
0.040707289
0.04018954
0.039693491
0.039218672
0.03876454
0.038330508
0.037915959
0.03752027
0.037142815
0.036782979
0.036440162
0.036113779
0.035803268
0.035508091
0.035227729
0.034961694
0.034709517
0.034470758
0.034244992
0.034031816
0.033830836
0.033641673
0.0021964677
0.0089081738
0.01663729
0.024150394
0.03072723
0.036094834
0.040287629
0.043485808
0.045746496
0.04736459
0.048465846
0.049118385
0.049436569
0.049488217
0.049333486
0.049020749
0.048594434
0.048087063
0.047523586
0.046923344
0.046301246
0.045668727
0.045034402
0.044404794
0.043784755
0.043177839
0.042586589
0.042012771
0.041457554
0.040921647
0.040405415
0.039908958
0.039432183
0.038974851
0.038536623
0.038117085
0.037715776
0.037332205
0.036965866
0.036616245
0.036282833
0.035965125
0.035662632
0.035374876
0.035101396
0.034841753
0.034595522
0.034362301
0.034141701
0.033933349
0.033736876
0.033551928
0.0019849049
0.0077310081
0.014467473
0.021279797
0.027529141
0.032870073
0.037208528
0.040611148
0.043160726
0.044995204
0.046297786
0.047169661
0.047671607
0.047895052
0.047897203
0.04773109
0.047432858
0.047039196
0.046576547
0.046065686
0.045522832
0.044960587
0.044388673
0.043814573
0.04324399
0.04268122
0.042129461
0.041591044
0.041067632
0.040560366
0.040069982
0.039596906
0.039141328
0.038703256
0.038282566
0.037879032
0.037492359
0.037122198
0.03676817
0.036429874
0.036106897
0.035798823
0.035505239
0.035225735
0.034959913
0.034707386
0.034467778
0.034240729
0.034025889
0.033822918
0.033631477
0.033451237
0.001808117
0.0068085047
0.012706996
0.018837288
0.024663339
0.029839156
0.034202844
0.037736159
0.040483922
0.042561048
0.044055838
0.045118018
0.045817719
0.046211484
0.046373486
0.046352224
0.046188161
0.045912403
0.045554913
0.04513777
0.04467841
0.04419053
0.04368493
0.043170027
0.042652363
0.042136981
0.041627731
0.041127521
0.040638518
0.040162303
0.0397
0.039252372
0.038819905
0.038402866
0.038001355
0.037615348
0.037244721
0.03688928
0.036548782
0.036222943
0.035911456
0.035614
0.035330241
0.035059847
0.034802482
0.03455782
0.034325536
0.034105316
0.033896853
0.033699843
0.03351398
0.03333896
0.0016559501
0.0060653234
0.011262424
0.016765603
0.022137729
0.027061842
0.03135162
0.034936
0.037819335
0.040071142
0.0417779
0.043010472
0.043885371
0.044456912
0.044774381
0.044898154
0.044866254
0.044712323
0.044462854
0.044142628
0.043770108
0.043359977
0.042924033
0.042471576
0.042009954
0.041544931
0.041081001
0.040621644
0.04016953
0.039726688
0.039294632
0.038874474
0.038467001
0.038072747
0.037692049
0.037325088
0.036971924
0.036632525
0.036306787
0.035994554
0.03569563
0.035409793
0.035136798
0.03487639
0.034628305
0.034392277
0.03416804
0.033955329
0.03375388
0.033563433
0.033383714
0.033214449
0.0015225056
0.0054519735
0.010061639
0.015003453
0.019927461
0.024555337
0.02870058
0.032265036
0.035221146
0.037600938
0.039464533
0.040882629
0.041910048
0.042640191
0.043116529
0.043380057
0.04347869
0.043444566
0.043305558
0.043084184
0.042800834
0.042471024
0.042107433
0.041720151
0.041317275
0.040905254
0.040489196
0.040073131
0.039660227
0.039252953
0.038853217
0.038462476
0.038081826
0.037712073
0.037353795
0.037007386
0.036673094
0.036351054
0.036041312
0.035743841
0.035458565
0.035185362
0.034924084
0.034674556
0.03443659
0.034209985
0.033994535
0.03379003
0.033596253
0.033412987
0.03324
0.033077044
0.0014039642
0.0049352153
0.0090502236
0.013496012
0.017995817
0.022311336
0.026267629
0.029756367
0.032729037
0.035189237
0.037172654
0.038731384
0.039922367
0.040789097
0.041407424
0.041811937
0.042035721
0.042118863
0.042088184
0.04196721
0.041774251
0.041526437
0.041237166
0.040917197
0.040575297
0.040218535
0.039852586
0.039482003
0.039110427
0.038740758
0.038375286
0.038015812
0.037663737
0.037320142
0.036985847
0.036661464
0.036347431
0.036044057
0.035751538
0.035469985
0.035199441
0.034939896
0.034691295
0.034453552
0.034226556
0.034010177
0.03380427
0.033608682
0.03342325
0.033247803
0.033082151
0.03292608
0.0012976367
0.0044921282
0.008187291
0.012197266
0.016304666
0.020309043
0.02405213
0.02742531
0.030368398
0.032865158
0.034930963
0.036600546
0.037917834
0.038929246
0.039669504
0.04020009
0.040549148
0.040744402
0.040819121
0.040796431
0.040694722
0.040529621
0.040315853
0.040064683
0.039785451
0.039485764
0.039171805
0.038848598
0.03852023
0.038190006
0.037860585
0.037534098
0.03721225
0.03689639
0.03658758
0.036286647
0.035994226
0.035710796
0.03543671
0.035172218
0.034917488
0.034672619
0.034437659
0.034212611
0.033997443
0.033792101
0.033596503
0.033410557
0.033234154
0.033067173
0.032909477
0.032760893
0.0012015597
0.0041065632
0.0074419641
0.011069589
0.014818778
0.018523126
0.022042809
0.025274329
0.028152471
0.030648234
0.032761433
0.034511845
0.035930967
0.037055682
0.037923959
0.03856322
0.039024258
0.039331233
0.039506414
0.039579495
0.039566447
0.039484562
0.039346665
0.039165079
0.038949626
0.038708351
0.038447858
0.038173587
0.037890028
0.037600862
0.037309089
0.037017158
0.036727061
0.03644041
0.036158503
0.03588238
0.035612869
0.035350623
0.035096149
0.034849839
0.034611986
0.034382804
0.034162442
0.033950995
0.033748517
0.033555024
0.033370508
0.033194934
0.033028252
0.032870396
0.032721283
0.032580828
0.0011142356
0.0037670013
0.006790991
0.010082531
0.01350721
0.016927911
0.020223247
0.023297659
0.026085282
0.028549641
0.030679396
0.03248225
0.033978644
0.035196265
0.036165877
0.036918705
0.037477287
0.037883863
0.038158293
0.03832383
0.038396438
0.038394953
0.038333286
0.03822133
0.038070155
0.037888111
0.037682125
0.037457979
0.037220519
0.036973764
0.036721019
0.03646503
0.036208058
0.035951966
0.035698278
0.035448241
0.035202871
0.034962992
0.034729266
0.034502224
0.034282286
0.03406978
0.033864958
0.033668011
0.033479074
0.033298244
0.033125579
0.03296111
0.032804846
0.032656773
0.032516869
0.0010344854
0.0034650181
0.0062168654
0.0092116848
0.012343445
0.015499319
0.018575231
0.021484878
0.02416451
0.026573933
0.028694291
0.030524032
0.032074295
0.033364423
0.034418336
0.035262149
0.035922303
0.036417049
0.036781052
0.037033923
0.037191065
0.037267422
0.037279019
0.037236809
0.037149786
0.037027257
0.036876355
0.036703122
0.036512711
0.036309432
0.036096851
0.035877982
0.035655335
0.035431005
0.035206728
0.034983951
0.034763869
0.03454747
0.034335569
0.034128834
0.03392781
0.03373294
0.033544579
0.03336301
0.033188456
0.03302109
0.032861042
0.032708407
0.032563253
0.03242562
0.0322955
0.00096136105
0.0031942974
0.0057063304
0.0084377694
0.011305088
0.014215624
0.017080607
0.019823329
0.022383849
0.024720834
0.026810729
0.028645216
0.030227942
0.031571108
0.032692498
0.033613169
0.034355479
0.034941602
0.035386175
0.035717782
0.035954081
0.03610752
0.036189887
0.036214759
0.036191592
0.036128369
0.036032652
0.035910694
0.035767916
0.035608872
0.03543732
0.03525652
0.0350692
0.034877668
0.034683855
0.03448939
0.034295639
0.034103749
0.033914679
0.033729231
0.033548072
0.033371755
0.03320074
0.033035403
0.03287605
0.032722934
0.032576255
0.032436174
0.032302819
0.032176283
0.032056599
0.00089408709
0.0029499981
0.0052491638
0.0077456984
0.010373784
0.013057742
0.015722215
0.018299636
0.020734746
0.022986794
0.025029633
0.026850264
0.028446589
0.029824963
0.030997766
0.031981279
0.032793835
0.033454374
0.033981447
0.034386585
0.03469276
0.034918297
0.035071149
0.035160306
0.035199105
0.035194054
0.035153457
0.035082687
0.034987744
0.034873376
0.034743423
0.034601391
0.034450183
0.034292301
0.034129843
0.033964606
0.033798112
0.033631657
0.033466339
0.033303083
0.033142677
0.032985782
0.032832956
0.032684666
0.032541304
0.032403199
0.032270621
0.032143797
0.032022915
0.031908131
0.031799561
0.00083202107
0.0027283352
0.0048373553
0.0071234788
0.0095347554
0.012009636
0.014484626
0.016900696
0.019207595
0.021366233
0.023349383
0.025141017
0.026734841
0.028132536
0.029341833
0.03037469
0.031245637
0.031970419
0.032564983
0.033044734
0.033418163
0.033706553
0.033925261
0.034078102
0.034176846
0.034228211
0.034241026
0.034221385
0.034174081
0.03410452
0.034016414
0.033913587
0.03379904
0.03367546
0.033545067
0.033409821
0.033271377
0.033131168
0.032990421
0.03285018
0.032711341
0.032574671
0.032440822
0.03231035
0.03218373
0.032061364
0.031943592
0.031830704
0.031722949
0.031620548
0.00077462455
0.0025262975
0.0044645342
0.0065614491
0.0087759258
0.011058047
0.013354681
0.015614712
0.017793003
0.019852839
0.021766987
0.023517627
0.025095489
0.026498604
0.027730829
0.028800331
0.029718163
0.030497036
0.03115034
0.031691387
0.032132843
0.032481666
0.032759593
0.032971563
0.03312724
0.033234804
0.033299123
0.033329271
0.033328888
0.033304171
0.033257786
0.033194342
0.033116748
0.033027912
0.032930102
0.032825443
0.03271569
0.032602409
0.032486942
0.032370435
0.032253892
0.032138176
0.032024029
0.03191209
0.031802914
0.031696974
0.031594677
0.031496375
0.031402369
0.031312904
0.00072144153
0.0023414509
0.0041255651
0.0060517354
0.0080873039
0.010191853
0.012321183
0.01443142
0.01648248
0.018440464
0.020278925
0.021979185
0.023529955
0.024926495
0.026169509
0.027263927
0.028217709
0.029040764
0.029744049
0.030338826
0.030836013
0.0312451
0.031581839
0.031847562
0.03205486
0.032215746
0.032331247
0.032409781
0.032455054
0.032474085
0.03246923
0.032445137
0.032404494
0.032350645
0.032285716
0.032212066
0.03213148
0.032045665
0.031956062
0.031863899
0.031770282
0.031676165
0.031582368
0.031489611
0.031398524
0.031309646
0.031223451
0.031140346
0.031060684
0.03098475
0.00067208209
0.0021717999
0.0038162554
0.0055878519
0.0074605399
0.009401614
0.011374479
0.013341783
0.015268313
0.017123226
0.018881416
0.020524073
0.022038655
0.023418388
0.024661471
0.02577013
0.026749633
0.027607369
0.028352037
0.028992975
0.029539613
0.030001205
0.030388917
0.030709902
0.030967188
0.031176289
0.031339901
0.031464717
0.03155548
0.031617222
0.0316529
0.03166742
0.031663642
0.031644879
0.031612864
0.031570481
0.031519352
0.031461386
0.031398098
0.031330762
0.031260593
0.031188622
0.031115738
0.031042737
0.030970316
0.03089908
0.030829559
0.03076222
0.030697463
0.030635622
0.00062620971
0.0020156864
0.0035331416
0.0051644026
0.0068885927
0.0086792387
0.010506154
0.012337767
0.014143456
0.015895522
0.017570566
0.01915021
0.020621272
0.021975563
0.023209352
0.024322652
0.025318439
0.026201875
0.026979611
0.027659186
0.028248566
0.028755928
0.029190006
0.029557777
0.029865048
0.030122655
0.030330573
0.030497811
0.030632328
0.030735124
0.030811549
0.030863396
0.030895929
0.030911871
0.030912653
0.030901688
0.030880076
0.030850184
0.030813529
0.030771358
0.030725039
0.030675661
0.030624154
0.030571394
0.030518143
0.03046506
0.030412727
0.030361667
0.030312332
0.030265103
0.00058353135
0.0018717163
0.0032733303
0.0047768559
0.0063654768
0.0080177401
0.009708814
0.011412174
0.013101432
0.014752016
0.016342456
0.017855203
0.019276947
0.020598602
0.021815004
0.022924406
0.023927864
0.024828616
0.025631479
0.026342335
0.026967711
0.027514519
0.027989914
0.028400358
0.028751963
0.029052276
0.029306074
0.029514642
0.02968953
0.029830688
0.029946161
0.030035261
0.030103657
0.030153564
0.030186568
0.030206711
0.03021457
0.030212828
0.030203009
0.030186162
0.030163975
0.030137525
0.030107748
0.030075619
0.030041958
0.030007464
0.02997276
0.029938432
0.02990498
0.029872828
0.00054378967
0.0017387039
0.0030343783
0.0044213721
0.0058860657
0.0074110434
0.0089759139
0.010558505
0.012136263
0.013687623
0.015193169
0.016636449
0.018004418
0.019287535
0.02047964
0.021577622
0.022580974
0.023491294
0.024311791
0.025046838
0.025701599
0.026281736
0.026793169
0.027241632
0.027632763
0.027972515
0.02826561
0.028515808
0.028730799
0.028909221
0.029060736
0.029184665
0.029288288
0.029370987
0.029436512
0.029487223
0.029523942
0.02955036
0.029567252
0.029575772
0.029577893
0.029574603
0.029566773
0.029555562
0.029541821
0.029526269
0.029509553
0.029492336
0.029475169
0.0294585
0.00050675681
0.0016156303
0.0028142022
0.0040946691
0.0054459381
0.0068538363
0.0083016338
0.0097708724
0.011242406
0.012697499
0.014118813
0.015491183
0.016802106
0.018041951
0.019203937
0.020283951
0.021280243
0.022193046
0.023024181
0.023776676
0.024454432
0.025061948
0.025604065
0.026085701
0.026511803
0.026887358
0.027216822
0.027504312
0.027754858
0.027970897
0.028158612
0.028316369
0.028452546
0.028566387
0.028663657
0.028743945
0.02880993
0.028864019
0.028907421
0.028940897
0.028967512
0.028987408
0.029001562
0.029011483
0.029017905
0.029021563
0.029023088
0.029023285
0.029022735
0.029021891
0.00047222945
0.0015016111
0.0026110082
0.0037939189
0.0050412551
0.0063414488
0.0076807748
0.0090439136
0.01041471
0.011777023
0.01311555
0.014416518
0.015668175
0.01686107
0.017988126
0.019044544
0.020027626
0.020936499
0.021771807
0.0225354
0.023230047
0.023859179
0.024426658
0.024936578
0.025393153
0.025800627
0.026163035
0.026484257
0.026768302
0.027018367
0.027238451
0.027430403
0.027599442
0.027743792
0.02787058
0.027979046
0.028073409
0.028154922
0.028223918
0.028282981
0.028333689
0.028376713
0.028412574
0.028443773
0.028470501
0.028493559
0.028513429
0.028531272
0.028547588
0.028562844
0.00044002487
0.001395872
0.0024232385
0.0035166651
0.0046686623
0.0058697551
0.0071086759
0.0083727372
0.0096483732
0.010921785
0.012179604
0.013409483
0.014600568
0.015743796
0.016832044
0.017860111
0.018824614
0.019723812
0.020557379
0.021326157
0.022031916
0.022677124
0.023264755
0.023798104
0.02428067
0.02471604
0.025107753
0.025459286
0.025774083
0.02605528
0.026306106
0.026529141
0.026727655
0.026903068
0.027059748
0.027195711
0.027316915
0.027424894
0.027518336
0.027602504
0.027677297
0.027742535
0.027800919
0.027853197
0.02790001
0.027942648
0.027980678
0.028016358
0.028049744
0.028081285
0.00040997775
0.001297729
0.0022495284
0.003260759
0.0043252108
0.0054350938
0.0065811447
0.0077528693
0.0089389202
0.010127577
0.011307264
0.012467046
0.013597047
0.014688751
0.015735182
0.016730966
0.017672274
0.018556717
0.019383194
0.020151704
0.020863153
0.021519162
0.022121896
0.02267391
0.02317802
0.023637201
0.024054476
0.024432873
0.024775389
0.025084894
0.025364194
0.025615864
0.02584254
0.026046305
0.026229816
0.026394127
0.026543004
0.026674838
0.0267937
0.026900881
0.026999926
0.027086094
0.027166921
0.027240236
0.02730675
0.027368483
0.027425573
0.027479065
0.027529317
0.027577203
0.00038193763
0.0012065734
0.0020886736
0.003024307
0.0040082937
0.0050342013
0.0060943997
0.007180212
0.0082821744
0.0093903846
0.010494899
0.011586135
0.012655225
0.013694306
0.014696708
0.015657057
0.016571279
0.017436542
0.018251149
0.019014417
0.019726523
0.020388354
0.021001356
0.021567403
0.02208868
0.022567584
0.02300663
0.023408392
0.023775455
0.024110357
0.024415584
0.0246935
0.024946422
0.025176454
0.025385737
0.025575956
0.025749335
0.025906751
0.026051084
0.026180464
0.026301715
0.02640958
0.02651185
0.026605941
0.026691186
0.026772215
0.026848057
0.026919458
0.02698636
0.027050638
0.00035576675
0.0011218596
0.0019396038
0.0028056305
0.0037155932
0.0046641568
0.0056450201
0.0066510067
0.007674239
0.008706387
0.0097389672
0.010763657
0.011772592
0.012758622
0.013715497
0.014637988
0.015521934
0.01636423
0.017162759
0.017916303
0.018624444
0.019287445
0.019906124
0.020481748
0.021015923
0.021510508
0.02196753
0.022389124
0.022777476
0.023134782
0.023463217
0.0237649
0.024041889
0.024296139
0.024529551
0.024743849
0.024940804
0.025121801
0.025288588
0.025441915
0.025585082
0.025714408
0.025836922
0.025949355
0.026055238
0.026154901
0.026248707
0.026338257
0.026420851
0.026501756
0.00033133842
0.0010430956
0.0018013613
0.0026032319
0.0034450388
0.0043223361
0.0052299046
0.0061618022
0.0071114788
0.0080719508
0.0090360202
0.0099965174
0.010946541
0.011879675
0.012790165
0.013673039
0.014524182
0.015340354
0.016119161
0.016859
0.017558983
0.018218855
0.018838902
0.019419855
0.019962804
0.020469113
0.020940354
0.021378241
0.021784579
0.022161224
0.022510046
0.022832901
0.023131608
0.02340793
0.023663573
0.023900156
0.024119249
0.024322273
0.02451067
0.024685635
0.024848796
0.025000259
0.025143291
0.025274817
0.025399314
0.025516695
0.02562756
0.025734535
0.025834437
0.025931173
0.00030853556
0.00096983496
0.0016730846
0.002415768
0.0031947716
0.0040063729
0.0048462338
0.005709426
0.0065905047
0.0074836283
0.0083827177
0.0092816383
0.010174389
0.011055283
0.011919098
0.012761202
0.013577628
0.014365118
0.015121124
0.015843781
0.016531853
0.017184674
0.017802086
0.018384364
0.018932142
0.019446342
0.019928116
0.020378785
0.020799795
0.021192669
0.021558982
0.021900323
0.022218276
0.022514401
0.022790216
0.02304719
0.023286745
0.02351022
0.023718913
0.023914028
0.024096789
0.024268069
0.024429359
0.02458072
0.024723845
0.024860097
0.024986686
0.025111189
0.025225737
0.025338961
0.00028724955
0.00090167075
0.0015539939
0.0022420278
0.0029631158
0.003714126
0.0044914395
0.0052909595
0.0061081575
0.0069381543
0.0077758333
0.0086159754
0.0094534039
0.010283128
0.011100476
0.0119012
0.01268156
0.013438376
0.014169047
0.014871549
0.015544407
0.016186646
0.016797754
0.017377623
0.017926497
0.018444911
0.018933639
0.019393642
0.019826027
0.020232008
0.02061287
0.020969943
0.021304578
0.021618127
0.021911925
0.022187277
0.022445456
0.022687691
0.022915162
0.023128995
0.023330275
0.02351998
0.023699179
0.023868594
0.024029227
0.024181975
0.02432699
0.024467046
0.024597255
0.024726482
0.00026737927
0.00083822999
0.0014433805
0.0020809143
0.0027485539
0.0034436518
0.004163177
0.0049037149
0.0056614944
0.0064324423
0.0072122628
0.0079965355
0.0087808243
0.0095607902
0.010332298
0.011091513
0.011834973
0.012559647
0.013262967
0.013942838
0.014597633
0.015226163
0.015827646
0.016401669
0.016948148
0.017467288
0.017959528
0.018425508
0.018866026
0.019282005
0.019674458
0.020044466
0.020393153
0.020721662
0.021031144
0.021322744
0.021597583
0.021856761
0.022101345
0.022332364
0.022550806
0.02275761
0.022953701
0.023139895
0.02331702
0.023485856
0.023647036
0.023801598
0.023949144
0.024092599
0.00024883084
0.00077917001
0.0013405968
0.0019314296
0.0025497068
0.0031931802
0.0038593011
0.0045452146
0.0052477748
0.0059635803
0.0066890297
0.0074203917
0.0081538855
0.0088857673
0.0096124147
0.010330407
0.01103659
0.011728136
0.012402573
0.013057811
0.013692145
0.01430425
0.014893152
0.015458205
0.015999066
0.016515657
0.017008138
0.017476863
0.017922354
0.018345268
0.018746367
0.019126496
0.019486561
0.019827504
0.020150295
0.020455913
0.020745334
0.021019521
0.021279425
0.021525967
0.021760047
0.021982526
0.02219424
0.022395972
0.022588477
0.022772474
0.022948635
0.023117664
0.023279993
0.023436687
0.00023151709
0.00072417538
0.001245049
0.0017926622
0.0023653165
0.0029610947
0.003577845
0.0042131726
0.0048644469
0.0055288248
0.0062032888
0.0068846964
0.007569839
0.0082555062
0.0089385517
0.0096159574
0.010284891
0.010942756
0.011587226
0.012216274
0.012828185
0.013421557
0.013995294
0.014548586
0.015080888
0.0155919
0.016081545
0.016549935
0.016997352
0.017424213
0.017831054
0.018218501
0.018587254
0.018938066
0.01927173
0.019589061
0.019890891
0.02017805
0.020451366
0.020711654
0.020959712
0.021196321
0.021422232
0.021638168
0.021844821
0.022042856
0.022232903
0.022415572
0.022591398
0.022760988
0.0002153534
0.0006729526
0.0011561929
0.0016637764
0.0021942315
0.0027459147
0.0033170018
0.0039054772
0.0045091352
0.0051255955
0.0057523289
0.0063866924
0.0070259711
0.0076674258
0.0083083429
0.0089460843
0.0095781356
0.010202148
0.010815973
0.01141769
0.012005625
0.012578356
0.013134718
0.013673794
0.014194898
0.014697561
0.015181513
0.01564667
0.016093105
0.01652103
0.016930778
0.017322777
0.01769754
0.01805564
0.018397702
0.018724389
0.019036385
0.019334391
0.019619113
0.019891259
0.020151526
0.020400601
0.020639157
0.020867844
0.021087291
0.021298102
0.021500854
0.021696099
0.021884348
0.022066094
0.00020026172
0.00062522678
0.0010735238
0.0015440057
0.0020353945
0.0025462798
0.0030751077
0.0036201752
0.0041796275
0.0047514674
0.0053335727
0.0059237212
0.0065196203
0.0071189412
0.0077193565
0.0083185783
0.0089143963
0.0095047129
0.010087574
0.010661196
0.011223983
0.011774541
0.012311683
0.012834431
0.013342009
0.013833825
0.014309469
0.014768694
0.015211406
0.015637643
0.016047559
0.016441412
0.016819541
0.017182359
0.017530336
0.017863985
0.018183855
0.018490518
0.018784563
0.019066587
0.019337189
0.019596964
0.0198465
0.02008637
0.020317137
0.020539342
0.020753504
0.020960123
0.021159666
0.021352579
0.00018616841
0.00058074278
0.00099657136
0.00143264
0.0018878331
0.0023609372
0.0028506273
0.0033554576
0.0038738632
0.0044041637
0.0049445757
0.0054932294
0.0060481904
0.006607484
0.0071691224
0.0077311335
0.0082915905
0.0088486401
0.0094005288
0.0099456262
0.010482443
0.011009647
0.011526068
0.01203071
0.012522743
0.013001502
0.013466473
0.01391729
0.014353726
0.014775674
0.015183144
0.015576242
0.015955161
0.016320165
0.016671583
0.017009794
0.017335217
0.017648303
0.017949526
0.018239378
0.018518359
0.018786972
0.019045722
0.019295104
0.019535609
0.019767713
0.019991878
0.020208547
0.020418143
0.02062107
0.00017300379
0.00053926197
0.00092489937
0.0013290193
0.0017506467
0.0021887314
0.0026421406
0.0031096464
0.0035899215
0.004081548
0.0045830233
0.0050927723
0.0056091626
0.0061305217
0.0066551568
0.0071813763
0.0077075116
0.0082319398
0.0087531049
0.0092695375
0.009779872
0.010282861
0.010777384
0.011262457
0.011737234
0.012201008
0.012653204
0.013093372
0.013521182
0.013936419
0.014338974
0.014728826
0.015106043
0.015470763
0.015823189
0.016163577
0.016492228
0.01680948
0.0171157
0.017411277
0.017696616
0.017972132
0.018238244
0.018495373
0.018743936
0.018984343
0.019216996
0.019442282
0.019660575
0.019872237
0.00016070174
0.00050056026
0.00085810114
0.0012325313
0.0016229977
0.0020285901
0.0024483337
0.0028811824
0.0033260107
0.0037816156
0.0042467275
0.0047200167
0.005200104
0.0056855731
0.0061749853
0.006666894
0.0071598621
0.0076524786
0.0081433757
0.008631245
0.0091148525
0.0095930508
0.01006479
0.010529127
0.010985227
0.011432371
0.011869951
0.012297467
0.012714521
0.013120817
0.013516151
0.013900406
0.014273545
0.014635599
0.014986661
0.015326882
0.015656456
0.015975619
0.016284638
0.016583807
0.01687344
0.017153866
0.017425424
0.017688458
0.017943314
0.018190338
0.018429869
0.018662238
0.018887769
0.019106777
0.00014919946
0.00046442668
0.00079579601
0.0011426059
0.0015041089
0.001879515
0.002267984
0.0026686177
0.0030804587
0.0035024867
0.003933623
0.0043727415
0.0048186749
0.0052702231
0.0057261634
0.006185262
0.0066462857
0.0071080149
0.0075692567
0.0080288578
0.0084857168
0.0089387953
0.0093871276