/*--------------------------------*- C++ -*----------------------------------*\
| =========                 |                                                 |
| \\      /  F ield         | OpenFOAM: The Open Source CFD Toolbox           |
|  \\    /   O peration     | Version:  2312                                  |
|   \\  /    A nd           | Website:  www.openfoam.com                      |
|    \\/     M anipulation  |                                                 |
\*---------------------------------------------------------------------------*/
FoamFile
{
    version     2.0;
    format      ascii;
    arch        "LSB;label=32;scalar=64";
    class       volScalarField;
    location    "0.06";
    object      O2;
}
// * * * * * * * * * * * * * * * * * * * * * * * * * * * * * * * * * * * * * //

dimensions      [0 0 0 0 0 0 0];

internalField   nonuniform List<scalar> 
3275
(
0.0036606929
0.010654801
0.015021077
0.017762788
0.020292327
0.023169456
0.026688051
0.030900364
0.03578762
0.041214374
0.047005178
0.051963995
0.057509801
0.062931588
0.068095767
0.072963285
0.077524502
0.081789149
0.08577382
0.089497058
0.092977349
0.096232977
0.099281654
0.10213955
0.10482157
0.10734137
0.10971141
0.11194304
0.11404662
0.11603155
0.11790638
0.11967892
0.12135624
0.12294481
0.12445053
0.12587877
0.12723445
0.12852207
0.12974575
0.13090927
0.13201611
0.13306945
0.13407225
0.13502722
0.13593708
0.13680421
0.13763058
0.13841822
0.13916901
0.13988472
0.14056695
0.14121718
0.0060644172
0.014088325
0.017797038
0.019948718
0.022091983
0.02468267
0.027993108
0.032030219
0.036774111
0.042072938
0.047746652
0.05262135
0.058076459
0.063420346
0.068518705
0.07333058
0.07784483
0.08206982
0.086020949
0.089715732
0.093171793
0.096406694
0.099437557
0.10228007
0.10494874
0.1074569
0.10981674
0.11203942
0.11413508
0.11611299
0.11798158
0.11974853
0.12142085
0.12300493
0.12450659
0.12593116
0.12728351
0.1285681
0.12978903
0.13095003
0.13205457
0.13310581
0.13410667
0.1350599
0.13596811
0.13683365
0.13765858
0.13844488
0.13919442
0.13990895
0.1405901
0.14123937
0.012959721
0.021826359
0.023777026
0.024541078
0.025816979
0.02777538
0.030616542
0.034301797
0.038750848
0.043788228
0.049225264
0.053931295
0.059203502
0.064392602
0.069360105
0.07406138
0.078482294
0.082628481
0.086512952
0.090151168
0.093559044
0.096752714
0.099748124
0.10256001
0.10520209
0.10768706
0.11002659
0.11223139
0.11431126
0.11627517
0.11813129
0.11988711
0.12154944
0.12312453
0.12461809
0.12603533
0.12738103
0.12865957
0.12987497
0.13103093
0.13213084
0.13317784
0.13417482
0.13512447
0.13602936
0.13689178
0.13771382
0.13849744
0.13924449
0.1399567
0.14063569
0.14128297
0.029912468
0.035956193
0.033696554
0.031849523
0.031625789
0.032522685
0.034592976
0.037724887
0.041711521
0.046346772
0.051425721
0.05587969
0.06087579
0.065836069
0.070609854
0.07514738
0.079430097
0.083459585
0.087245299
0.090799661
0.09413606
0.097268525
0.10021127
0.10297762
0.10558016
0.10803061
0.11033989
0.11251807
0.11457441
0.11651743
0.11835496
0.12009415
0.12174157
0.12330325
0.1247847
0.12619098
0.12752673
0.12879622
0.13000336
0.13115177
0.13224476
0.13328541
0.13427654
0.13522082
0.13612071
0.13697848
0.13779621
0.13857582
0.13931915
0.14002788
0.14070363
0.14134791
0.07089022
0.059607751
0.04819331
0.042205178
0.039637924
0.039035976
0.039987777
0.042298298
0.045639809
0.049725656
0.054323973
0.058444904
0.0630716
0.067732987
0.072253307
0.076576551
0.080678399
0.084555102
0.088211436
0.091655846
0.094898432
0.097950483
0.10082397
0.10353039
0.10608082
0.10848578
0.11075514
0.11289816
0.1149234
0.11683882
0.11865174
0.12036894
0.12199662
0.12354053
0.12500594
0.12639769
0.12772025
0.12897773
0.13017391
0.13131229
0.13239608
0.13342828
0.13441165
0.13534875
0.136242
0.13709361
0.13790561
0.1386799
0.13941827
0.14012239
0.14079383
0.1414341
0.15537137
0.090672921
0.066302176
0.05493741
0.049123161
0.046600579
0.046395091
0.047679825
0.050221671
0.053648594
0.057679751
0.061415043
0.065608384
0.06992657
0.074155555
0.078232471
0.082126328
0.08582723
0.089334549
0.092652169
0.095786433
0.098745516
0.10153883
0.10417579
0.10666577
0.10901787
0.11124083
0.11334294
0.11533197
0.11721521
0.11899944
0.12069096
0.1222956
0.12381875
0.1252654
0.12664016
0.12794729
0.1291907
0.13037405
0.13150068
0.1325737
0.133596
0.13457025
0.13549893
0.13638439
0.13722877
0.13803405
0.1388021
0.13953466
0.14023335
0.14089975
0.1415353
0.19279069
0.11975163
0.085772755
0.068582182
0.059738166
0.055246461
0.053491596
0.053672957
0.055276043
0.057963281
0.061362621
0.064676328
0.068392218
0.072335317
0.07624667
0.080054969
0.083721878
0.087230796
0.090575188
0.093753985
0.096769477
0.099626473
0.10233163
0.10489212
0.10731545
0.10960923
0.11178093
0.1138378
0.11578675
0.11763436
0.11938679
0.12104983
0.12262889
0.12412898
0.1255548
0.12691067
0.12820063
0.12942841
0.13059747
0.13171101
0.13277203
0.1337833
0.13474737
0.13566667
0.13654344
0.13737975
0.13817755
0.13893863
0.1396647
0.14035735
0.1410181
0.14164838
0.20771439
0.14589782
0.10698943
0.084664642
0.072016578
0.065169622
0.061734474
0.06058728
0.061153975
0.062951156
0.065612208
0.068442773
0.071615291
0.075122971
0.078670355
0.082170572
0.085576913
0.088865127
0.092021914
0.095040575
0.097918808
0.10065762
0.10326055
0.10573222
0.10807804
0.11030388
0.11241581
0.11441986
0.11632198
0.1181279
0.1198431
0.12147278
0.12302183
0.12449488
0.12589623
0.12722991
0.12849969
0.12970907
0.13086132
0.13195947
0.13300635
0.13400461
0.1349567
0.13586492
0.13673144
0.13755824
0.13834721
0.13910007
0.13981849
0.140504
0.14115808
0.14178214
0.21434149
0.16542099
0.1269114
0.10146523
0.085639871
0.07613966
0.07091713
0.068353919
0.067775025
0.068594835
0.070403386
0.072688916
0.07528699
0.078285209
0.08142599
0.08458064
0.087694216
0.090734003
0.093679161
0.096516765
0.099239455
0.10184405
0.10433066
0.10670106
0.10895836
0.11110651
0.11314996
0.11509344
0.11694177
0.11869977
0.12037211
0.12196335
0.12347782
0.12491965
0.12629275
0.1276008
0.12884724
0.13003534
0.13116813
0.13224844
0.13327894
0.13426212
0.13520031
0.13609569
0.1369503
0.13776607
0.13854478
0.1392881
0.13999762
0.14067484
0.14132118
0.141938
0.21780947
0.17920989
0.14401029
0.11767462
0.099666165
0.087979897
0.080793158
0.076820393
0.07503528
0.0748384
0.075740515
0.077352461
0.079382855
0.081814196
0.08450778
0.087282417
0.09007337
0.092838707
0.095549399
0.098185831
0.10073522
0.10318989
0.10554625
0.10780302
0.10996079
0.11202141
0.11398759
0.11586261
0.11765007
0.11935375
0.12097748
0.12252507
0.12400021
0.12540652
0.12674744
0.12802626
0.1292461
0.1304099
0.13152045
0.13258038
0.13359215
0.13455808
0.13548035
0.13636102
0.137202
0.13800512
0.13877207
0.13950445
0.14020378
0.14087147
0.14150892
0.14211743
0.21992452
0.18896115
0.15794924
0.13239425
0.11335642
0.1000574
0.091240755
0.085741224
0.08282288
0.081565678
0.081568929
0.082407732
0.083850388
0.085710894
0.087903929
0.090268598
0.092710422
0.095177747
0.097632898
0.10004929
0.10240849
0.10469813
0.10691071
0.10904174
0.1110891
0.11305241
0.11493253
0.11673116
0.11845059
0.12009348
0.12166273
0.12316132
0.12459229
0.12595865
0.12726334
0.12850923
0.12969905
0.13083543
0.13192088
0.13295777
0.13394835
0.13489476
0.13579901
0.13666301
0.13748855
0.13827733
0.13903095
0.13975091
0.14043866
0.14109556
0.14172291
0.14232197
0.22138032
0.19601193
0.16908214
0.14522664
0.12614411
0.11189948
0.10182158
0.095018519
0.090938085
0.088688958
0.08777581
0.087850395
0.088625216
0.089939991
0.091602943
0.093527074
0.09559764
0.09774664
0.099927523
0.10210673
0.10426008
0.10637048
0.10842639
0.11041999
0.11234636
0.11420279
0.11598815
0.11770251
0.11934675
0.12092235
0.12243117
0.12387536
0.12525721
0.1265791
0.12784342
0.12905257
0.13020888
0.13131462
0.13237199
0.13338309
0.13434994
0.13527447
0.13615851
0.1370038
0.137812
0.13858467
0.13932331
0.14002932
0.14070405
0.14134879
0.14196478
0.14255321
0.22247108
0.20125784
0.17795037
0.1561621
0.13771221
0.12313416
0.11222241
0.10442967
0.099227259
0.096043639
0.094283284
0.093589072
0.09370475
0.094423934
0.095596423
0.097040015
0.098723405
0.10053778
0.10242859
0.10435563
0.10628909
0.10820723
0.11009447
0.1119396
0.11373487
0.11547515
0.1171573
0.11877965
0.12034162
0.12184344
0.12328591
0.12467026
0.12599801
0.12727084
0.12849059
0.12965911
0.13077833
0.13185012
0.13287635
0.13385883
0.13479933
0.13569953
0.13656109
0.13738556
0.13817444
0.13892917
0.13965111
0.14034156
0.14100176
0.14163293
0.14223622
0.14281277
0.22333514
0.2052765
0.18505756
0.16538844
0.14796289
0.13352705
0.12218575
0.11367485
0.10760997
0.10350849
0.10097228
0.09955769
0.099019001
0.099158192
0.099809967
0.10080463
0.10207244
0.10354046
0.10512881
0.10679128
0.10849278
0.11020715
0.11191484
0.11360133
0.11525603
0.11687139
0.11844219
0.11996503
0.12143782
0.12285949
0.12422975
0.12554886
0.12681751
0.12803669
0.1292076
0.13033158
0.13141006
0.13244453
0.1334365
0.13438746
0.13529889
0.13617227
0.137009
0.13781047
0.138578
0.13931287
0.14001632
0.14068953
0.14133365
0.14194976
0.14253898
0.14310235
0.22404482
0.20843991
0.19081161
0.17315554
0.1569403
0.1429726
0.13153889
0.12258155
0.11586432
0.11103519
0.10773469
0.10566993
0.1045138
0.10408589
0.10422332
0.10477564
0.10563847
0.10674095
0.10801827
0.10940677
0.11086653
0.11236739
0.11388604
0.1154048
0.11691028
0.11839254
0.11984436
0.12126054
0.1226375
0.12397285
0.12526516
0.1265137
0.12771831
0.12887926
0.12999708
0.13107256
0.13210665
0.13310039
0.13405491
0.13497139
0.13585101
0.13669498
0.13750449
0.13828071
0.13902478
0.13973783
0.14042096
0.1410752
0.14170159
0.14230113
0.14287482
0.14342365
0.22464204
0.21099101
0.1955263
0.17970874
0.16475932
0.15146011
0.14018939
0.13102706
0.12386263
0.11846028
0.11454152
0.11183445
0.11012465
0.10916233
0.1088054
0.1089159
0.10938846
0.11013121
0.11108459
0.11219297
0.11340383
0.11468345
0.1160052
0.11734839
0.11869699
0.12003878
0.12136456
0.12266742
0.12394226
0.12518537
0.12639418
0.12756698
0.12870272
0.12980091
0.13086143
0.13188449
0.13287051
0.13382009
0.13473398
0.13561299
0.136458
0.13726995
0.13804978
0.13879845
0.13951692
0.14020613
0.14086703
0.14150052
0.14210751
0.14268889
0.14324556
0.14377843
0.22515344
0.21309196
0.19943825
0.18526419
0.17155925
0.15903658
0.14810807
0.13893788
0.13151132
0.12568896
0.12126912
0.11803375
0.11577703
0.1143374
0.11351691
0.11320151
0.11328783
0.11368602
0.11431958
0.11513871
0.11609628
0.11714918
0.11826798
0.11942923
0.12061445
0.1218093
0.12300273
0.12418618
0.12535306
0.12649839
0.12761845
0.12871053
0.12977273
0.13080376
0.13180285
0.1327696
0.13370391
0.13460593
0.13547598
0.13631451
0.1371221
0.13789939
0.13864706
0.13936585
0.14005652
0.14071983
0.14135655
0.14196747
0.14255333
0.14311492
0.14365303
0.14416847
0.22559721
0.21485381
0.20272492
0.19000338
0.17747928
0.16577803
0.15530874
0.14628183
0.13875006
0.13264942
0.12784555
0.12417256
0.12146049
0.11955022
0.11831653
0.11760112
0.11731584
0.11737464
0.11770239
0.11823648
0.11893373
0.11975682
0.12066862
0.12164317
0.12265982
0.12370232
0.12475793
0.12581656
0.12687023
0.12791266
0.12893906
0.12994574
0.13092993
0.13188958
0.13282324
0.1337299
0.13460893
0.13546002
0.13628305
0.13707813
0.13784547
0.13858544
0.13929845
0.13998501
0.14064565
0.14128096
0.14189155
0.14247801
0.14304099
0.14358113
0.14409908
0.14459556
0.22598634
0.21635432
0.20551985
0.19407513
0.18264748
0.17177119
0.16183098
0.15305724
0.145547
0.13929245
0.13421478
0.13019536
0.12709999
0.12479464
0.12315396
0.12208061
0.12144664
0.12117858
0.12120658
0.12146744
0.12190995
0.12249706
0.12319997
0.1239848
0.12482913
0.12571501
0.12662832
0.12755753
0.12849335
0.12942832
0.13035659
0.13127353
0.13217552
0.13305979
0.13392418
0.1347671
0.1355874
0.13638426
0.13715717
0.13790583
0.13863014
0.13933014
0.140006
0.14065795
0.14128634
0.14189154
0.14247398
0.14303411
0.14357242
0.1440894
0.14458558
0.14506147
0.22633045
0.21764879
0.20792336
0.19760008
0.18717687
0.17710307
0.1677275
0.15928285
0.15189253
0.14558875
0.14033653
0.13605782
0.13265184
0.13001001
0.12802562
0.12659854
0.12565076
0.12507656
0.12481506
0.12480974
0.12500639
0.12536505
0.12585359
0.12644754
0.12711728
0.12784354
0.1286111
0.12940719
0.13022128
0.13104482
0.13187099
0.13269427
0.13351024
0.13431539
0.13510692
0.13588265
0.13664088
0.13738035
0.13810009
0.13879946
0.13947799
0.14013542
0.14077164
0.14138664
0.14198055
0.14255352
0.1431058
0.14363769
0.14414952
0.14464163
0.14511442
0.22663691
0.21877755
0.21001091
0.20067503
0.19116487
0.18185569
0.17305613
0.16498971
0.15779301
0.15152524
0.14618469
0.14172675
0.13808034
0.13516117
0.13288101
0.1311527
0.12989394
0.12904212
0.12851041
0.12824725
0.1282056
0.12834085
0.12862701
0.12902365
0.12951814
0.13008303
0.13070256
0.13136282
0.13205212
0.13276094
0.13348162
0.1342078
0.13493432
0.13565695
0.1363723
0.1370776
0.13777064
0.13844969
0.13911337
0.13976065
0.14039073
0.14100304
0.14159719
0.14217293
0.14273013
0.14326877
0.1437889
0.14429064
0.14477417
0.14523971
0.14568758
0.22691148
0.2197707
0.21183968
0.20337667
0.19469414
0.18610369
0.17787486
0.17021541
0.16326546
0.15710117
0.15174507
0.14717919
0.14335782
0.14021855
0.13769051
0.13569996
0.13417475
0.13304732
0.13226782
0.1317656
0.13149363
0.13141486
0.13149649
0.13170959
0.13202488
0.13242759
0.13289806
0.13342083
0.13398317
0.13457472
0.13518718
0.13581338
0.13644746
0.13708458
0.13772076
0.13835267
0.13897762
0.13959341
0.14019828
0.14079081
0.14136989
0.14193461
0.14248432
0.14301851
0.14353684
0.14403907
0.14452507
0.14499477
0.1454482
0.14588544
0.1463067
0.22715875
0.22065121
0.21345374
0.20576527
0.19783286
0.18991316
0.18223917
0.17500014
0.16833345
0.16232459
0.15701299
0.15240104
0.14846386
0.14515792
0.14242842
0.14021484
0.13845554
0.13709097
0.1360657
0.13534055
0.13485707
0.13457102
0.13445657
0.13448577
0.13463187
0.13487237
0.13519208
0.13557686
0.13601098
0.13648347
0.13698571
0.13750962
0.13804882
0.13859787
0.13915226
0.13970814
0.14026236
0.1408123
0.1413558
0.1418911
0.14241674
0.14293152
0.14343451
0.14392498
0.14440233
0.14486612
0.14531603
0.14575184
0.14617338
0.1465806
0.14697349
0.22738243
0.22143691
0.21488755
0.20788886
0.20063637
0.19334024
0.18619951
0.17938387
0.17302409
0.16720952
0.16199064
0.15738488
0.15338382
0.14995995
0.1470729
0.14467468
0.14271401
0.14113958
0.13990228
0.13895666
0.13827231
0.13779719
0.13749385
0.13734496
0.13732442
0.13740751
0.13758249
0.13782577
0.13813136
0.13848375
0.13887458
0.13929455
0.13973698
0.14019587
0.14066631
0.14114388
0.14162506
0.14210681
0.14258661
0.14306238
0.14353231
0.14399494
0.14444907
0.1448937
0.14532805
0.14575145
0.14616339
0.14656348
0.1469514
0.14732692
0.22758556
0.22214189
0.21616842
0.20978614
0.20315017
0.19643184
0.18979956
0.18340322
0.17736444
0.17177239
0.16668409
0.16212772
0.15810763
0.15460955
0.15160576
0.14905971
0.14692997
0.14517336
0.14374726
0.14261123
0.14172792
0.14107296
0.14059511
0.1402769
0.14009461
0.14002538
0.14005456
0.14016432
0.14034051
0.14057128
0.14085055
0.14116554
0.14150994
0.1418771
0.14226193
0.14265927
0.14306547
0.143477
0.14389103
0.14430519
0.14471738
0.14512581
0.14552905
0.14592589
0.14631531
0.14669645
0.14706861
0.14743123
0.14778385
0.14812615
0.22777064
0.22277745
0.21731827
0.21148865
0.205412
0.19922765
0.19307692
0.18709053
0.18137939
0.1760296
0.17110119
0.16662959
0.16262879
0.15909526
0.15601209
0.15335291
0.15108538
0.1491741
0.14758291
0.14627651
0.14522181
0.14439005
0.14374208
0.1432669
0.14293386
0.14271558
0.14260374
0.14258061
0.14263067
0.14274524
0.14290994
0.1431193
0.14336514
0.14363948
0.14393763
0.14425322
0.14458291
0.14492251
0.14526899
0.14561977
0.14597238
0.14632476
0.14667527
0.14702251
0.14736521
0.14770234
0.14803302
0.1483565
0.1486722
0.14897968
0.22793976
0.22335274
0.21835491
0.21302229
0.20745346
0.20176155
0.19606441
0.19047473
0.18509202
0.17999731
0.17525094
0.17089271
0.16694363
0.16340866
0.1602799
0.15753984
0.15516434
0.15312529
0.1513927
0.14993636
0.14872702
0.14773704
0.14693636
0.14630356
0.14582616
0.14546897
0.14522193
0.14506922
0.14499644
0.14499401
0.14504811
0.14515454
0.14529952
0.14548026
0.14569157
0.14592407
0.14617629
0.14644259
0.14672004
0.14700597
0.14729747
0.14759214
0.14788829
0.14818429
0.14847866
0.14877016
0.14905775
0.14934053
0.14961775
0.14988889
0.22809467
0.22387531
0.21929294
0.21440855
0.20930117
0.20406267
0.19879083
0.19358188
0.18852381
0.18369133
0.17914311
0.17492098
0.17105074
0.16754383
0.1643997
0.16160837
0.15915298
0.15701205
0.1551614
0.15357573
0.15222972
0.15109858
0.1501574
0.14938553
0.14876548
0.14827121
0.14789756
0.14762336
0.14743035
0.14731369
0.14725968
0.14726218
0.14730946
0.14739826
0.14752172
0.14766943
0.14784414
0.14803604
0.14824326
0.1484633
0.14869246
0.14892797
0.14916836
0.1494117
0.14965629
0.14990071
0.15014377
0.15038441
0.15062168
0.15085505
0.22823689
0.22435142
0.22014448
0.21566537
0.21097775
0.20615624
0.20128167
0.1964356
0.19169485
0.18712712
0.182788
0.17871957
0.17495049
0.17149694
0.16836418
0.1655485
0.16303934
0.16082114
0.1588751
0.15718061
0.15571625
0.15446054
0.15339224
0.15249219
0.15174263
0.15112387
0.15062204
0.15023063
0.149924
0.14969886
0.14953807
0.14943928
0.14939062
0.14938767
0.1494222
0.14948904
0.14958493
0.14970114
0.14983722
0.1499909
0.1501569
0.15033189
0.15051541
0.15070494
0.15089851
0.15109458
0.15129183
0.15148905
0.15168497
0.1518793
0.22836769
0.22478632
0.22091968
0.2168079
0.21250248
0.20806414
0.20355955
0.19905735
0.19462395
0.19031975
0.1861963
0.18229464
0.17864474
0.17526594
0.17216792
0.16935209
0.16681318
0.16454087
0.16252121
0.16073796
0.15917351
0.15780972
0.15662843
0.15561242
0.15474525
0.15401051
0.15339464
0.15288652
0.152468
0.15213836
0.15187664
0.15168109
0.15153731
0.15144414
0.15139227
0.15137728
0.15139369
0.15143613
0.15150193
0.15158765
0.15169012
0.151803
0.15192904
0.15206391
0.15220544
0.15235209
0.15250245
0.15265523
0.15280835
0.15296259
0.22848818
0.22518446
0.22162709
0.21784896
0.21389195
0.20980553
0.20564463
0.20146672
0.19732872
0.19328382
0.18937899
0.1856532
0.18213656
0.17885027
0.17580717
0.17301267
0.1704659
0.16816101
0.16608839
0.16423578
0.16258919
0.16113366
0.15985388
0.15873479
0.15776175
0.15692049
0.15619824
0.15558333
0.15506275
0.15462876
0.15426698
0.15397782
0.15374374
0.15356397
0.15342671
0.15333087
0.15326956
0.15323813
0.1532336
0.15325134
0.1532888
0.15334181
0.15340917
0.15348826
0.15357694
0.15367331
0.15377587
0.15388367
0.15399214
0.15410571
0.22859932
0.22554967
0.22227403
0.21879955
0.21516045
0.21139717
0.2075549
0.20368161
0.19982568
0.19603349
0.19234716
0.18880292
0.1854301
0.18225071
0.17927966
0.17652533
0.17399039
0.17167274
0.16956655
0.16766312
0.16595179
0.16442062
0.16305697
0.16184799
0.16078095
0.15984339
0.15902364
0.15831067
0.15769359
0.15716334
0.15670969
0.15632671
0.15600263
0.15573874
0.15552011
0.15534643
0.15520871
0.15510383
0.15502965
0.15498031
0.15495313
0.15494548
0.15495412
0.15497714
0.15501251
0.15505799
0.15511189
0.15517278
0.1552385
0.15530945
0.22870195
0.22588521
0.22286675
0.21966912
0.21632043
0.21285381
0.20930648
0.20571834
0.20213032
0.19858242
0.19511195
0.19175201
0.18853044
0.18546922
0.18258444
0.17988655
0.17738093
0.17506856
0.17294677
0.17101005
0.16925073
0.16765963
0.16622662
0.16494104
0.16379205
0.16276889
0.16186116
0.16105887
0.16035237
0.15973291
0.1591918
0.15872185
0.15831487
0.15796629
0.15766632
0.15741702
0.15720588
0.15702937
0.15688784
0.15677182
0.15668035
0.15661243
0.15656253
0.1565295
0.15651141
0.15650567
0.15651046
0.15652435
0.15654589
0.15657402
0.22879683
0.22619395
0.22341069
0.22046587
0.21738272
0.21418849
0.21091382
0.20759189
0.20425711
0.20094375
0.19768448
0.19450908
0.19144341
0.18850881
0.1857218
0.18309413
0.18063314
0.17834222
0.17622135
0.17426772
0.17247631
0.17084045
0.16935233
0.16800337
0.16678459
0.16568683
0.16470106
0.16381844
0.16303041
0.16232888
0.16170612
0.16115507
0.16066875
0.16024143
0.15986648
0.15954041
0.15925488
0.1590118
0.1588021
0.15862289
0.15846716
0.15834128
0.15823256
0.15814365
0.15807257
0.15801552
0.1579711
0.15793786
0.15791462
0.15789963
0.22888461
0.22647837
0.22391055
0.22119695
0.21835685
0.21541274
0.21238992
0.20931591
0.20621958
0.20313008
0.20007575
0.19708301
0.19417551
0.19137343
0.18869314
0.18614707
0.18374388
0.18148874
0.17938375
0.17742834
0.17561979
0.17395367
0.17242427
0.17102495
0.16974848
0.16858728
0.16753368
0.16658001
0.16571877
0.1649427
0.16424485
0.16361868
0.16305791
0.16255682
0.16210982
0.16171229
0.16135875
0.16104642
0.16076875
0.16052845
0.16031201
0.16012774
0.15996163
0.15981746
0.15969495
0.15958657
0.15949294
0.15941245
0.15934461
0.15928627
0.22896588
0.22674069
0.22437048
0.22186862
0.2192512
0.21653684
0.21374647
0.21090293
0.20803036
0.20515344
0.20229656
0.19948291
0.19673377
0.19406785
0.19150091
0.18904556
0.18671122
0.18450433
0.18242855
0.18048517
0.1786734
0.17699072
0.17543331
0.1739963
0.1726741
0.17146063
0.17034954
0.16933433
0.16840854
0.1675658
0.16679993
0.166105
0.16547534
0.16490562
0.16439074
0.16392608
0.16350704
0.1631299
0.16279031
0.16248597
0.16220989
0.16196805
0.16174685
0.16155154
0.16137506
0.1612166
0.16107489
0.16094683
0.16083572
0.16073366
0.22904117
0.22698283
0.22479413
0.22248643
0.2200732
0.21756995
0.21499402
0.21236438
0.2097012
0.20702529
0.20435749
0.20171797
0.19912563
0.19659752
0.19414848
0.19179085
0.1895344
0.18738635
0.18535153
0.1834326
0.18163035
0.17994391
0.17837108
0.17690859
0.17555235
0.17429766
0.17313943
0.17207233
0.17109088
0.17018963
0.16936318
0.16860625
0.16791377
0.16728089
0.16670297
0.16617564
0.16569475
0.16525652
0.16485723
0.16449375
0.1641622
0.16386158
0.16358516
0.16333808
0.1631113
0.16290457
0.16271639
0.16254172
0.16238543
0.1622408
0.22911096
0.22720655
0.22518475
0.22305526
0.22082945
0.21852025
0.2161421
0.21371076
0.21124306
0.20875651
0.20626882
0.20379741
0.20135885
0.19896849
0.19664001
0.1943852
0.19221377
0.19013337
0.18814958
0.18626609
0.18448491
0.18280651
0.18123009
0.17975374
0.17837473
0.17708963
0.17589454
0.1747852
0.17375712
0.17280574
0.17192642
0.17111459
0.17036577
0.16967561
0.16903994
0.16845475
0.16791625
0.16742086
0.16696517
0.16654606
0.1661604
0.16580583
0.16547889
0.16517886
0.16490199
0.1646453
0.16441348
0.1641923
0.16399531
0.16380717
0.22917568
0.22741339
0.22554522
0.2235795
0.22152585
0.21939511
0.21719932
0.21495163
0.21266609
0.21035738
0.2080405
0.20573037
0.20344144
0.20118731
0.19898041
0.19683174
0.19475071
0.19274503
0.19082074
0.18898224
0.18723241
0.18557278
0.18400369
0.18252443
0.18113342
0.17982839
0.17860649
0.1774645
0.17639886
0.17540584
0.17448159
0.17362221
0.17282383
0.17208263
0.17139491
0.17075707
0.17016566
0.16961739
0.16910913
0.16863792
0.16820095
0.16779568
0.16741944
0.1670703
0.16674583
0.16644388
0.16616372
0.16589985
0.16566077
0.16543011
0.22923571
0.22760474
0.22587813
0.22406305
0.22216767
0.22020113
0.21817352
0.21609581
0.21397972
0.21183759
0.20968207
0.20752589
0.20538152
0.2032609
0.20117518
0.19913443
0.19714754
0.19522207
0.1933642
0.19157876
0.18986926
0.18823801
0.18668625
0.18521423
0.18382138
0.18250642
0.18126748
0.18010224
0.17900803
0.17798191
0.17702077
0.17612138
0.17528048
0.17449478
0.17376105
0.17307611
0.17243689
0.17184042
0.17128383
0.17076441
0.17027957
0.16982686
0.16940393
0.16900868
0.16863903
0.16829305
0.16796911
0.16766491
0.16738079
0.16711107
0.22929143
0.22778189
0.22618582
0.22450942
0.22275967
0.22094431
0.2190718
0.21715133
0.21519271
0.21320628
0.21120271
0.20919279
0.20718725
0.20519648
0.20323033
0.20129792
0.19940747
0.19756619
0.19578019
0.19405449
0.19239299
0.19079856
0.1892731
0.18781763
0.18643241
0.18511699
0.18387035
0.182691
0.18157705
0.18052631
0.17953636
0.17860462
0.1777284
0.17690495
0.17613152
0.17540536
0.17472377
0.17408411
0.17348383
0.17292045
0.17239162
0.17189507
0.17142865
0.17099035
0.17057825
0.17019054
0.16982555
0.16948158
0.16915747
0.16885093
0.22934316
0.22794596
0.22647038
0.22492178
0.22330615
0.22163005
0.21990062
0.21812558
0.21631315
0.21447201
0.21261113
0.21073967
0.20886678
0.20700145
0.20515231
0.2033275
0.20153449
0.19978003
0.19806998
0.19640936
0.19480227
0.19325192
0.19176068
0.19033016
0.18896124
0.18765419
0.18640871
0.185224
0.18409888
0.18303185
0.18202111
0.18106469
0.18016046
0.17930619
0.17849959
0.17773834
0.17702011
0.17634261
0.17570359
0.17510087
0.1745323
0.17399586
0.17348957
0.17301157
0.17256009
0.17213345
0.17173007
0.17134844
0.17098721
0.17064497
0.22939119
0.228098
0.22673372
0.22530299
0.22381097
0.22226326
0.22066588
0.21902534
0.21734855
0.2156428
0.21391565
0.21217484
0.21042815
0.20868333
0.20694786
0.20522894
0.20353328
0.20186705
0.2002358
0.19864435
0.19709685
0.19559667
0.19414651
0.19274837
0.19140362
0.19011307
0.188877
0.18769523
0.18656718
0.18549193
0.18446829
0.18349482
0.18256991
0.18169182
0.18085871
0.18006867
0.17931977
0.17861005
0.17793756
0.17730041
0.17669671
0.17612465
0.17558246
0.17506846
0.17458103
0.17411862
0.17367979
0.17326314
0.17286741
0.17249138
0.22943582
0.22823898
0.22697758
0.22565567
0.22427769
0.2228484
0.22137296
0.21985684
0.21830586
0.21672617
0.21512413
0.21350628
0.21187925
0.21024964
0.20862394
0.20700844
0.2054091
0.2038315
0.20228074
0.20076141
0.19927753
0.19783253
0.19642924
0.19506994
0.19375634
0.19248965
0.19127062
0.19009955
0.18897637
0.18790067
0.18687177
0.18588872
0.1849504
0.1840555
0.18320263
0.18239025
0.1816168
0.18088068
0.18018024
0.17951385
0.17887991
0.17827682
0.17770303
0.17715705
0.17663741
0.17614274
0.17567172
0.17522307
0.17479564
0.17438831
0.2294773
0.22836977
0.22720355
0.22598218
0.22470949
0.22338957
0.22202679
0.22062579
0.21919151
0.21772912
0.21624399
0.21474166
0.21322774
0.21170787
0.21018764
0.2086725
0.20716771
0.20567823
0.20420872
0.20276342
0.20134614
0.19996026
0.19860863
0.19729368
0.19601733
0.19478107
0.19358598
0.19243277
0.19132175
0.19025297
0.18922614
0.18824078
0.18729616
0.18639141
0.18552549
0.18469728
0.18390553
0.18314897
0.18242627
0.18173608
0.18107702
0.18044776
0.17984696
0.17927331
0.17872554
0.17820242
0.17770277
0.17722547
0.17676945
0.1763337
0.22951586
0.22849119
0.22741311
0.22628472
0.22510934
0.22389048
0.22263188
0.22133748
0.22001147
0.21865821
0.21728226
0.21588829
0.21448108
0.21306542
0.2116461
0.21022785
0.20881524
0.20741268
0.20602433
0.20465406
0.20330543
0.20198165
0.20068552
0.19941949
0.1981856
0.19698553
0.19582058
0.19469172
0.19359962
0.19254462
0.19152683
0.19054611
0.1896021
0.18869429
0.18782199
0.18698441
0.18618064
0.18540971
0.18467057
0.18396214
0.18328331
0.18263296
0.18200997
0.18141323
0.18084166
0.18029418
0.17976978
0.17926746
0.17878628
0.17832533
0.22955174
0.22860398
0.22760759
0.22656528
0.22547993
0.22435457
0.2231924
0.22199678
0.22077126
0.21951955
0.21824551
0.21695312
0.21564641
0.21432948
0.21300643
0.21168132
0.21035812
0.2090407
0.20773276
0.20643777
0.205159
0.20389943
0.20266175
0.20144835
0.20026131
0.19910237
0.19797299
0.19687433
0.19580726
0.19477242
0.19377017
0.19280067
0.19186387
0.19095957
0.19008739
0.18924683
0.18843728
0.18765804
0.18690835
0.18618736
0.18549422
0.18482803
0.18418788
0.18357285
0.18298205
0.18241457
0.18186954
0.18134612
0.18084348
0.18036083
0.22958515
0.22870884
0.22778823
0.2268257
0.22582375
0.22478499
0.22371217
0.22260817
0.221476
0.22031884
0.21913996
0.21794274
0.21673062
0.21550709
0.21427565
0.21303979
0.21180295
0.21056849
0.20933967
0.20811959
0.20691119
0.2057172
0.20454013
0.20338227
0.20224564
0.20113202
0.2000429
0.19897957
0.19794305
0.19693414
0.19595344
0.19500132
0.19407798
0.19318347
0.19231767
0.19148035
0.19067115
0.18988962
0.18913524
0.18840741
0.1877055
0.18702882
0.18637666
0.18574832
0.18514304
0.18456012
0.18399882
0.18345844
0.1829383
0.1824377
0.22961627
0.22880641
0.22795619
0.2270677
0.22614309
0.22518465
0.22419473
0.2231758
0.22213046
0.2210614
0.21997142
0.2188634
0.21774027
0.21660502
0.21546063
0.21431011
0.21315641
0.21200246
0.21085109
0.20970505
0.20856694
0.20743926
0.20632428
0.20522415
0.20414079
0.20307592
0.20203106
0.20100752
0.2000064
0.19902863
0.19807493
0.19714586
0.19624181
0.19536301
0.19450957
0.19368146
0.19287855
0.19210061
0.19134734
0.19061835
0.1899132
0.18923143
0.18857251
0.1879359
0.18732105
0.18672739
0.18615436
0.18560138
0.1850679
0.22964529
0.2288973
0.22811254
0.22729283
0.22644008
0.22555623
0.22464334
0.22370353
0.22273904
0.22175217
0.22074532
0.21972095
0.21868158
0.21762975
0.21656804
0.21549899
0.21442518
0.21334911
0.21227326
0.21120003
0.21013171
0.20907052
0.20801853
0.20697769
0.20594979
0.20493646
0.20393917
0.20295921
0.20199772
0.20105568
0.20013389
0.19923303
0.19835362
0.19749604
0.19666057
0.19584734
0.19505641
0.19428775
0.19354121
0.19281663
0.19211373
0.19143224
0.19077179
0.19013204
0.18951257
0.18891299
0.18833288
0.18777181
0.18722937
0.22967238
0.22898206
0.22825825
0.22750256
0.22671665
0.22590221
0.22506102
0.22419491
0.22330582
0.22239574
0.22146673
0.22052091
0.21956043
0.21858748
0.21760427
0.21661298
0.21561583
0.21461497
0.21361254
0.21261062
0.21161124
0.21061633
0.20962774
0.20864722
0.20767639
0.20671678
0.20576975
0.20483656
0.20391831
0.20301599
0.20213046
0.20126243
0.20041252
0.19958121
0.1987689
0.19797586
0.1972023
0.19644831
0.19571393
0.19499914
0.19430384
0.19362789
0.19297112
0.1923333
0.1917142
0.19111356
0.19053109
0.18996652
0.18941955
0.2296977
0.22906121
0.22839425
0.22769823
0.2269746
0.22622485
0.22545051
0.2246532
0.22383457
0.22299636
0.22214036
0.2212684
0.22038233
0.21948403
0.2185754
0.21765833
0.21673471
0.21580639
0.21487521
0.21394298
0.21301143
0.21208227
0.2111571
0.21023748
0.20932487
0.20842062
0.207526
0.20664217
0.2057702
0.20491104
0.20406552
0.2032344
0.20241834
0.20161788
0.20083348
0.20006554
0.19931434
0.19858012
0.19786304
0.1971632
0.19648064
0.19581536
0.19516733
0.19453647
0.19392266
0.1933258
0.19274572
0.19218228
0.19163529
0.22972141
0.22913524
0.22852137
0.22788106
0.22721558
0.22652622
0.22581435
0.22508136
0.22432871
0.22355791
0.22277052