/*--------------------------------*- C++ -*----------------------------------*\
| =========                 |                                                 |
| \\      /  F ield         | OpenFOAM: The Open Source CFD Toolbox           |
|  \\    /   O peration     | Version:  2312                                  |
|   \\  /    A nd           | Website:  www.openfoam.com                      |
|    \\/     M anipulation  |                                                 |
\*---------------------------------------------------------------------------*/
FoamFile
{
    version     2.0;
    format      ascii;
    arch        "LSB;label=32;scalar=64";
    class       volScalarField;
    location    "0.06";
    object      Qdot;
}
// * * * * * * * * * * * * * * * * * * * * * * * * * * * * * * * * * * * * * //

dimensions      [1 -1 -3 0 0 0 0];

internalField   nonuniform List<scalar> 
3275
(
74800859
5.0928413e+08
8.1473311e+08
8.8553572e+08
8.5424608e+08
7.9545098e+08
7.3397649e+08
6.7277264e+08
6.1042557e+08
5.448611e+08
4.7612494e+08
4.1911388e+08
3.6016582e+08
3.065574e+08
2.5963196e+08
2.1940587e+08
1.853798e+08
1.5681369e+08
1.3292742e+08
1.1298883e+08
96348500
82445808
70807166
61039891
52819779
45880312
40002858
35008163
30749187
27105157
23976693
21281832
18952808
16933434
15176992
13644523
12303438
11126395
10090387
9175992.2
8366770.4
7648763.6
7010088.2
6440588
5931481.1
5475301.7
5065709.2
4697154
4364831.6
4064577.4
3792775.6
3546288.3
1.9431788e+08
8.2055998e+08
1.0622782e+09
1.0431495e+09
9.5081913e+08
8.5510996e+08
7.7032086e+08
6.9397604e+08
6.2198898e+08
5.5038262e+08
4.7809472e+08
4.1936965e+08
3.5946024e+08
3.0545116e+08
2.5843085e+08
2.1826188e+08
1.8435718e+08
1.5593044e+08
1.3217919e+08
1.1236184e+08
95826076
82011565
70446331
60739719
52569553
45671156
39827480
34860605
30624588
26999556
23886857
21205122
18887061
16876875
15128161
13602213
12266649
11094298
10062289
9151312.8
8345023.2
7629537.5
6993032.7
6425398.7
5917930.5
5463203
5054869.6
4687414.6
4356058.5
4056655.5
3785603.2
3539766
7.6988715e+08
1.6680446e+09
1.6302304e+09
1.3723223e+09
1.1420352e+09
9.7091134e+08
8.3881199e+08
7.3346889e+08
6.4309358e+08
5.6013202e+08
4.8127173e+08
4.1939385e+08
3.5779717e+08
3.0310535e+08
2.559621e+08
2.1594377e+08
1.8230093e+08
1.541625e+08
1.3068574e+08
1.1111265e+08
94786475
81148142
69729264
60143436
52072626
45255877
39479328
34567722
30377311
26790011
23708622
21052953
18756663
16764724
15031355
13518357
12193759
11030724
10006656
9102472.2
8302008.4
7591534.3
6959351
6395452.4
5891241.4
5439365.7
5033519.7
4668241.2
4338795.7
4041074.3
3771503.2
3526966.9
3.1158589e+09
3.4699017e+09
2.5890122e+09
1.8599422e+09
1.4061158e+09
1.1303411e+09
9.3010895e+08
7.848357e+08
6.6952726e+08
5.7153671e+08
4.8418635e+08
4.1825968e+08
3.5470733e+08
2.9927359e+08
2.5210379e+08
2.1239668e+08
1.7919094e+08
1.5150691e+08
1.2845199e+08
1.0924925e+08
93238379
79863799
68663350
59257422
51334407
44639008
38962175
34132647
30009953
26478675
23443777
20826812
18562854
16598017
14887444
13393686
12085383
10936196
9923934.5
9029848.7
8238049.6
7535032
6909283.2
6350954.1
5851589.8
5403945.5
5001794.9
4639751.6
4313146.2
4017924.5
3750556.5
3507962.9
1.1993898e+10
6.4471057e+09
3.6998106e+09
2.403564e+09
1.7066017e+09
1.2888518e+09
1.0260003e+09
8.3791945e+08
6.9510614e+08
5.8100077e+08
4.848504e+08
4.1472179e+08
3.4957492e+08
2.9363628e+08
2.4670109e+08
2.0755365e+08
1.7500525e+08
1.4796356e+08
1.2548747e+08
1.0678467e+08
91195252
78171067
67259659
58091179
50362910
43827245
38281586
33559990
29526330
26068710
23094941
20528878
18307449
16378270
14697697
13229268
11942423
10811475
9814768.4
8933991.9
8153616
7460432.7
6843174.8
6292199.8
5799231
5357165.3
4959888.8
4602114.2
4279257.3
3987335.1
3722876.9
3482853.1
1.8637388e+10
7.8032321e+09
4.3173443e+09
2.7694919e+09
1.9307616e+09
1.4166344e+09
1.0907003e+09
8.7701854e+08
7.1185148e+08
5.8447074e+08
4.8144179e+08
4.0792352e+08
3.4223829e+08
2.8633324e+08
2.4002133e+08
2.0171693e+08
1.7003615e+08
1.4379568e+08
1.2202063e+08
1.0391306e+08
88820238
76206193
65631664
56739162
49236840
42886293
37492555
32895923
28965336
25592993
22690010
20182902
18010748
16122895
14477106
13038053
11776104
10666327
9687683.4
8822367.4
8055266.4
7373516.3
6766134.8
6223717.7
5738190.6
5302614.4
4911009.9
4558204.8
4239712.8
3951633.9
3690566.6
3453540.3
1.3081449e+09
5.0402913e+09
3.9382921e+09
2.7493938e+09
1.9783467e+09
1.4707899e+09
1.1181768e+09
8.8756243e+08
7.1464851e+08
5.7940416e+08
4.7288339e+08
3.9734246e+08
3.3255351e+08
2.7741959e+08
2.3219717e+08
1.9504214e+08
1.6443618e+08
1.3914162e+08
1.1817198e+08
1.0073715e+08
86199795
74041458
63839598
55251519
47997970
41851012
36624242
32164907
28347556
25068908
22243714
19801414
17683445
15841055
14233546
12826838
11592312
10505866
9547135.2
8698871.4
7946418.7
7277290.2
6680816.8
6147855.8
5670552.5
5242148.8
4856815.3
4509506.5
4195843.8
3912018.4
3654705.5
3421000.4
18308916
1.5806427e+09
2.6151013e+09
2.3306629e+09
1.8258892e+09
1.4125058e+09
1.0980967e+09
8.657872e+08
6.9675904e+08
5.6327379e+08
4.575953e+08
3.8157422e+08
3.1940678e+08
2.6608743e+08
2.2258608e+08
1.8701537e+08
1.5779172e+08
1.3366657e+08
1.1366928e+08
97034573
83151534
71526628
61759188
53525019
46560190
40649272
35615979
31315708
27629552
24459480
21724459
19357317
17302214
15512598
13949547
12580424
11377783
10318476
9382922.9
8554516.6
7819130.7
7164715.5
6580964.6
6059037.7
5591333.7
5171304.6
4793295.8
4452409.5
4144392.2
3865541
3612620.7
3382803.2
235581.66
2.7995818e+08
1.2334126e+09
1.6112134e+09
1.4932344e+09
1.2432131e+09
1.00794e+09
8.1147474e+08
6.546618e+08
5.3290513e+08
4.3462911e+08
3.6006007e+08
3.0204422e+08
2.5212996e+08
2.1107188e+08
1.7757804e+08
1.5007439e+08
1.2735753e+08
1.0850717e+08
92803590
79675249
68661972
59390694
51559715
44923300
39280637
34467143
30347563
26810466
23763797
21131311
18849675
16866139
15136637
13624263
12298009
11131759
10103447
9194381.3
8388682.7
7672825.3
7035256
6466080.3
5956801.6
5500105.9
5089684.7
4720083.2
4386572.3
4085041.1
3811907.4
3564038.7
3338694
5281.7261
35742207
4.3003466e+08
9.0244182e+08
1.0575929e+09
9.9520182e+08
8.5835011e+08
7.1893493e+08
5.9302237e+08
4.8641178e+08
4.0224911e+08
3.3371812e+08
2.8038291e+08
2.3543604e+08
1.9762415e+08
1.6672757e+08
1.4129261e+08
1.2022653e+08
1.0269796e+08
88055309
75780292
65455012
56739958
49360010
43090520
37747386
33179271
29261444
25890840
22982083
20464259
18278312
16374923
14712799
13257267
11979138
10853772
9860309.6
8981047.4
8200918.7
7507067.5
6888495
6335766.9
5840770.4
5396512.6
4996952.9
4636861.1
4311697.4
4017510.9
3750855.2
3508713.1
3288441.7
244.21476
4052994.4
1.1926623e+08
4.1614312e+08
6.4682028e+08
7.1465547e+08
6.7702911e+08
5.9731573e+08
5.1210697e+08
4.2910538e+08
3.6014625e+08
3.0277136e+08
2.5505082e+08
2.1579245e+08
1.8233347e+08
1.5453613e+08
1.3150269e+08
1.1231747e+08
96276026
82816572
71487548
61921901
53819394
46935384
41069038
36054927
31756400
28060324
24872834
22115870
19724361
17643922
15828991
14241301
12848626
11623765
10543695
9588879.1
8742697.4
7990975.2
7321592.2
6724159.4
6189749
5710670.8
5280285.4
4892848
4543377
4227541.7
3941568.8
3682162.1
3446432
3231844.5
21.993165
474776.97
28457411
1.629329e+08
3.4433467e+08
4.5974611e+08
4.9018524e+08
4.6574282e+08
4.1864214e+08
3.6417339e+08
3.1168681e+08
2.6642177e+08
2.2744846e+08
1.9366799e+08
1.6534495e+08
1.4116482e+08
1.2081756e+08
1.0371168e+08
89301473
77132460
66831165
58088652
50648887
44301061
38870522
34212200
30205369
26749427
23760422
21168170
18913880
16948192
15229583
13723038
12398969
11232314
10201794
9289300.9
8479385
7758836.5
7116332.3
6542144.1
6027894.1
5566351.2
5151259.9
4777198
4439454.7
4133928.1
3857038.7
3605654.5
3377025.8
3168737.2
3.3912561
63061.143
6271947.6
56194582
1.6208068e+08
2.6617018e+08
3.2559015e+08
3.3936652e+08
3.239571e+08
2.9457182e+08
2.6065082e+08
2.2722621e+08
1.9735317e+08
1.7053198e+08
1.4679654e+08
1.2688001e+08
1.0941086e+08
94530975
81862436
71067960
61859776
53992045
47256465
41478530
36511521
32231997
28536091
25336444
22559575
20143618
18036411
16193906
14578845
13159659
11909553
10805734
9828777.5
8962092.8
8191478.8
7504754.3
6891447.6
6342537.5
5850235.1
5407801.3
5009393.3
4649935.2
4325008.1
4030756.9
3763811.2
3521216.8
3300375
3098998.5
0.78655561
9938.3987
1354235.5
17719677
68817919
1.3994147e+08
1.9894328e+08
2.3049628e+08
2.3705527e+08
2.271282e+08
2.0914662e+08
1.8791005e+08
1.6641426e+08
1.4642043e+08
1.2789583e+08
1.1179256e+08
97512630
84936922
74075236
64708357
56636908
49680015
43678651
38495834
34013717
30131175
26761727
23831688
21278397
19048593
17096986
15385032
13879910
12553635
11382323
10345553
9425840.7
8608185.8
7879698.1
7229278.5
6647353
6125646.2
5656991.9
5235172.1
4854781.2
4511111.3
4200054.3
3918018
3661855
3428801.1
3216419.3
3022558.8
0.24673687
1882.8482
299518.41
5288325.5
26931006
67616307
1.1244955e+08
1.4620812e+08
1.6364137e+08
1.6694852e+08
1.608938e+08
1.4987107e+08
1.3646355e+08
1.2243525e+08
1.0900352e+08
96528494
85276412
75125815
66081833
58157880
51240298
45211338
39960315
35387542
31403947
27930709
24898762
22248170
19927195
17891291
16102136
14526791
13136955
11908314
10819964
9853924.3
8994708.6
8228960.4
7545145.2
6933287
6384743.8
5892017.7
5448592.1
5048793.5
4687674.4
4360913
4064727.5
3795802.9
3551227.3
3328437.1
3125166.3
2939408.5
0.096640455
426.33541
69966.904
1539563.5
9923879.4
30430101
59243381
86934229
1.0668182e+08
1.1675519e+08
1.1872627e+08
1.1513727e+08
1.0834439e+08
99782812
90585525
81659183
73113662
65251018
58044261
51536349
45759920
40654436
36153948
32194293
28713938
25655543
22966919
20601563
18518480
16681734
15059920
13625679
12355235
11227950
10225929
9333654.1
8537664.4
7826274.6
7189332.5
6618009.3
6104619.1
5642462
5225690.3
4849192.5
4508494.7
4199675.4
3919291.7
3664316.9
3432084.6
3220241.2
3026700.2
2849605.7
0.044605557
113.65494
17587.4
448193.85
3513251.4
12934350
29348617
48696592
65835446
77737399
83893428
85247816
83168843
78958959
73476190
67467490
61460035
55589893
50093303
44973758
40294600
36085214
32318239
28961875
25979693
23334185
20988898
18910031
17066851
15431707
13979886
12689461
11541077
10517718
9604456.4
8788220.8
8057568
7402483
6814200.3
6285046
5808298.9
5378067.7
4989183.8
4637107.8
4317849.1
4027895.7
3764152.7
3523889.4
3304692.8
3104426.4
2921190.1
2753285.1
0.023283053
35.016203
4801.9455
132991.28
1216534.1
5263816.5
13799811
25850474
38587435
49351675
56781542
60735616
61752118
60583503
57983362
54479412
50515878
46459431
42426537
38572931
34947317
31583967
28515954
25739784
23240509
20998035
18989908
17193902
15588775
14154605
12872969
11727091
10701840
9783678.4
8960552.3
8221768.7
7557856.9
6960442.1
6422126.1
5936378
5497435.7
5100214.2
4740224.3
4413501
4116540.3
3846243.5
3599868
3374984
3169436.1
2981309.9
2808897.6
2650666
0.013351245
12.237771
1427.8761
40778.677
418370.25
2077451.9
6217472.9
13089100
21567658
29940418
36845335
41638943
44283472
45082197
44462540
42868464
40619833
38002411
35267176
32480529
29794760
27231491
24811167
22579303
20537620
18680425
16996975
15475173
14102226
12865170
11751302
10748586
9845817.1
9032717.3
8299947.1
7639078
7042527.5
6503499.7
6015919.2
5574366.6
5174016.7
4810575.9
4480224.2
4179564.2
3905574.7
3655568.7
3427155.4
3218206.1
3026824.7
2851320.2
2690182
2542061.6
0.0082347035
4.7704123
461.72211
13038.176
144677.81
804349.06
2708950.7
6363965.1
11547488
17405967
22955070
27482358
30664189
32489567
33130357
32834175
31866992
30433282
28722937
26842859
24953026
23082725
21265967
19531200
17912521
16415409
15038055
13776849
12626199
11579137
10627951
9764825.4
8982090.5
8272434.5
7629014.8
7045506.7
6516093.3
6035465.5
5598801.1
5201740.4
4840356.6
4511118.9
4210855.5
3936720.9
3686165.4
3456905.6
3246896.9
3054308.3
2877500
2715002.8
2565501.9
0.0053824168
2.0437276
161.76773
4370.0358
50793.003
308590.72
1151233.5
2990928.6
5950629
9727168.4
13756173
17477356
20505417
22666755
23956479
24474571
24368011
23798606
22898428
21767220
20516051
19235118
17914248
16643215
15405053
14236357
13140953
12122127
11180097
10312770
9516561.7
8787283
8120326.3
7510989
6954654.2
6446900.7
5983517
5560560.2
5174368
4821567.9
4499077.4
4204087.3
3934041.3
3686620.9
3459729.1
3251471.8
3060139.9
2884191.7
2722237.8
2573023.7
2435406.6
0.0036861034
0.95018694
61.119611
1539.8042
18230.675
118293.18
480913.46
1367437.8
2965621.7
5243049.2
7946392.3
10721807
13247192
15306435
16802095
17732388
18155880
18160007
17842214
17283584
16555981
15727917
14850342
13943112
13050753
12174465
11332134
10533471
9783022.6
9082314.3
8430931.3
7827693.6
7270515.8
6756897.6
6284132.6
5849472.1
5450116
5083342.8
4746534
4437213.9
4153075.8
3891978.1
3651937
3431126.7
3227876.8
3040662.2
2868093.3
2708905.1
2561948.3
2426176.9
2300624.9
0.002622836
0.47429108
24.774264
571.10783
6724.3245
45614.156
198813.86
611781.95
1436102.7
2735212.1
4435144.4
6353798.3
8273338.7
10005765
11426937
12480771
13165593
13514989
13580317
13419253
13088113
12627687
12082584
11494335
10873562
10253522
9635464.5
9031621
8453001
7903391.4
7384519.6
6897666.8
6442669.4
6018792.4
5624890.7
5259645.8
4921440.7
4608613.7
4319455.5
4052279.9
3805475.3
3577504.4
3366901.3
3172291.3
2992397
2826036.5
2672118.1
2529637.1
2397671
2275374.2
2161967.8
0.0019265996
0.25187034
10.716794
222.99217
2559.0189
17793.717
81823.413
269283.91
678747.07
1385794.8
2397619.4
3643123.9
4999726.3
6334200.5
7535519.7
8530809.5
9286279.3
9799532.9
10089104
10184916
10122620
9936302.8
9653664.8
9306725.3
8910854.3
8499142.8
8063976
7634619.3
7206204
6790374.7
6389917.8
6008265
5646474.3
5305145
4984316.9
4683879.3
4403127.4
4141296.7
3897435.7
3670526.4
3459564.7
3263545.4
3081457.4
2912326.5
2755230.5
2609298.6
2473712.1
2347704.9
2230564.2
2121632
0.0014534392
0.14120742
4.9220116
91.590443
1007.723
7056.697
33708.331
117214.72
314480.7
684288.07
1258778.4
2024975.8
2927266.2
3885965.5
4819687.4
5661957.3
6368813.2
6918894.2
7309222.8
7549611.5
7657681.6
7653719.5
7560090.5
7396652.5
7178479.7
6924235.9
6647526.8
6352743.5
6054915.4
5755795.4
5458300
5169571.6
4890932.8
4623972.6
4369494.9
4128462.4
3900730.1
3686301.3
3484812.6
3295780.7
3118720.7
2953084.8
2798241.4
2653562.1
2518436.5
2392270.4
2274487.9
2164536.9
2061892.4
1966049.1
0.0011218055
0.083031709
2.3884596
39.518918
411.44281
2856.9998
13971.021
50712.398
143488.52
330566.98
643748.29
1093566.8
1663073.3
2312621.3
2991390.5
3649477.3
4246399.5
4754881.7
5160831.9
5461128.5
5660640.3
5769020.8
5798776.5
5763536
5676147
5546734.4
5387716.9
5204518.6
5011811.5
4804905.7
4598870.2
4390291.7
4184003.2
3982546.2
3786933.1
3599310.5
3419536.7
3248371.7
3085833.9
2931830.4
2786319.2
2649137.1
2519942.2
2398394.2
2284151.1
2176856.3
2076144.1
1981649.7
1893013.9
1809869.8
0.00088245492
0.050923983
1.2190366
17.88059
174.37902
1184.8706
5852.4936
21914.215
64770.449
156855.54
321744.05
575262.97
918585.56
1336838.9
1803141.5
2285376.4
2752707.7
3180035.6
3549992.7
3852980.7
4086028.9
4251100.5
4353595.4
4400854
4400696
4361676
4291257.1
4195119.3
4081656.2
3952517.7
3818482
3675066.8
3532255.2
3387133.9
3242274.5
3101775.7
2964372.1
2831929.5
2704525.4
2582307.1
2465634.4
2354666.8
2249231.8
2149227.2
2054537
1965001.8
1880431
1800618.1
1725351
1654374.5
0.00070577323
0.032418629
0.65165197
8.4663588
76.759076
504.72173
2487.893
9502.0176
29057.176
73411.321
157714.07
295619.82
494373.56
751855.11
1056760.1
1391379.4
1735470.4
2069795
2378522.4
2650348
2878574
3060526.9
3196724.4
3289906.5
3344118
3364246.7
3355323.9
3322342
3269657.9
3201054.9
3121194.9
3033420
2940331.2
2841117.9
2739959.8
2640525.3
2539383.3
2440921.7
2344561.4
2250564.6
2159729.7
2072502.5
1988690
1908406.9
1831727.2
1758645.2
1689108.4
1623038.7
1560359.8
1500880
0.00057276675
0.021337797
0.36345093
4.1860274
35.093223
221.278
1076.9899
4151.7135
13012.765
34031.045
76106.422
148872.89
259910.46
412213.85
603028.79
824367.78
1064758.1
1311429.2
1552259.2
1777111.2
1978491.3
2151648.3
2294312.3
2406217.3
2488565.2
2543602.4
2574147.6
2582968.6
2573690.8
2549227.2
2512039.4
2465362.9
2410925.7
2349547.9
2285446.2
2217583.7
2147760.2
2078701.8
2009150.7
1939554
1871339.7
1805258.5
1740724.2
1678149.4
1617764
1559665.5
1503901.5
1450487.3
1399501
1350714.6
0.00047081314
0.014467296
0.21075801
2.1563616
16.657211
99.990968
476.15412
1834.9526
5841.9243
15690.995
36294.471
73719.711
133861.35
220818.19
335644.23
475931.84
636274.94
809314.21
986972.42
1161541.7
1326447.2
1476651.4
1608753.4
1720868.2
1812385.6
1883700.6
1935902.6
1970476.1
1989417.7
1994469.6
1987863
1971598.9
1946768.4
1915050.5
1878303.1
1836963.5
1793500.7
1747543.5
1699981.8
1651697.6
1602738.1
1555280.1
1507485.8
1460467.2
1414535.8
1369826.7
1326454.1
1284467.7
1244214.4
1205187
0.00039150606
0.01007385
0.12666002
1.154716
8.2026491
46.615283
215.51119
823.14769
2639.4893
7225.3206
17172.168
36023.046
67747.056
115874.77
182599.17
268172.2
370777.18
486853.06
611710.82
740226.63
867461.36
989107.09
1101741.9
1202913.7
1291100.1
1365595.2
1426348
1473795.8
1508791.6
1532351.4
1545755.4
1550096.6
1546659.1
1536567
1520771.8
1500297
1476347.1
1449304.7
1419734.6
1389161.1
1356626.6
1323807.9
1290589.9
1257094.8
1223717.5
1190723.6
1158289.4
1126338
1095909.7
1065544
0.00032859139
0.0071848943
0.078660043
0.64135185
4.1865809
22.431459
100.04286
375.88374
1204.5413
3335.6896
8092.1052
17433.797
33803.055
59733.565
97325.618
147760.31
211008.61
285803.48
369847.24
460163.97
553498.03
646665.08
736820.75
821623.07
899301.8
968655.49
1028997.2
1080077.4
1122010.1
1155163.5
1180126.1
1197547.2
1208202.1
1212697.3
1211967
1206683.2
1197562.4
1185076.4
1169888.5
1152635.1
1133420.3
1112852
1091753.9
1069506.1
1046719.7
1023723.2
1000800
977873.29
955327.29
932893.02
0.00027809241
0.0052358574
0.050344499
0.36867087
2.2121707
11.142991
47.697835
175.1527
557.002
1549.6001
3812.3467
8387.2102
16685.419
30342.519
50957.794
79787.823
117485.73
163958.6
218368.19
279255.51
344742.22
412755.16
481234.87
548293.23
612321.53
672044.15
726529.55
775172.38
817659.8
853916.67
884068.58
908373.18
927196.18
940932.74
950115.39
955074.17
956480.33
954629.04
950109.92
943158.94
934173.74
923566.81
911706.68
898627.64
884623.41
869883.58
855038.4
839631.27
824019.87
808310.83
0.00023751497
0.0038920919
0.033127078
0.21887579
1.2085765
5.7131718
23.378884
83.451592
261.72492
726.79633
1802.1317
4025.6762
8176.1667
15236.523
26284.233
42327.903
64131.596
92073.94
126075.69
165605.17
209749.99
257330.79
307029.72
357510.49
407518.45
455947.52
501882.3
544614.01
583638.48
618638.6
649460.31
676084.19
698599.39
717169.18
732035.2
743439.2
751741.34
757064.06
759914.16
760461.62
759003.42
755875.2
751220.28
745262.44
738220.04
730265.74
721676.09
712446.35
702735.09
692656.89
0.00020390801
0.0029437375
0.022362992
0.13393219
0.6817545
3.0219496
11.787224
40.717924
125.26404
345.19987
857.65387
1934.5919
3991.27
7588.5809
13396.859
22121.093
34401.839
50715.048
71294.642
96093.767
124788.44
156817.41
191445.64
227837.64
265128.28
302483.1
339143.74
374457.26
407893.74
439046.77
467629.7
493462.99
516462.1
536620.14
553996.25
568691.46
580858.36
590629.46
598255.43
603747.1
607520.31
609599.91
610265.26
609591.96
607828.6
605047.7
601431
597081.97
592110.79
586605.65
0.00017622059
0.0022629887
0.015455191
0.084308182
0.39651158
1.6479398
6.1145788
20.369137
61.18725
166.4713
412.20605
933.95458
1947.6438
3761.2326
6768.6971
11421.769
18181.777
27460.643
39563.541
54645.33
72688.54
93504.542
116754.82
141986
168671.48
196253.1
224178.2
251929.19
279044.79
305132.81
329875.8
353030.11
374423.68
393947.49
411549.51
427222.86
441001.07
452939.63
463133.75
471653.42
478683.31
484163.62
488422.28
491423.8
493398.36
494388.69
494505.7
493859.01
492547.37
490611.15
0.00015357884
0.0017645828
0.010914996
0.054494662
0.23742342
0.92571622
3.2633752
10.455313
30.55162
81.69564
200.63143
454.36291
953.18006
1861.3757
3400.9234
5844.1124
9493.7648
14653.264
21591.684
30510.652
41519.178
54620.367
69710.909
86591.859
104987.63
124569.42
144979.66
165854.63
186843.64
207623.57
227908.89
247457.39
266072.17
283601.04
299934.61
315001.82
328765.15
341214.17
352364.29
362244.7
370914.66
378403.98
384849.27
390160.95
394572.59
398107.08
400822.85
402851.83
404169.37
404897.92
0.00013402759
0.0013950341
0.0078640735
0.036106158
0.14614516
0.53514552
1.7913635
5.509029
15.612262
40.875355
99.133352
223.3846
469.30178
922.71301
1704.7779
2972.3667
4911.8637
7726.1465
11616.306
16761.064
23297.378
31305.52
40800.652
51731.467
63985.267
77397.963
91767.107
106866.06
122457.76
138306.83
154189.54
169901.19
185261.08
200115.21
214337.11
227827.68
240513.73
252344.8
263291.44
273341.07
282498.62
290775.13
298207.23
304798.99
310619.76
315726.03
320037.08
323827.33
326884.89
329478.14
0.00011764807
0.0011162651
0.0057702608
0.024481144
0.092340736
0.3180251
1.0108705
2.9802508
8.1718495
20.882151
49.827905
111.26824
233.1192
459.56815
855.20832
1507.3872
2525.5073
4036.515
6176.651
9080.4317
12868.468
17635.969
23443.685
30312.382
38221.233
47109.89
56883.54
67419.994
78577.784
90204.382
102143.83
114243.35
126358.56
138357.46
150123.02
161554.36
172567.69
183095.86
193087.2
202504.36
211323.27
219530.38
227124.36
234105.43
240490.2
246297.22
251530.16
256272.26
260387.44
264145.61
0.00010363548
0.00090319321
0.0043062331
0.016959491
0.059802653
0.19406196
0.5860141
1.6550971
4.3834898
10.905098
25.520732
56.273304
117.12846
230.62613
430.62491
764.53228
1294.3035
2095.5834
3254.6692
4863.4117
7012.6193
9784.8198
13247.362
17446.821
22405.301
28118.902
34558.298
41671.131
49385.73
57615.638
66264.44
75230.469
84411.075
93706.264
103021.6
112270.38
121374.87
130267.53
138891.04
147198.22
155151.57
162722.56
169891.27
176644
182974.79
188882.71
194369.14
199449.73
204111.12
208424.23
9.1670865e-05
0.00073771726
0.0032645317
0.011986294
0.039641923
0.12144819
0.34870629
0.94328027
2.4102272
5.8259261
13.337028
28.949277
59.658825
116.90926
218.24764
388.92539
663.08856
1084.1738
1704.2009
2581.8254
3779.2416
5358.2511
7375.9432
9880.5166
12907.782
16478.662
20597.887
25253.895
30419.828
36055.386
42109.274
48521.971
55228.558
62161.419
69252.669
76436.208
83649.357
90834.054
97937.839
104914.25
111723.19
118330.69
124708.91
130835.47
136693.39
142270.4
147558.29
152553.95
157253.44
161668.69
8.1245404e-05
0.00060876469
0.0025110023
0.0086313273
0.026855791
0.077852028
0.21278935
0.55141159
1.358356
3.1855484
7.1186217
15.170929
30.862747
59.998909
111.61203
198.97636
340.53396
560.53201
889.16828
1362.0905
2019.1898
2902.7444
4055.0843
5516.0052
7320.2229
9495.1703
12059.308
15021.085
18378.588
22119.837
26223.632
30660.817
35395.806
40388.238
45594.634
50969.96
56469.021
62047.657
67663.706
73277.736
78853.622
84358.912
89764.883
95046.609
100182.89
105156.09
109951.97
114559.5
118969.96
123178.7
7.2462294e-05
0.00050591927
0.001956222
0.0063221828
0.018570596
0.051054517
0.13302202
0.33039233
0.78444945
1.7830502
3.8831628
8.1078761
16.240817
31.233327
57.721956
102.62599
175.76149
290.37754
463.50332
715.99837
1072.2279
1559.3349
2206.1401
3041.7598
4094.0549
5388.0791
6944.6854
8779.3915
10901.592
13314.159
16013.419
18989.479
22226.821
25705.115
29400.137
33284.758
37329.912
41505.509
45781.257
50127.387
54515.163
58917.469
63309.052
67666.805
71969.829
76199.541
80339.65
84376.095
88296.803
92091.781
6.4574491e-05
0.00042393736
0.0015432695
0.0047066742
0.013089696
0.034208155
0.08509652
0.20273983
0.46398448
1.021564
2.1655796
4.4223754
8.7037419
16.517621
30.245007
53.476321
91.384699
151.09633
242.00341
375.95848
567.29295
832.6191
1190.4008
1660.3094
2262.4086
3016.2266
3939.8114
5048.8513
6355.9191
7869.899
9595.6255
11533.741
13680.765
16029.336
18568.609
21284.741
24161.454
27180.608
30322.776
33567.784
36895.198
40284.737
43716.658
47172.029
50632.973
54082.787
57506.074
60888.774
64218.148
67482.824
5.7736396e-05
0.00035798055
0.0012314446
0.0035558665
0.0093917746
0.02338835
0.055643634
0.12728977
0.28089287
0.5988958
1.2347722
2.462924
4.7543377
8.8848523
16.08092
28.203195
47.961508
79.146068
126.85087
197.6585
299.75287
442.9291
638.47889
898.94305
1237.7389
1668.6822
2205.4353
2860.9358
3646.8425
4573.0403
5647.2352
6874.6638
8257.9256
9796.9391
11489.01
13328.996
15309.548
17421.407
19653.726
21994.416
24430.482
26948.336
29534.103
32173.851
34853.859
37560.761
40281.734
43004.552
45717.69
48410.408
5.1702892e-05
0.00030418648
0.00099218959
0.0027232085
0.0068522354
0.016296551
0.037145947
0.081686428
0.17391112
0.35908175
0.71967218
1.4007335
2.6483484
4.8651006
8.6859717
15.07645
25.451907
41.813257
66.88935
104.27208
158.52695
235.26084
341.13025
483.77836
671.69566
914.00747
1220.196
1599.7753
2061.948
2615.2603
3267.2818
4024.3282
4891.2423
5871.2434
6965.8457
8174.8456
9496.3708
10926.981
12461.81
14094.739
15818.584
17625.295
19506.158
21451.975
23453.244
25500.318
27583.55
29693.402
31820.552
33955.974
4.6494527e-05
0.00025948576
0.00080667244
0.0021124823
0.005076382
0.011557773
0.025284785
0.053521046
0.11001619
0.22003291
0.42857802
0.81341465
1.5046677
2.7132437
4.7700834
8.1778224
13.675395
22.314412
35.543868
55.29749
84.075605
125.0121
181.91636
259.28124
362.25048
496.5424
668.3307
884.08464
1150.3809
1473.6985
1860.2076
2315.5655
2844.732
3451.8127
4139.9385
4911.1826
5766.5177
6705.8105
7727.8503
8830.4061
10010.307
11263.539
12585.353
13970.381
15412.745
16906.18
18444.12
20019.823
21626.437
23257.094
4.1781594e-05
0.00022294761
0.00066183198
0.0016565889
0.0038149605
0.0083331341
0.017528049
0.035759913
0.071036066
0.13767366
0.26061268
0.48211693
0.87184261
1.5414072
2.6645981
4.5043133
7.4468913
12.043808
19.059808
29.525337
44.789825
66.571369
96.997545
138.63198
194.48167
267.98148
362.95377
483.54262
634.12391
819.19805
1043.2692
1310.718
1625.6739
1991.8959
2412.6646
2890.6928
3428.0552
4026.1407
4685.6261
5406.4709
6187.93
7028.5842
7926.3822
8878.6934
9882.3686
10933.805
12029.011
13163.685
14333.269
15533.032
3.7653377e-05
0.00019219211
0.00054738788
0.001314116
0.0029036551
0.006100085
0.012359569
0.024336619
0.046762967
0.087874534
0.16168738
0.29148087
0.51499587
0.89190599
1.514218
2.520193
4.1123491
6.5797232
10.324304
15.890953
23.999452
35.57686
51.787547
74.058189
104.09474
143.8887
195.71072
262.09009
345.77922
449.70463
576.90654
730.46923
913.4455
1128.7792
1379.2292
1667.2985
1995.1707
2364.6566
2777.1521
3233.6081
3734.5121
4279.8817
4869.2683
5501.7703
6176.0543
6890.3832
7642.6503
8430.4227
9250.9971
3.3869744e-05
0.00016636372
0.00045558417
0.0010520231
0.002237476
0.004527546
0.0088522358
0.016847551
0.031346684
0.05715269
0.10224443
0.17961282
0.30993545
0.52543619
0.87521432
1.432411
2.30353
3.6401201
5.6529114
8.6282692
12.946446
19.101003
27.718214
39.57515
55.614943
76.957646
104.90525
140.93973
186.71316
244.02933
314.81769
401.10006
504.95139
628.45593
773.66113
942.53073
1136.8993
1358.4294
1608.5735
1888.541
2199.2712
2541.4134
2915.313
3321.0039
3758.2078
4226.3387
4724.5122
5251.561
5806.0434
3.0562301e-05
0.00014470931
0.00038131734
0.00084896858
0.0017419046
0.0034043621
0.0064331482
0.011848894
0.021370617
0.037831857
0.065830933
0.11269529
0.18988147
0.31494661
0.51429149
0.82682507
1.3087405
2.0395576
3.1295249
4.7283728
7.0353317
10.31012
14.884468
21.173651
29.687281
41.038545
55.951089
75.262831
99.925948
131.00243
169.6551
217.13418
274.7594
343.89841
425.94205
522.27747
634.26
763.18484
910.2594
1076.5772
1263.0939
1470.6067
1699.736
1950.9117
2224.3622
2520.1079
2837.9574
3177.5077
3538.1474
2.7528954e-05
0.0001260341
0.00032099657
0.00069070829
0.0013698196
0.0025889186
0.0047363238
0.008456154
0.014797387
0.025453694
0.043101698
0.071919473
0.11830786
0.19191185
0.30702242
0.48443671
0.75388997
1.1571239
1.751701
2.6155467
3.8522358
5.596965
8.0229957
11.348435
15.842936
21.834045
29.712755
39.937797
53.03838
69.614807
90.336814
115.93941
147.21614
185.00988
230.20118
283.69469
346.4039
419.23467
503.06811
598.74324
707.03999
828.6628
964.22548
1114.2375
1279.0917
1459.0547
1654.2583
1864.6938
2090.2094
2.4821227e-05
0.00011001457
0.00027168582
0.00056555059
0.0010859976
0.0019900563
0.0035299503
0.0061139233
0.010392052
0.017384333
0.028662445
0.046626917
0.074880995
0.1187626
0.18604297
0.28788277
0.44003785
0.66442135
0.99100405
1.4601303
2.1252376
3.0559525
4.3415526
6.094691
8.4552493
11.594189
15.717236
21.068116
27.931233
36.63347
47.544936
61.078533
77.68816
97.865504
122.13537
151.04966
185.18006
225.10953
271.42298
324.69713
385.49001
454.33023
531.70626
618.05613
713.75756
819.11889
934.37102
1059.6603
1195.0436
2.2394347e-05
9.6319219e-05
0.00023081181
0.00046557034
0.00086784705
0.0015438645
0.0026585367
0.0044743342
0.0073947989
0.012037586
0.019333636
0.030670286
0.048089808
0.074555721
0.11431153
0.17335682
0.26004531
0.38585528
0.56633675
0.82224769
1.1809195
1.6778107
2.3582975
3.2795904
4.5128432
6.1452941
8.2824363
11.050075
14.596227
19.092676
24.736146
31.748926
40.378884
50.89875
63.604655
78.813859
96.861681
118.09762
142.88075
171.57453
204.54097
242.13436
284.69481
332.54149
385.96592
445.2254
510.53671
582.07025
659.94513
2.0144475e-05
8.4251506e-05
0.00019632796
0.00038596619
0.00069855771
0.0012070441
0.0020208949
0.0033102302
0.0053234743
0.0084392063
0.013210012
0.020443577
0.031296849
0.047421837
0.071138495
0.10566901
0.15543337
0.2264239
0.32666011
0.46673634
0.66049031
0.92575642
1.2852428
1.7674985
2.4079863
3.2501932
4.346823
5.7609604
7.567211
9.8527555
12.718235
16.27847
20.662873
26.0156
32.49527
40.274322
49.537938
60.482455
73.313388
88.242949
105.48717
125.26265
147.78294
173.25468
201.87356
233.82017
269.25581
308.31845
351.11909
1.8171485e-05
7.4117723e-05
0.00016766693
0.00032069934
0.00056534839
0.00095092284
0.001550189
0.0024708439
0.003872043
0.0059816063
0.0091310349
0.013786737
0.020610488
0.030517213
0.044775594
0.065107838
0.09384109
0.13408266
0.18992736
0.26672983
0.37140165
0.51277361
0.7020103
0.95307252
1.283231
1.7136257
2.2698547
2.9825967
3.8882064