/*--------------------------------*- C++ -*----------------------------------*\
| =========                 |                                                 |
| \\      /  F ield         | OpenFOAM: The Open Source CFD Toolbox           |
|  \\    /   O peration     | Version:  2312                                  |
|   \\  /    A nd           | Website:  www.openfoam.com                      |
|    \\/     M anipulation  |                                                 |
\*---------------------------------------------------------------------------*/
FoamFile
{
    version     2.0;
    format      ascii;
    arch        "LSB;label=32;scalar=64";
    class       volScalarField;
    location    "0.06";
    object      T;
}
// * * * * * * * * * * * * * * * * * * * * * * * * * * * * * * * * * * * * * //

dimensions      [0 0 0 1 0 0 0];

internalField   nonuniform List<scalar> 
3275
(
998.59562
987.99847
970.29389
948.32922
924.34588
900.44329
877.06306
854.58796
833.14845
812.84746
793.67435
778.66864
763.19647
748.94888
735.97714
724.1584
713.36111
703.45619
694.33188
685.89439
678.06544
670.77797
663.97407
657.60474
651.62779
646.00666
640.70953
635.70851
630.97906
626.49948
622.25053
618.21506
614.37772
610.72475
607.24376
603.92358
600.75406
597.72603
594.83113
592.06172
589.41086
586.87215
584.43977
582.10832
579.87239
577.72736
575.66934
573.6944
571.79889
569.97943
568.23292
566.5566
997.91683
984.48281
965.89264
943.83853
920.25062
897.07767
874.29406
852.32718
831.28527
811.30727
792.40215
777.56886
762.27213
748.16468
735.30449
723.5761
712.85274
703.00889
693.93543
685.54064
677.74782
670.49118
663.71377
657.36737
651.41039
645.80678
640.52509
635.53774
630.82046
626.35178
622.11262
618.08597
614.25662
610.6109
607.13652
603.82237
600.65839
597.63544
594.74521
591.98012
589.33323
586.7982
584.36921
582.04085
579.80788
577.66573
575.61035
573.63789
571.7447
569.92742
568.18296
566.50846
995.64982
976.39056
956.37176
934.47337
911.88468
890.3459
868.81515
847.83292
827.57817
808.24267
789.86991
775.37709
760.43364
746.60333
733.96454
722.41575
711.83951
702.11722
693.14502
684.83528
677.11447
669.91927
663.19468
656.89402
650.9769
645.40824
640.15736
635.19733
630.50438
626.05747
621.83786
617.82886
614.01547
610.38427
606.92311
603.62104
600.46814
597.45537
594.57452
591.81808
589.1792
586.65158
584.22946
581.90745
579.68047
577.54398
575.4939
573.52638
571.63783
569.82492
568.08454
566.41382
989.42476
960.59127
940.53838
919.74165
899.07933
880.38089
860.7079
841.17441
822.08361
803.69804
786.11075
772.1146
757.70413
744.28075
731.96902
720.68631
710.32839
700.78666
691.96501
683.78181
676.16821
669.06456
662.41873
656.18629
650.32866
644.81218
639.60733
634.68812
630.03154
625.61717
621.42682
617.44421
613.65473
610.04524
606.60388
603.31991
600.1836
597.18609
594.31929
591.57583
588.94896
586.43248
584.02068
581.70827
579.49029
577.36226
575.32009
573.35999
571.4784
569.67202
567.93778
566.27278
969.43975
933.20386
914.72557
899.06684
882.81009
866.39252
849.89484
832.45816
814.88172
797.73561
781.17223
767.81131
754.11508
741.21899
729.33441
718.40048
708.32931
699.02506
690.40164
682.38525
674.91313
667.9304
661.38868
655.2465
649.46762
644.02025
638.87641
634.01131
629.40298
625.03181
620.88029
616.93273
613.175
609.59436
606.17932
602.91942
599.80517
596.82794
593.97985
591.25367
588.64279
586.14113
583.74311
581.44352
579.23753
577.12073
575.08909
573.13885
571.26653
569.46886
567.74278
566.08546
890.48982
884.54215
881.17537
874.10693
864.19514
851.40842
836.94661
822.35843
806.58892
790.86044
775.46992
762.81375
749.95918
737.66359
726.26934
715.7374
705.99752
696.96811
688.57446
680.75172
673.44404
666.60204
660.18163
654.14471
648.45775
643.09114
638.01861
633.21682
628.66495
624.34436
620.23834
616.33186
612.61135
609.06457
605.68039
602.44873
599.36039
596.40699
593.58086
590.87497
588.28288
585.79867
583.41684
581.13234
578.94046
576.83687
574.81759
572.87895
571.01752
569.23008
567.51362
565.86534
736.55313
823.27873
843.49249
846.91728
842.94281
834.64384
823.21087
810.98127
797.51054
783.31645
769.21233
757.29351
745.37575
733.7359
722.87769
712.78655
703.41076
694.68385
686.54346
678.93448
671.80859
665.12234
658.83633
652.91616
647.33125
642.05434
637.06109
632.32973
627.8407
623.57644
619.5211
615.6604
611.9814
608.47237
605.12263
601.92249
598.86307
595.93627
593.13467
590.45145
587.88037
585.41564
583.05193
580.78431
578.6082
576.51936
574.51391
572.58824
570.73898
568.96298
567.25729
565.61913
600.46272
750.39031
798.17284
814.89034
818.42389
815.15883
807.75924
797.92676
786.82581
774.59894
761.99207
750.87022
740.02766
729.15715
718.91582
709.33395
700.37982
692.00387
684.15789
676.79785
669.88401
663.37973
657.25097
651.46755
646.00229
640.83067
635.93056
631.28199
626.86689
622.66893
618.67329
614.86654
611.23647
607.77196
604.46286
601.2999
598.27462
595.37923
592.60661
589.95019
587.40392
584.96223
582.61995
580.3723
578.21484
576.14345
574.15435
572.24401
570.40915
568.64669
566.95373
565.32757
507.23026
677.78652
749.12511
779.36375
791.24787
793.52451
790.23743
783.57113
774.65886
764.63635
753.84811
743.56616
733.84205
723.91574
714.36751
705.36293
696.888
688.91171
681.40172
674.32639
667.65558
661.36023
655.41229
649.78634
644.45904
639.40895
634.61645
630.06363
625.73409
621.61292
617.68646
613.94227
610.36897
606.95613
603.69421
600.57447
597.58885
594.72999
591.99106
589.3658
586.84841
584.43353
582.1162
579.8918
577.75606
575.705
573.73494
571.84246
570.02437
568.27769
566.59957
564.98738
447.37847
612.65066
699.39203
741.75307
761.93474
770.05366
771.02046
767.68182
761.43955
753.35836
744.63214
735.55132
726.82857
717.99484
709.22017
700.86009
692.92105
685.39264
678.26017
671.50557
665.10918
659.05024
653.30727
647.86012
642.68968
637.77796
633.10812
628.66453
624.43271
620.3993
616.55197
612.87938
609.37109
606.01746
602.80963
599.73944
596.79935
593.9824
591.28216
588.69269
586.20848
583.82442
581.53577
579.33811
577.22735
575.19966
573.2515
571.37957
569.58079
567.85225
566.19123
564.59513
408.78484
558.04305
651.64509
703.44848
731.21941
745.07319
750.43581
750.43992
747.01725
741.16441
734.27805
726.81794
719.06709
711.31881
703.46637
695.81593
688.46757
681.434
674.72
668.32198
662.23152
656.43675
650.92329
645.67673
640.68255
635.92652
631.39489
627.07453
622.95305
619.01884
615.26102
611.66948
608.23483
604.94832
601.80184
598.78788
595.89946
593.13011
590.47384
587.92505
585.47856
583.12956
580.87354
578.70632
576.62398
574.6229
572.69968
570.85115
569.07436
567.36651
565.72495
564.1472
383.23051
513.95394
607.74998
665.75999
699.88868
719.05606
728.70311
732.14516
731.47896
728.0938
723.01187
717.12327
710.71327
703.90749
697.08087
690.22548
683.51949
677.02557
670.76977
664.76356
659.01033
653.5075
648.2483
643.22437
638.4262
633.84361
629.46616
625.28345
621.28536
617.46219
613.80467
610.30404
606.95203
603.74089
600.66336
597.71263
594.88235
592.16659
589.55981
587.05685
584.65289
582.3434
580.12419
577.9913
575.94105
573.97
572.07493
570.25282
568.50085
566.81637
565.19682
563.6398
365.74648
478.92737
568.67146
629.76287
668.70631
692.5041
706.15363
712.95475
715.08364
714.05691
711.00094
706.63226
701.57284
695.96319
689.99598
684.0924
678.07244
672.15978
666.40014
660.81987
655.43456
650.2512
645.27091
640.49179
635.9096
631.51846
627.31148
623.28119
619.41992
615.72
612.17393
608.7744
605.5144
602.38724
599.38657
596.50637
593.74098
591.08507
588.53361
586.08189
583.72548
581.46021
579.28219
577.18774
575.17343
573.23602
571.37249
569.57999
567.85587
566.19758
564.60271
563.06895
353.37084
451.16874
534.6331
596.21361
638.34621
665.91177
683.13351
693.09422
697.95644
699.26119
698.18167
695.49962
691.74195
687.3381
682.40468
677.34376
672.12538
666.83195
661.6041
656.48235
651.49467
646.65769
641.98068
637.46841
633.12218
628.94067
624.92067
621.05783
617.34707
613.78295
610.35979
607.07188
603.91357
600.87929
597.9637
595.16164
592.46819
589.87866
587.38859
584.99377
582.69018
580.47406
578.34184
576.29014
574.31581
572.41584
570.58742
568.8279
567.13479
565.50569
563.93833
562.4305
344.31593
429.04907
505.37578
565.54177
609.3456
639.73249
659.98615
672.8131
680.25582
683.8335
684.69363
683.68129
681.35423
678.09883
674.26721
670.05177
665.62802
661.04043
656.37728
651.74451
647.18276
642.7182
638.36821
634.14448
630.05406
626.10032
622.28392
618.60372
615.05739
611.64181
608.3533
605.18781
602.14113
599.20893
596.38692
593.67087
591.05666
588.54031
586.11795
583.78591
581.54066
579.37883
577.29723
575.29281
573.3627
571.50416
569.71461
567.9916
566.33282
564.73607
563.1992
561.72013
337.48139
411.25138
480.3942
537.89765
582.08397
614.35195
637.03341
652.36044
662.16842
667.89495
670.65248
671.27256
670.37248
668.36064
665.55418
662.27875
658.61888
654.75069
650.71816
646.60216
642.49285
638.42552
634.42538
630.51127
626.69614
622.98816
619.39191
615.90957
612.54169
609.28757
606.14563
603.11358
600.1887
597.36801
594.64832
592.0264
589.49899
587.06284
584.71475
582.45163
580.27043
578.16826
576.14231
574.18989
572.30844
570.49549
568.74873
567.06594
565.445
563.8839
562.38066
560.93333
332.1747
396.76344
459.10171
513.22608
556.78639
590.07189
614.55976
631.97336
643.88162
651.5914
656.15114
658.37202
658.8646
658.09123
656.37512
653.98849
651.16216
647.98184
644.60019
641.05357
637.42111
633.77429
630.1455
626.5612
623.04027
619.59569
616.23595
612.96661
609.79118
606.71151
603.72816
600.84071
598.04801
595.34844
592.74002
590.22057
587.78771
585.43901
583.17197
580.98409
578.8729
576.83595
574.87088
572.97536
571.14718
569.38419
567.68432
566.0456
564.46616
562.94419
561.47788
560.06542
327.94969
384.82315
440.92468
491.34101
533.54444
567.10502
592.80122
611.86703
625.57598
635.06901
641.30431
645.05177
646.91136
647.34248
646.70695
645.26779
643.23004
640.79292
638.03552
635.07488
631.96605
628.76123
625.52355
622.28805
619.0794
615.91536
612.80811
609.76667
606.79757
603.90529
601.0926
598.36097
595.71092
593.14223
590.6542
588.2457
585.91535
583.66154
581.48251
579.37641
577.34134
575.37537
573.47658
571.64307
569.87296
568.16443
566.51572
564.92512
563.39099
561.91174
560.48581
559.11158
324.5128
374.8622
425.34637
471.98677
512.3457
545.57955
571.93968
592.22703
607.41851
618.46935
626.22728
631.40261
634.56919
636.18059
636.59353
636.09486
634.89481
633.1646
631.07501
628.67753
626.10349
623.38549
620.55624
617.68709
614.80778
611.9407
609.1014
606.30233
603.55317
600.86107
598.23102
595.66645
593.16955
590.74159
588.38314
586.09423
583.87447
581.72314
579.63925
577.62162
575.66897
573.7799
571.95298
570.18673
568.47965
566.83028
565.23715
563.69884
562.21398
560.78122
559.39925
558.06685
321.6659
366.4588
411.92636
454.88202
493.10473
525.55045
552.10256
573.20459
589.55721
601.92501
611.03252
617.51625
621.91047
624.65117
626.08927
626.50729
626.13675
625.15571
623.71351
621.89479
619.85268
617.62125
615.24211
612.75522
610.22103
607.66655
605.10988
602.56708
600.05105
597.57163
595.13603
592.74964
590.41636
588.13897
585.91934
583.75872
581.65774
579.61659
577.63509
575.71277
573.84898
572.04289
570.29356
568.59998
566.96104
565.37565
563.84267
562.36099
560.92949
559.5471
558.21276
319.27164
359.29703
400.30129
439.74959
475.6905
507.01409
533.36677
554.9149
572.11742
585.55574
595.8265
603.48284
609.00882
612.81284
615.23306
616.54907
616.99041
616.74669
615.97012
614.75999
613.23485
611.5036
609.54569
607.49121
605.31632
603.08926
600.82887
598.55539
596.28512
594.03052
591.80084
589.60354
587.44423
585.32715
583.25557
581.23194
579.25797
577.33478
575.46301
573.64293
571.87454
570.15762
568.49175
566.87637
565.31082
563.79437
562.32625
560.90564
559.53174
558.20369
556.92054
317.23226
353.13759
390.17572
426.33602
459.9485
489.92344
515.76541
537.43802
555.19989
569.46579
580.70693
589.38861
595.93715
600.72608
604.07497
606.25455
607.49132
607.97297
607.85369
607.25713
606.28027
605.01547
603.53544
601.86787
600.09105
598.20703
596.25509
594.26289
592.25032
590.23216
588.21943
586.22181
584.24655
582.2994
580.38494
578.50696
576.6682
574.87076
573.11611
571.40526
569.73891
568.11744
566.54098
565.00945
563.52263
562.0802
560.68175
559.32679
558.0148
556.74523
555.51731
315.47644
347.79703
381.30951
414.41943
445.72224
474.20333
499.29608
520.82198
538.88069
553.74221
565.76065
575.31387
582.76676
588.45298
592.66779
595.66753
597.67112
598.86309
599.39699
599.39698
598.97684
598.21062
597.17296
595.93987
594.52906
593.01079
591.38676
589.68644
587.94274
586.17208
584.38663
582.59884
580.81739
579.04949
577.30103
575.57722
573.88179
572.21784
570.58769
568.99308
567.43541
565.91572
564.43469
562.99273
561.59008
560.22683
558.90295
557.6183
556.37269
555.16585
553.99744
313.95099
343.133
373.50714
403.80704
432.86479
459.7683
483.93301
505.0883
523.21253
538.45451
551.06321
561.33316
569.56749
576.05652
581.06648
584.83483
587.56895
589.44702
590.61998
591.21442
591.33495
591.07579
590.50392
589.68831
588.66203
587.50877
586.20144
584.82408
583.35975
581.84715
580.29825
578.72991
577.15157
575.5719
573.99792
572.43661
570.89246
569.36966
567.87132
566.3999
564.95754
563.54598
562.16644
560.81981
559.50681
558.22795
556.98362
555.77402
554.59928
553.45947
312.6154
339.03375
366.60886
394.33224
421.23985
446.53134
469.63974
490.2431
508.23245
523.65936
536.68156
547.5167
556.4077
563.59997
569.3276
573.80574
577.22697
579.76018
581.55121
582.72469
583.38705
583.62232
583.5166
583.12873
582.50265
581.69402
580.74219
579.65886
578.49486
577.25593
575.951
574.61133
573.24478
571.86188
570.47028
569.07964
567.6944
566.32024
564.96092
563.61951
562.29901
561.00191
559.72989
558.48435
557.26648
556.07727
554.91749
553.78772
552.6884
551.61974
311.43828
335.41051
360.4836
385.85165
410.72241
434.40553
456.3731
476.28289
493.96793
509.40523
522.6764
533.93049
543.35352
551.14615
557.50868
562.63158
566.68997
569.84098
572.22304
573.95652
575.14519
575.87629
576.22982
576.26634
576.04323
575.60267
574.98839
574.21973
573.35686
572.37503
571.34216
570.24066
569.09374
567.91576
566.71335
565.50154
564.28235
563.06412
561.85087
560.64607
559.4538
558.27742
557.11892
555.98016
554.86289
553.76856
552.69835
551.65322
550.63393
549.64087
310.39486
332.19199
355.02324
378.24207
401.19893
423.30559
444.08445
463.19503
480.43644
495.73164
509.10132
520.63545
530.46803
538.75666
545.66755
551.36504
556.00493
559.73055
562.67089
564.94024
566.63861
567.85259
568.65894
569.12174
569.29168
569.22383
568.95485
568.51272
567.93901
567.23863
566.46936
565.60242
564.69612
563.73132
562.72261
561.69868
560.65154
559.59643
558.53613
557.47414
556.41619
555.36678
554.32767
553.30128
552.28997
551.29569
550.32002
549.36433
548.42975
547.51678
309.46536
329.32034
350.13808
371.39768
392.56706
413.1493
432.72127
450.95876
467.64572
482.66881
496.00206
507.68659
517.81042
526.49109
533.86153
540.05956
545.22048
549.47228
552.9329
555.7089
557.89523
559.57561
560.82402
561.70394
562.26924
562.57064
562.64506
562.53039
562.25719
561.84656
561.32875
560.7235
560.04872
559.29543
558.49251
557.66961
556.7974
555.91307
555.01251
554.09879
553.18077
552.26468
551.35064
550.44198
549.54185
548.65268
547.77647
546.91493
546.06983
545.24138
308.63377
326.74815
345.75326
365.22754
384.73503
403.85847
422.22872
439.54657
455.59446
470.23756
483.4161
495.13231
505.43517
514.40609
522.14667
528.76862
534.3863
539.11139
543.04952
546.2982
548.94602
551.07239
552.74808
554.03507
554.98745
555.65384
556.07503
556.28168
556.31333
556.19327
555.94455
555.59087
555.147
554.61735
554.03795
553.39868
552.71405
552.01115
551.27704
550.51551
549.74223
548.96655
548.18279
547.39686
546.61293
545.83379
545.06178
544.29894
543.54833
542.80861
307.88696
324.43622
341.80593
359.65335
377.62088
395.35961
412.55115
428.92562
444.27341
458.44977
471.3724
483.0139
493.39127
502.55462
510.57689
517.54497
523.55247
528.69435
533.06307
536.74613
539.82462
542.37256
544.45677
546.1368
547.46547
548.48983
549.25049
549.78183
550.11904
550.28403
550.30759
550.20971
550.00448
549.70687
549.33672
548.89736
548.41488
547.88512
547.3169
546.71997
546.09473
545.46924
544.81958
544.16082
543.49789
542.8335
542.17031
541.51019
540.85988
540.21256
307.21406
322.35183
338.24296
354.60751
371.15163
387.58428
403.63322
419.05917
433.66646
447.30907
459.89146
471.36506
481.72164
490.98512
499.20319
506.4398
512.76871
518.26822
523.01726
527.0926
530.56701
533.50823
535.97836
538.0337
539.72486
541.09716
542.19058
543.04022
543.67857
544.13207
544.42819
544.58368
544.62178
544.5565
544.40279
544.17233
543.88124
543.53425
543.13794
542.71303
542.24587
541.76012
541.25382
540.72901
540.1918
539.64667
539.09691
538.54178
538.00038
537.44737
306.60598
320.46748
335.01921
350.03148
365.26229
380.4692
395.42088
409.90794
423.75197
436.81175
448.98586
460.21186
470.46262
479.74087
488.07285
495.50203
502.08368
507.88005
512.95657
517.37894
521.21106
524.51369
527.34356
529.75298
531.78963
533.49669
534.91287
536.0728
537.00775
537.74503
538.31007
538.7234
539.00626
539.17036
539.23669
539.21587
539.12171
538.96172
538.74588
538.48528
538.18126
537.84349
537.48597
537.09813
536.6903
536.26845
535.83789
535.39766
534.95558
534.50644
306.05508
318.75984
332.09608
345.87444
359.89511
373.95619
387.86202
401.43119
414.50392
426.94773
438.66083
449.57293
459.6437
468.85946
477.22875
484.77745
491.54416
497.57611
502.92564
507.64739
511.79609
515.42509
518.58522
521.32417
523.68615
525.71169
527.43768
528.89752
530.12146
531.13649
531.96717
532.63493
533.15954
533.55691
533.84513
534.03229
534.13714
534.16703
534.13303
534.0427
533.90336
533.72253
533.50883
533.2625
532.98936
532.69358
532.38823
532.06414
531.729
531.38519
305.55483
317.20901
329.44036
342.09208
354.99868
367.99198
380.90698
393.58772
405.89307
417.70156
428.91494
439.45981
449.28748
458.37231
466.70878
474.30809
481.19436
487.40117
492.96856
497.94042
502.36234
506.28
509.73797
512.77892
515.44304
517.76779
519.78774
521.53456
523.03719
524.32185
525.41229
526.32985
527.09386
527.72128
528.22823
528.62739
528.93418
529.15314
529.30117
529.38398
529.41159
529.38914
529.32482
529.22231
529.087
528.92408
528.74024
528.53551
528.31382
528.07838
305.09967
315.79788
327.02335
338.64562
350.52722
362.52792
374.50882
386.33662
397.88796
409.05347
419.74095
429.87745
439.40989
448.30453
456.54533
464.13156
471.07515
477.39774
483.12816
488.30015
492.95038
497.11691
500.83786
504.15055
507.09086
509.69275
511.98804
514.0063
515.77481
517.31861
518.66056
519.82141
520.82006
521.67354
522.39744
523.00546
523.51083
523.92337
524.25643
524.51155
524.7077
524.84315
524.93213
524.97545
524.98014
524.95139
524.89386
524.81089
524.70544
524.58128
304.6848
314.51166
324.82009
335.50104
346.43995
357.5197
368.62348
379.63783
390.45582
400.98031
411.12667
420.82485
430.02049
438.67503
446.76499
454.28051
461.22349
467.60544
473.44532
478.76757
483.60048
487.97465
491.92179
495.47375
498.66181
501.51618
504.06562
506.33722
508.35633
510.14646
511.72931
513.12482
514.35123
515.42521
516.362
517.17539
517.87806
518.48105
518.99532
519.42867
519.79377
520.08838
520.33137
520.52043
520.66721
520.77403
520.8455
520.88689
520.89976
520.88938
304.30605
313.3375
322.80879
332.62837
342.70043
352.92698
363.20982
373.45262
383.56329
393.45648
403.0558
412.29575
421.12294
429.49661
437.38854
444.78224
451.67178
458.06027
463.95824
469.38193
474.35192
478.89179
483.027
486.78397
490.1893
493.26924
496.04926
498.55372
500.80575
502.82707
504.63798
506.25733
507.70252
508.98958
510.13329
511.14718
512.04364
512.83388
513.52833
514.13606
514.6665
515.12536
515.52454
515.86042
516.14844
516.39107
516.59234
516.76077
516.89336
516.99876
303.95978
312.26414
320.97033
330.00111
339.27608
348.71311
358.22958
367.74386
377.17703
386.45468
395.50881
404.27936
412.7155
420.7763
428.43099
435.65863
442.4475
448.79407
454.70182
460.17999
465.24232
469.90594
474.19044
478.11695
481.70745
484.98417
487.96911
490.68377
493.14882
495.38398
497.40791
499.23814
500.89103
502.38182
503.7246
504.93243
506.01736
506.99044
507.86184
508.64081
509.33605
509.95496
510.50571
510.99259
511.42384
511.80611
512.13491
512.43232
512.68219
512.90631
303.6428
311.28172
319.28784
327.59575
336.13773
344.84477
353.64731
362.47626
371.26417
379.94661
388.46366
396.76112
404.79172
412.51579
419.90174
426.92606
433.57301
439.83405
445.70706
451.19539
456.30693
461.05311
465.4481
469.50809
473.25058
476.6938
479.85632
482.75659
485.41274
487.84231
490.06214
492.08823
493.93574
495.61888
497.15098
498.54444
499.81078
500.96074
502.00419
502.95025
503.80736
504.58322
505.28517
505.91932
506.49212
507.00929
507.47429
507.89729
508.26762
508.61144
303.35231
310.3815
317.74641
325.39137
333.25917
341.29167
349.43025
357.61643
365.79269
373.90354
381.89655
389.72345
397.34104
404.71191
411.80495
418.59551
425.0654
431.20255
437.00057
442.45807
447.57803
452.367
456.83438
460.99179
464.85253
468.43104
471.74245
474.80221
477.62579
480.22847
482.62513
484.83013
486.85721
488.71945
490.42921
491.99813
493.4371
494.75633
495.96531
497.0729
498.08729
499.01608
499.86635
500.64452
501.35666
502.00833
502.6044
503.15055
503.64838
504.10843
303.0858
309.55575
316.33277
323.3693
330.61684
338.02629
345.54818
353.13297
360.73172
368.29675
375.7825
383.14638
390.34947
397.35722
404.13987
410.6728
416.93658
422.91689
428.60429
433.99377
439.08433
443.87842
448.38136
452.60076
456.54608
460.22819
463.65896
466.85089
469.81684
472.56974
475.12245
477.48758
479.67737
481.70361
483.57757
485.31
486.91103
488.39025
489.75664
491.01865
492.18416
493.26054
494.25464
495.17281
496.02097
496.8046
497.52876
498.19833
498.81724
499.39098
302.84109
308.7976
315.03509
321.51281
328.18949
335.02358
341.97321
348.99646
356.05165
363.09793
370.0959
377.00824
383.80028
390.4406
396.90141
403.1589
409.19339
414.98934
420.53531
425.82369
430.85044
435.61466
440.11826
444.36543
448.36225
452.11636
455.63659
458.93265
462.01483
464.89379
467.58033
470.08525
472.41921
474.59264
476.61561
478.49786
480.24868
481.87691
483.39094
484.7987
486.10766
487.32485
488.45684
489.50978
490.48941
491.4011
492.24982
493.04025
493.77663
494.4632
302.61617
308.10088
313.8428
319.80688
325.95795
332.26071
338.67971
345.1794
351.7243
358.27948
364.81094
371.28616
377.67455
383.94787
390.08064
396.05039
401.83788
407.42721
412.80581
417.96435
422.89655
427.59899
432.07077
436.31326
440.32967
444.12479
447.70471
451.07656
454.24823
457.22816
460.02515
462.64821
465.10637
467.40863
469.56383
471.5806
473.46729
475.23193
476.88222
478.42548
479.86869
481.21843
482.48094
483.66208
484.76735
485.8019
486.77059
487.67791
488.52804
489.32494
302.40926
307.46005
312.74639
318.23801
323.90484
329.71689
335.64406
341.65615
347.72298
353.81465
359.90193
365.95658
371.95177
377.86238
383.66535
389.33988
394.86769
400.2331
405.42312
410.42742
415.23826
419.85034
424.26065
428.46823
432.47395
436.28019
439.89065
443.31014
446.54435
449.59965
452.48295
455.20147
457.76267
460.17411
462.44334
464.57785
466.58498
468.47189
470.2455
471.91248
473.47921
474.95179
476.33602
477.63739
478.86111
480.01208
481.09491
482.11393
483.07318
483.97646
302.21876
306.8701
311.73725
316.79395
322.01442
327.37313
332.84451
338.40286
344.02247
349.67777
355.34364
360.99564
366.61033
372.16554
377.64062
383.01661
388.27647
393.4052
398.3899
403.21984
407.88641
412.38308
416.7053
420.85034
424.81716
428.60618
432.21911
435.65872
438.92876
442.03374
444.97877
447.76942
450.41162
452.91153
455.2754
457.50959
459.62038
461.61401
463.49658
465.27403
466.95211
468.53635
470.03207
471.44433
472.77798
474.03758
475.22749
476.3518
477.41436
478.41882
302.04322
306.32653
310.80759
315.4636
320.27237
325.2121
330.26104
335.39734
340.59905
345.84429
351.11147
356.37949
361.62794
366.83735
371.98937
377.06693
382.05439
386.9377
391.70445
396.34393
400.84718
405.20694
409.41764
413.47529
417.37738
421.12278
424.71157
428.14485
431.42469
434.55393
437.5361
440.37525
443.07588
445.64279
448.08102
450.39575
452.59226
454.67582
456.65168
458.52503
460.30092
461.98428
463.5799
465.09235
466.52606
467.88523
469.17389
470.39584
471.5547
472.65392
301.88132
305.82524
309.95037
314.23685
318.66557
323.21788
327.87521
332.61897
337.43043
342.29083
347.18163
352.08459
356.982
361.85683
366.69286
371.47485
376.18865
380.82129
385.36109
389.79772
394.12223
398.32705
402.40603
406.35434
410.16844
413.84602
417.38588
420.78779
424.05242
427.18121
430.1763
433.0404
435.77668
438.38872
440.88038
443.25577
445.51912
447.67479
449.72717
451.68065
453.5396
455.3083
456.99094
458.59159
460.11422
461.56261
462.94043
464.25115
465.49812
466.68452
301.73186
305.36248
309.15916
313.10452
317.18207
321.37585
325.67
330.04861
334.49572
338.99525
343.53123
348.08792
352.64995
357.20245
361.73117
366.22258
370.664
375.04362
379.35064
383.57532
387.709
391.74413
395.67431
399.49425
403.19976
406.78769
410.25589
413.60311
416.82891
419.93359
422.91811
425.78402
428.53336
431.16857
433.69247
436.10812
438.41881
440.62799
442.73922
444.75611
446.6823
448.52143
450.27707
451.95278
453.55199
455.07806
456.53424
457.92367
459.24937
460.51428
301.59375
304.93486
308.42808
312.05818
315.81093
319.6726
323.62965
327.66849
331.77539
335.93661
340.13839
344.36712
348.60946
352.85245
357.08361
361.291
365.4633
369.5899
373.66095
377.66742
381.60114
385.45482
389.22208
392.89748
396.47645
399.95535
403.33137
406.60251
409.7675
412.82574
415.77726
418.62264
421.36293
423.99963
426.53459
428.96997
431.30816
433.55176
435.70354
437.76635
439.74313
441.63686
443.45052
445.18707
446.84947
448.44058
449.96323
451.42017
452.81409
301.46597
304.53923
307.75175
311.09015
314.54209
318.0958
321.73968
325.46207
329.2512
333.09522
336.98229
340.90066
344.83873
348.78521
352.72918
356.66012
360.56804
364.44345
368.27747
372.06186
375.78905
379.45217
383.0451
386.56243
389.99952
393.35244
396.61802
399.79375
402.87778
405.86885
408.76627
411.56984
414.27983
416.89692
419.42215
421.85687
424.20268
426.46141
428.63509
430.72585
432.73598
434.66779
436.52368
438.30605
440.01733
441.65989
443.23612
444.74834
446.19881
301.34761
304.17275
307.12525
310.19336
313.36636
316.63413
319.9867
323.41406
326.9061
330.45259
334.04328
337.668
341.31669
344.9795
348.64688
352.30961
355.95888
359.58628
363.18387
366.74424
370.26048
373.72627
377.13583
380.48403
383.76629
386.97867
390.1178
393.18091
396.16578
399.0707
401.89445
404.63627
407.29581
409.87309
412.36847
414.78262
417.11645
419.37113
421.548
423.64855
425.67442
427.62734
429.50912
431.32163
433.06675
434.7464
436.36248
437.91688
439.4115
301.23783
303.83278
306.54409
309.36138
312.27533
315.27721
318.35844
321.51041
324.72438
327.99151
331.30291
334.64972
338.02321
341.41482
344.81617
348.21921
351.61619
354.9997
358.36273
361.69866
365.00129
368.26489
371.48417
374.65433
377.77107
380.83054
383.82939
386.76477
389.63426
392.4359
395.16812
397.82976
400.42002
402.93841
405.38477
407.75919
410.06203
412.29386
414.45542
416.54765
418.5716
420.52844
422.41945
424.24596
426.00937
427.7111
429.35262
430.93539
432.4609
301.13585
303.51695
306.00418
308.58836
311.26135
314.01561
316.84372
319.73824
322.6916
325.69611
328.74403
331.82766
334.93935
338.07166
341.21729
344.36917
347.52055
350.66493
353.79614
356.90837
359.99613
363.05429
366.07812
369.06327
372.00575
374.90198
377.74878
380.54333
383.28318
385.96628
388.59086
391.15553
393.65915
396.10089
398.48019
400.7967
403.05031
405.24111
407.36934
409.43543
411.43992
413.3835
415.26693
417.09106
418.85682
420.56519
422.21717
423.81382
425.35622
301.041
303.22313
305.50185
307.86903
310.31754
312.84082
315.43243
318.0859
320.79462
323.5519
326.35095
329.18504
332.04749
334.93177
337.83153
340.74064
343.65318
346.5635
349.46626
352.35636
355.22903
358.07979
360.90446
363.69918
366.4604
369.18488
371.86967
374.51215
377.10996
379.66104
382.16361
384.61611
387.01726
389.36598
391.66142
393.90292
396.08999
398.22234
400.29981
402.32238
404.29019
406.20344
408.06247
409.86769
411.61959
413.31872
414.96567
416.5611
418.1057
300.95265
302.9494
305.03383
307.19871
309.43777
311.74524
314.11551
316.54289
319.0216
321.54572
324.10932
326.70646
329.33127
331.97806
334.64129
337.31562
339.99594
342.67738
345.35532
348.02539
350.68349
353.32579
355.94868
358.54884
361.12318
363.66886
366.18327
368.66403
371.10898
373.51618
375.88389
378.21054
380.49478
382.7354
384.93135
387.08176
389.18589
391.24312
393.25297
395.2151
397.12923
398.99523
400.81302
402.58262
404.30413
405.9777
407.60356
409.18197
410.71326
300.87026
302.69406
304.59721
306.57321
308.61651
310.72201
312.88473
315.09965
317.36161
319.66538
322.0057
324.37731
326.77508
329.194
331.62924
334.07621
336.53051
338.98797
341.44467
343.89693
346.34131
348.77457
351.19372
353.59597
355.97873
358.33959
360.67632
362.98688
365.26935
367.52198
369.74316
371.9314
374.08534
376.20374
378.28546
380.32947
382.33485
384.30079
386.22653
388.11145
389.955
391.75669
393.51613
395.233
396.90704
398.53807
400.12594
401.67059
403.17203
300.79331
302.45553
304.18923
305.98856
307.84851
309.76451
311.73207
313.74667
315.80368
317.8984
320.02614
322.18224
324.36215
326.56151
328.77613
331.00206
333.23557
335.47316
337.71157
339.94776
342.1789
344.40239
346.61581
348.8169
351.00358
353.17392
355.32609
357.4584
359.56925
361.65712
363.72058
365.75829
367.76895
369.75135
371.70432
373.62677
375.51766
377.37603
379.20096
380.9916
382.74715
384.46689
386.15015
387.79632
389.40484
390.97522
392.50702
393.99988
395.45351
300.72126
302.23209
303.80692
305.44038
307.12787
308.86517
310.64817
312.47269
314.33452
316.22939
318.15308
320.10144
322.07049
324.05641
326.05563
328.06481
330.08085
332.10087
334.12225
336.14255
338.15958
340.1713
342.17586
344.17155
346.15681
348.13014
350.09016
352.03554
353.96501
355.87735
357.77133
359.64579
361.49955
363.33149
365.14047
366.9254
368.68519
370.41879
372.12516
373.80332
375.45231
377.0712
378.6591
380.21519
381.73866
383.22879
384.68488
386.10633
387.49262
300.65338
302.02145
303.44624
304.92269
306.44643
308.01342
309.61972
311.26143