/*--------------------------------*- C++ -*----------------------------------*\
| =========                 |                                                 |
| \\      /  F ield         | OpenFOAM: The Open Source CFD Toolbox           |
|  \\    /   O peration     | Version:  2312                                  |
|   \\  /    A nd           | Website:  www.openfoam.com                      |
|    \\/     M anipulation  |                                                 |
\*---------------------------------------------------------------------------*/
FoamFile
{
    version     2.0;
    format      ascii;
    arch        "LSB;label=32;scalar=64";
    class       volVectorField;
    location    "0.06";
    object      U;
}
// * * * * * * * * * * * * * * * * * * * * * * * * * * * * * * * * * * * * * //

dimensions      [0 1 -1 0 0 0 0];

internalField   nonuniform List<vector> 
3275
(
(54.964024 0.36593851 0)
(48.120077 0.86728714 0)
(40.003092 0.90629356 0)
(33.081775 0.77386729 0)
(27.628406 0.60159397 0)
(23.485631 0.45657771 0)
(20.313659 0.34866728 0)
(17.839492 0.26920032 0)
(15.883375 0.21090465 0)
(14.302054 0.16771198 0)
(13.02845 0.13622139 0)
(12.013003 0.11217799 0)
(11.1573 0.09280681 0)
(10.422677 0.07827662 0)
(9.8017724 0.066903675 0)
(9.2681842 0.057925612 0)
(8.8049181 0.050731069 0)
(8.398608 0.044861542 0)
(8.0391676 0.040000134 0)
(7.7187507 0.035925162 0)
(7.4311881 0.032478904 0)
(7.1715065 0.029541639 0)
(6.9356613 0.027019496 0)
(6.720365 0.024840514 0)
(6.5228866 0.022947912 0)
(6.3409506 0.021296029 0)
(6.1726424 0.019848111 0)
(6.0163411 0.018574027 0)
(5.8706654 0.017449066 0)
(5.7344308 0.016452642 0)
(5.6066159 0.015567653 0)
(5.4863356 0.014779684 0)
(5.3728191 0.014076575 0)
(5.2653923 0.013447959 0)
(5.1634633 0.012885052 0)
(5.0665104 0.012380273 0)
(4.9740722 0.011927112 0)
(4.8857394 0.011519914 0)
(4.8011472 0.011153752 0)
(4.7199705 0.010824322 0)
(4.641918 0.010527798 0)
(4.5667286 0.010260694 0)
(4.4941678 0.01001981 0)
(4.4240232 0.0098015893 0)
(4.3560991 0.0096020201 0)
(4.2902225 0.0094225901 0)
(4.2262358 0.0092582261 0)
(4.1639964 0.0091106211 0)
(4.1033742 0.0089754894 0)
(4.0442483 0.0088537185 0)
(3.9865121 0.0087443276 0)
(3.9300658 0.008647037 0)
(54.203399 1.2086868 0)
(46.35418 2.6480522 0)
(38.298851 2.6772282 0)
(31.833441 2.2530708 0)
(26.784145 1.7483101 0)
(22.926059 1.3319868 0)
(19.937353 1.0212229 0)
(17.579888 0.79133504 0)
(15.699501 0.6217484 0)
(14.168716 0.49551132 0)
(12.929275 0.40313671 0)
(11.936886 0.33234766 0)
(11.097966 0.27516972 0)
(10.375806 0.23220895 0)
(9.7639549 0.19851557 0)
(9.2372043 0.17187855 0)
(8.7791875 0.15050819 0)
(8.3769783 0.13305607 0)
(8.0207888 0.1185892 0)
(7.7029832 0.1064539 0)
(7.4175428 0.096184634 0)
(7.1596047 0.087427314 0)
(6.9252063 0.079903842 0)
(6.7111214 0.073400777 0)
(6.5146655 0.067749624 0)
(6.3335993 0.062814742 0)
(6.1660362 0.058486813 0)
(6.0103775 0.054676175 0)
(5.865259 0.051309305 0)
(5.7295106 0.048324914 0)
(5.602122 0.045672106 0)
(5.4822174 0.043307912 0)
(5.3690334 0.041196148 0)
(5.2619022 0.039305898 0)
(5.1602369 0.037610905 0)
(5.0635204 0.036088546 0)
(4.9712945 0.034719329 0)
(4.8831531 0.033486353 0)
(4.7987341 0.032374837 0)
(4.7177144 0.031371985 0)
(4.6398045 0.030466387 0)
(4.5647452 0.029648015 0)
(4.4923027 0.028907764 0)
(4.4222663 0.028236652 0)
(4.354441 0.027627218 0)
(4.2886559 0.027074812 0)
(4.2247533 0.026573682 0)
(4.162591 0.026119141 0)
(4.1020407 0.025706241 0)
(4.0429809 0.02533196 0)
(3.9853064 0.024993116 0)
(3.9289174 0.024686867 0)
(52.0012 2.61759 0)
(42.537113 4.5781341 0)
(34.93933 4.2977869 0)
(29.449873 3.5251053 0)
(25.182888 2.7350305 0)
(21.859732 2.1035696 0)
(19.214717 1.6263526 0)
(17.077889 1.2699415 0)
(15.34184 1.0042266 0)
(13.908123 0.80446749 0)
(12.734694 0.65715574 0)
(11.78709 0.54343252 0)
(10.980921 0.45110518 0)
(10.28316 0.38147962 0)
(9.68908 0.3266598 0)
(9.1757873 0.28319394 0)
(8.7281231 0.24824115 0)
(8.3340142 0.21963993 0)
(7.984255 0.19589102 0)
(7.6716201 0.17594086 0)
(7.3903861 0.15903751 0)
(7.1359071 0.14460766 0)
(6.9043812 0.13219944 0)
(6.6927026 0.12146544 0)
(6.4982794 0.11213076 0)
(6.318943 0.10397401 0)
(6.1528624 0.096816256 0)
(5.9984823 0.090510577 0)
(5.8544735 0.084936299 0)
(5.7196933 0.079992929 0)
(5.593154 0.075596735 0)
(5.4739979 0.071677093 0)
(5.3614767 0.06817437 0)
(5.2549347 0.065037707 0)
(5.1537955 0.062223784 0)
(5.0575502 0.059695235 0)
(4.9657481 0.057419851 0)
(4.8779888 0.055369742 0)
(4.7939155 0.053520471 0)
(4.7132094 0.051850878 0)
(4.6355847 0.050342117 0)
(4.5607853 0.048977715 0)
(4.48858 0.04774262 0)
(4.4187603 0.046623291 0)
(4.3511346 0.045606715 0)
(4.2855326 0.044686553 0)
(4.2217987 0.043849615 0)
(4.1597924 0.043092419 0)
(4.0993854 0.042403276 0)
(4.0404591 0.041778694 0)
(3.9829081 0.041212291 0)
(3.9266339 0.040698936 0)
(46.368041 5.3553126 0)
(36.182894 6.5942833 0)
(30.09242 5.5623154 0)
(26.167301 4.4425117 0)
(22.991544 3.474828 0)
(20.38391 2.7176746 0)
(18.200842 2.1284194 0)
(16.365638 1.6811128 0)
(14.829494 1.3423388 0)
(13.531866 1.0837062 0)
(12.451953 0.89065896 0)
(11.568331 0.73998577 0)
(10.809318 0.61671595 0)
(10.146878 0.52320381 0)
(9.5786435 0.44916988 0)
(9.085007 0.39021152 0)
(8.6525135 0.34263511 0)
(8.2703055 0.30358757 0)
(7.9300149 0.27108215 0)
(7.6250087 0.24371715 0)
(7.349991 0.2204883 0)
(7.1006311 0.20062733 0)
(6.8733613 0.18352527 0)
(6.6652523 0.16871313 0)
(6.4738469 0.15581823 0)
(6.297081 0.14454017 0)
(6.1332049 0.13463501 0)
(5.9807276 0.1259026 0)
(5.8383709 0.11817777 0)
(5.7050331 0.11132316 0)
(5.5797596 0.10522381 0)
(5.4617197 0.099782945 0)
(5.3501872 0.094918455 0)
(5.2445248 0.090560492 0)
(5.144171 0.086649197 0)
(5.0486298 0.083133182 0)
(4.957461 0.079967893 0)
(4.8702733 0.07711485 0)
(4.7867173 0.074540257 0)
(4.7064807 0.072214855 0)
(4.6292834 0.070112579 0)
(4.5548738 0.06821064 0)
(4.4830249 0.066488415 0)
(4.4135315 0.064927315 0)
(4.3462056 0.063510863 0)
(4.2808798 0.062226551 0)
(4.2174005 0.061060615 0)
(4.1556291 0.060003252 0)
(4.0954396 0.059042681 0)
(4.0367148 0.058171207 0)
(3.9793507 0.057380414 0)
(3.9232501 0.056662957 0)
(33.598266 6.7233594 0)
(27.002663 7.7760463 0)
(24.202763 6.1255677 0)
(22.351411 4.8901559 0)
(20.433499 3.9142886 0)
(18.626776 3.137904 0)
(16.96851 2.5056817 0)
(15.486114 2.0089108 0)
(14.188443 1.6241939 0)
(13.055957 1.3246459 0)
(12.091186 1.0973872 0)
(11.287291 0.91742701 0)
(10.587655 0.76863367 0)
(9.9700383 0.65481628 0)
(9.4348187 0.56408807 0)
(8.9664346 0.49141129 0)
(8.5535209 0.43249202 0)
(8.1867279 0.38394114 0)
(7.8587404 0.34338786 0)
(7.5636728 0.30914903 0)
(7.2967723 0.28001372 0)
(7.0541102 0.25505004 0)
(6.8324185 0.23351494 0)
(6.6289946 0.21483348 0)
(6.4415553 0.19854745 0)
(6.2681713 0.18428585 0)
(6.1071984 0.17174682 0)
(5.9572291 0.16068156 0)
(5.8170515 0.1508846 0)
(5.6856175 0.14218448 0)
(5.5620158 0.13443766 0)
(5.445451 0.12752274 0)
(5.3352258 0.12133689 0)
(5.2307269 0.1157922 0)
(5.1314128 0.11081349 0)
(5.036804 0.10633587 0)
(4.9464744 0.10230324 0)
(4.8600445 0.098666926 0)
(4.7771749 0.095384323 0)
(4.697562 0.092418305 0)
(4.6209328 0.089735977 0)
(4.547042 0.087308442 0)
(4.4756679 0.08510966 0)
(4.4066101 0.083116547 0)
(4.3396852 0.081308027 0)
(4.2747288 0.079668265 0)
(4.2115908 0.07817911 0)
(4.1501352 0.076828751 0)
(4.0902382 0.075601844 0)
(4.0317852 0.074488558 0)
(3.9746737 0.073477965 0)
(3.9188083 0.072560627 0)
(10.763748 7.3426444 0)
(17.399493 6.9030015 0)
(18.589234 5.7551983 0)
(18.690115 4.8426521 0)
(17.902719 4.0400682 0)
(16.834944 3.3401973 0)
(15.677629 2.7333476 0)
(14.544521 2.2325849 0)
(13.490923 1.8303145 0)
(12.531227 1.5100309 0)
(11.689087 1.2625775 0)
(10.971369 1.0632894 0)
(10.336741 0.89630823 0)
(9.768728 0.76726707 0)
(9.2703544 0.66363098 0)
(8.8303475 0.58003399 0)
(8.439566 0.51188573 0)
(8.0902776 0.4554621 0)
(7.7763171 0.40814241 0)
(7.4926196 0.36805376 0)
(7.2350326 0.33384034 0)
(7.0000749 0.30445227 0)
(6.7848138 0.27904533 0)
(6.5868011 0.25696335 0)
(6.4039502 0.23768084 0)
(6.2344843 0.22077065 0)
(6.0768791 0.20588369 0)
(5.9298221 0.19273148 0)
(5.7921775 0.18107485 0)
(5.6629585 0.17071393 0)
(5.5413032 0.16148076 0)
(5.4264568 0.15323314 0)
(5.3177556 0.14585022 0)
(5.2146137 0.13922866 0)
(5.1165127 0.13327975 0)
(5.0229925 0.12792699 0)
(4.933643 0.123104 0)
(4.8480985 0.11875322 0)
(4.7660314 0.11482411 0)
(4.6871479 0.11127271 0)
(4.6111836 0.10805989 0)
(4.5379004 0.1051514 0)
(4.4670828 0.10251632 0)
(4.398536 0.10012736 0)
(4.3320816 0.097959903 0)
(4.2675595 0.095993833 0)
(4.204823 0.094208875 0)
(4.1437393 0.092589351 0)
(4.0841874 0.091118285 0)
(4.0260552 0.089783043 0)
(3.9692423 0.08857067 0)
(3.9136554 0.087469988 0)
(4.1252582 3.0937538 0)
(11.529522 4.5611716 0)
(14.171251 4.8303382 0)
(15.475352 4.4751196 0)
(15.553624 3.944699 0)
(15.108006 3.3811909 0)
(14.399343 2.8441915 0)
(13.590326 2.3726265 0)
(12.771271 1.9748956 0)
(11.982611 1.6490666 0)
(11.264091 1.3925552 0)
(10.634502 1.182188 0)
(10.067211 1.003292 0)
(9.551223 0.86322351 0)
(9.0918395 0.74994522 0)
(8.6820685 0.65784563 0)
(8.3150174 0.58230015 0)
(7.9845903 0.51941961 0)
(7.6858088 0.4664477 0)
(7.4144604 0.42139956 0)
(7.1670208 0.38282809 0)
(6.9404805 0.34960449 0)
(6.7322615 0.32081247 0)
(6.5401869 0.29573566 0)
(6.3623802 0.27379769 0)
(6.1972285 0.25452759 0)
(6.0433366 0.23753884 0)
(5.8994947 0.22251068 0)
(5.7646494 0.20917635 0)
(5.6378801 0.19731231 0)
(5.5183793 0.18673017 0)
(5.4054363 0.17726996 0)
(5.2984237 0.16879551 0)
(5.196786 0.16119002 0)
(5.10003 0.15435315 0)
(5.0077165 0.14819807 0)
(4.9194536 0.14264951 0)
(4.8348905 0.13764194 0)
(4.7537123 0.13311791 0)
(4.6756364 0.12902722 0)
(4.6004076 0.1253253 0)
(4.527796 0.121973 0)
(4.4575932 0.1189351 0)
(4.3896101 0.11618051 0)
(4.3236743 0.11368108 0)
(4.2596298 0.11141354 0)
(4.1973344 0.10935465 0)
(4.1366588 0.10748631 0)
(4.0774848 0.10578926 0)
(4.0197037 0.1042487 0)
(3.9632171 0.10284971 0)
(3.907934 0.10157938 0)
(2.4430915 1.2050849 0)
(7.9220893 2.6580911 0)
(10.728199 3.7435702 0)
(12.62422 3.9008057 0)
(13.32176 3.6769188 0)
(13.390875 3.2915074 0)
(13.085437 2.8587027 0)
(12.583886 2.4426208 0)
(11.996067 2.0701515 0)
(11.382275 1.752542 0)
(10.793289 1.4963464 0)
(10.257614 1.2820905 0)
(9.7629932 1.0969304 0)
(9.3040251 0.94918945 0)
(8.8878912 0.82890217 0)
(8.5118925 0.73018811 0)
(8.1715483 0.64861291 0)
(7.8624735 0.58028165 0)
(7.5809629 0.52240987 0)
(7.3237268 0.4729718 0)
(7.087927 0.43047748 0)
(6.8710732 0.39375384 0)
(6.6709807 0.36183766 0)
(6.4857753 0.33397011 0)
(6.3138162 0.30953747 0)
(6.1536752 0.28803471 0)
(6.0041032 0.26904551 0)
(5.8640069 0.25222244 0)
(5.7324268 0.23727555 0)
(5.6085184 0.22396092 0)
(5.4915358 0.21207242 0)
(5.3808192 0.20143426 0)
(5.2757831 0.19189656 0)
(5.1759069 0.18333029 0)
(5.0807265 0.17562445 0)
(4.9898272 0.16868275 0)
(4.9028376 0.16242156 0)
(4.8194246 0.15676798 0)
(4.7392882 0.15165797 0)
(4.6621583 0.1470355 0)
(4.587791 0.14285075 0)
(4.5159656 0.13905999 0)
(4.446482 0.13562375 0)
(4.3791582 0.13250735 0)
(4.3138283 0.12967931 0)
(4.2503417 0.12711302 0)
(4.188561 0.12478282 0)
(4.128361 0.12266773 0)
(4.0696274 0.12074655 0)
(4.0122549 0.1190023 0)
(3.9561479 0.11741811 0)
(3.9012181 0.11597953 0)
(1.9200171 0.57995169 0)
(5.6384509 1.4683118 0)
(8.1468319 2.749883 0)
(10.21264 3.2433351 0)
(11.28956 3.2941731 0)
(11.746364 3.0970203 0)
(11.779165 2.7866626 0)
(11.554312 2.4449292 0)
(11.18485 2.1150321 0)
(10.742352 1.8191709 0)
(10.284353 1.5719186 0)
(9.8458793 1.3607569 0)
(9.4272833 1.1753785 0)
(9.0289923 1.0236934 0)
(8.6596411 0.89913793 0)
(8.3204406 0.79592158 0)
(8.0094447 0.70987364 0)
(7.7239961 0.63725183 0)
(7.4617093 0.57535962 0)
(7.2202607 0.52220671 0)
(6.9975389 0.47631145 0)
(6.7916094 0.43649534 0)
(6.6007117 0.40177537 0)
(6.4233002 0.37137094 0)
(6.2579925 0.34464561 0)
(6.1035632 0.32107228 0)
(5.9589249 0.30021311 0)
(5.8231135 0.281701 0)
(5.6952742 0.26522755 0)
(5.5746476 0.2505329 0)
(5.4605571 0.23739594 0)
(5.3524 0.22562781 0)
(5.2496382 0.21506656 0)
(5.1517903 0.20557274 0)
(5.0584253 0.19702567 0)
(4.9691563 0.18932072 0)
(4.8836354 0.1823666 0)
(4.8015493 0.17608375 0)
(4.7226153 0.17040198 0)
(4.6465779 0.16525994 0)
(4.5732055 0.16060286 0)
(4.5022885 0.1563827 0)
(4.4336359 0.15255601 0)
(4.3670742 0.1490847 0)
(4.3024448 0.14593399 0)
(4.2396033 0.14307431 0)
(4.1784179 0.14047736 0)
(4.1187684 0.13811969 0)
(4.0605446 0.13597802 0)
(4.0036453 0.13403332 0)
(3.9479783 0.13226683 0)
(3.8934582 0.13066262 0)
(1.6680015 0.2736372 0)
(4.1672347 0.74277874 0)
(6.2545353 1.9288748 0)
(8.2404855 2.5903658 0)
(9.5010312 2.8503083 0)
(10.220063 2.8261218 0)
(10.517733 2.6422492 0)
(10.528823 2.3859978 0)
(10.357024 2.1110089 0)
(10.076018 1.8484452 0)
(9.7458144 1.6185358 0)
(9.4052526 1.4168215 0)
(9.0641002 1.236939 0)
(8.7285527 1.085497 0)
(8.4086356 0.95942842 0)
(8.1086866 0.85396705 0)
(7.8292616 0.76515951 0)
(7.5694311 0.68953997 0)
(7.3281318 0.62462136 0)
(7.1040196 0.56852667 0)
(6.8957308 0.51983599 0)
(6.7019095 0.47740506 0)
(6.5212409 0.4402613 0)
(6.3525286 0.4076236 0)
(6.1946659 0.37885004 0)
(6.0466461 0.35340378 0)
(5.9075565 0.33083568 0)
(5.7765736 0.31076606 0)
(5.6529572 0.29287432 0)
(5.5360411 0.27688899 0)
(5.425225 0.26257795 0)
(5.3199694 0.24974178 0)
(5.2197885 0.23820906 0)
(5.1242448 0.22783138 0)
(5.032944 0.21848015 0)
(4.9455303 0.21004332 0)
(4.8616821 0.20242312 0)
(4.7811085 0.19553389 0)
(4.7035458 0.18930016 0)
(4.6287549 0.18365554 0)
(4.5565187 0.17854095 0)
(4.4866395 0.17390421 0)
(4.4189371 0.16969838 0)
(4.3532473 0.16588195 0)
(4.2894196 0.16241733 0)
(4.227317 0.15927185 0)
(4.1668138 0.15641502 0)
(4.1077955 0.15382073 0)
(4.0501568 0.15146398 0)
(3.993801 0.14932352 0)
(3.9386396 0.14737914 0)
(3.8845907 0.14561305 0)
(1.5173805 0.079019659 0)
(3.2185045 0.29187991 0)
(4.8897791 1.282804 0)
(6.6680005 1.9917285 0)
(7.9695226 2.3885013 0)
(8.8407953 2.5069959 0)
(9.3299502 2.4421492 0)
(9.5314196 2.2748142 0)
(9.5307139 2.0620834 0)
(9.396636 1.8412557 0)
(9.1869972 1.6363746 0)
(8.9420653 1.4498569 0)
(8.6780443 1.28025 0)
(8.4057531 1.1334706 0)
(8.1368442 1.0088167 0)
(7.8779611 0.90336332 0)
(7.6318437 0.81360577 0)
(7.3992794 0.73638544 0)
(7.1804949 0.6695303 0)
(6.9751036 0.61135363 0)
(6.7824893 0.56054893 0)
(6.6018819 0.51604725 0)
(6.4324242 0.47691662 0)
(6.2732813 0.44239844 0)
(6.1236355 0.41186291 0)
(5.9827101 0.38477758 0)
(5.8497778 0.36069231 0)
(5.7241653 0.33922349 0)
(5.6052553 0.32004442 0)
(5.4924821 0.30287768 0)
(5.3853281 0.2874839 0)
(5.2833223 0.27365667 0)
(5.1860361 0.26121738 0)
(5.0930799 0.25001103 0)
(5.0040998 0.23990252 0)
(4.918774 0.23077403 0)
(4.83681 0.22252217 0)
(4.7579417 0.21505636 0)
(4.6819266 0.20829634 0)
(4.6085438 0.20217158 0)
(4.5375918 0.19661896 0)
(4.4688866 0.19158281 0)
(4.40226 0.18701281 0)
(4.337558 0.1828646 0)
(4.2746394 0.17909769 0)
(4.2133751 0.17567689 0)
(4.1536466 0.17256932 0)
(4.0953454 0.16974674 0)
(4.038372 0.16718216 0)
(3.9826345 0.16485265 0)
(3.9280488 0.16273608 0)
(3.8745368 0.16081374 0)
(1.4198532 -0.041680395 0)
(2.6022112 0.012292184 0)
(3.9139442 0.79079571 0)
(5.4373838 1.4712053 0)
(6.6865837 1.9403503 0)
(7.6222169 2.1651378 0)
(8.2358276 2.2036295 0)
(8.5814992 2.1218741 0)
(8.7222516 1.9741727 0)
(8.7168061 1.8001893 0)
(8.6173841 1.6261708 0)
(8.4630518 1.4600753 0)
(8.2740451 1.3047623 0)
(8.0642205 1.1666499 0)
(7.846667 1.0465828 0)
(7.6299091 0.94334657 0)
(7.418323 0.85443938 0)
(7.2142821 0.77707954 0)
(7.0192586 0.70945188 0)
(6.8337723 0.6501239 0)
(6.6579309 0.59795221 0)
(6.4915407 0.5519831 0)
(6.3342031 0.51135541 0)
(6.1854492 0.4753558 0)
(6.0447572 0.4433852 0)
(5.9115878 0.41492983 0)
(5.7854066 0.38955004 0)
(5.6656975 0.36686693 0)
(5.551973 0.34655479 0)
(5.4437742 0.32833606 0)
(5.3406713 0.31196871 0)
(5.2422666 0.29724276 0)
(5.148193 0.28397548 0)
(5.0581126 0.27200744 0)
(4.9717151 0.26119913 0)
(4.8887158 0.25142833 0)
(4.8088536 0.24258753 0)
(4.7318896 0.23458205 0)
(4.6576043 0.227328 0)
(4.5857968 0.22075115 0)
(4.5162829 0.2147852 0)
(4.4488936 0.20937124 0)
(4.3834736 0.2044563 0)
(4.3198805 0.19999314 0)
(4.2579832 0.19593906 0)
(4.1976612 0.19225624 0)
(4.1388041 0.18890997 0)
(4.0813102 0.18586968 0)
(4.0250861 0.18310696 0)
(3.9700454 0.18059678 0)
(3.9161089 0.17831613 0)
(3.8632025 0.17624418 0)
(1.3524279 -0.11208985 0)
(2.1950879 -0.15880403 0)
(3.2168992 0.42535668 0)
(4.4865226 1.0356186 0)
(5.6301844 1.5265065 0)
(6.565688 1.8214206 0)
(7.2469933 1.9429982 0)
(7.6934702 1.9382729 0)
(7.9452616 1.8542102 0)
(8.047996 1.7290314 0)
(8.0460891 1.589661 0)
(7.9752092 1.4481686 0)
(7.8572426 1.3107128 0)
(7.707864 1.1845274 0)
(7.5409478 1.0720786 0)
(7.3664755 0.97339799 0)
(7.1900883 0.88701383 0)
(7.0154178 0.81098567 0)
(6.8450852 0.74379802 0)
(6.6804536 0.68430239 0)
(6.522312 0.63156296 0)
(6.3710162 0.58477974 0)
(6.2266157 0.54319132 0)
(6.089003 0.50615151 0)
(5.957953 0.47311057 0)
(5.8331667 0.44358796 0)
(5.7143061 0.41716612 0)
(5.6010168 0.39347997 0)
(5.4929463 0.37221211 0)
(5.389747 0.35309123 0)
(5.291081 0.33587741 0)
(5.1966279 0.320361 0)
(5.1060858 0.30635826 0)
(5.0191716 0.29370796 0)
(4.9356216 0.28226823 0)
(4.8551908 0.27191425 0)
(4.7776522 0.26253578 0)
(4.7027956 0.25403534 0)
(4.6304268 0.24632628 0)
(4.5603665 0.23933162 0)
(4.4924491 0.23298245 0)
(4.4265218 0.22721735 0)
(4.3624437 0.22198099 0)
(4.3000847 0.21722389 0)
(4.2393247 0.21290123 0)
(4.1800531 0.20897309 0)
(4.1221677 0.20540296 0)
(4.0655746 0.2021584 0)
(4.0101869 0.19920945 0)
(3.9559245 0.19652964 0)
(3.9027134 0.19409429 0)
(3.8504841 0.19188223 0)
(1.3034781 -0.15126038 0)
(1.9206906 -0.2618701 0)
(2.7168341 0.15896631 0)
(3.7574632 0.68135539 0)
(4.7715239 1.1582927 0)
(5.6636815 1.4913872 0)
(6.3677707 1.6744088 0)
(6.8768066 1.7348382 0)
(7.2103453 1.7095221 0)
(7.4001673 1.6324557 0)
(7.4815341 1.5295967 0)
(7.4853102 1.4154478 0)
(7.4329473 1.2986891 0)
(7.3407258 1.1871776 0)
(7.2228246 1.0849332 0)
(7.089925 0.99305628 0)
(6.948745 0.91087865 0)
(6.8038876 0.83757447 0)
(6.6588366 0.7720447 0)
(6.5157462 0.71339629 0)
(6.3760334 0.66092528 0)
(6.2405613 0.61401972 0)
(6.1098035 0.57204517 0)
(5.9840007 0.53444277 0)
(5.8632189 0.50073017 0)
(5.7473964 0.47047415 0)
(5.6363918 0.44329093 0)
(5.5300139 0.41883827 0)
(5.4280482 0.39681451 0)
(5.3302612 0.37696144 0)
(5.2364097 0.35904624 0)
(5.1462537 0.34286363 0)
(5.0595591 0.32823223 0)
(4.9761005 0.31499176 0)
(4.8956633 0.3030003 0)
(4.8180445 0.29213233 0)
(4.7430531 0.28227649 0)
(4.6705098 0.27333381 0)
(4.6002472 0.265216 0)
(4.5321089 0.25784427 0)
(4.4659495 0.25114785 0)
(4.4016338 0.24506349 0)
(4.3390361 0.23953403 0)
(4.2780398 0.23450822 0)
(4.2185365 0.22993949 0)
(4.1604261 0.22578623 0)
(4.1036158 0.22201033 0)
(4.0480198 0.21857781 0)
(3.9935587 0.21545732 0)
(3.9401587 0.21262096 0)
(3.887752 0.21004335 0)
(3.8362737 0.20770143 0)
(1.267042 -0.17115265 0)
(1.7320275 -0.32211852 0)
(2.35537 -0.032280014 0)
(3.2004808 0.39940135 0)
(4.0800268 0.83993949 0)
(4.90304 1.1854538 0)
(5.596706 1.4092715 0)
(6.1364424 1.5213928 0)
(6.5250905 1.547497 0)
(6.7814147 1.5156161 0)
(6.9312182 1.4493098 0)
(6.9996679 1.3639132 0)
(7.0063405 1.269684 0)
(6.9670009 1.1750569 0)
(6.8955202 1.0851305 0)
(6.8027665 1.0019471 0)
(6.6961607 0.92573291 0)
(6.5810738 0.85648624 0)
(6.4615593 0.79375968 0)
(6.3404168 0.73696955 0)
(6.2196416 0.6856217 0)
(6.1005546 0.63931111 0)
(5.9840157 0.59755322 0)
(5.8705923 0.55989495 0)
(5.7606291 0.52593798 0)
(5.6542935 0.49530988 0)
(5.5516364 0.46767153 0)
(5.4526282 0.44271245 0)
(5.357193 0.42015386 0)
(5.265213 0.39975804 0)
(5.1765402 0.3813041 0)
(5.0910172 0.36459542 0)
(5.0084796 0.3494564 0)
(4.9287617 0.33573069 0)
(4.8517001 0.32327866 0)
(4.7771356 0.31197621 0)
(4.704915 0.30171257 0)
(4.6348917 0.29238874 0)
(4.5669262 0.28391599 0)
(4.5008867 0.2762147 0)
(4.4366491 0.26921315 0)
(4.3740968 0.26284692 0)
(4.3131205 0.25705772 0)
(4.2536178 0.25179296 0)
(4.1954932 0.24700487 0)
(4.1386577 0.24265039 0)
(4.0830285 0.2386903 0)
(4.0285285 0.23508918 0)
(3.9750863 0.2318147 0)
(3.9226356 0.22883778 0)
(3.8711143 0.2261319 0)
(3.8204632 0.22367393 0)
(1.2395714 -0.17883079 0)
(1.5997242 -0.35492391 0)
(2.0915662 -0.16746084 0)
(2.7750989 0.17883665 0)
(3.5265226 0.57087106 0)
(4.2677017 0.90964395 0)
(4.9281784 1.1561233 0)
(5.4734903 1.3063157 0)
(5.8941949 1.3751311 0)
(6.1978932 1.3838087 0)
(6.4014492 1.3524697 0)
(6.5240138 1.2959851 0)
(6.5823154 1.2252091 0)
(6.5907758 1.1489185 0)
(6.5623469 1.0729106 0)
(6.5076522 1.0000212 0)
(6.4344312 0.93134124 0)
(6.3485421 0.86749653 0)
(6.2544482 0.80864736 0)
(6.1553852 0.75466393 0)
(6.0538243 0.70528486 0)
(5.9514998 0.66029681 0)
(5.8496108 0.61937577 0)
(5.7490229 0.58218855 0)
(5.6503402 0.54843683 0)
(5.5539457 0.51782054 0)
(5.460074 0.49005562 0)
(5.3688517 0.46487119 0)
(5.2803405 0.4420184 0)
(5.1945375 0.4212874 0)
(5.1113891 0.40247425 0)
(5.0308207 0.38539497 0)
(4.9527391 0.36988339 0)
(4.8770395 0.35578998 0)
(4.8036108 0.34298008 0)
(4.7323395 0.33133303 0)
(4.6631112 0.3207406 0)
(4.5958132 0.3111052 0)
(4.5303356 0.30233904 0)
(4.466572 0.29436273 0)
(4.4044209 0.28710451 0)
(4.3437853 0.2804996 0)
(4.284573 0.27448925 0)
(4.2266969 0.26902012 0)
(4.170075 0.26404367 0)
(4.1146301 0.25951591 0)
(4.0602901 0.25539674 0)
(4.0069873 0.25164981 0)
(3.954659 0.24824184 0)
(3.903246 0.24514301 0)
(3.852694 0.24232603 0)
(3.8029486 0.23976698 0)
(1.2186136 -0.17875027 0)
(1.5050328 -0.36981887 0)
(1.8968644 -0.26114126 0)
(2.4494624 0.0088707753 0)
(3.0849476 0.34763491 0)
(3.7407458 0.66654346 0)
(4.3538935 0.92080863 0)
(4.8860677 1.0963468 0)
(5.3197874 1.1986639 0)
(5.6538424 1.2421634 0)
(5.8972432 1.2429102 0)
(6.0633086 1.214339 0)
(6.1653782 1.1670883 0)
(6.2159352 1.109866 0)
(6.2266 1.0488401 0)
(6.2073021 0.98750532 0)
(6.1657675 0.92764109 0)
(6.1080476 0.87043035 0)
(6.0388453 0.81653082 0)
(5.9616974 0.76623453 0)
(5.8794005 0.71961461 0)
(5.794023 0.67666466 0)
(5.707056 0.63720499 0)
(5.6196337 0.60102671 0)
(5.5325935 0.56794455 0)
(5.4465149 0.53774096 0)
(5.3618031 0.5101959 0)
(5.2787328 0.48508506 0)
(5.1974998 0.46219557 0)
(5.1182129 0.44135356 0)
(5.0409102 0.42237625 0)
(4.9655993 0.4050964 0)
(4.892258 0.38936065 0)
(4.8208428 0.37502949 0)
(4.7512961 0.36197561 0)
(4.6835503 0.35008421 0)
(4.6175314 0.33925134 0)
(4.5531613 0.32938261 0)
(4.4903604 0.32039239 0)
(4.429049 0.31220278 0)
(4.3691488 0.30474284 0)
(4.3105833 0.29794843 0)
(4.2532784 0.29176092 0)
(4.197163 0.28612699 0)
(4.142169 0.28099771 0)
(4.0882321 0.27632878 0)
(4.0352911 0.27207948 0)
(3.9832887 0.26821294 0)
(3.9321708 0.26469537 0)
(3.8818868 0.26149617 0)
(3.8323892 0.2585878 0)
(3.7836301 0.25594591 0)
(1.2023777 -0.1738914 0)
(1.4357749 -0.37291917 0)
(1.7513313 -0.3242197 0)
(2.1990401 -0.12018415 0)
(2.7330086 0.16533445 0)
(3.3057727 0.45626336 0)
(3.8641349 0.70684938 0)
(4.3701275 0.89656831 0)
(4.8018537 1.0233795 0)
(5.1517287 1.095395 0)
(5.4223126 1.1244283 0)
(5.6216398 1.121815 0)
(5.7595139 1.0973409 0)
(5.846112 1.0592736 0)
(5.8914416 1.0137975 0)
(5.904429 0.96485387 0)
(5.8924343 0.91479441 0)
(5.8614564 0.86523951 0)
(5.8162513 0.81727789 0)
(5.760521 0.77153824 0)
(5.6972972 0.72840902 0)
(5.6288628 0.68816259 0)
(5.5569249 0.65077305 0)
(5.4828617 0.61614153 0)
(5.4077161 0.58420038 0)
(5.3322392 0.5548208 0)
(5.2569901 0.52785483 0)
(5.1823791 0.50313019 0)
(5.1087316 0.48047553 0)
(5.0362633 0.45976081 0)
(4.9650977 0.44082834 0)
(4.8953233 0.42353113 0)
(4.8269876 0.4077321 0)
(4.7601082 0.39330471 0)
(4.6946805 0.38013161 0)
(4.6306839 0.36810602 0)
(4.5680844 0.35713039 0)
(4.5068394 0.34711498 0)
(4.4469004 0.33797795 0)
(4.3882147 0.32964387 0)
(4.3307282 0.32204384 0)
(4.2743855 0.31511504 0)
(4.2191312 0.30880003 0)
(4.1649107 0.30304587 0)
(4.1116707 0.29780408 0)
(4.0593599 0.29303027 0)
(4.0079291 0.2886838 0)
(3.9573313 0.28472754 0)
(3.9075222 0.28112737 0)
(3.8584594 0.27785288 0)
(3.8101041 0.27487571 0)
(3.7624133 0.27217141 0)
(1.189566 -0.16625925 0)
(1.3839442 -0.3682515 0)
(1.6410052 -0.36478548 0)
(2.0052027 -0.21657617 0)
(2.4522079 0.018590889 0)
(2.9477282 0.27728401 0)
(3.4487259 0.51590275 0)
(3.9202172 0.71052091 0)
(4.3387041 0.85352649 0)
(4.6924681 0.9476484 0)
(4.9791218 1.0006058 0)
(5.2021936 1.0212799 0)
(5.3681004 1.0181375 0)
(5.4845847 0.99869181 0)
(5.559858 0.96886324 0)
(5.6016512 0.93276464 0)
(5.6166981 0.89316738 0)
(5.6106849 0.85206008 0)
(5.588265 0.8108516 0)
(5.55316 0.77046549 0)
(5.5085468 0.73155832 0)
(5.4568507 0.69462729 0)
(5.3998884 0.65986449 0)
(5.3392376 0.62730131 0)
(5.2761207 0.59697099 0)
(5.211434 0.56883033 0)
(5.14587 0.54280963 0)
(5.0799597 0.51879285 0)
(5.0141516 0.49665469 0)
(4.948761 0.47631706 0)
(4.8839888 0.4576501 0)
(4.8200009 0.4405303 0)
(4.7569128 0.42483997 0)
(4.6948015 0.41046857 0)
(4.633715 0.39731102 0)
(4.5736787 0.38527088 0)
(4.5146992 0.37425896 0)
(4.4567693 0.36419185 0)
(4.3998715 0.35499288 0)
(4.3439809 0.34659037 0)
(4.2890675 0.33891836 0)
(4.235098 0.33191647 0)
(4.1820359 0.32552911 0)
(4.1298437 0.31970457 0)
(4.0784833 0.31439525 0)
(4.027917 0.30955737 0)
(3.9781079 0.30515071 0)
(3.9290199 0.30113824 0)
(3.8806187 0.29748637 0)
(3.8328714 0.29416435 0)
(3.7857461 0.29114486 0)
(3.7392072 0.28840115 0)
(1.1792516 -0.15717859 0)
(1.3442328 -0.35852511 0)
(1.5560908 -0.38881645 0)
(1.8539281 -0.28710677 0)
(2.2275239 -0.09786988 0)
(2.6533077 0.12712766 0)
(3.0977095 0.3482253 0)
(3.5301163 0.54040747 0)
(3.9274336 0.69232915 0)
(4.2756934 0.80241195 0)
(4.5690027 0.87468957 0)
(4.8072691 0.91549762 0)
(4.9938789 0.9317024 0)
(5.1342007 0.92981221 0)
(5.2345888 0.91525554 0)
(5.3014722 0.89210389 0)
(5.3407623 0.86333474 0)
(5.3576572 0.83120487 0)
(5.3565265 0.79735553 0)
(5.341011 0.76298838 0)
(5.3143048 0.72898822 0)
(5.2789062 0.69597072 0)
(5.2366967 0.66433922 0)
(5.1893789 0.63432515 0)
(5.1383036 0.60605779 0)
(5.0844911 0.57956592 0)
(5.0287475 0.5548572 0)
(4.9717059 0.53187355 0)
(4.9139314 0.51053969 0)
(4.8558289 0.49083714 0)
(4.7976655 0.47266546 0)
(4.7396804 0.45592711 0)
(4.682054 0.44052682 0)
(4.6249203 0.42637294 0)
(4.5683781 0.41337473 0)
(4.5124983 0.40144835 0)
(4.457327 0.39051489 0)
(4.402892 0.38049887 0)
(4.3492069 0.37133022 0)
(4.2962741 0.36294219 0)
(4.2440885 0.35527276 0)
(4.1926387 0.34826502 0)
(4.1419077 0.34186608 0)
(4.0918751 0.33602618 0)
(4.0425185 0.33069915 0)
(3.9938142 0.32584244 0)
(3.9457379 0.3214166 0)
(3.898265 0.31738551 0)
(3.8513715 0.31371573 0)
(3.8050337 0.31037802 0)
(3.7592285 0.30734464 0)
(1.1707745 -0.14750608 0)
(1.3130802 -0.34559341 0)
(1.4896954 -0.40072778 0)
(1.7347379 -0.33727925 0)
(2.0469466 -0.18890044 0)
(2.4110749 0.002853489 0)
(2.8017833 0.20309282 0)
(3.1933379 0.38733562 0)
(3.5643384 0.54206585 0)
(3.9000362 0.66248853 0)
(4.192308 0.7495123 0)
(4.4383348 0.80703885 0)
(4.6389486 0.84021939 0)
(4.7973398 0.8543915 0)
(4.9180695 0.85431996 0)
(5.0062213 0.84385575 0)
(5.0667572 0.82600457 0)
(5.1042497 0.80314441 0)
(5.1226902 0.77707037 0)
(5.125516 0.74922688 0)
(5.1158055 0.72067629 0)
(5.0960477 0.69211432 0)
(5.0681838 0.66411701 0)
(5.0339754 0.6371124 0)
(4.9948364 0.61131057 0)
(4.9518761 0.586857 0)
(4.9059955 0.56381857 0)
(4.8579121 0.54219072 0)
(4.8083 0.52195208 0)
(4.7576419 0.50314695 0)
(4.7062566 0.48570611 0)
(4.6544518 0.46955984 0)
(4.6024689 0.45463814 0)
(4.5504954 0.44087096 0)
(4.4986781 0.42818357 0)
(4.4471323 0.41650682 0)
(4.3959421 0.40577408 0)
(4.3451693 0.39591908 0)
(4.2948579 0.38688 0)
(4.2450372 0.37859589 0)
(4.195727 0.37100978 0)
(4.146938 0.36406916 0)
(4.0986726 0.35772491 0)
(4.0509275 0.35192973 0)
(4.0036964 0.34663962 0)
(3.9569696 0.34181368 0)
(3.9107359 0.33741398 0)
(3.8649822 0.33340529 0)
(3.8196956 0.32975548 0)
(3.7748623 0.32643617 0)
(3.7304654 0.32342031 0)
(1.1636679 -0.13777757 0)
(1.2880716 -0.33073263 0)
(1.436949 -0.40379677 0)
(1.6398539 -0.37148113 0)
(1.9009919 -0.25879785 0)
(2.2114001 -0.098608258 0)
(2.5525435 0.079149654 0)
(2.9034942 0.25156566 0)
(3.2452687 0.40419066 0)
(3.5633996 0.53001709 0)
(3.8485867 0.62745213 0)
(4.0961161 0.6982146 0)
(4.3047896 0.74575631 0)
(4.4759091 0.77418064 0)
(4.6123941 0.78747853 0)
(4.7179962 0.78911973 0)
(4.7966804 0.78198771 0)
(4.8523051 0.76846241 0)
(4.8883991 0.75042311 0)
(4.9081138 0.72943496 0)
(4.914304 0.7067092 0)
(4.9093692 0.68304921 0)
(4.8952855 0.65915717 0)
(4.873795 0.63559161 0)
(4.846349 0.61264525 0)
(4.8141205 0.59057677 0)
(4.7780522 0.56954363 0)
(4.7389349 0.54958491 0)
(4.6975446 0.53073172 0)
(4.6544274 0.51308788 0)
(4.6099385 0.49661487 0)
(4.564448 0.48127469 0)
(4.5182539 0.46702472 0)
(4.4715922 0.45381907 0)
(4.4246545 0.44159997 0)
(4.3775984 0.43031503 0)
(4.3305437 0.41991169 0)
(4.2835849 0.41033403 0)
(4.2367953 0.40153 0)
(4.1902303 0.39344533 0)
(4.1439342 0.38602895 0)
(4.0979398 0.37923395 0)
(4.0522684 0.37301583 0)
(4.0069339 0.36733044 0)
(3.9619457 0.36213646 0)
(3.917309 0.35739533 0)
(3.873025 0.35307097 0)
(3.829093 0.34912981 0)
(3.7855112 0.3455409 0)
(3.7422753 0.34227788 0)
(3.6993761 0.33931348 0)
(1.157602 -0.12831242 0)
(1.267554 -0.31482346 0)
(1.3943804 -0.40046318 0)
(1.5635211 -0.39319443 0)
(1.7822784 -0.31125202 0)
(2.0463183 -0.18024237 0)
(2.3425892 -0.025329791 0)
(2.6545446 0.13273326 0)
(2.9659116 0.27947337 0)
(3.2632047 0.4065279 0)
(3.5367621 0.5104215 0)
(3.7807012 0.59102317 0)
(3.9923169 0.65021335 0)
(4.1713593 0.69087994 0)
(4.3192996 0.71617375 0)
(4.438641 0.7290688 0)
(4.5323608 0.73220217 0)
(4.6035683 0.72785184 0)
(4.6552631 0.71790654 0)
(4.6902378 0.70396589 0)
(4.7110728 0.6873145 0)
(4.7200082 0.66888793 0)
(4.7189796 0.64947799 0)
(4.7096816 0.6297181 0)
(4.6935508 0.60999669 0)
(4.6718091 0.59065368 0)
(4.6454141 0.57192196 0)
(4.6151912 0.5539245 0)
(4.5820104 0.53674506 0)
(4.5464656 0.52052097 0)
(4.5089351 0.50524923 0)
(4.4698459 0.49092893 0)
(4.4295456 0.4775456 0)