/*--------------------------------*- C++ -*----------------------------------*\
| =========                 |                                                 |
| \\      /  F ield         | OpenFOAM: The Open Source CFD Toolbox           |
|  \\    /   O peration     | Version:  2312                                  |
|   \\  /    A nd           | Website:  www.openfoam.com                      |
|    \\/     M anipulation  |                                                 |
\*---------------------------------------------------------------------------*/
FoamFile
{
    version     2.0;
    format      ascii;
    arch        "LSB;label=32;scalar=64";
    class       volScalarField;
    location    "0.01";
    object      CO2;
}
// * * * * * * * * * * * * * * * * * * * * * * * * * * * * * * * * * * * * * //

dimensions      [0 0 0 0 0 0 0];

internalField   nonuniform List<scalar> 
3272
(
0.0072167422
0.0067750699
0.0063387429
0.0059102975
0.0054921057
0.0050862759
0.0046946327
0.0043187114
0.0039597583
0.0036187374
0.003296341
0.0029930047
0.0027089258
0.002444084
0.0021982639
0.0019710794
0.0017619973
0.0015703621
0.0013954189
0.0012363362
0.0010922268
0.00096216676
0.00084521292
0.00074041809
0.00064684418
0.00056357344
0.00048971754
0.00042442494
0.0003668864
0.00031633908
0.00027206904
0.00023341276
0.0001997574
0.00017054033
0.00014524793
0.00012341376
0.00010461636
8.8476757e-05
7.4655704e-05
6.2850849e-05
5.2793849e-05
4.4247499e-05
3.700293e-05
3.0876906e-05
2.5709264e-05
2.1360493e-05
1.7709484e-05
1.465145e-05
1.2096019e-05
9.9654925e-06
8.1932798e-06
6.7224867e-06
5.5046578e-06
0.0075849311
0.0071234015
0.0066669516
0.0062182984
0.0057799859
0.005354281
0.0049431525
0.004548264
0.0041709735
0.0038123395
0.0034731312
0.0031538443
0.0028547195
0.0025757641
0.0023167765
0.0020773707
0.0018570026
0.0016549956
0.0014705653
0.0013028443
0.0011509038
0.0010137745
0.00089046552
0.00077998015
0.00068133049
0.00059354927
0.00051569977
0.00044688365
0.00038624699
0.00033298461
0.00028634295
0.00024562155
0.00021017349
0.00017940488
0.00015277358
0.00012978731
0.00011000135
9.3015826e-05
7.8472856e-05
6.6053541e-05
5.5474899e-05
4.6486833e-05
3.8869167e-05
3.2428785e-05
2.6996922e-05
2.2426603e-05
1.8590268e-05
1.537757e-05
1.2693356e-05
1.0455834e-05
8.5949092e-06
7.0506985e-06
5.7722826e-06
0.0082767295
0.0077782922
0.0072843969
0.0067980902
0.0063222358
0.0058593992
0.0054118225
0.0049814136
0.0045697448
0.0041780563
0.0038072671
0.0034579898
0.0031305514
0.0028250158
0.0025412104
0.0022787538
0.0020370843
0.0018154885
0.0016131294
0.0014290736
0.0012623163
0.0011118046
0.0009764584
0.00085518917
0.00074691589
0.00065057868
0.00056515006
0.00048964387
0.00042312215
0.00036470012
0.00031354946
0.00026890011
0.00023004083
0.00019631866
0.00016713755
0.00014195638
0.0001202863
0.00010168791
8.576798e-05
7.217623e-05
6.0601893e-05
5.0770393e-05
4.2440069e-05
3.5399023e-05
2.9462126e-05
2.4468204e-05
2.0277412e-05
1.6768813e-05
1.3838156e-05
1.1395853e-05
9.3651546e-06
7.6805117e-06
6.286207e-06
0.0092652585
0.008714845
0.008168104
0.0076285485
0.0070995003
0.0065839566
0.0060845566
0.0056035666
0.0051428739
0.0047039884
0.0042880523
0.0038958553
0.003527856
0.0031842074
0.0028647861
0.0025692233
0.0022969378
0.0020471686
0.0018190075
0.0016114301
0.0014233256
0.0012535231
0.0011008171
0.00096398854
0.00084182391
0.00073313133
0.00063675364
0.00055157902
0.0004765491
0.00041066488
0.00035299075
0.0003026566
0.00025885869
0.00022085904
0.00018798402
0.00015962205
0.00013522073
0.00011428357
9.636636e-05
8.1073481e-05
6.8054033e-05
5.6998056e-05
4.7632826e-05
3.9719271e-05
3.3048582e-05
2.7439023e-05
2.2732956e-05
1.8794102e-05
1.5505019e-05
1.276482e-05
1.0487099e-05
8.5980886e-06
7.0351012e-06
0.01053446
0.0099184864
0.0093048827
0.0086977717
0.0081010726
0.0075183476
0.0069527599
0.0064070505
0.0058835271
0.005384062
0.0049100994
0.004462671
0.0040424183
0.0036496211
0.0032842299
0.0029459021
0.0026340395
0.0023478268
0.0020862697
0.0018482315
0.0016324681
0.0014376602
0.0012624422
0.0011054285
0.00096523625
0.0008405039
0.00072990758
0.00063217358
0.00054608817
0.00047050489
0.00040434941
0.0003466223
0.0002964001
0.00025283481
0.00021515228
0.00018264961
0.00015469195
0.00013070877
0.0001101897
9.2680234e-05
7.7777364e-05
6.5125169e-05
5.4410556e-05
4.5359133e-05
3.773129e-05
3.1318539e-05
2.5940088e-05
2.1439684e-05
1.7682715e-05
1.4553578e-05
1.1953291e-05
9.7973713e-06
8.0140462e-06
0.012074903
0.011380937
0.010687503
0.009999473
0.0093215067
0.008657871
0.0080123851
0.0073883888
0.0067887231
0.0062157228
0.0056712211
0.005156564
0.0046726341
0.004219882
0.0037983629
0.0034077784
0.0030475204
0.0027167163
0.002414274
0.0021389258
0.0018892699
0.0016638088
0.0014609847
0.0012792106
0.0011168977
0.00097247873
0.00084442678
0.00073127063
0.00063160677
0.00054410837
0.00046753139
0.00040071815
0.00034259877
0.0002921906
0.00024859623
0.0002110008
0.00017866833
0.00015093742
0.00012721648
0.00010697878
8.9757317e-05
7.5139754e-05
6.2763436e-05
5.2310583e-05
4.3503712e-05
3.6101434e-05
2.9894486e-05
2.4702047e-05
2.0368385e-05
1.6759796e-05
1.3761836e-05
1.1276833e-05
9.2218193e-06
0.013880624
0.01309725
0.012311889
0.01153033
0.010758125
0.010000394
0.0092617527
0.0085462749
0.0078574575
0.007198208
0.0065708448
0.0059771095
0.0054181917
0.0048947635
0.0044070216
0.003954735
0.0035372967
0.0031537771
0.0028029773
0.0024834817
0.0021937079
0.0019319524
0.0016964328
0.001485326
0.0012968018
0.0011290511
0.00098030826
0.00084886899
0.00073310527
0.00063147681
0.00054253873
0.00046494622
0.00039745664
0.00033892846
0.00028831819
0.00024467813
0.00020715242
0.00017497199
0.00014744906
0.00012397126
0.00010399573
8.704334e-05
7.2692744e-05
6.0574795e-05
5.0366899e-05
4.178863e-05
3.4596949e-05
2.8581863e-05
2.3562571e-05
1.9383892e-05
1.5913054e-05
1.3036768e-05
1.0658736e-05
0.01594704
0.015063693
0.014175108
0.013288089
0.012409234
0.011544675
0.010699984
0.0098801113
0.0090893464
0.0083312916
0.007608857
0.0069242704
0.0062791028
0.0056743059
0.0051102599
0.004586829
0.0041034222
0.0036590564
0.0032524184
0.0028819292
0.0025458039
0.0022421066
0.0019687975
0.0017237818
0.0015049511
0.0013102196
0.0011375499
0.00098496719
0.00085058325
0.00073261067
0.00062937192
0.00053930556
0.00046097129
0.00039304666
0.00033431732
0.00028368138
0.00024014437
0.00020281288
0.00017088793
0.00014365816
0.00012049278
0.00010083572
8.4197958e-05
7.0150431e-05
5.8318966e-05
4.8378073e-05
4.0045684e-05
3.3077745e-05
2.7264333e-05
2.2425337e-05
1.8406677e-05
1.5077038e-05
1.2325166e-05
0.018267972
0.017276328
0.016273994
0.015270226
0.014272845
0.013289162
0.012325868
0.011388953
0.010483644
0.0096143732
0.0087847614
0.0079976236
0.0072549945
0.0065581702
0.0059077619
0.0053037606
0.0047456097
0.0042322801
0.0037623367
0.0033340193
0.0029453199
0.0025940515
0.0022778799
0.0019943976
0.0017411778
0.001515825
0.0013160128
0.0011394459
0.00098393924
0.00084742455
0.00072795878
0.00062372908
0.00053307741
0.00045447345
0.00038651667
0.00032793239
0.00027756842
0.00023438934
0.00019746928
0.00016598404
0.00013920279
0.00011648303
9.7255648e-05
8.1023096e-05
6.7351964e-05
5.5865703e-05
4.6238001e-05
3.8187408e-05
3.1471357e-05
2.5881584e-05
2.1239902e-05
1.7394539e-05
1.4217694e-05
0.020834419
0.019730081
0.018604074
0.01747293
0.016345727
0.015231102
0.014137039
0.013070735
0.012038524
0.011045814
0.010097068
0.0091957989
0.0083445963
0.0075451714
0.0067984188
0.0061044895
0.0054628808
0.0048725434
0.004331903
0.0038389862
0.003391531
0.0029871366
0.0026231059
0.00229667
0.0020050251
0.0017454125
0.0015151817
0.0013117422
0.0011325862
0.00097533014
0.00083773171
0.00071769182
0.00061335571
0.00052290523
0.00044471031
0.00037729961
0.00031934686
0.00026966103
0.00022717724
0.00019094811
0.00016013277
0.00013398555
0.00011185591
9.3173811e-05
7.7441246e-05
6.4224735e-05
5.3148498e-05
4.3887947e-05
3.6163544e-05
2.973528e-05
2.43976e-05
0.0236377
0.022412063
0.021158374
0.019890232
0.018622655
0.017365861
0.01612934
0.014921697
0.013750548
0.012622449
0.011542847
0.010516076
0.0095453776
0.0086329521
0.0077800376
0.0069869749
0.0062533066
0.0055780959
0.0049595617
0.0043954374
0.0038829358
0.0034195488
0.0030024033
0.0026283495
0.0022941055
0.0019969833
0.0017336052
0.0015008925
0.0012959529
0.0011160616
0.00095866873
0.00082141397
0.00070201265
0.00059847355
0.00050895646
0.00043178443
0.00036544111
0.00030856342
0.00025993115
0.000218458
0.00018318271
0.00015325637
0.00012793218
0.00010655579
8.8556072e-05
7.3436386e-05
6.0766317e-05
5.0174121e-05
4.1339763e-05
3.3988638e-05
2.7886148e-05
0.026677632
0.025308446
0.023926407
0.02251356
0.021095869
0.019686394
0.018296343
0.016935931
0.015614262
0.014339222
0.013117407
0.011954103
0.010853308
0.0098177707
0.0088491578
0.0079480737
0.0071137497
0.0063449223
0.0056403807
0.0049978439
0.0044144301
0.0038877059
0.0034137273
0.0029888352
0.0026095181
0.0022717446
0.0019721648
0.0017074162
0.0014742494
0.0012695758
0.0010904916
0.00093428757
0.00079844194
0.00068065315
0.0005788197
0.00049103203
0.00041556454
0.00035086586
0.00029554914
0.00024837908
0.00020826073
0.00017422741
0.00014542898
0.00012112103
0.00010065389
8.3462528e-05
6.9057297e-05
5.701528e-05
4.6972392e-05
3.8616238e-05
3.1680165e-05
0.029929101
0.028419025
0.026889076
0.025331475
0.023754633
0.022182832
0.020628966
0.019105046
0.017621884
0.016188909
0.014814053
0.013503701
0.012262728
0.011094377
0.0099990716
0.0089789224
0.0080340383
0.0071657919
0.0063707964
0.0056460808
0.0049886578
0.0043938684
0.0038582761
0.0033780052
0.0029490273
0.0025672199
0.0022286225
0.0019294005
0.0016658753
0.0014345547
0.0012321548
0.0010556118
0.00090208842
0.00076897924
0.00065390564
0.00055470762
0.00046943404
0.0003963314
0.00033383151
0.00028053814
0.00023521359
0.00019676525
0.00016423239
0.00013677356
0.00011365446
9.4236525e-05
7.7966412e-05
6.4366195e-05
5.3024443e-05
4.3588129e-05
3.5755987e-05
0.033375904
0.03172704
0.030030779
0.028320731
0.026584535
0.024842159
0.023115224
0.021417931
0.019763091
0.01816193
0.016623921
0.015156679
0.01376333
0.012448951
0.011218174
0.010075193
0.0090188903
0.0080453526
0.0071530908
0.0063393309
0.0056005571
0.0049325933
0.004331186
0.0037918983
0.0033101876
0.0028814945
0.0025013527
0.0021654394
0.0018696141
0.00160995
0.0013827567
0.001184593
0.0010122748
0.00086287614
0.00073372509
0.00062239566
0.00052669676
0.00044465953
0.0003745232
0.00031472024
0.00026386118
0.0002207195
0.00018421677
0.00015340847
0.00012747032
0.00010568561
8.7433244e-05
7.2176816e-05
5.9454551e-05
4.8870222e-05
4.0085728e-05
0.036991277
0.035200503
0.033349585
0.031457514
0.029566001
0.027648434
0.025740193
0.023860687
0.022024959
0.020246317
0.018536045
0.0168971
0.015340769
0.013878313
0.012511584
0.011238147
0.010059099
0.0089729811
0.0079775457
0.0070696226
0.006245295
0.0055000907
0.0048292223
0.0042276993
0.0036904343
0.0032123431
0.0027884341
0.0024138735
0.0020840335
0.0017945276
0.001541235
0.0013203154
0.0011282166
0.00096167427
0.00081770803
0.00069361183
0.00058694197
0.00049550277
0.00041733077
0.00035067811
0.00029399558
0.00024591566
0.00020523606
0.00017090374
0.00014199978
0.00011772518
9.7387564e-05
8.0388966e-05
6.6214634e-05
5.4422879e-05
4.4636818e-05
0.040746535
0.038813882
0.036805955
0.034741109
0.032669306
0.030582906
0.028485994
0.026416698
0.02439205
0.022427933
0.02052955
0.018715328
0.01699958
0.015381223
0.013865348
0.012453533
0.011146142
0.009941905
0.008838307
0.0078318083
0.0069180627
0.0060921329
0.0053486908
0.0046821753
0.0040869242
0.0035572866
0.0030877161
0.002672843
0.0023075289
0.0019869056
0.0017064018
0.0014617595
0.0012490409
0.0010646286
0.00090522004
0.00076781709
0.00064971262
0.00054847446
0.0004619278
0.00038813677
0.0003253856
0.0002721598
0.00022712791
0.00018912377
0.00015712982
0.00013026124
0.00010775134
8.8938007e-05
7.3251268e-05
6.0202075e-05
4.9373143e-05
0.044609762
0.04253865
0.040377208
0.038147925
0.035875897
0.033608731
0.031331409
0.0290669
0.026846393
0.024686752
0.022600164
0.020610712
0.018720918
0.016938346
0.015267963
0.013712199
0.012271517
0.010944621
0.0097287687
0.0086200499
0.0076136583
0.006704132
0.0058855689
0.0051518092
0.0044965863
0.0039136529
0.0033968817
0.0029403448
0.0025383727
0.0021855972
0.0018769803
0.0016078307
0.0013738117
0.0011709403
0.00099558092
0.00084443358
0.00071451888
0.00060316025
0.00050796454
0.00042680164
0.00035778365
0.00029924426
0.00024971853
0.00020792345
0.00017273948
0.00014319318
0.00011844109
9.7754774e-05
8.0507253e-05
6.6160643e-05
5.4256265e-05
0.048545652
0.046341129
0.044029261
0.041634723
0.039184009
0.036703778
0.034246429
0.031791392
0.029371483
0.027008409
0.02473589
0.022558908
0.020489973
0.018537876
0.016708304
0.015004229
0.013426303
0.011973187
0.010641895
0.0094281303
0.0083265956
0.0073312665
0.0064356358
0.0056329165
0.0049162124
0.0042786557
0.0037135175
0.0032142933
0.0027747669
0.0023890559
0.0020516427
0.0017573916
0.0015015565
0.0012797799
0.0010880847
0.00092286166
0.00078085249
0.00065913029
0.00055507824
0.00046636721
0.00039093301
0.00032695377
0.0002728278
0.00022715236
0.00018870346
0.00015641685
0.00012937037
0.00010676766
8.7923251e-05
7.2249267e-05
5.9245652e-05
0.052517455
0.050186579
0.047729565
0.045172915
0.042545214
0.039875921
0.037195301
0.034566147
0.031948372
0.029386081
0.0269135
0.02454467
0.022292633
0.020167227
0.01817498
0.016319403
0.014601364
0.013019473
0.011570488
0.0102497
0.0090512896
0.0079686402
0.0069946116
0.0061217665
0.005342558
0.0046494799
0.0040351866
0.0034925838
0.0030148975
0.0025957215
0.0022290499
0.0019092951
0.001631295
0.0013903111
0.0011820195
0.0010024968
0.0008482011
0.00071595131
0.00060290328
0.00050652564
0.00042457504
0.00035507149
0.00029627432
0.00024665911
0.00020489566
0.00016982742
0.00014045227
0.00011590475
9.5439747e-05
7.8417466e-05
0.056488437
0.054040274
0.051445707
0.048732839
0.045932252
0.043075177
0.040190537
0.037352158
0.034545481
0.031786916
0.029115064
0.026552418
0.024114875
0.021813782
0.019656646
0.017647565
0.015787644
0.014075443
0.012507445
0.011078502
0.0097822463
0.0086114425
0.0075582956
0.0066146995
0.0057724417
0.005023366
0.0043595001
0.0037731527
0.0032569855
0.0028040634
0.002407888
0.0020624158
0.0017620649
0.0015017131
0.0012766867
0.0010827453
0.00091606168
0.00077319792
0.00065108071
0.00054697474
0.00045845588
0.00038338464
0.00031988014
0.00026629516
0.0002211924
0.00018332217
0.00015160171
0.00012509596
0.00010300015
8.4624579e-05
0.060423198
0.057868566
0.055146093
0.052285354
0.049319287
0.046282742
0.043211556
0.040144277
0.037146792
0.034200262
0.031325285
0.028567301
0.025943165
0.023465365
0.021142387
0.018978964
0.01697647
0.015133413
0.013445984
0.011908571
0.010514231
0.0092550924
0.0081226878
0.0071082301
0.0062028328
0.0053976835
0.0046841797
0.0040540306
0.0034993321
0.0030126194
0.0025869009
0.0022156766
0.0018929452
0.0016131998
0.0013714168
0.0011630389
0.00098395232
0.00083046257
0.00069926669
0.00058742501
0.00049233237
0.00041168944
0.00034347486
0.00028591838
0.00023747534
0.00019680279
0.00016273711
0.00013427355
0.00011054747
9.0819468e-05
0.064288862
0.061639938
0.058800791
0.055802159
0.052679095
0.049469524
0.046212952
0.042949005
0.039712907
0.036582826
0.033527043
0.030574807
0.027764745
0.025110607
0.02262204
0.020304538
0.018159792
0.016186262
0.014379825
0.012734384
0.011242401
0.0098953505
0.0086840842
0.0075991281
0.0066309192
0.0057699893
0.0050071069
0.0043333841
0.0037403541
0.0032200251
0.0027649154
0.0023680716
0.0020230747
0.001724036
0.0014655838
0.0012428452
0.0010514219
0.00088736374
0.00074713928
0.00062760551
0.00052597697
0.00043979526
0.00036689914
0.00030539586
0.00025363392
0.00021017744
0.00017378233
0.00014337431
0.00011802907
9.6958583e-05
0.068056052
0.065325968
0.062382593
0.059257413
0.05598723
0.052612676
0.04917668
0.045722696
0.042292894
0.03892935
0.03569533
0.032562049
0.029568162
0.026739261
0.024086433
0.021616105
0.019330347
0.017227569
0.015303312
0.013550968
0.011962391
0.010528392
0.0092391387
0.0080844711
0.0070541532
0.0061380662
0.0053263562
0.0046095446
0.0039786085
0.0034250358
0.0029408604
0.0025186809
0.002151666
0.001833549
0.0015586144
0.0013216771
0.0011180573
0.00094355204
0.00079440376
0.00066726816
0.00055918142
0.00046752767
0.00039000723
0.00032460613
0.00026956709
0.00022336233
0.00018466805
0.00015234093
0.00012539608
0.07169957
0.068901998
0.065867689
0.062628409
0.059222319
0.055692476
0.052085179
0.048448005
0.044827917
0.04126976
0.037808412
0.034511748
0.031343321
0.028342328
0.025527484
0.022906446
0.020481733
0.018251683
0.016211467
0.014353945
0.012670355
0.011150842
0.0097848935
0.0085616707
0.0074702739
0.0064999434
0.005640213
0.0048810239
0.0042128069
0.0036265388
0.0031137775
0.0026666813
0.0022780135
0.0019411359
0.0016499947
0.0013990977
0.0011834882
0.00099871434
0.00084079599
0.00070619077
0.00059175926
0.00049473057
0.00041266878
0.00034344059
0.00028518465
0.00023628271
0.00019533275
0.00016112424
0.00013261642
0.075198761
0.072347497
0.069236002
0.065895829
0.062366061
0.058691863
0.054922726
0.051110262
0.047305988
0.043559969
0.039906868
0.036391508
0.03308094
0.029912262
0.02693825
0.02416932
0.021608422
0.019253733
0.017100003
0.015139543
0.013362972
0.011759779
0.010318782
0.0090284769
0.007877312
0.0068539009
0.0059471788
0.0051465199
0.0044418209
0.0038235586
0.0032828258
0.0028113501
0.0024014978
0.0020462675
0.0017392736
0.0014747238
0.0012473898
0.001052576
0.0008860845
0.00074417871
0.00062354726
0.00052126745
0.00043476989
0.00036180444
0.00030040784
0.00024887326
0.00020572206
0.00016967779
0.0001396461
0.078537593
0.075646166
0.072471292
0.069043807
0.065403249
0.061596509
0.057675996
0.053697082
0.049714946
0.045780135
0.041947986
0.038243473
0.034751871
0.031443435
0.028312839
0.025399393
0.022705716
0.020229602
0.017965299
0.015904567
0.014037422
0.012352718
0.010838618
0.0094829671
0.0082735818
0.0071984645
0.006245968
0.0054049143
0.0046646804
0.0040152567
0.0034472826
0.002952066
0.0025215867
0.0021484889
0.0018260639
0.0015482263
0.0013094834
0.0011049018
0.00093007109
0.0007810655
0.00065440596
0.00054702176
0.00045621344
0.00037961695
0.00031516971
0.00026107853
0.00021578991
0.00017796293
0.00014645176
0.081704516
0.078785837
0.075561082
0.072059871
0.068321706
0.064394797
0.060334214
0.056199145
0.052049605
0.047943198
0.043934422
0.040061337
0.036367295
0.032906475
0.029645712
0.026592091
0.023769687
0.021175881
0.01880436
0.016646366
0.014691357
0.01292758
0.011342566
0.0099235278
0.0086576672
0.0075323948
0.0065354986
0.0056552659
0.0048805694
0.0042009275
0.0036065399
0.003088307
0.0026378332
0.0022474186
0.0019100409
0.0016193298
0.001369536
0.0011554952
0.0009725905
0.00081671253
0.00068421941
0.00057189678
0.00047691894
0.00039681136
0.00032941506
0.00027285304
0.00022549889
0.00018594713
0.084692156
0.081758231
0.078496459
0.074934771
0.071112141
0.06707765
0.062888697
0.058608122
0.054300607
0.050029063
0.045852124
0.041813095
0.037956366
0.034309146
0.030918455
0.027743726
0.024797137
0.02208983
0.019614766
0.017362781
0.015322856
0.013482664
0.011829122
0.010348834
0.0090284043
0.0078546727
0.0068148818
0.0058968016
0.005088818
0.0043799925
0.0037600997
0.0032196459
0.0027498721
0.0023427455
0.0019909402
0.0016878106
0.0014273588
0.0012041971
0.0010135092
0.00085100804
0.00071289432
0.00059581487
0.00049682197
0.00041333433
0.00034309993
0.00028416095
0.00023482122
0.00019361757
0.087496876
0.084558591
0.081271775
0.077662236
0.073767936
0.069638362
0.065332853
0.060917607
0.056461683
0.052032489
0.047690628
0.043496271
0.039484117
0.03568761
0.032127693
0.028842657
0.025785455
0.022969329
0.020394618
0.018052095
0.015930383
0.014016607
0.012297085
0.010757827
0.0093848643
0.0081644858
0.0070834091
0.0061289064
0.0052888939
0.0045519931
0.0039075683
0.0033457457
0.002857416
0.0024342252
0.0020685548
0.0017534938
0.0014828043
0.0012508839
0.0010527238
0.00088386569
0.00074035886
0.0006187164
0.00051587317
0.00042914516
0.00035619079
0.00029497448
0.00024373258
0.0002009468
0.090118284
0.087185264
0.083884293
0.080238676
0.076284911
0.072072416
0.067662055
0.063123082
0.058528841
0.053951852
0.049459241
0.045111151
0.040948725
0.037009029
0.033314257
0.029877384
0.026727803
0.023812915
0.021142472
0.018712969
0.016512745
0.014528358
0.01274553
0.011149695
0.0097263354
0.0084612126
0.0073405402
0.0063511122
0.0054803934
0.0047165822
0.0040486486
0.003466353
0.0029602495
0.0025216754
0.0021427309
0.0018162498
0.0015357642
0.001295465
0.0010901586
0.00091522269
0.00076656104
0.00064055846
0.00053403721
0.0004442148
0.00036866386
0.00030527429
0.00025221775
0.00020792206
0.092558705
0.089639238
0.086333793
0.082662856
0.078661042
0.074377248
0.069873425
0.065221545
0.060499017
0.055783286
0.05114665
0.046652649
0.042347998
0.038271882
0.034448196
0.030890841
0.027605816
0.024618923
0.021857242
0.019344381
0.017069055
0.015017149
0.013173785
0.011523851
0.010052306
0.0087444082
0.0075858898
0.0065630866
0.0056630311
0.0048735159
0.0041831327
0.0035812916
0.0030582238
0.0026049709
0.0022133634
0.0018759909
0.0015861653
0.0013378796
0.0011257635
0.00094503781
0.00079146698
0.00066131332
0.00055129149
0.0004585249
0.00038050425
0.00031504832
0.00026026709
0.00021453618
0.094822653
0.091923688
0.088622181
0.084935554
0.08089618
0.076552003
0.071965635
0.067211388
0.062370469
0.057525024
0.052752056
0.048117673
0.043680774
0.039475334
0.035529067
0.031856288
0.028458253
0.025370828
0.022538567
0.019945586
0.017598708
0.015482472
0.013581413
0.011879915
0.010362446
0.0090137882
0.0078192135
0.0067646208
0.0058366294
0.0050226438
0.0043108941
0.0036904553
0.0031512503
0.0026840379
0.0022803914
0.0019326671
0.0016339667
0.0013780943
0.0011595115
0.00097328907
0.00081505902
0.00068096686
0.00056762475
0.00047206654
0.00039170495
0.00032429109
0.00026787628
0.0002207862
0.096916337
0.094043521
0.090753089
0.087059228
0.082991764
0.078597301
0.073938693
0.069092219
0.0641426
0.059176576
0.054276239
0.049513466
0.044947893
0.040619035
0.036556707
0.032776274
0.029283007
0.02607918
0.02317318
0.020515844
0.018101386
0.015924064
0.013968187
0.012217693
0.010656592
0.0092692134
0.0080403946
0.0069556176
0.0060011076
0.0051638996
0.0044318787
0.0037938007
0.0032392941
0.002758849
0.0023437934
0.0019862617
0.0016791555
0.0014160997
0.0011913956
0.00099997156
0.00083733382
0.00069951692
0.00058303573
0.00048483912
0.00040226584
0.00033300283
0.00027504578
0.0002266729
0.098847207
0.096004974
0.092731514
0.089037691
0.084950543
0.080514994
0.075793748
0.070864672
0.065815702
0.060737981
0.055718556
0.050834185
0.046147835
0.041702458
0.037530407
0.033647958
0.030061258
0.026769402
0.023763582
0.021048947
0.01857721
0.016341895
0.014334068
0.012537154
0.010934724
0.009510674
0.0082494295
0.0071360781
0.006156471
0.0052972914
0.0045460967
0.003891339
0.0033223676
0.0028294168
0.002403582
0.0020367871
0.0017217438
0.0014519071
0.0012214263
0.0010250951
0.00085830038
0.00071697167
0.00059753179
0.0004968492
0.00041219274
0.0003411887
0.00028178013
0.00023220034
0.10062355
0.097815236
0.094563483
0.09087582
0.086776322
0.082307949
0.077532896
0.072530254
0.067390851
0.062209998
0.057079508
0.052080617
0.047278697
0.042725606
0.038450165
0.034471114
0.030795165
0.027420532
0.024338692
0.021537605
0.019025249
0.01673608
0.014679186
0.01283842
0.011196954
0.0097382742
0.0084464141
0.0073060901
0.0063027993
0.0054228916
0.0046536136
0.0039831295
0.0034005239
0.0028957888
0.0024597996
0.0020842808
0.0017617648
0.0014855457
0.0012496293
0.0010486821
0.00087797819
0.00073334803
0.00061112752
0.00050810935
0.00042149644
0.00034885794
0.00028808729
0.00023737534
0.10225415
0.099482122
0.09625575
0.092579282
0.088473725
0.083979844
0.079159013
0.074091193
0.068869788
0.063594029
0.058360357
0.053254661
0.048346924
0.043689978
0.039316681
0.035246369
0.031486025
0.028033554
0.024879924
0.022009252
0.019436337
0.017107129
0.015003844
0.013121742
0.011443511
0.0099522174
0.0086315294
0.0074658149
0.0064402361
0.0055408277
0.0047545422
0.0040692717
0.0034738504
0.0029580417
0.0025125132
0.0021288014
0.0017992693
0.0015170595
0.0012760428
0.0010707654
0.0008963955
0.00074867018
0.00062384357
0.00051863708
0.00043019177
0.00035602317
0.00029397799
0.00024220708
0.10374811
0.10101379
0.09781554
0.094154299
0.090047979
0.085534983
0.080675591
0.075550311
0.070254805
0.064891966
0.059562689
0.054357402
0.049350172
0.044596349
0.040130872
0.035974661
0.032134941
0.02860961
0.025389883
0.022462663
0.019817723
0.017447485
0.015308426
0.013387477
0.011674721
0.010152791
0.0088050279
0.0076154755
0.0065689784
0.0056512731
0.0048490346
0.0041498986
0.0035424633
0.0030162767
0.0025618106
0.0021704245
0.0018343227
0.0015465049
0.0013007149
0.0010913864
0.00091358763
0.00076296819
0.00063570543
0.0005284539
0.00043829682
0.00036269964
0.00029946522
0.00024670662
0.11056803
0.10916391
0.10735496
0.10511512
0.10241874
0.09925037
0.095607452
0.091504735
0.086978131
0.082086597
0.076910894
0.071548636
0.06610611
0.060688457
0.055390489
0.050290142
0.045445737
0.040893858
0.036657108
0.032742968
0.029149433
0.025867804
0.022885231
0.020187659
0.017756722
0.015591576
0.013636073
0.011890994
0.010340347
0.0089672183
0.0077553443
0.0066892661
0.0057544382
0.0049372749
0.0042251705
0.0036065017
0.0030706141
0.0026077957
0.00220924
0.0018670019
0.0015739478
0.0013237022
0.0011105931
0.00092959551
0.00077627678
0.00064674239
0.0005375844
0.00044583211
0.00036890462
0.00030456365
0.00025088664
0.11168525
0.11032551
0.10856137
0.10636359
0.10370523
0.10056781
0.096945497
0.092849907
0.088314372
0.083396346
0.078176585
0.072754365
0.067239093
0.061739936
0.056355908
0.051168587
0.046238355
0.041606945
0.037294998
0.033311256
0.029653935
0.026314293
0.023279176
0.02053269
0.018054099
0.01584836
0.013868078
0.012092809
0.010515282
0.0091184505
0.0078857321
0.0068013733
0.0058505632
0.0050194722
0.0042952692
0.0036661231
0.0031211899
0.0026505855
0.0022453482
0.0018973931
0.0015994617
0.0013450673
0.0011284388
0.00094446431
0.00078863417
0.00065698668
0.00054605546
0.00045281986
0.00037465671
0.00030928908
0.00025476117
0.1126981
0.11138029
0.10965883
0.1075021
0.10488134
0.10177535
0.098175232
0.094089533
0.089548983
0.084609391
0.079351286
0.073875337
0.068293804
0.062719653
0.057255934
0.051987866
0.046978989
0.042272084
0.037889816
0.033841087
0.030124221
0.026730377
0.023646117
0.020855096
0.018338928
0.016083982
0.014078737
0.012280668
0.010678009
0.0092591019
0.0080069783
0.0069056
0.0059399103
0.0050958548
0.0043603924
0.0037214982
0.0031681511
0.0026903064
0.0022788573
0.0019255887
0.0016231255
0.0013648771
0.0011449806
0.00095824227
0.00080008115
0.00066647261
0.00055389559
0.0004592832
0.00037997522
0.00031365794
0.00025834544
0.11361551
0.11233716
0.11065614
0.10853897
0.10595494
0.10288034
0.099303388
0.095229675
0.090687331
0.085730427
0.080439074
0.074915088
0.069273324
0.063630316
0.058092978
0.052750058
0.047667942
0.042890921
0.03844312
0.034333847
0.03056152
0.027117183
0.023987165
0.021154875
0.018602179
0.016312191
0.014267084
0.012454267
0.010828933
0.0093895739
0.0081194449
0.0070022654
0.0060227584
0.0051666648
0.0044207496
0.0037728077
0.003211653
0.0027270914
0.0023098811
0.0019516858
0.0016450218
0.001383202
0.0011602776
0.00097097967
0.00081066021
0.00067523597
0.00056113437
0.0004652453
0.00038487947
0.00031768691
0.00026165591
0.11444573
0.11320435
0.11156149
0.10948207
0.10693355
0.10388987
0.10033654
0.096276324
0.091734789
0.086764208
0.081444123
0.075877276
0.070180866
0.064474765
0.058869557
0.053457378
0.048307294
0.043465237
0.038956538
0.034791001
0.03096714
0.027475895
0.024303388
0.021432815
0.018845853
0.016524053
0.014447129
0.012609209
0.010968713
0.0095103017
0.0082235128
0.0070917032
0.0060993976
0.0052321535
0.0044765578
0.0038202383
0.0032518561
0.0027610779
0.0023385369
0.0019757841
0.0016652353
0.0014001136
0.0011743909
0.00098272789
0.00082041477
0.00068331349
0.00056780225
0.00047072821
0.00038938796
0.00032139474
0.00026471391
0.11519634
0.1139895
0.11238244
0.1103388
0.10782429
0.10481072
0.10128104
0.097235336
0.092696667
0.087715487
0.082370648
0.076765622
0.071019723
0.065255921
0.059588275
0.054112146
0.048899154
0.04399691
0.039431758
0.035214066
0.031342441
0.027807728
0.024595865
0.021689842
0.019071096
0.016720574
0.014618832
0.01274775
0.011096354
0.0096217003
0.0083195757
0.0071742559
0.0061701244
0.0052925772
0.004528038
0.0038639802
0.0032889231
0.0027924051
0.0023649434
0.0019979847
0.0016838517
0.0014156847
0.0011873817
0.00099353867
0.00082938857
0.00069074239
0.00057393077
0.00047575141
0.1158743
0.11469961
0.11312602
0.11111606
0.1086339
0.10564934
0.102143
0.098112381
0.093578155
0.088588953
0.083222848
0.077583868
0.071793223
0.065976756
0.060251789
0.054716741
0.04944567
0.044487885
0.039870499
0.035604592
0.031688813
0.028113924
0.024865695
0.021926913
0.019278773
0.016901806
0.014776155
0.012880522
0.01120953
0.009724445
0.0084080473
0.0072502707
0.0062352378
0.0053481941
0.0045754127
0.0039042243
0.0033230176
0.0028212125
0.0023892193
0.0020183885
0.0017009567
0.0014299874
0.001199311
0.0010034634
0.00083762493
0.00069755979
0.00057955404
0.1164862
0.11534117
0.1137987
0.11182028
0.10936866
0.10641183
0.1029282
0.098912901
0.094384286
0.089389198
0.084004866
0.078335732
0.072504696
0.066640251
0.060862775
0.05527357
0.049948993
0.044939939
0.040274489
0.035964145
0.032007658
0.028395732
0.025113983
0.022145007
0.019469762
0.017068466
0.014921017
0.013007058
0.011310174
0.0098174234
0.0084892945
0.0073200926
0.0062950359
0.0053992612
0.0046189029
0.0039411601
0.0033543015
0.0028476383
0.0024114822
0.0020370953
0.0017166346
0.0014430933
0.0012102391
0.0010125527
0.00084516621
0.00070380143
0.0005847119
0.11703784
0.1159201
0.11440643
0.11245738
0.11003442
0.10710388
0.10364214
0.09964209
0.095119903
0.090120676
0.084720756
0.079024877
0.073157439
0.067249373
0.061423905