/*--------------------------------*- C++ -*----------------------------------*\
| =========                 |                                                 |
| \\      /  F ield         | OpenFOAM: The Open Source CFD Toolbox           |
|  \\    /   O peration     | Version:  2312                                  |
|   \\  /    A nd           | Website:  www.openfoam.com                      |
|    \\/     M anipulation  |                                                 |
\*---------------------------------------------------------------------------*/
FoamFile
{
    version     2.0;
    format      ascii;
    arch        "LSB;label=32;scalar=64";
    class       volScalarField;
    location    "0.01";
    object      f_Bilger;
}
// * * * * * * * * * * * * * * * * * * * * * * * * * * * * * * * * * * * * * //

dimensions      [0 0 0 0 0 0 0];

internalField   nonuniform List<scalar> 
3272
(
0.0032665825
0.0030303044
0.0028026318
0.0025842724
0.0023758179
0.002177717
0.0019902796
0.0018136862
0.0016479978
0.0014931679
0.0013490541
0.00121543
0.0010919974
0.0009783981
0.00087422479
0.00077903217
0.00069234669
0.00061367575
0.00054251599
0.0004783606
0.0004207058
0.00036905637
0.00032293029
0.00028186252
0.00024540806
0.00021314423
0.00018467228
0.00015961848
0.00013763462
0.00011839811
0.0001016117
8.700287e-05
7.4322982e-05
6.3346252e-05
5.3868546e-05
4.5706099e-05
3.8694156e-05
3.2685596e-05
2.7549548e-05
2.3170027e-05
1.9444611e-05
1.6283175e-05
1.3606681e-05
1.1346045e-05
9.4410813e-06
7.8395186e-06
6.4961029e-06
5.3717718e-06
4.4329111e-06
3.6506769e-06
3.0003897e-06
2.4610035e-06
2.0146118e-06
0.0034360566
0.0031879503
0.0029487983
0.0027193582
0.0025002639
0.0022919977
0.0020948954
0.0019091556
0.0017348512
0.0015719408
0.0014202813
0.0012796405
0.0011497101
0.0010301175
0.000920438
0.00082020612
0.00072892606
0.0006460814
0.00057114391
0.00050358131
0.00044286412
0.00038847158
0.00033989657
0.00029664966
0.00025826236
0.00022428953
0.00019431119
0.00016793361
0.00014478992
0.0001245402
0.00010687121
9.149577e-05
7.8151865e-05
6.6601557e-05
5.6629735e-05
4.8042756e-05
4.0667024e-05
3.4347533e-05
2.8946409e-05
2.4341472e-05
2.0424844e-05
1.7101608e-05
1.4288533e-05
1.1912882e-05
9.9112918e-06
8.2287424e-06
6.8176038e-06
5.6367723e-06
4.650878e-06
3.8295753e-06
3.146905e-06
2.5807225e-06
2.1122236e-06
0.0037543231
0.0034841285
0.0032235327
0.0029733837
0.0027343936
0.0025071077
0.0022919108
0.002089037
0.0018985817
0.0017205142
0.0015546916
0.0014008724
0.0012587298
0.001127866
0.0010078245
0.00089810326
0.00079816561
0.00070745139
0.00062538647
0.00055139147
0.00048488932
0.00042531181
0.00037210514
0.0003247344
0.00028268725
0.0002454766
0.00021264271
0.00018375439
0.00015840973
0.00013623628
0.00011689073
0.00010005831
8.5451786e-05
7.2810309e-05
6.1898045e-05
5.25027e-05
4.4433957e-05
3.7521891e-05
3.161537e-05
2.6580479e-05
2.229899e-05
1.8666893e-05
1.5593e-05
1.2997632e-05
1.0811388e-05
8.9740191e-06
7.4333771e-06
6.1444684e-06
5.0685849e-06
4.1725241e-06
3.4278869e-06
2.8104574e-06
2.2996733e-06
0.0042086745
0.0039071516
0.0036161284
0.0033365775
0.0030693207
0.002814994
0.0025740528
0.0023467832
0.0021333146
0.0019336341
0.001747601
0.001574962
0.0014153669
0.0012683836
0.0011335124
0.0010102006
0.00089785501
0.00079585453
0.00070356089
0.0006203286
0.00054551362
0.00047848085
0.00041861046
0.00036530317
0.00031798439
0.00027610745
0.00023915596
0.00020664536
0.00017812375
0.00015317215
0.00013140426
0.00011246577
9.6033314e-05
8.1813165e-05
6.9539733e-05
5.8973906e-05
4.9901319e-05
4.2130567e-05
3.5491417e-05
2.9833034e-05
2.5022262e-05
2.094197e-05
1.7489475e-05
1.4575066e-05
1.2120616e-05
1.0058308e-05
8.3294571e-06
6.8834375e-06
5.676704e-06
4.6719136e-06
3.8371318e-06
3.1451359e-06
2.5728122e-06
0.0047911677
0.0044497784
0.0041200037
0.003802979
0.0034996678
0.0032108228
0.0029369921
0.0026785306
0.0024356143
0.0022082555
0.0019963193
0.0017995407
0.0016175423
0.0014498508
0.0012959139
0.0011551165
0.0010267953
0.00091025321
0.00080477144
0.00070962137
0.00062407442
0.00054741082
0.00047892699
0.00041794172
0.00036380112
0.00031588248
0.000273597
0.00023639173
0.00020375065
0.00017519505
0.00015028333
0.00012861032
0.00010980611
9.353458e-05
7.9491745e-05
6.7403852e-05
5.7025441e-05
4.8137318e-05
4.054452e-05
3.4074298e-05
2.8574149e-05
2.3909926e-05
1.9964037e-05
1.6633748e-05
1.3829595e-05
1.147393e-05
9.4995671e-06
7.8485556e-06
6.4710585e-06
5.3243441e-06
4.3718783e-06
3.5825143e-06
2.929823e-06
0.0054966398
0.0051073403
0.0047309578
0.0043688245
0.004022077
0.0036916119
0.0033780917
0.0030819579
0.0028034457
0.0025426018
0.0022993021
0.0020732714
0.0018641026
0.0016712765
0.0014941805
0.001332127
0.001184371
0.0010501256
0.00092857715
0.0008188982
0.00072025951
0.00063184011
0.00055283605
0.0004824677
0.00041998575
0.00036467576
0.00031586153
0.00027290735
0.00023521945
0.00020224659
0.00017347998
0.00014845259
0.00012673787
0.00010794813
9.1732508e-05
7.7774964e-05
6.5792028e-05
5.553053e-05
4.6765253e-05
3.9296621e-05
3.2948439e-05
2.756572e-05
2.3012598e-05
1.9170371e-05
1.5935658e-05
1.3218733e-05
1.0941972e-05
9.0384219e-06
7.4505157e-06
6.1288996e-06
5.0313806e-06
4.1219979e-06
3.370225e-06
0.0063212069
0.0058763648
0.0054458897
0.0050313581
0.0046341121
0.0042552189
0.0038954779
0.003555435
0.0032353989
0.0029354604
0.0026555124
0.0023952719
0.0021543018
0.0019320333
0.0017277873
0.0015407956
0.0013702208
0.0012151744
0.0010747345
0.0009479607
0.00083390816
0.00073163931
0.00064023406
0.00055879863
0.00048647284
0.00042243569
0.00036590924
0.00031616109
0.00027250637
0.00023430876
0.00020098062
0.00017198227
0.00014682084
0.00012504809
0.00010625794
9.0084406e-05
7.6199174e-05
6.430897e-05
5.4152858e-05
4.5499566e-05
3.8144891e-05
3.1909223e-05
2.663511e-05
2.218498e-05
1.84389e-05
1.5292838e-05
1.26568e-05
1.045316e-05
8.6151789e-06
7.0856546e-06
5.8157003e-06
4.7636436e-06
3.8940999e-06
0.0072612948
0.0067536001
0.0062618934
0.0057879953
0.005333484
0.0048996261
0.0044873816
0.0040974197
0.0037301369
0.0033856788
0.0030639624
0.0027647006
0.0024874269
0.0022315206
0.0019962312
0.0017807027
0.0015839965
0.0014051122
0.0012430075
0.0010966158
0.00096486314
0.00084668132
0.000741019
0.00064685281
0.00056319679
0.00048910955
0.00042369858
0.00036612069
0.0003155867
0.00027136281
0.00023277088
0.00019918792
0.00017004566
0.0001448274
0.00012306286
0.00010432841
8.8244157e-05
7.4470685e-05
6.2705944e-05
5.2682137e-05
4.4162683e-05
3.6939699e-05
3.083089e-05
2.5676717e-05
2.1338359e-05
1.769529e-05
1.4643244e-05
1.2092145e-05
9.9646184e-06
8.1943537e-06
6.7246853e-06
5.5073646e-06
4.5015471e-06
0.0083121541
0.0077354355
0.0071756915
0.0066357738
0.0061175318
0.0056224567
0.0051516907
0.004706044
0.0042860158
0.0038918172
0.0035233971
0.0031804686
0.0028625371
0.0025689287
0.0022988179
0.0020512549
0.0018251923
0.0016195097
0.0014330326
0.0012645557
0.0011128634
0.0009767471
0.00085500828
0.00074647793
0.00065002872
0.00056458653
0.00048913802
0.00042271118
0.00036439928
0.00031335913
0.0002688104
0.0002300344
0.00019638044
0.00016725379
0.00014211461
0.00012047503
0.00010189676
8.5987946e-05
7.2399797e-05
6.0823037e-05
5.0984361e-05
4.2644208e-05
3.5590951e-05
2.9640005e-05
2.4630889e-05
2.0424424e-05
1.6900185e-05
1.3954444e-05
1.1497912e-05
9.4540075e-06
7.7572702e-06
6.3519918e-06
5.1912966e-06
0.0094674014
0.0088176163
0.008183252
0.0075709897
0.0069828882
0.006420666
0.0058856641
0.0053788509
0.004900842
0.0044519255
0.0040320899
0.0036410531
0.0032782943
0.0029430857
0.0026345238
0.0023515594
0.0020930301
0.0018576938
0.0016442307
0.0014512795
0.0012774687
0.0011214607
0.00098188393
0.00085740576
0.00074673651
0.00064865029
0.0005620009
0.00048569759
0.00041870747
0.00036006608
0.00030887929
0.00026432061
0.00022566508
0.00019221119
0.0001633341
0.00013847333
0.00011712645
9.8844408e-05
8.322742e-05
6.9921077e-05
5.8611815e-05
4.902235e-05
4.0911313e-05
3.406765e-05
2.8307305e-05
2.3470328e-05
1.9418254e-05
1.6031625e-05
1.3207674e-05
1.0858247e-05
8.9079085e-06
0.010721026
0.0099916095
0.0092793495
0.0085889496
0.007925286
0.0072903703
0.0066857757
0.0061126492
0.0055717383
0.0050634196
0.0045877291
0.0041443945
0.00373287
0.0033523725
0.0030019193
0.0026803554
0.0023863863
0.0021186887
0.0018757655
0.0016560668
0.0014579642
0.0012800298
0.0011207884
0.00097873747
0.00085238953
0.00074052672
0.00064172418
0.00055470344
0.00047828433
0.00041137296
0.00035295935
0.00030211923
0.00025796917
0.00021974333
0.00018673944
0.0001583215
0.00013391745
0.00011301529
9.5158482e-05
7.9941907e-05
6.7008082e-05
5.6042078e-05
4.6767447e-05
3.89424e-05
3.2356253e-05
2.6826044e-05
2.219341e-05
1.8321717e-05
1.5093447e-05
1.2407848e-05
1.0178903e-05
0.012073128
0.011248987
0.010457391
0.0096840282
0.0089395255
0.0082267947
0.007547661
0.0069034637
0.0062950966
0.0057230375
0.005187379
0.0046878625
0.0042239173
0.0037946966
0.0033991462
0.0030360136
0.0027037295
0.0024007196
0.0021255921
0.0018767089
0.0016523418
0.0014510385
0.0012708947
0.001110194
0.00096734412
0.00084062258
0.00072860418
0.00062989937
0.00054319256
0.00046725371
0.00040094158
0.00034320317
0.00029306777
0.00024965592
0.00021216987
0.00017988875
0.00015216423
0.00012841576
0.00010812615
9.0836059e-05
7.6139389e-05
6.3678375e-05
5.3138971e-05
4.4246648e-05
3.676214e-05
3.0477615e-05
2.5213157e-05
2.0813514e-05
1.7145139e-05
1.4093524e-05
1.156099e-05
0.013509804
0.01259035
0.011706895
0.010849834
0.010019518
0.0092243077
0.0084661482
0.0077465603
0.0070665979
0.0064268558
0.0058274942
0.005268273
0.0047486008
0.0042675118
0.0038232424
0.0034148854
0.0030410238
0.0027009053
0.0023922317
0.0021130288
0.0018614665
0.0016352355
0.0014325828
0.0012516882
0.0010907541
0.00094801314
0.00082180977
0.00071057751
0.00061284154
0.00052722307
0.00045244157
0.00038731479
0.00033075707
0.0002817786
0.00023948103
0.00020305265
0.00017176335
0.0001449593
0.00012205753
0.00010254035
8.5949851e-05
7.1882582e-05
5.9984358e-05
4.9945404e-05
4.1495717e-05
3.440075e-05
2.8457437e-05
2.3490529e-05
1.9349264e-05
1.5904358e-05
1.3045538e-05
0.015024052
0.014007936
0.013020359
0.012074646
0.011158176
0.010276505
0.0094353548
0.0086365292
0.0078812823
0.007170349
0.0065039705
0.0058819168
0.0053025637
0.004765294
0.0042696135
0.0038151331
0.0033998007
0.0030207953
0.0026764048
0.0023646456
0.0020834357
0.0018305993
0.0016040562
0.0014017625
0.0012217207
0.0010619969
0.00092074731
0.00079622579
0.00068678897
0.00059090034
0.00050713226
0.00043416624
0.00037079152
0.00031590265
0.00026849555
0.00022766252
0.00019258684
0.00016253687
0.00013686005
0.00011497672
9.6374048e-05
8.0600066e-05
6.7257944e-05
5.6000527e-05
4.652518e-05
3.8568981e-05
3.1904268e-05
2.6334549e-05
2.1690768e-05
1.7827938e-05
1.4622396e-05
0.016604483
0.015486834
0.014399725
0.013347826
0.012346962
0.011376545
0.010448858
0.0095674111
0.0087336582
0.0079484965
0.0072122711
0.0065225404
0.005880259
0.00528668
0.0047399741
0.0042371001
0.0037766237
0.003356474
0.0029745531
0.0026286558
0.0023164997
0.0020357654
0.0017841551
0.00155941
0.0013593273
0.0011817792
0.0010247307
0.00088625142
0.0007645229
0.00065784396
0.00056463314
0.0004834291
0.00041288936
0.00035178733
0.00029900823
0.00025354381
0.00021448649
0.00018102298
0.00015242764
0.00012805572
0.00010733669
8.9767595e-05
7.4906766e-05
6.2367753e-05
5.1813613e-05
4.2951584e-05
3.5528135e-05
2.9324428e-05
2.4152168e-05
1.9849849e-05
1.6279713e-05
0.018240495
0.01701776
0.015827282
0.014672681
0.013573436
0.012517319
0.011499778
0.010532815
0.0096178261
0.0087559402
0.0079446328
0.0071865904
0.0064833374
0.0058312243
0.0052292804
0.0046756651
0.0041684784
0.0037055695
0.0032846385
0.0029032732
0.0025589881
0.0022492657
0.0019715961
0.0017235059
0.001502582
0.0013064929
0.0011330059
0.0009800004
0.00084547739
0.00072756521
0.00062452288
0.00053474079
0.00045673946
0.00038916643
0.00033079191
0.00028050313
0.00023729806
0.00020027845
0.00016864263
0.00014167811
0.00011875425
9.931503e-05
8.2872062e-05
6.8997961e-05
5.7320046e-05
4.7514458e-05
3.9300716e-05
3.2436696e-05
2.6714056e-05
2.195409e-05
1.800436e-05
0.019921369
0.018591334
0.017296274
0.016041308
0.01483188
0.013683755
0.012580539
0.011526027
0.010527492
0.0095856429
0.008699825
0.0078741121
0.007105209
0.0063921723
0.0057336265
0.0051277649
0.0045725162
0.0040655737
0.0036044533
0.0031865435
0.0028091527
0.0024695522
0.0021650158
0.0018928522
0.0016504336
0.0014352185
0.0012447713
0.0010767764
0.0009290491
0.00079954259
0.00068635178
0.0005877144
0.00050200979
0.00042775576
0.00036360396
0.00030833386
0.00026084601
0.00022015451
0.00018537923
0.00015573777
0.00013053743
0.00010916738
9.1091e-05
7.5838632e-05
6.3000674e-05
5.222115e-05
4.3191735e-05
3.5646254e-05
2.9355665e-05
2.4123528e-05
1.9782365e-05
0.021635894
0.020196717
0.018795105
0.01743665
0.016126559
0.014869137
0.0136803
0.012540627
0.011457419
0.010433114
0.009474116
0.0085768461
0.0077410548
0.0069657543
0.0062494432
0.0055902194
0.0049858692
0.0044339238
0.003931717
0.00347644
0.0030651926
0.0026950306
0.0023630077
0.0020662119
0.0018017967
0.0015670068
0.0013591993
0.0011758597
0.0010146139
0.00087323633
0.00074965425
0.00064194931
0.00054835652
0.000467261
0.00039719306
0.00033682195
0.00028494847
0.00024049702
0.00020250712
0.00017012475
0.00014259369
0.00011924695
9.9498507e-05
8.2835377e-05
6.8810142e-05
5.7033921e-05
4.7169858e-05
3.8927128e-05
3.205546e-05
2.6340253e-05
2.1599005e-05
0.023372952
0.021823392
0.020313908
0.01885043
0.01743833
0.01608219
0.014786195
0.013568976
0.012401862
0.011296896
0.010259988
0.0092901003
0.0083865146
0.0075480852
0.0067732008
0.0060598477
0.0054056753
0.004808055
0.00426414
0.003770924
0.0033252974
0.0029240981
0.0025641575
0.0022423405
0.0019555794
0.0017009023
0.0014754562
0.0012765251
0.0011015428
0.00094810239
0.00081396091
0.00069704164
0.00059543301
0.00050738539
0.00043130585
0.0003657516
0.00030942211
0.0002611506
0.00021989492
0.00018472828
0.00015482983
0.00012947551
0.00010802905
8.9933443e-05
7.4702808e-05
6.191481e-05
5.1203589e-05
4.2253242e-05
3.4791843e-05
2.8585939e-05
0.025121742
0.023461227
0.021843293
0.020274181
0.018759433
0.017303414
0.015908445
0.014597115
0.01335078
0.012166276
0.01105202
0.010009189
0.009037361
0.0081353465
0.0073014435
0.0065335313
0.0058291288
0.0051854515
0.0045994737
0.0040679924
0.0035876878
0.0031551791
0.0027670744
0.0024200139
0.0021107074
0.0018359649
0.001592722
0.0013780592
0.001189217
0.0010236053
0.00087880976
0.00075259386
0.00064289814
0.00054783696
0.00046569306
0.00039491055
0.00033408664
0.0002819625
0.00023741355
0.00019943949
0.00016715428
0.00013977621
0.00011661831
9.7079099e-05
8.0633894e-05
6.6826593e-05
5.526207e-05
4.5599163e-05
3.7544279e-05
3.0845835e-05
0.026871922
0.025100521
0.023374242
0.021699688
0.020082795
0.018528569
0.017041229
0.01562562
0.014298069
0.013038629
0.01184576
0.010729699
0.0096895419
0.0087238658
0.007830849
0.0070082711
0.0062535303
0.0055636918
0.0049355536
0.0043657165
0.0038506507
0.0033867565
0.0029704188
0.002598053
0.002266146
0.0019712894
0.0017102067
0.0014797748
0.0012770402
0.0010992294
0.00094375605
0.00080822337
0.00069042363
0.00058833482
0.00050011495
0.00042409473
0.00035876878
0.00030278596
0.00025493899
0.00021415388
0.00017947917
0.00015007535
0.0001252046
0.00010422085
8.6560508e-05
7.1733613e-05
5.9315705e-05
4.8940299e-05
4.0292064e-05
3.3101343e-05
0.028613733
0.026732096
0.024898137
0.023118821
0.02140046
0.019748482
0.01816748
0.016661284
0.015231734
0.013898281
0.012635993
0.01144725
0.010339198
0.0093101753
0.0083582821
0.0074812344
0.0066763289
0.0059404877
0.0052703345
0.0046622741
0.0041125676
0.0036173975
0.0031729259
0.0027753446
0.0024209184
0.002106021
0.0018271648
0.0015810236
0.0013644502
0.0011744885
0.0010083804
0.00086356953
0.00073770021
0.00062861442
0.00053434585
0.00045311212
0.00038330557
0.00032348301
0.00027235475
0.00022877331
0.00019172204
0.00016030381
0.00013373011
0.00011131047
9.2442502e-05
7.6602518e-05
6.3336827e-05
5.2253687e-05
4.3016058e-05
3.5336636e-05
0.030338123
0.028347425
0.02640696
0.024524027
0.02270527
0.020956429
0.019282348
0.017686972
0.016173341
0.01474468
0.013414011
0.012157897
0.010982802
0.0098910784
0.0088808389
0.0079497913
0.0070951551
0.0063137146
0.0056019182
0.0049559752
0.0043719383
0.0038457739
0.0033734235
0.0029508573
0.0025741197
0.0022393685
0.0019429064
0.0016812056
0.001450927
0.001248933
0.0010722954
0.00091829932
0.00078444239
0.00066843173
0.0005681777
0.0004817858
0.00040754696
0.00034392674
0.00028955373
0.00024320763
0.00020380718
0.00017039817
0.00014214186
0.00011830378
9.8243136e-05
8.1402835e-05
6.7300229e-05
5.5518467e-05
4.5698497e-05
0.032036835
0.029938736
0.027893411
0.025908465
0.023990844
0.022146568
0.020380732
0.018697521
0.017100309
0.015591887
0.014172269
0.012855751
0.011617144
0.010463674
0.00939587
0.0084115367
0.0075078431
0.006681433
0.0059285746
0.0052452805
0.0046273969
0.0040706771
0.0035708455
0.0031236534
0.0027249278
0.0023706133
0.0020568051
0.0017797766
0.001535999
0.0013221556
0.0011351502
0.00097211135
0.00083039203
0.00070756623
0.00060142263
0.00050995614
0.00043135766
0.00036400277
0.00030643949
0.00025737575
0.00021566657
0.0001803015
0.00015039232
0.0001251612
0.00010392952
8.6107325e-05
7.118349e-05
5.8716733e-05
4.8327676e-05
0.033702468
0.031499065
0.029350955
0.027266025
0.025251499
0.023313658
0.021457835
0.019688426
0.018009006
0.016422739
0.014928101
0.013528764
0.012239142
0.011025445
0.0099010059
0.0088643039
0.0079124452
0.0070419046
0.0062487564
0.0055288148
0.0048777238
0.0042910287
0.003764241
0.0032928971
0.0028726104
0.0024991153
0.0021683036
0.0018762527
0.0016192474
0.0013937948
0.0011966336
0.0010247386
0.00087532057
0.00074582284
0.00063391461
0.00053748219
0.00045461835
0.00038361034
0.00032292719
0.00027120636
0.00022724045
0.00018996385
0.00015843983
0.00013184808
0.00010947291
9.0692138e-05
7.496677e-05
6.1831548e-05
5.0887577e-05
0.035328506
0.033022281
0.030773841
0.028591331
0.026482233
0.02445307
0.022509386
0.020655713
0.018895469
0.017230405
0.01566494
0.014194015
0.012837902
0.011574452
0.010394148
0.009306162
0.008307239
0.0073936022
0.0065611079
0.0058053742
0.0051218516
0.004505885
0.0039527783
0.003457858
0.003016528
0.0026243168
0.0022769166
0.0019702129
0.001700308
0.0014635365
0.0012564756
0.0010759495
0.00091903015
0.0007830329
0.00066551024
0.00056424239
0.00047722622
0.00040266277
0.00033894388
0.00028463829
0.00023847763
0.00019934248
0.00016624881
0.00013833485
0.00011484879
9.5137e-05
7.8633252e-05
6.4848798e-05
5.3366017e-05
0.036909323
0.034503089
0.032157101
0.029879738
0.027678722
0.025560802
0.023531735
0.021596255
0.019758043
0.018019783
0.016384006
0.014849098
0.013417834
0.012099619
0.01087323
0.0097353882
0.0086907289
0.007735216
0.00686447
0.0060739289
0.005358867
0.0047144387
0.0041357469
0.0036179127
0.0031561354
0.0027457424
0.002382231
0.0020612995
0.0017788719
0.0015311148
0.0013144477
0.0011255486
0.00096135381
0.00081905427
0.00069608886
0.00059013458
0.00049909505
0.00042108745
0.00035442859
0.00029762045
0.00024933543
0.00020840184
0.00017378969
0.00014459703
0.00012003693
9.9425259e-05
8.2169232e-05
6.7756601e-05
0.03844017
0.03593702
0.03349654
0.031127321
0.028837305
0.026633452
0.024521727
0.022507063
0.020593361
0.01878357
0.017080072
0.015481668
0.013990176
0.012603909
0.011331323
0.010150546
0.0090616557
0.0080656579
0.0071578791
0.0063336196
0.0055880068
0.004916016
0.0043125544
0.0037725424
0.0032909797
0.0028629981
0.002483905
0.0021492167
0.001854684
0.0015963103
0.0013703622
0.0011733754
0.0010021547
0.00085377073
0.00072555201
0.00061507559
0.00052015474
0.00043882547
0.00036933198
0.00031011161
0.00025977947
0.00021711334
0.0001810388
0.00015061502
0.0001250212
0.00010354377
8.5564541e-05
7.0550252e-05
0.039917142
0.037320399
0.034788709
0.032330852
0.029954967
0.027668212
0.025476742
0.023385673
0.021399044
0.019519763
0.017749226
0.016090807
0.01454149
0.0131009
0.011767103
0.010547231
0.0094189632
0.0083840607
0.007440559
0.0065837481
0.0058086507
0.0051100707
0.0044827221
0.0039213291
0.003420697
0.0029757678
0.0025816649
0.0022337283
0.0019275413
0.0016589489
0.00142407
0.0012193027
0.001041325
0.00088709083
0.00075382242
0.0006390003
0.00054035059
0.00045583101
0.00038361575
0.00032207985
0.00026978324
0.000225455
0.00018797795
0.00015637385
0.00012978927
0.00010748233
8.8810245e-05
7.3219687e-05
0.041337134
0.038650307
0.036030867
0.033487762
0.03102931
0.028662846
0.026394705
0.02423017
0.02217344
0.020227609
0.01839471
0.016676508
0.015070992
0.013578107
0.012195691
0.0109211
0.0097600406
0.0086898
0.0077119054
0.0068237607
0.00602031
0.0052961764
0.0046458789
0.0040639498
0.0035450069
0.0030838088
0.0026753014
0.0023146544
0.0019972893
0.0017188987
0.0014754587
0.0012632352
0.0010787838
0.00091894629
0.00078084262
0.0006618605
0.00055964227
0.00047207041
0.00039725192
0.00033350198
0.00027932755
0.000233411
0.00019459414
0.00016186284
0.00013433241
0.00011123383
9.190076e-05
7.5760218e-05
0.042697791
0.039924529
0.037220936
0.034596106
0.032058515
0.029615661
0.027274039
0.02503909
0.022915163
0.020905489
0.019012236
0.017236774
0.015577746
0.01403484
0.012605812
0.011287921
0.01007805
0.0089821877
0.0079714545
0.0070532294
0.0062226165
0.0054740177
0.0048017527
0.0042001696
0.0036637066
0.0031869466
0.0027646646
0.0023918667
0.0020638186
0.0017760666
0.0015244496
0.0013051063
0.0011144751
0.00094929016
0.00080657335
0.00068362345
0.00057800258
0.00048752118
0.0004102219
0.00034436269
0.00028839986
0.00024097111
0.00020087902
0.0001670752
0.00013864513
0.00011479384
9.4832532e-05
7.8169208e-05
0.043997447
0.041141505
0.038357449
0.035654511
0.033041301
0.030525461
0.028113634
0.025811407
0.023623258
0.021552518
0.01960132
0.017770315
0.016061187
0.014470671
0.012997191
0.01163772
0.010387162
0.0092551054
0.0082190185
0.0072718372
0.0064153145
0.0056433819
0.0049501627
0.0043298339
0.0037766642
0.0032850686
0.0028496588
0.002465284
0.0021270609
0.001830395
0.0015709944
0.0013448758
0.0011483655
0.0009780947
0.00083099175
0.00070427039
0.00059541617
0.00050217082
0.00042251557
0.00035465384
0.00029699363
0.00024813007
0.00020682842
0.00017200766
0.00014272482
0.00011816032
9.7603966e-05
8.0445566e-05
0.045235064
0.042300265
0.039439499
0.036662127
0.033976873
0.031391506
0.028912803
0.026546486
0.024297158
0.022168261
0.020162048
0.01827961
0.016521485
0.014885352
0.013369668
0.011971342
0.010686514
0.0095123581
0.008449702
0.0074792774
0.0065982603
0.0058041527
0.0050910106
0.0044528601
0.0038838108
0.0033781177
0.0029302368
0.0025348675
0.002186984
0.0018818579
0.0016150719
0.0013825266
0.0011804413
0.0010053493
0.00085408948
0.0007237949
0.00061187818
0.00051601567
0.00043413027
0.00036437352
0.00030510753
0.00025488704
0.00021244184
0.00017665994
0.00014657144
0.00012133335
0.00010021521
8.2589557e-05
0.046410161
0.043400377
0.040466677
0.037618572
0.034864873
0.032213462
0.029671238
0.027244046
0.024936606
0.022752468
0.020693989
0.018762378
0.016957964
0.015278589
0.013722895
0.012287673
0.010969143
0.0097632066
0.0086643858
0.0076732576
0.0067714772
0.0059563031
0.005224271
0.0045692294
0.0039851336
0.0034660859
0.0030063941
0.0026006153
0.0022435882
0.0019304569
0.0016566849
0.0014180623
0.0012107067
0.0010310581
0.00087587093
0.00074220132
0.00062739281
0.00052905977
0.00044506979
0.00037352525
0.00031274482
0.00026124497
0.00021772193
0.00018103442
0.00015018707
0.00012431477
0.00010266792
8.4602656e-05
0.047522749
0.044441879
0.041439021
0.038523881
0.035705334
0.032991358
0.030388964
0.02790411
0.025541625
0.023305156
0.021197137
0.019218762
0.017369816
0.015650292
0.014056798
0.01258657
0.011235795
0.0099999412
0.0088736069
0.0078510975
0.0069346106
0.0060998644
0.0053499831
0.0046789797
0.0040806698
0.0035490084
0.0030781636
0.0026625578
0.0022969016
0.0019762178
0.0016958568
0.0014515041
0.0012391806
0.0010552383
0.00089635133
0.00075950319
0.00064197205
0.00054131369
0.00045534339
0.00038211715
0.00031991257
0.00026720999
0.000222674
0.00018513567
0.00015357563
0.00012710797
0.00010496498
8.6487343e-05
0.048573251
0.045425197
0.042356957
0.039378455
0.036498626
0.033725538
0.031066299
0.028526972
0.026112487
0.023826583
0.021671772
0.019649325
0.017759292
0.016000929
0.01437157
0.012868214
0.011486905
0.010222893
0.009070554
0.008022793
0.0070843063
0.0062350145
0.0054682519
0.0047821989
0.0041704992
0.0036269574
0.0031456098
0.0027207529
0.0023469758
0.0020191864
0.0017326284
0.0014828879
0.0012658948
0.0010779177
0.00091555504
0.00077572177
0.00065563439
0.00055279344
0.00046496496
0.00039016118
0.00032662106
0.00027279092
0.00022730556
0.00018897007
0.00015674254
0.00012971753
0.0001071103
8.8246961e-05
0.049562494
0.04635106
0.043221225
0.040182999
0.037245412
0.034416616
0.031703814
0.029113161
0.026649681
0.0243172
0.022118306
0.020054342
0.018125448
0.016330716
0.014667495
0.013132908
0.011722848
0.010432454
0.0092561599
0.0081878822
0.0072232
0.0063589921
0.0055792134
0.0048790147
0.0042547392
0.0037000362
0.003208824
0.0027752814
0.0023938821
0.0020594258
0.0017670548
0.0015122621
0.0012908915
0.0010991331
0.00093351395
0.00079088464
0.00066840363
0.00056351953
0.00047395207
0.0003976724
0.00033288315
0.00027799871
0.00023162589
0.00019254545
0.00015969438
0.000132149
0.00010910861
8.9885535e-05
0.060705459
0.057245653
0.053836885
0.050492177
0.047220739
0.044032898
0.040938497
0.037946602
0.035065439
0.03230229
0.029663399
0.027153874
0.024777621
0.022537299
0.02043431
0.018468832
0.01663997
0.014944939
0.013381027
0.011943983
0.010628876
0.0094301326
0.0083417583
0.0073579413
0.0064716386
0.0056823707
0.0049695884
0.0043335383
0.0037683726
0.0032679181
0.0028262421
0.0024377078
0.0020970123
0.0017992031
0.001539685
0.0013142213
0.0011189283
0.00095026597
0.00080502446
0.00068030783
0.000573516
0.00048232529
0.00040466834
0.00033871376
0.000282846
0.00023564568
0.00019587076
0.00016243862
0.00013440867
0.00011096524
9.1407687e-05
0.061754757
0.05823405
0.0547662
0.051363272
0.048035557
0.044793257
0.041646145
0.038603313
0.035673043
0.032862691
0.030178576
0.027625885
0.0252086
0.022929442
0.020789857
0.018790014
0.016928722
0.015204343
0.013613015
0.012150712
0.010812476
0.0095926842
0.0084852237
0.0074836196
0.0065799721
0.0057759234
0.0050541184
0.00440707
0.0038321106
0.0033230194
0.0028737481
0.0024785526
0.0021320335
0.0018291493
0.0015652229
0.0013359416
0.0011373528
0.00096585368
0.00081817779
0.00069137831
0.0005828096
0.00049010742
0.00041116839
0.00034412934
0.00028734672
0.00023937665
0.00019895581
0.00016498335
0.00013650332
0.00011268597
9.2818527e-05
0.062736151
0.059158003
0.05563461
0.0521774
0.048797044
0.045503765
0.042307321
0.039216829
0.036240623
0.033386121
0.030659712
0.028066657
0.025611003
0.023295531
0.021121731
0.0190898
0.017198673
0.01544639
0.013829394
0.012343487
0.010983648
0.0097441809
0.0086188638
0.0076010621
0.0066837388
0.0058617666
0.0051308706
0.0044755165
0.0038914001
0.0033742652
0.0029179229
0.0025165257
0.0021645848
0.0018569767
0.0015889477
0.0013561146
0.0011544602
0.00098032314
0.0008303841
0.00070164879
0.00059142909
0.00049732291
0.00041719332
0.00034914749
0.00029151575
0.00024283133
0.00020181098
0.000167337
0.00013843997
0.00011427676
9.4123601e-05
0.063651656
0.0600197
0.05644426
0.052936408
0.049506917
0.046166038
0.04292354
0.039788567
0.036769496
0.033873802
0.031107938
0.028477229
0.025985785
0.023636443
0.021430737
0.019368897
0.017449903
0.015671657
0.014030714
0.012522802
0.011142831
0.0098850285
0.0087430802
0.0077102656
0.0067796464
0.005944912
0.0051994926
0.0045387671
0.0039463889
0.0034218015
0.0029588984
0.0025517436
0.0021947679
0.0018827735
0.0016109359
0.0013748062
0.0011703071
0.00099372286
0.00084168486
0.00071115464
0.00059940456
0.00050399732
0.00042276478
0.00035378651
0.00029536856
0.00024602275
0.00020444705
0.00016950801
0.00014022566
0.00011574369
9.5328907e-05
0.064503432
0.060821336
0.057197313
0.053642282
0.050167028
0.046781818
0.043496434
0.040320047
0.037261074
0.034327042
0.031524461
0.028858715
0.026333971
0.023953118
0.02171773
0.019628072
0.017683142
0.015880774
0.014217556
0.012689181
0.011290496
0.010015654
0.0088582591
0.0078115161
0.0068684221
0.0060221014
0.0052650908
0.0045952188
0.0039973166
0.0034657871
0.0029968133
0.0025843276
0.0022226885
0.0019066312
0.0016312664
0.0013920844
0.001184952
0.0010061028
0.00085212277
0.00071993223
0.00060676691
0.00051015685
0.00042790493
0.00035806514
0.00029892099
0.00024896431
0.00020687513
0.00017150442
0.0001418671
0.00011709361
9.6442224e-05
0.065293933
0.061565221
0.057895993
0.054297105
0.050779328
0.047352932
0.044027712
0.040812864
0.037716842
0.034747217
0.031910551
0.029212284
0.026656634
0.024246537
0.021983607
0.019868135
0.017899134
0.016074408
0.014390523
0.012843169
0.011427133
0.010136497
0.0089647923
0.0079051494
0.0069504832
0.0060937014
0.0053276494
0.0046456939
0.004043821
0.0035063729
0.0030318112
0.0026144027
0.0022484545
0.0019286432
0.0016500198
0.0014080184
0.0011984542
0.0010175139
0.00086174109
0.00072801836
0.00061354737
0.00051582793
0.0004326361
0.00036200224
0.00030218897
0.00025166957
0.00020910671
0.0001733333
0.066025759
0.062253768
0.058542586
0.054903029
0.051345835
0.04788127
0.044519141
0.041268665
0.038138327
0.035135742
0.032267517
0.02953914
0.026954879
0.024517712
0.022229289
0.020089925
0.018098643
0.016253255
0.014550234
0.012985326
0.011553244
0.010248008
0.0090630779
0.0079915138
0.007026145
0.0061597305
0.0053849683
0.0046940668
0.0040850535
0.0035438053
0.0030640427
0.0026420953
0.0022721751
0.0019489036
0.0016672773
0.0014226779
0.0012108732
0.0010280067
0.00087058312
0.00073544981
0.00061977712
0.00052103692
0.00043698056
0.00036561653
0.00030518829
0.00025415207
0.00021115427
0.066701543
0.062889447
0.059139423
0.055462245
0.051868605
0.048368759
0.04497252
0.041689125
0.038527089
0.03549406
0.03259669
0.02984051
0.027229832
0.024767673
0.022455714
0.020294294