/*--------------------------------*- C++ -*----------------------------------*\
| =========                 |                                                 |
| \\      /  F ield         | OpenFOAM: The Open Source CFD Toolbox           |
|  \\    /   O peration     | Version:  2312                                  |
|   \\  /    A nd           | Website:  www.openfoam.com                      |
|    \\/     M anipulation  |                                                 |
\*---------------------------------------------------------------------------*/
FoamFile
{
    version     2.0;
    format      ascii;
    arch        "LSB;label=32;scalar=64";
    class       volScalarField;
    location    "0.01";
    object      Ma;
}
// * * * * * * * * * * * * * * * * * * * * * * * * * * * * * * * * * * * * * //

dimensions      [0 0 0 0 0 0 0];

internalField   nonuniform List<scalar> 
3272
(
0.0029984388
0.0029662982
0.0029336098
0.002900408
0.0028667298
0.0028326114
0.0027980879
0.0027631936
0.0027279626
0.0026924282
0.0026566236
0.0026205817
0.0025843354
0.0025479177
0.0025113613
0.0024746993
0.0024379647
0.0024011905
0.0023644097
0.002327655
0.002290959
0.0022543538
0.0022178712
0.0021815422
0.0021453972
0.0021094655
0.0020737757
0.0020383551
0.0020032299
0.001968425
0.001933964
0.0018998689
0.0018661607
0.0018328587
0.0017999809
0.0017675437
0.0017355624
0.0017040509
0.0016730217
0.0016424864
0.0016124552
0.0015829375
0.0015539417
0.0015254752
0.0014975447
0.0014701564
0.0014433158
0.0014170279
0.0013912975
0.0013661297
0.0013415292
0.001317502
0.0012940561
0.0027079184
0.0026721614
0.0026359535
0.0025993422
0.0025623763
0.0025251022
0.0024875636
0.0024498019
0.0024118562
0.0023737636
0.0023355596
0.002297278
0.002258951
0.00222061
0.0021822852
0.0021440057
0.0021058002
0.0020676964
0.0020297216
0.0019919023
0.0019542644
0.0019168334
0.0018796339
0.0018426899
0.0018060248
0.0017696608
0.0017336196
0.0016979215
0.0016625863
0.0016276323
0.0015930768
0.001558936
0.001525225
0.0014919576
0.0014591464
0.0014268032
0.0013949382
0.0013635609
0.0013326796
0.0013023017
0.0012724338
0.0012430817
0.0012142504
0.0011859443
0.0011581672
0.0011309225
0.0011042129
0.0010780414
0.0010524102
0.0010273221
0.0010027795
0.00097878536
0.00095534477
0.0025406908
0.0025024064
0.0024637281
0.0024247138
0.0023854212
0.0023459042
0.0023062131
0.0022663944
0.0022264913
0.0021865439
0.0021465894
0.0021066623
0.002066795
0.0020270176
0.0019873588
0.0019478455
0.0019085032
0.0018693564
0.0018304286
0.0017917422
0.0017533189
0.0017151796
0.0016773447
0.0016398336
0.001602665
0.0015658569
0.0015294265
0.00149339
0.0014577628
0.0014225594
0.0013877933
0.001353477
0.0013196219
0.0012862386
0.0012533365
0.0012209242
0.0011890091
0.0011575978
0.001126696
0.0010963086
0.0010664398
0.0010370931
0.0010082715
0.00097997738
0.00095221261
0.00092497866
0.00089827669
0.00087210756
0.00084647204
0.00082137088
0.00079680471
0.00077277445
0.00074928229
0.0024012255
0.0023604012
0.0023192336
0.0022777919
0.0022361439
0.0021943521
0.0021524739
0.0021105618
0.0020686636
0.0020268227
0.0019850788
0.0019434674
0.0019020212
0.0018607698
0.0018197401
0.0017789569
0.0017384432
0.00169822
0.0016583072
0.0016187232
0.0015794856
0.0015406111
0.0015021155
0.0014640141
0.0014263213
0.0013890508
0.0013522157
0.0013158283
0.0012799003
0.0012444424
0.0012094646
0.0011749762
0.0011409855
0.0011075001
0.0010745268
0.0010420715
0.0010101392
0.00097873428
0.00094786012
0.00091751955
0.0008877149
0.00085844806
0.00082972049
0.0008015332
0.00077388674
0.00074678131
0.00072021694
0.00069419339
0.00066871019
0.00064376686
0.0006193629
0.0005954976
0.0005721716
0.002291867
0.0022485795
0.0022049955
0.0021611968
0.0021172618
0.0020732624
0.0020292639
0.0019853255
0.0019415001
0.0018978351
0.0018543729
0.0018111508
0.0017682018
0.0017255553
0.0016832371
0.0016412701
0.0015996749
0.0015584695
0.0015176705
0.0014772927
0.0014373496
0.0013978541
0.0013588183
0.0013202537
0.0012821711
0.0012445805
0.0012074919
0.0011709143
0.0011348565
0.0010993269
0.001064333
0.001029882
0.00099598053
0.00096263464
0.0009298501
0.00089763208
0.00086598517
0.00083491333
0.00080442001
0.00077450831
0.00074518125
0.00071644203
0.00068829399
0.00066074048
0.0006337846
0.00060742975
0.00058168003
0.00055653982
0.00053201371
0.00050810676
0.00048482511
0.00046217587
0.00044016649
0.0022134769
0.0021678667
0.0021220058
0.0020759894
0.0020299075
0.001983842
0.0019378671
0.001892049
0.0018464468
0.0018011123
0.0017560912
0.0017114229
0.0016671418
0.0016232772
0.0015798544
0.001536895
0.0014944178
0.0014524386
0.0014109711
0.0013700269
0.0013296163
0.001289749
0.0012504345
0.0012116819
0.0011734994
0.0011358951
0.0010988767
0.0010624523
0.0010266297
0.00099141674
0.00095682133
0.0009228512
0.00088951397
0.00085681753
0.00082477044
0.00079338143
0.00076265927
0.00073261281
0.00070325114
0.00067458373
0.00064662105
0.00061937541
0.00059286115
0.00056709418
0.00054209118
0.00051787054
0.00049445471
0.00047186864
0.00045013909
0.00042929494
0.00040936779
0.00039039545
0.00037241562
0.0021643254
0.0021165548
0.0020685814
0.0020205139
0.0019724548
0.0019244972
0.0018767245
0.0018292111
0.0017820225
0.001735216
0.0016888411
0.0016429402
0.0015975493
0.0015526985
0.001508413
0.0014647142
0.0014216198
0.0013791445
0.0013373
0.0012960954
0.0012555381
0.0012156358
0.0011763969
0.0011378299
0.0010999429
0.0010627427
0.0010262374
0.00099043622
0.00095534872
0.00092098531
0.00088735736
0.00085447703
0.00082235652
0.00079100923
0.00076045128
0.00073070044
0.00070177553
0.00067369652
0.00064648465
0.00062016239
0.00059475394
0.00057028744
0.00054679522
0.00052431369
0.00050287952
0.00048252823
0.00046330201
0.0004452472
0.00042840835
0.00041282682
0.00039854148
0.00038559666
0.00037402655
0.0021416809
0.0020919042
0.0020419748
0.0019920163
0.0019421445
0.0018924642
0.0018430691
0.0017940421
0.0017454561
0.0016973741
0.0016498502
0.0016029303
0.0015566524
0.001511048
0.0014661428
0.0014219582
0.0013785123
0.0013358195
0.0012938911
0.001252734
0.0012123519
0.0011727502
0.001133938
0.0010959259
0.0010587238
0.0010223376
0.00098677588
0.00095205063
0.00091817505
0.00088516351
0.00085303259
0.00082180162
0.00079148912
0.00076211389
0.0007336999
0.00070627513
0.00067986874
0.00065451134
0.00063023487
0.00060707133
0.00058505229
0.00056421311
0.00054459278
0.00052623277
0.00050917065
0.00049343268
0.00047904744
0.00046604754
0.0004544527
0.00044427392
0.00043552269
0.00042819812
0.0004222555
0.0021422845
0.0020906162
0.0020388509
0.001987125
0.0019355678
0.0018842963
0.0018334148
0.0017830155
0.0017331787
0.0016839738
0.0016354597
0.0015876857
0.0015406926
0.0014945127
0.0014491716
0.0014046917
0.0013610922
0.0013183877
0.0012765912
0.0012357081
0.0011957346
0.0011566697
0.0011185231
0.0010813096
0.0010450462
0.0010097378
0.00097538674
0.00094200766
0.00090961714
0.00087823222
0.00084787177
0.00081856042
0.00079032345
0.00076318368
0.00073716622
0.00071229844
0.00068861028
0.00066613257
0.00064489526
0.0006249241
0.00060624239
0.00058887868
0.00057286147
0.00055821461
0.00054496188
0.00053311996
0.00052269001
0.00051365764
0.0005060055
0.00049970895
0.0004947269
0.00049099376
0.00048844463
0.0021625955
0.0021090999
0.0020555625
0.0020021359
0.0019489622
0.0018961708
0.0018438765
0.0017921808
0.0017411716
0.0016909244
0.001641503
0.0015929601
0.001545339
0.0014986724
0.0014529832
0.0014082941
0.0013646288
0.0013219982
0.0012804185
0.0012398983
0.0012004258
0.0011619786
0.0011245635
0.0010881965
0.0010529049
0.001018711
0.00098561143
0.00095360908
0.00092271639
0.0008929499
0.00086432463
0.00083685143
0.00081054532
0.00078544467
0.00076157421
0.00073895499
0.00071760792
0.00069755342
0.00067880976
0.00066138984
0.00064531844
0.0006306212
0.00061730625
0.00060537117
0.00059480523
0.0005855992
0.00057773193
0.00057116979
0.0005658737
0.00056179667
0.00055887888
0.0021990736
0.0021437606
0.002088455
0.002033333
0.0019785486
0.0019242425
0.0018705405
0.0018175527
0.0017653747
0.001714088
0.0016637604
0.0016144473
0.0015661956
0.001519038
0.0014729882
0.0014280611
0.001384294
0.0013416945
0.0013002698
0.0012600345
0.0012209942
0.0011831226
0.0011463975
0.0011108301
0.0010764235
0.0010431708
0.0010111065
0.00098023696
0.00095056687
0.00092210405
0.00089485953
0.00086884515
0.00084408105
0.00082057722
0.00079834934
0.00077741141
0.00075777534
0.0007394517
0.00072245326
0.00070679804
0.00069249503
0.00067953794
0.00066791692
0.00065761572
0.00064861251
0.00064088211
0.00063439115
0.00062909834
0.00062495644
0.00062191243
0.00061990644
0.0022484013
0.0021912167
0.0021340993
0.0020772305
0.0020207845
0.0019649116
0.001909747
0.0018554095
0.0018020022
0.0017496126
0.0016983113
0.0016481521
0.00159919
0.0015514577
0.0015049627
0.0014596812
0.001415661
0.0013729705
0.0013316075
0.0012915656
0.0012527976
0.0012152514
0.0011789466
0.0011438937
0.0011100847
0.0010775299
0.0010462258
0.001016175
0.00098737889
0.0009598396
0.0009335624
0.00090855535
0.00088482551
0.0008623767
0.00084121514
0.00082134713
0.00080277838
0.00078551394
0.00076955668
0.00075490867
0.0007415651
0.0007295116
0.00071872958
0.00070919573
0.00070088222
0.00069375674
0.00068778121
0.00068291212
0.00067910163
0.00067629739
0.00067444354
0.002307589
0.0022484405
0.0021894205
0.0021307155
0.002072514
0.0020149788
0.0019582533
0.0019024638
0.0018477219
0.0017941234
0.001741738
0.0016905976
0.0016407788
0.0015923154
0.0015452716
0.0014996401
0.0014553466
0.0014123694
0.0013707659
0.0013305395
0.001291682
0.0012542097
0.0012180968
0.0011833164
0.0011498489
0.0011176834
0.0010868112
0.0010572284
0.0010289312
0.0010019168
0.00097618371
0.00095173181
0.00092856043
0.00090666786
0.0008860531
0.00086671536
0.00084865349
0.0008318649
0.0008163444
0.00080208421
0.00078907173
0.00077728868
0.00076671257
0.00075731685
0.00074907108
0.00074194082
0.00073588749
0.00073086857
0.00072683803
0.00072374683
0.00072154303
0.0023740291
0.0023127996
0.0022517513
0.0021910985
0.0021310237
0.0020717052
0.0020132936
0.0019559212
0.0018997079
0.0018447712
0.0017911931
0.0017389126
0.0016880697
0.0016388206
0.0015910647
0.0015447362
0.0014998519
0.0014564347
0.0014144637
0.001373923
0.0013348278
0.0012971937
0.0012609942
0.0012261895
0.0011927503
0.0011606568
0.0011298926
0.0011004447
0.0010723016
0.0010454535
0.0010198916
0.00099560847
0.00097259664
0.00095084879
0.0009303579
0.00091111707
0.00089311893
0.00087635475
0.00086081373
0.0008464826
0.00083334458
0.00082137904
0.00081056178
0.00080086529
0.00079225878
0.00078470826
0.00077817648
0.00077262318
0.00076800538
0.00076427761
0.00076139168
0.0024454941
0.002382049
0.0023188459
0.0022561073
0.0021940387
0.0021328056
0.0020725719
0.0020134656
0.0019556061
0.0018991599
0.0018443488
0.0017910367
0.0017391007
0.0016886357
0.0016397755
0.001592555
0.0015469451
0.0015029079
0.0014604005
0.0014193955
0.001379893
0.0013418964
0.0013053799
0.0012703058
0.0012366405
0.0012043566
0.0011734299
0.0011438391
0.0011155652
0.0010885909
0.0010629009
0.0010384808
0.0010153172
0.00099339756
0.00097270944
0.00095324085
0.00093497942
0.0009179119
0.00090202356
0.00088729773
0.00087371527
0.00086125428
0.00084989013
0.00083959552
0.00083034052
0.00082209258
0.00081481663
0.00080847508
0.00080302817
0.00079843405
0.00079464818
0.00252011
0.0024543122
0.0023888215
0.0023238718
0.0022596822
0.0021964197
0.0021342407
0.0020732645
0.0020135807
0.0019553486
0.0018990986
0.0018446958
0.0017914916
0.0017398121
0.0016898313
0.0016415956
0.0015950733
0.0015502148
0.001506975
0.0014653206
0.001425233
0.0013866954
0.0013496776
0.0013141415
0.0012800502
0.0012473697
0.0012160689
0.0011861193
0.0011574949
0.0011301718
0.0011041281
0.0010793436
0.0010557996
0.0010334782
0.0010123626
0.0009924363
0.00097368297
0.00095608585
0.0009396273
0.0009242884
0.00091004857
0.00089688531
0.00088477409
0.00087368837
0.00086359949
0.00085447677
0.00084628734
0.00083899646
0.00083256746
0.00082696192
0.0008221386
0.002596317
0.0025280346
0.0024601322
0.0023928562
0.0023264261
0.0022610455
0.0021968671
0.0021340243
0.0020726174
0.0020128753
0.0019546328
0.0018981532
0.0018436516
0.0017908653
0.0017397819
0.0016904606
0.0016429086
0.0015970939
0.0015529774
0.001510523
0.0014696988
0.0014304733
0.0013928087
0.001356663
0.0013219945
0.0012887634
0.001256932
0.0012264655
0.0011973314
0.0011694996
0.0011429426
0.0011176345
0.0010935515
0.0010706714
0.0010489729
0.0010284359
0.0010090406
0.00099076736
0.00097359621
0.00095750656
0.00094247683
0.00092848418
0.0009155044
0.00090351177
0.00089247901
0.00088237716
0.00087317567
0.0008648423
0.00085734327
0.00085064343
0.00084470421
0.0026728253
0.0026019363
0.0025315084
0.0024617963
0.0023930304
0.0023254224
0.0022591787
0.0021944321
0.0021311991
0.0020696223
0.0020096724
0.0019514727
0.0018953279
0.0018410957
0.0017887066
0.0017381723
0.001689485
0.0016426125
0.0015975152
0.0015541513
0.0015124794
0.0014724571
0.0014340388
0.0013971768
0.0013618238
0.0013279341
0.001295464
0.0012643725
0.0012346211
0.0012061743
0.0011789987
0.0011530637
0.0011283408
0.0011048032
0.0010824261
0.0010611857
0.0010410593
0.0010220246
0.0010040598
0.00098714269
0.00097125095
0.00095636142
0.00094245015
0.00092949217
0.00091746138
0.00090633046
0.00089607081
0.00088665247
0.00087804436
0.000870214
0.00086312528
0.0027485765
0.0026749729
0.0026019199
0.0025296757
0.0024584704
0.0023885113
0.0023199896
0.0022531115
0.0021880314
0.0021246899
0.0020629796
0.0020031347
0.0019453567
0.0018895993
0.0018358163
0.0017839906
0.001734097
0.0016860981
0.0016399494
0.0015956031
0.0015530097
0.0015121179
0.0014728748
0.0014352266
0.0013991198
0.0013645029
0.0013313263
0.0012995432
0.0012691095
0.0012399842
0.001212129
0.0011855084
0.0011600894
0.0011358415
0.0011127358
0.0010907456
0.0010698452
0.00105001
0.0010312164
0.0010134408
0.00099665989
0.00098085028
0.00096598806
0.00095204883
0.00093900743
0.00092683791
0.00091551327
0.00090500558
0.00089528611
0.00088632482
0.0028227098
0.0027463031
0.0026705493
0.0025957103
0.002522018
0.0024496779
0.0023788692
0.0023097809
0.0022425821
0.0021772594
0.0021138189
0.0020523617
0.0019929989
0.001935729
0.0018805292
0.0018273766
0.0017762394
0.0017270753
0.001679835
0.0016344647
0.0015909076
0.001549105
0.0015089972
0.0014705239
0.0014336259
0.0013982454
0.0013643274
0.0013318194
0.001300672
0.001270839
0.0012422772
0.0012149468
0.0011888104
0.0011638337
0.0011399844
0.0011172325
0.0010955498
0.0010749094
0.0010552858
0.0010366541
0.00101899
0.0010022695
0.00098646878
0.00097156361
0.00095752959
0.00094434173
0.00093197442
0.00092040149
0.00090959597
0.00089952956
0.0028945292
0.0028152492
0.0027367373
0.0026592593
0.0025830506
0.0025083203
0.0024352455
0.0023639517
0.0022945438
0.0022272014
0.0021619386
0.0020988187
0.0020378656
0.0019790815
0.0019224548
0.0018679617
0.0018155663
0.0017652222
0.0017168749
0.0016704644
0.0016259277
0.0015831991
0.0015422123
0.0015029009
0.0014651996
0.0014290452
0.0013943768
0.0013611367
0.0013292703
0.0012987265
0.0012694575
0.0012414191
0.0012145699
0.0011888719
0.0011642894
0.0011407896
0.0011183415
0.0010969161
0.0010764858
0.0010570245
0.0010385068
0.001020908
0.0010042039
0.00098837055
0.0009733838
0.00095921947
0.00094585304
0.00093325934
0.00092141377
0.00091028823
0.0029634796
0.0028812739
0.0027999629
0.0027198147
0.0026410672
0.002563934
0.0024885893
0.0024151442
0.002343676
0.0022742767
0.0022071331
0.0021422678
0.0020796938
0.0020193884
0.0019613342
0.0019055029
0.0018518536
0.0018003342
0.0017508848
0.0017034392
0.0016579278
0.0016142788
0.0015724195
0.0015322774
0.0014937815
0.0014568629
0.0014214553
0.0013874959
0.0013549251
0.0013236871
0.0012937296
0.0012650042
0.0012374659
0.0012110728
0.0011857862
0.0011615702
0.0011383914
0.0011162185
0.0010950221
0.0010747745
0.0010554492
0.0010370207
0.0010194643
0.0010027558
0.00098687145
0.00097178744
0.00095747977
0.0009439249
0.00093109865
0.00091897437
0.003029127
0.0029439617
0.0028598261
0.0027769865
0.0026956754
0.0026160944
0.0025384164
0.0024627862
0.0023893362
0.0023180897
0.0022491213
0.0021825031
0.0021182936
0.0020564719
0.0019970043
0.0019398532
0.0018849704
0.0018322974
0.0017817677
0.0017333088
0.0016868448
0.0016422976
0.0015995885
0.0015586392
0.0015193729
0.0014817153
0.001445595
0.0014109441
0.0013776981
0.0013457968
0.0013151837
0.0012858062
0.0012576157
0.0012305669
0.0012046179
0.00117973
0.0011558672
0.0011329961
0.0011110855
0.0010901059
0.0010700298
0.0010508306
0.0010324831
0.0010149628
0.00099824574
0.00098230833
0.00096712729
0.00095267939
0.00093894235
0.0030911431
0.0030030046
0.0029160409
0.0028305139
0.0027466507
0.0026646454
0.0025846592
0.0025068504
0.002431372
0.0023582649
0.0022875425
0.0022192722
0.0021535006
0.0020902121
0.0020293716
0.0019709382
0.0019148588
0.0018610686
0.0018094944
0.0017600577
0.0017126764
0.0016672663
0.0016237427
0.0015820217
0.0015420212
0.0015036615
0.001466866
0.0014315621
0.0013976807
0.0013651572
0.0013339311
0.0013039458
0.0012751492
0.0012474926
0.0012209313
0.0011954236
0.0011709313
0.0011474187
0.0011248526
0.0011032022
0.0010824384
0.0010625339
0.0010434624
0.0010251992
0.0010077199
0.00099100103
0.00097501953
0.00095975306
0.00094517886
0.0031492892
0.0030581844
0.0029684093
0.0028802209
0.0027938415
0.0027094632
0.0026272471
0.0025473389
0.0024698754
0.0023948696
0.002322405
0.0022525317
0.0021852757
0.0021205754
0.0020584134
0.0019987477
0.0019415205
0.001886661
0.0018340894
0.001783721
0.0017354678
0.0016892397
0.0016449465
0.0016024987
0.0015618087
0.0015227919
0.0014853668
0.001449456
0.0014149861
0.0013818883
0.0013500981
0.0013195553
0.0012902043
0.0012619934
0.0012348747
0.0012088041
0.0011837409
0.0011596473
0.0011364883
0.0011142314
0.0010928462
0.0010723043
0.0010525788
0.001033644
0.0010154754
0.00099804945
0.00098134294
0.00096533426
0.0009500004
0.003203403
0.0031093576
0.0030168059
0.002925999
0.0028371531
0.002750457
0.0026660707
0.0025841297
0.0025047417
0.0024279643
0.0023538014
0.0022823636
0.002213645
0.0021475922
0.0020841631
0.0020233224
0.0019650052
0.0019091331
0.0018556194
0.0018043734
0.0017553013
0.0017083076
0.0016632964
0.0016201728
0.0015788443
0.001539221
0.0015012171
0.0014647504
0.0014297435
0.0013961234
0.0013638219
0.0013327754
0.0013029249
0.0012742156
0.0012465969
0.0012200222
0.0011944485
0.0011698358
0.0011461474
0.0011233492
0.0011014096
0.0010802988
0.0010599892
0.0010404543
0.0010216694
0.0010036104
0.00098625431
0.00096957962
0.00095356286
0.0032533883
0.0031564452
0.0030611682
0.0029678001
0.0028765498
0.0027875989
0.0027011008
0.0026171831
0.0025359431
0.0024574344
0.0023816902
0.0023087774
0.0022386541
0.002171315
0.0021066954
0.0020447432
0.0019853999
0.0019285788
0.0018741844
0.0018221204
0.0017722879
0.0017245858
0.0016789128
0.001635169
0.0015932566
0.0015530813
0.0015145525
0.0014775838
0.0014420938
0.0014080057
0.0013752475
0.0013437525
0.0013134583
0.0012843074
0.0012562466
0.0012292268
0.0012032026
0.0011781323
0.0011539774
0.0011307022
0.0011082737
0.0010866612
0.0010658358
0.0010457708
0.0010264405
0.0010078206
0.000989888
0.00097262173
0.0032992055
0.0031994239
0.0031014874
0.0030056296
0.0029120502
0.0028209223
0.0027323906
0.0026465744
0.0025635694
0.0024834322
0.0024061627
0.0023318261
0.0022603996
0.00219184
0.0021261074
0.0020631204
0.0020028204
0.0019451192
0.0018899096
0.0018370913
0.0017865603
0.0017382103
0.0016919348
0.0016476287
0.0016051895
0.0015645184
0.0015255202
0.0014881047
0.0014521864
0.0014176849
0.001384525
0.0013526365
0.0013219542
0.0012924179
0.0012639718
0.0012365645
0.0012101486
0.0011846804
0.0011601198
0.0011364295
0.0011135753
0.0010915253
0.0010702499
0.0010497213
0.0010299136
0.0010108017
0.00099236282
0.00097457508
0.003340864
0.0032383174
0.0031378007
0.0030395369
0.0029437153
0.0028504995
0.0027600254
0.0026724033
0.0025877203
0.0025060305
0.0024273501
0.0023516679
0.0022790127
0.002209317
0.002142529
0.0020785846
0.0020174045
0.0019588962
0.0019029398
0.0018494326
0.0017982672
0.0017493317
0.0017025143
0.0016577052
0.0016147972
0.0015736869
0.0015342752
0.0014964679
0.0014601759
0.0014253152
0.0013918074
0.0013595794
0.0013285632
0.0012986959
0.0012699194
0.0012421801
0.0012154286
0.0011896195
0.0011647109
0.0011406643
0.0011174442
0.0010950176
0.001073354
0.0010524249
0.0010322036
0.001012665
0.00099378565
0.00097554372
0.0033784149
0.0032731896
0.0031701835
0.0030696077
0.0029716401
0.0028764337
0.0027841147
0.0026947835
0.0026085167
0.0025253609
0.0024453254
0.0023684097
0.0022946214
0.0022238772
0.0021561257
0.0020912836
0.0020293047
0.0019700659
0.0019134327
0.0018593034
0.0018075686
0.0017581106
0.0017108125
0.0016655597
0.0016222405
0.0015807474
0.0015409773
0.0015028323
0.0014662198
0.0014310526
0.0013972493
0.0013647338
0.0013334355
0.0013032892
0.0012742344
0.0012462156
0.0012191815
0.001193085
0.0011678829
0.0011435351
0.0011200049
0.0010972585
0.0010752644
0.0010539934
0.0010334181
0.001013513
0.0009942548
0.00097562085
0.0034119446
0.0033041383
0.0031987438
0.0030959588
0.0029959489
0.0028988557
0.0028047947
0.0027138562
0.0026261071
0.0025415882
0.0024603063
0.0023822357
0.0023073821
0.0022356812
0.0021670524
0.0021014039
0.0020386839
0.0019787944
0.0019215537
0.0018668704
0.0018146318
0.0017647144
0.0017169962
0.0016713581
0.0016276843
0.0015858634
0.0015457886
0.0015073583
0.0014704766
0.0014350535
0.0014010044
0.0013682508
0.0013367196
0.0013063432
0.0012770592
0.0012488102
0.001221543
0.0011952091
0.0011697637
0.0011451657
0.0011213772
0.0010983633
0.0010760918
0.0010545328
0.0010336584
0.0010134426
0.00099386161
0.00097489294
0.0034415694
0.0033312899
0.0032236162
0.0031187321
0.0030167898
0.0029179187
0.0028222231
0.0027297828
0.0026406547
0.0025548719
0.0024724357
0.0023933236
0.0023174909
0.0022449111
0.0021754842
0.0021091158
0.002045736
0.0019852492
0.0019274759
0.0018723058
0.0018196287
0.0017693139
0.0017212347
0.0016752683
0.0016312948
0.0015891992
0.001548871
0.0015102056
0.0014731037
0.0014374725
0.0014032248
0.0013702795
0.0013385614
0.0013080008
0.0012785332
0.0012500994
0.0012226449
0.0011961195
0.0011704773
0.0011456758
0.0011216762
0.0010984428
0.0010759425
0.0010541448
0.0010330212
0.0010125452
0.00099269315
0.0009734418
0.0034674311
0.0033547943
0.0032449576
0.0031380901
0.0030343299
0.0029337938
0.0028365739
0.0027427394
0.0026523368
0.0025653898
0.0024818934
0.0024018147
0.002325111
0.0022517404
0.0021816005
0.0021145951
0.0020506369
0.0019896122
0.001931373
0.0018757868
0.0018227335
0.0017720808
0.0017236978
0.0016774577
0.0016332373
0.0015909176
0.0015503851
0.0015115318
0.0014742559
0.0014384616
0.0014040593
0.0013709657
0.0013391034
0.0013084007
0.0012787916
0.001250215
0.001222615
0.0011959401
0.0011701432
0.0011451808
0.0011210131
0.0010976036
0.0010749184
0.0010529265
0.001031599
0.0010109088
0.00099083183
0.00097134504
0.0034896925
0.0033748211
0.003262943
0.0031542118
0.0030487515
0.0029466653
0.0028480332
0.0027529131
0.0026613413
0.0025733321
0.0024888747
0.0024079307
0.0023304394
0.0022563568
0.0021855867
0.0021180215
0.0020535573
0.0019920735
0.0019334233
0.0018774867
0.0018241197
0.0017731857
0.0017245532
0.0016780917
0.0016336742
0.0015911785
0.0015504877
0.0015114912
0.0014740842
0.0014381687
0.0014036527
0.0013704507
0.0013384835
0.0013076775
0.0012779651
0.0012492838
0.0012215763
0.00119479
0.0011688765
0.0011437916
0.0011194945
0.0010959479
0.0010731175
0.0010509714
0.0010294804
0.0010086171
0.00098835714
0.00096867709
0.0035085345
0.0033915556
0.0032777615
0.0031672888
0.0030602476
0.0029567275
0.0028567957
0.0027604987
0.0026678621
0.0025788912
0.0024935681
0.0024118492
0.0023336735
0.0022589591
0.0021876339
0.0021195782
0.0020546777
0.0019928041
0.0019338137
0.0018775752
0.0018239569
0.0017727961
0.0017239653
0.0016773315
0.0016327643
0.0015901375
0.0015493316
0.0015102331
0.001472735
0.0014367368
0.0014021445
0.0013688707
0.0013368343
0.0013059602
0.0012761793
0.0012474277
0.001219647
0.0011927834
0.0011667877
0.0011416146
0.0011172226
0.0010935739
0.0010706333
0.0010483687
0.0010267504
0.0010057507
0.00098534466
0.00096550921
0.0035241526
0.0034051958
0.0032896129
0.0031775222
0.0030690199
0.0029641816
0.0028630618
0.0027656952
0.002672097
0.0025822625
0.0024961662
0.0024137592
0.0023349733
0.0022597225
0.0021879192
0.0021194446
0.0020541762
0.0019919794
0.00193271
0.0018762306
0.0018224075
0.001771075
0.0017220937
0.001675334
0.001630661
0.001587945
0.0015470636
0.0015079013
0.0014703487
0.001434303
0.0013996686
0.0013663561
0.0013342829
0.0013033725
0.0012735542
0.0012447632
0.0012169399
0.0011900295
0.0011639818
0.001138751
0.0011142949
0.0010905748
0.0010675554
0.0010452039
0.0010234902
0.0010023863
0.00098186739
0.00096190974
0.0035367542
0.0034159494
0.0032987047
0.0031851192
0.0030752748
0.0029692329
0.0028670351
0.0027687045
0.0026742453
0.0025836435
0.0024968653
0.0024138572
0.0023345457
0.0022588296
0.0021866196
0.0021177966
0.0020522268
0.0019897702
0.0019302807
0.0018736172
0.0018196334
0.0017681768
0.0017190931
0.0016722498
0.0016275122
0.0015847452
0.0015438249
0.0015046336
0.0014670596
0.0014309985
0.0013963527
0.0013630313
0.0013309503
0.0013000317
0.0012702039
0.0012414009
0.0012135619
0.0011866316
0.001160559
0.0011352973
0.001110804
0.0010870398
0.0010639688
0.0010415581
0.0010197771
0.00099859767
0.00097799443
0.00095794409
0.0039352537
0.0038023104
0.0036726883
0.0035465465
0.0034240292
0.003305249
0.0031902909
0.0030792216
0.0029720884
0.0028689201
0.0027697279
0.0026745056
0.0025832297
0.0024958588
0.002412334
0.0023325764
0.0022564664
0.0021839148
0.0021148089
0.0020489998
0.0019863419
0.0019266869
0.0018698886
0.0018157963
0.0017642522
0.0017151094
0.0016682231
0.0016234589
0.0015806758
0.0015397496
0.0015005606
0.0014629953
0.0014269474
0.0013923177
0.001359014
0.0013269508
0.0012960492
0.0012662363
0.0012374452
0.0012096145
0.0011826879
0.0011566136
0.0011313446
0.0011068376
0.0010830529
0.0010599543
0.0010375085
0.0010156847
0.00099445429
0.00097379218
0.00095367459
0.0039484309
0.0038132758
0.0036816652
0.0035537506
0.0034296511
0.0033094609
0.0031932502
0.0030810706
0.0029729553
0.0028689203
0.0027689653
0.0026730736
0.0025812126
0.0024933327
0.0024093681
0.0023292348
0.002252815
0.0021799881
0.0021106555
0.0020446604
0.0019818539
0.0019220834
0.001865197
0.0018110402
0.0017594527
0.0017102803
0.0016633903
0.0016186358
0.0015758673
0.0015349646
0.0014958062
0.0014582762
0.0014222669
0.0013876777
0.001354415
0.0013223923
0.0012915295
0.0012617529
0.0012329948
0.0012051929
0.0011782903
0.0011522348
0.0011269786
0.0011024782
0.0010786935
0.0010555879
0.0010331278
0.0010112822
0.00099002245
0.00096932305
0.00094916047
0.0039588179
0.0038215953
0.003688141
0.0035585877
0.0034330338
0.0033115563
0.0031942098
0.0030810308
0.0029720387
0.0028672368
0.0027666132
0.0026701414
0.0025777791
0.0024894684
0.0024051346
0.0023246864
0.0022480223
0.002175002
0.0021054953
0.002039365
0.0019764586
0.0019166183
0.0018596869
0.0018055068
0.0017539169
0.0017047392
0.0016578774
0.0016131708
0.0015704427
0.0015295897
0.0014904868
0.0014530157
0.0014170673
0.0013825398
0.0013493385
0.0013173758
0.0012865708
0.0012568489
0.0012281416
0.0012003862
0.0011735251
0.0011475057
0.0011222798
0.0010978034
0.001074036
0.001050941
0.0010284844
0.0010066351
0.00098536424
0.00096464644
0.00094445781
0.0039666437
0.0038274973
0.0036923385
0.0035612785
0.0034343958
0.0033117502
0.0031933807
0.0030793089
0.0029695405
0.0028640666
0.0027628641
0.0026658962
0.0025731119
0.002484445
0.0023998125
0.0023191177
0.0022422599
0.002169096
0.0020994746
0.0020332606
0.0019703003
0.0019104322
0.0018534949
0.001799328
0.0017477692
0.0016986227
0.0016518084
0.001607179
0.0015645168
0.0015237366
0.0014847114
0.0014473198
0.0014114517
0.0013770042
0.0013438817
0.0013119957
0.0012812645
0.0012516129
0.0012229718
0.0011952778
0.001168473
0.0011425043
0.0011173232
0.0010928853
0.0010691501
0.0010460804
0.0010236423
0.0010018047
0.00098053823
0.00095981784
0.0009396193
0.0039721341
0.0038312082
0.0036944813
0.0035620438
0.0034339542
0.0033102554
0.0031909708
0.0030761077
0.0029656585
0.0028596022
0.0027579047
0.0026605196
0.0025673873
0.0024784337
0.0023935694
0.0023126907
0.0022356907
0.0021624268
0.0020927401
0.0020264889
0.0019635165
0.0019036584
0.0018467497
0.0017926262
0.0017411232
0.0016920557
0.0016453148
0.0016007621
0.0015581951
0.0015175101
0.0014785818
0.0014412873
0.0014055159
0.0013711639
0.0013381349
0.0013063396
0.0012756957
0.0012461274
0.001217565
0.0011899449
0.0011632086
0.0011373027
0.0011121784
0.0010877912
0.0010641003
0.0010410683
0.0010186614
0.00099684803
0.00097559868
0.00095488916
0.00093469415
0.0039755148
0.0038329537
0.0036947924
0.0035611022
0.0034319228
0.0033072806
0.0031871836
0.0030716252
0.002960585
0.0028540301
0.002751916
0.0026541869
0.0025607747
0.0024715982
0.0023865619
0.002305556
0.0022284633
0.0021551421
0.0020854331
0.0020191848
0.0019562371
0.0018964226
0.0018395734
0.0017855217
0.0017341002
0.0016851359
0.0016384949
0.0015940331
0.0015515802
0.0015110081
0.0014721928
0.00143501
0.0013993489
0.0013651052
0.0013321818
0.0013004888
0.0012699431
0.0012404687
0.0012119953
0.001184459
0.001157801
0.0011319677
0.0011069101
0.0010825835
0.0010589467
0.0010359625
0.0010135969
0.00099181821
0.0039770171
0.0038329596
0.0036934925
0.0035586693
0.0034285119
0.00330303
0.0031822174
0.0030660536
0.002954506
0.0028475303
0.0027450721
0.0026470661
0.0025534364
0.0024640949
0.0023789398
0.0022978562
0.0022207181
0.0021473798
0.0020776855
0.0020114752
0.0019485846
0.0018888432
0.0018320802
0.0017781253
0.0017268094
0.0016779637
0.0016314415
0.0015870941
0.0015447651
0.0015043211
0.0014656321
0.0014285728
0.0013930331
0.001358908
0.0013260998
0.001294518
0.0012640793
0.0012347069
0.0012063306
0.001178886
0.001152314
0.001126561
0.0011015777
0.0010773193
0.0010537446
0.0010308161
0.0010085002
0.0039768712
0.003831449
0.0036907985
0.0035549562
0.003423926
0.0032977023
0.0031762642
0.0030595787
0.0029476009
0.0028402761
0.0027375397
0.002639318
0.0025455273