/*--------------------------------*- C++ -*----------------------------------*\
| =========                 |                                                 |
| \\      /  F ield         | OpenFOAM: The Open Source CFD Toolbox           |
|  \\    /   O peration     | Version:  2312                                  |
|   \\  /    A nd           | Website:  www.openfoam.com                      |
|    \\/     M anipulation  |                                                 |
\*---------------------------------------------------------------------------*/
FoamFile
{
    version     2.0;
    format      ascii;
    arch        "LSB;label=32;scalar=64";
    class       volScalarField;
    location    "0.01";
    object      N2;
}
// * * * * * * * * * * * * * * * * * * * * * * * * * * * * * * * * * * * * * //

dimensions      [0 0 0 0 0 0 0];

internalField   nonuniform List<scalar> 
3272
(
0.76748558
0.7676675
0.76784279
0.76801091
0.7681714
0.76832392
0.76846823
0.76860418
0.76873173
0.76885092
0.76896186
0.76906472
0.76915973
0.76924717
0.76932735
0.76940062
0.76946733
0.76952788
0.76958264
0.76963201
0.76967637
0.76971611
0.76975161
0.7697832
0.76981125
0.76983607
0.76985797
0.76987725
0.76989416
0.76990896
0.76992187
0.7699331
0.76994286
0.7699513
0.76995859
0.76996486
0.76997025
0.76997488
0.76997882
0.76998219
0.76998506
0.76998749
0.76998954
0.76999128
0.76999275
0.76999398
0.76999501
0.76999587
0.7699966
0.7699972
0.7699977
0.76999811
0.76999845
0.76735502
0.76754604
0.76773018
0.76790684
0.76807553
0.76823587
0.76838762
0.76853062
0.76866482
0.76879023
0.76890698
0.76901525
0.76911526
0.76920732
0.76929174
0.76936889
0.76943915
0.76950291
0.76956058
0.76961257
0.7696593
0.76970115
0.76973853
0.76977181
0.76980134
0.76982748
0.76985055
0.76987084
0.76988864
0.76990422
0.76991781
0.76992964
0.7699399
0.76994879
0.76995646
0.76996306
0.76996873
0.76997359
0.76997775
0.76998129
0.7699843
0.76998686
0.76998902
0.76999085
0.76999238
0.76999368
0.76999476
0.76999567
0.76999643
0.76999706
0.76999758
0.76999802
0.76999838
0.76710982
0.76731786
0.76751851
0.76771112
0.76789514
0.76807014
0.76823583
0.76839203
0.76853867
0.76867576
0.76880342
0.76892184
0.76903127
0.76913201
0.76922441
0.76930887
0.7693858
0.76945562
0.76951878
0.76957573
0.76962692
0.76967277
0.76971371
0.76975017
0.76978252
0.76981116
0.76983642
0.76985865
0.76987815
0.76989521
0.76991009
0.76992304
0.76993428
0.769944
0.7699524
0.76995962
0.76996583
0.76997115
0.76997569
0.76997956
0.76998286
0.76998565
0.76998801
0.76999001
0.76999169
0.7699931
0.76999429
0.76999528
0.76999611
0.76999679
0.76999737
0.76999784
0.76999823
0.76675978
0.76699195
0.76721604
0.7674313
0.76763709
0.76783293
0.76801845
0.76819344
0.76835781
0.76851155
0.76865479
0.7687877
0.76891058
0.76902373
0.76912757
0.7692225
0.76930898
0.7693875
0.76945855
0.76952261
0.7695802
0.7696318
0.76967788
0.7697189
0.76975532
0.76978755
0.76981599
0.76984101
0.76986296
0.76988216
0.76989891
0.76991348
0.76992612
0.76993707
0.76994651
0.76995464
0.76996162
0.7699676
0.7699727
0.76997706
0.76998076
0.7699839
0.76998655
0.76998879
0.76999068
0.76999227
0.7699936
0.76999471
0.76999564
0.76999641
0.76999705
0.76999758
0.76999802
0.76631101
0.76657389
0.76682784
0.76707196
0.76730553
0.76752796
0.76773882
0.76793784
0.76812489
0.76829996
0.76846315
0.76861466
0.7687548
0.76888391
0.76900243
0.76911083
0.76920963
0.76929935
0.76938056
0.76945381
0.76951966
0.76957868
0.7696314
0.76967834
0.76972001
0.7697569
0.76978945
0.76981808
0.76984321
0.76986518
0.76988436
0.76990104
0.76991551
0.76992803
0.76993884
0.76994814
0.76995613
0.76996297
0.76996881
0.76997379
0.76997802
0.76998161
0.76998464
0.76998721
0.76998936
0.76999118
0.7699927
0.76999397
0.76999503
0.76999591
0.76999664
0.76999725
0.76999775
0.7657675
0.76606728
0.76635713
0.76663601
0.76690303
0.76715752
0.76739896
0.767627
0.76784148
0.76804234
0.76822969
0.76840375
0.76856481
0.76871329
0.76884965
0.76897443
0.7690882
0.76919156
0.76928515
0.7693696
0.76944554
0.76951361
0.76957444
0.76962861
0.76967671
0.76971929
0.76975687
0.76978994
0.76981895
0.76984433
0.76986648
0.76988574
0.76990246
0.76991692
0.7699294
0.76994015
0.76994937
0.76995727
0.76996401
0.76996976
0.76997465
0.76997879
0.76998229
0.76998525
0.76998774
0.76998983
0.76999158
0.76999305
0.76999427
0.76999529
0.76999613
0.76999683
0.76999741
0.76513223
0.7654748
0.76580631
0.76612555
0.76643148
0.76672328
0.76700032
0.76726219
0.76750865
0.76773964
0.76795522
0.76815563
0.7683412
0.76851236
0.76866964
0.76881363
0.76894498
0.76906438
0.76917252
0.76927013
0.76935795
0.7694367
0.76950708
0.76956978
0.76962547
0.76967478
0.7697183
0.7697566
0.76979021
0.76981962
0.76984528
0.76986761
0.76988698
0.76990374
0.7699182
0.76993066
0.76994135
0.7699505
0.76995832
0.76996498
0.76997064
0.76997544
0.7699795
0.76998293
0.76998581
0.76998823
0.76999026
0.76999196
0.76999337
0.76999455
0.76999553
0.76999634
0.76999701
0.76440796
0.76479895
0.76517763
0.7655426
0.76589264
0.76622677
0.76654426
0.76684459
0.76712745
0.76739273
0.76764049
0.76787096
0.7680845
0.76828158
0.76846278
0.76862876
0.76878024
0.768918
0.76904283
0.76915557
0.76925703
0.76934804
0.7694294
0.76950192
0.76956633
0.76962339
0.76967375
0.76971809
0.769757
0.76979106
0.76982077
0.76984663
0.76986907
0.76988849
0.76990525
0.76991967
0.76993206
0.76994266
0.76995172
0.76995944
0.769966
0.76997156
0.76997627
0.76998023
0.76998357
0.76998638
0.76998873
0.76999069
0.76999233
0.7699937
0.76999483
0.76999576
0.76999654
0.76359836
0.76404251
0.76447359
0.76488942
0.76528855
0.76566984
0.76603241
0.76637563
0.76669912
0.76700272
0.76728647
0.76755058
0.76779544
0.76802157
0.7682296
0.76842026
0.76859436
0.76875277
0.76889638
0.76902613
0.76914296
0.76924779
0.76934154
0.76942512
0.7694994
0.7695652
0.76962331
0.76967447
0.76971937
0.76975868
0.76979299
0.76982285
0.76984877
0.7698712
0.76989056
0.76990722
0.76992153
0.76993378
0.76994425
0.76995316
0.76996074
0.76996716
0.76997259
0.76997718
0.76998104
0.76998428
0.76998699
0.76998926
0.76999115
0.76999272
0.76999403
0.76999511
0.76999601
0.76270834
0.76320876
0.76369732
0.76416887
0.76462181
0.76505482
0.76546687
0.76585722
0.76622537
0.76657113
0.76689448
0.76719566
0.76747505
0.76773323
0.76797088
0.76818882
0.76838794
0.7685692
0.7687336
0.76888221
0.76901608
0.76913624
0.76924374
0.76933962
0.76942485
0.7695004
0.76956714
0.76962591
0.7696775
0.76972267
0.76976209
0.76979641
0.76982619
0.76985195
0.7698742
0.76989334
0.76990979
0.76992387
0.7699359
0.76994615
0.76995486
0.76996224
0.76996849
0.76997376
0.7699782
0.76998193
0.76998505
0.76998766
0.76998983
0.76999164
0.76999314
0.76174253
0.76230428
0.76285284
0.76338457
0.76389571
0.76438472
0.76485038
0.7652918
0.76570841
0.76609993
0.76646631
0.76680778
0.76712474
0.76741781
0.76768774
0.76793542
0.76816184
0.76836803
0.76855514
0.76872437
0.76887695
0.76901401
0.76913667
0.76924608
0.7693434
0.76942957
0.76950567
0.7695727
0.76963157
0.76968311
0.7697281
0.76976727
0.76980128
0.76983072
0.76985614
0.76987804
0.76989684
0.76991294
0.76992669
0.76993842
0.76994838
0.76995683
0.76996397
0.76997
0.76997508
0.76997934
0.76998291
0.76998589
0.76998838
0.76999045
0.76999216
0.76070086
0.76133556
0.76194523
0.76254085
0.76311426
0.76366321
0.76418628
0.76468245
0.76515102
0.76559164
0.76600422
0.76638897
0.76674632
0.76707692
0.7673816
0.76766131
0.76791725
0.76815065
0.76836258
0.76855429
0.76872712
0.76888218
0.76902095
0.76914474
0.76925478
0.76935239
0.76943868
0.76951472
0.76958152
0.76964002
0.7696911
0.76973558
0.76977421
0.76980765
0.76983653
0.7698614
0.76988276
0.76990106
0.76991669
0.76993001
0.76994134
0.76995094
0.76995906
0.76996591
0.76997168
0.76997652
0.76998058
0.76998397
0.76998679
0.76998914
0.7699911
0.75959405
0.76030215
0.76098256
0.76164265
0.76228215
0.76289462
0.76347857
0.76403281
0.76455653
0.76504928
0.76551094
0.76594168
0.76634196
0.76671253
0.76705474
0.76736929
0.76765728
0.76791927
0.76815704
0.76837212
0.7685659
0.76874018
0.76889629
0.76903564
0.76915962
0.76926959
0.76936681
0.76945251
0.7695278
0.76959377
0.76965138
0.76970156
0.76974514
0.76978287
0.76981546
0.76984353
0.76986764
0.76988829
0.76990594
0.76992098
0.76993377
0.76994461
0.76995378
0.76996151
0.76996802
0.76997349
0.76997807
0.7699819
0.76998509
0.76998775
0.76998995
0.75842748
0.75921002
0.75997062
0.76069898
0.76140484
0.7620839
0.76273177
0.76334704
0.76392876
0.76447635
0.76498963
0.76546877
0.76591503
0.76632889
0.76671071
0.76706079
0.76738073
0.76767269
0.76793799
0.76817815
0.76839478
0.76858956
0.76876409
0.76891993
0.76905864
0.76918169
0.76929052
0.76938646
0.76947077
0.76954466
0.7696092
0.76966542
0.76971425
0.76975655
0.76979308
0.76982454
0.76985157
0.76987473
0.76989452
0.76991138
0.76992572
0.76993788
0.76994816
0.76995684
0.76996414
0.76997027
0.76997541
0.7699797
0.76998328
0.76998626
0.76998873
0.75720993
0.75807066
0.75890791
0.75971805
0.76048891
0.76123632
0.76195084
0.76262975
0.76327194
0.7638767
0.76444379
0.76497507
0.76546981
0.76592704
0.76634817
0.76673555
0.76709027
0.76741393
0.76770815
0.76797462
0.7682151
0.76843138
0.76862522
0.76879837
0.76895253
0.76908932
0.76921033
0.76931703
0.76941082
0.76949302
0.76956484
0.76962742
0.76968178
0.76972886
0.76976954
0.76980457
0.76983468
0.76986047
0.76988251
0.76990129
0.76991726
0.7699308
0.76994226
0.76995192
0.76996006
0.76996689
0.76997261
0.7699774
0.76998138
0.7699847
0.76998745
0.75594958
0.75689123
0.75780808
0.75869732
0.75954394
0.76035736
0.76114108
0.76188585
0.76259061
0.76325448
0.7638794
0.7644633
0.76500501
0.76550734
0.76597103
0.7663975
0.76678821
0.76714482
0.7674691
0.7677629
0.76802814
0.76826676
0.76848069
0.76867184
0.76884206
0.76899314
0.76912682
0.76924472
0.76934838
0.76943924
0.76951864
0.76958783
0.76964795
0.76970002
0.76974501
0.76978377
0.76981707
0.76984561
0.76986999
0.76989078
0.76990845
0.76992343
0.76993611
0.7699468
0.76995581
0.76996337
0.7699697
0.76997499
0.76997941
0.76998308
0.76998612
0.75465468
0.75567895
0.75667633
0.75764286
0.75857434
0.75945861
0.76030832
0.76112053
0.76188963
0.7626151
0.76329741
0.76393344
0.76452573
0.76507499
0.76558229
0.76604901
0.76647675
0.76686729
0.76722254
0.7675445
0.76783526
0.7680969
0.76833154
0.76854124
0.76872803
0.76889386
0.76904062
0.76917007
0.76928391
0.76938371
0.76947094
0.76954696
0.76961301
0.76967025
0.76971969
0.76976229
0.7697989
0.76983026
0.76985707
0.76987992
0.76989935
0.76991583
0.76992976
0.76994152
0.76995142
0.76995973
0.7699667
0.76997251
0.76997737
0.7699814
0.76998475
0.75333386
0.75444217
0.75552161
0.75656783
0.75757682
0.75854528
0.75946092
0.76033872
0.76117304
0.76196201
0.7627007
0.76339185
0.76403566
0.76463289
0.76518469
0.76569253
0.7661581
0.76658332
0.76697023
0.76732099
0.76763784
0.76792304
0.76817886
0.76840755
0.76861129
0.76879222
0.76895235
0.76909364
0.7692179
0.76932686
0.7694221
0.76950511
0.76957725
0.76963976
0.76969377
0.7697403
0.76978029
0.76981456
0.76984385
0.76986881
0.76989004
0.76990804
0.76992327
0.76993612
0.76994693
0.76995602
0.76996362
0.76996998
0.76997528
0.76997969
0.76998335
0.7519957
0.753189
0.7543515
0.7554786
0.75656615
0.75761062
0.75860879
0.75954631
0.76044526
0.76129636
0.76209506
0.76284215
0.76353818
0.76418404
0.76478097
0.76533051
0.76583448
0.76629489
0.76671393
0.76709393
0.76743727
0.7677464
0.76802374
0.76827171
0.76849268
0.76868894
0.76886267
0.76901598
0.76915084
0.76926909
0.76937248
0.7694626
0.76954092
0.76960879
0.76966744
0.76971797
0.7697614
0.76979862
0.76983042
0.76985754
0.76988059
0.76990014
0.76991668
0.76993064
0.76994238
0.76995225
0.76996051
0.76996741
0.76997317
0.76997795
0.75064851
0.75192724
0.75317325
0.75438168
0.75554828
0.75666967
0.75774406
0.75875406
0.75971403
0.76062639
0.76148466
0.76228794
0.76303654
0.76373139
0.76437378
0.76496536
0.76550803
0.76600392
0.76645539
0.76686487
0.76723494
0.7675682
0.76786725
0.76813468
0.76837303
0.76858475
0.76877221
0.76893765
0.76908319
0.76921084
0.76932244
0.76941973
0.76950429
0.76957757
0.76964089
0.76969546
0.76974236
0.76978255
0.7698169
0.76984618
0.76987107
0.76989219
0.76991005
0.76992512
0.7699378
0.76994845
0.76995737
0.76996483
0.76997104
0.76997621
0.74930026
0.75066436
0.75199379
0.75328342
0.75452867
0.75572569
0.75687122
0.75796153
0.75898404
0.75995412
0.76087294
0.76173263
0.76253387
0.76327776
0.76396569
0.76459939
0.76518084
0.76571231
0.76619626
0.7666353
0.76703216
0.7673896
0.76771042
0.76799736
0.76825313
0.76848036
0.76868157
0.76885917
0.76901543
0.76915248
0.76927232
0.76937679
0.7694676
0.76954631
0.76961432
0.76967293
0.7697233
0.76976647
0.76980336
0.76983481
0.76986155
0.76988423
0.76990341
0.7699196
0.76993322
0.76994466
0.76995424
0.76996224
0.76996892
0.76997446
0.74795846
0.74940743
0.75081978
0.75219007
0.75351346
0.75478575
0.75600341
0.75716348
0.75826455
0.75929163
0.76026392
0.76117959
0.76203313
0.76282582
0.76355912
0.76423478
0.76485488
0.76542179
0.76593812
0.76640662
0.76683018
0.76721173
0.76755423
0.76786061
0.76813374
0.76837642
0.76859134
0.76878105
0.76894798
0.7690944
0.76922244
0.76933408
0.76943111
0.76951521
0.76958789
0.76965053
0.76970435
0.76975048
0.76978991
0.76982352
0.7698521
0.76987633
0.76989683
0.76991412
0.76992868
0.7699409
0.76995113
0.76995968
0.76996681
0.76997274
0.74663009
0.74816303
0.74965738
0.75110746
0.75250815
0.75385503
0.75514436
0.75637311
0.75753894
0.75863935
0.75966431
0.76063187
0.76153706
0.76237804
0.76315629
0.76387355
0.76453197
0.76513403
0.76568244
0.76618014
0.76663015
0.76703559
0.76739958
0.76772522
0.76801556
0.76827355
0.76850204
0.76870375
0.76888124
0.76903695
0.76917311
0.76929183
0.76939503
0.76948447
0.76956177
0.76962838
0.76968563
0.76973469
0.76977663
0.76981237
0.76984276
0.76986853
0.76989033
0.76990872
0.76992419
0.76993719
0.76994807
0.76995716
0.76996474
0.74532151
0.74693713
0.74851222
0.75004084
0.75151766
0.75293803
0.75429802
0.75559441
0.7568246
0.75798644
0.75907991
0.760094
0.76104811
0.76193667
0.76275926
0.76351758
0.76421379
0.7648505
0.76543056
0.76595704
0.76643314
0.76686213
0.7672473
0.76759193
0.76789921
0.76817229
0.76841415
0.76862768
0.76881559
0.76898043
0.7691246
0.76925029
0.76935955
0.76945425
0.7695361
0.76960663
0.76966724
0.76971919
0.76976358
0.76980142
0.7698336
0.76986088
0.76988395
0.76990342
0.7699198
0.76993355
0.76994506
0.76995468
0.7699627
0.74403841
0.7457351
0.74738932
0.74899494
0.75054637
0.75203878
0.75346807
0.75483084
0.75612435
0.75734614
0.75849739
0.75957527
0.76056867
0.76150363
0.76236985
0.76316851
0.76390184
0.76457255
0.76518366
0.76573838
0.76624008
0.76669217
0.76709812
0.76746136
0.76778527
0.76807314
0.76832811
0.76855323
0.76875134
0.76892514
0.76907713
0.76920966
0.76932486
0.76942471
0.76951101
0.76958537
0.76964927
0.76970404
0.76975084
0.76979074
0.76982465
0.76985341
0.76987773
0.76989825
0.76991551
0.76993
0.76994214
0.76995228
0.76996072
0.74278581
0.74456166
0.74629313
0.74797388
0.74959813
0.75116086
0.75265781
0.75408547
0.75544122
0.7567237
0.7579295
0.75906252
0.76010714
0.76108042
0.76198968
0.76282785
0.76359745
0.76430136
0.76494279
0.7655251
0.76605179
0.76652645
0.76695268
0.7673341
0.76767424
0.76797653
0.7682443
0.76848071
0.76868877
0.7688713
0.76903094
0.76917012
0.76929111
0.76939598
0.7694866
0.7695647
0.76963181
0.76968932
0.76973847
0.76978036
0.76981597
0.76984616
0.76987169
0.76989323
0.76991135
0.76992657
0.7699393
0.76994994
0.7699588
0.74156804
0.74342089
0.74522747
0.74698125
0.74867627
0.75030735
0.75187004
0.7533607
0.75477649
0.75611534
0.7573753
0.7585576
0.75966011
0.76067558
0.76162034
0.76249693
0.76330176
0.76403794
0.76470884
0.76531798
0.76586898
0.76636558
0.76681154
0.76721062
0.76756652
0.76788283
0.76816303
0.76841041
0.76862813
0.76881914
0.76898618
0.76913182
0.76925843
0.76936816
0.76946299
0.7695447
0.76961491
0.76967508
0.7697265
0.76977032
0.76980758
0.76983916
0.76986586
0.76988839
0.76990734
0.76992325
0.76993657
0.76994769
0.74038877
0.74231623
0.74419556
0.74602006
0.74778362
0.74948086
0.75110721
0.75265884
0.75413277
0.75552671
0.75683882
0.75807003
0.75921893
0.76028682
0.76126717
0.76217684
0.76301575
0.76378313
0.76448257
0.76511769
0.76569224
0.76621008
0.76667514
0.76709132
0.76746247
0.76779235
0.76808456
0.76834255
0.76856961
0.7687688
0.76894301
0.76909489
0.76922692
0.76934135
0.76944023
0.76952543
0.76959864
0.76966138
0.76971498
0.76976067
0.7697995
0.76983242
0.76986026
0.76988374
0.76990349
0.76992006
0.76993394
0.76994553
0.73925099
0.7412505
0.74320006
0.74509282
0.74692249
0.74868357
0.75037132
0.75198179
0.75351188
0.75495933
0.75632308
0.75760051
0.75879395
0.75990369
0.7609312
0.76187098
0.76274024
0.76353759
0.76426457
0.76492477
0.76552204
0.76606038
0.76654385
0.76697652
0.76736238
0.76770532
0.76800911
0.76827732
0.76851337
0.76872044
0.76890154
0.76905943
0.76919667
0.76931561
0.76941839
0.76950695
0.76958304
0.76964823
0.76970394
0.76975142
0.76979177
0.76982597
0.76985489
0.76987928
0.7698998
0.76991702
0.76993143
0.76994346
0.7381571
0.74022597
0.74224309
0.74420148
0.74609473
0.74791719
0.74966397
0.75133102
0.75291509
0.7544138
0.75582557
0.75714905
0.75838578
0.7595358
0.76060077
0.76158271
0.76247723
0.76330182
0.76405529
0.76473965
0.76535878
0.76591681
0.76641797
0.76686647
0.76726645
0.76762194
0.76793683
0.76821485
0.76845952
0.76867415
0.76886186
0.7690255
0.76916774
0.769291
0.76939751
0.76948928
0.76956813
0.76963568
0.7696934
0.76974259
0.76978439
0.76981982
0.76984977
0.76987504
0.76989628
0.76991411
0.76992904
0.7699415
0.73710891
0.73924432
0.74132624
0.74334756
0.74530174
0.74718302
0.74898639
0.75070766
0.75234348
0.75389135
0.75534961
0.75671719
0.75799514
0.75918369
0.76028457
0.76129987
0.762232
0.76307633
0.76385511
0.76456265
0.76520272
0.76577961
0.76629771
0.76676136
0.76717484
0.76754234
0.76786785
0.76815525
0.76840815
0.76863001
0.76882402
0.76899316
0.76914017
0.76926756
0.76937763
0.76947247
0.76955394
0.76962374
0.76968338
0.76973419
0.76977737
0.76981397
0.76984491
0.769871
0.76989295
0.76991136
0.76992677
0.76993963
0.7361077
0.73830677
0.74045065
0.74253211
0.74454451
0.74648199
0.74833942
0.7501125
0.75179777
0.75339267
0.75489556
0.75630592
0.75762246
0.75884769
0.75998281
0.76103015
0.76199363
0.76286585
0.76366417
0.76439403
0.76505406
0.76564894
0.7661832
0.7666613
0.76708767
0.7674666
0.76780224
0.76809857
0.76835932
0.76858806
0.76878807
0.76896244
0.76911398
0.7692453
0.76935876
0.76945651
0.76954048
0.76961242
0.76967387
0.76972623
0.76977073
0.76980843
0.76984031
0.76986719
0.76988979
0.76990875
0.76992462
0.76993787
0.73515427
0.73741406
0.73961701
0.74175578
0.74382366
0.74581467
0.7477236
0.74954602
0.75127841
0.7529181
0.75446336
0.75591334
0.75726762
0.75852799
0.75969562
0.76077289
0.76176278
0.76266744
0.76348624
0.76423401
0.76491293
0.7655249
0.76607451
0.76656636
0.76700497
0.76739478
0.76774004
0.76804484
0.76831305
0.76854832
0.76875403
0.76893336
0.7690892
0.76922424
0.76934091
0.76944142
0.76952775
0.76960171
0.76966489
0.76971872
0.76976445
0.76980321
0.76983597
0.76986359
0.76988681
0.7699063
0.7699226
0.76993621
0.73424898
0.73656653
0.73882563
0.74101887
0.74313945
0.74518132
0.74713915
0.74900846
0.7507856
0.75246783
0.75405334
0.75554119
0.75693113
0.75822481
0.75942326
0.76052897
0.76154482
0.76247397
0.76332064
0.76408437
0.76477929
0.7654075
0.76597168
0.76647655
0.76692677
0.76732687
0.76768124
0.76799408
0.76826934
0.76851078
0.76872189
0.7689059
0.76906582
0.76920438
0.76932408
0.76942719
0.76951576
0.76959163
0.76965643
0.76971164
0.76975854
0.76979829
0.76983188
0.7698602
0.76988401
0.76990399
0.7699207
0.76993465
0.73339184
0.73576414
0.7380765
0.74032135
0.74249187
0.74458191
0.74658608
0.74849978
0.75031931
0.75204184
0.75366551
0.75518938
0.75661362
0.75793822
0.7591658
0.76029847
0.76133917
0.76229138
0.76315925
0.76394717
0.76465342
0.76529673
0.76587467
0.76639185
0.76685302
0.76726286
0.76762583
0.76794624
0.76822817
0.76847544
0.76869163
0.76888007
0.76904382
0.76918569
0.76930825
0.76941382
0.76950449
0.76958215
0.76964848
0.76970499
0.769753
0.76979367
0.76982805
0.76985703
0.76988139
0.76990183
0.76991892
0.76993319
0.73258248
0.73500658
0.73736928
0.73966292
0.74188062
0.74401618
0.74606412
0.74801977
0.74987934
0.75163994
0.75329964
0.75485746
0.75631335
0.75766787
0.75892308
0.76008128
0.7611455
0.76211941
0.76300732
0.7638147
0.76453792
0.76519244
0.76578339
0.76631218
0.76678368
0.76720268
0.76757375
0.7679013
0.76818949
0.76844224
0.76866322
0.76885582
0.76902317
0.76916816
0.7692934
0.76940128
0.76949392
0.76957327
0.76964104
0.76969877
0.76974781
0.76978935
0.76982446
0.76985406
0.76987894
0.76989981
0.76991726
0.76993183
0.73182028
0.73429327
0.73670341
0.73904303
0.7413052
0.74348365
0.74557283
0.74756801
0.74946531
0.75126178
0.75295543
0.75454523
0.75603105
0.75741359
0.75869488
0.75987714
0.76096353
0.76195776
0.76286414
0.76368733
0.76443074
0.76509676
0.76569775
0.76623745
0.76671865
0.76714625
0.76752494
0.76785919
0.76815326
0.76841116
0.76863662
0.76883312
0.76900385
0.76915176
0.76927952
0.76938955
0.76948405
0.76956497
0.76963409
0.76969296
0.76974296
0.76978532
0.76982112
0.76985129
0.76987665
0.76989792
0.76991571
0.76993056
0.72324035
0.72590402
0.72852855
0.73110411
0.73362326
0.73607805
0.73846093
0.74076491
0.74298368
0.74511163
0.74714394
0.7490767
0.75090688
0.75263244
0.75425229
0.7557663
0.75717513
0.75848093
0.75968579
0.76079296
0.76180625
0.76272992
0.76356861
0.76432677
0.76500982
0.76561813
0.76616753
0.76665781
0.76709349
0.7674793
0.76781983
0.76811941
0.76838212
0.76861178
0.76881192
0.76898582
0.76913646
0.76926657
0.76937862
0.76947484
0.76955724
0.76962761
0.76968754
0.76973845
0.76978157
0.76981801
0.76984871
0.76987453
0.76989617
0.76991427
0.76992938
0.72243205
0.72514266
0.72781279
0.73043309
0.73299553
0.73549223
0.73791568
0.74025888
0.74251546
0.74467975
0.74674689
0.74871289
0.75057467
0.75233014
0.75397818
0.75551865
0.75695247
0.75828088
0.75950686
0.7606335
0.76166461
0.76260451
0.76345791
0.76422978
0.76492621
0.76554591
0.76610227
0.76660104
0.76704427
0.76743675
0.76778314
0.76808785
0.76835506
0.76858864
0.76879219
0.76896903
0.76912221
0.76925451
0.76936844
0.76946628
0.76955005
0.76962159
0.76968251
0.76973425
0.76977809
0.76981512
0.76984632
0.76987255
0.76989455
0.76991294
0.76992829
0.72167608
0.72443095
0.72714387
0.72980593
0.73240887
0.73494481
0.73740624
0.73978613
0.74207807
0.74427636
0.74637607
0.74837315
0.75026448
0.75204791
0.75372231
0.7552875
0.7567443
0.75809421
0.75933997
0.76048479
0.76153255
0.76248762
0.76335478
0.76413914
0.76484611
0.76547964
0.76604301
0.76654819
0.76699848
0.76739717
0.76774901
0.76805852
0.76832991
0.76856713
0.76877385
0.76895343
0.76910899
0.76924332
0.769359
0.76945833
0.76954338
0.769616
0.76967785
0.76973037
0.76977486
0.76981244
0.76984411
0.76987073
0.76989305
0.76991171
0.76992727
0.72097086
0.72376718
0.72652018
0.72922122
0.73186197
0.73443455
0.73693143
0.73934556
0.74167051
0.74390051
0.7460306
0.74805667
0.74997556
0.75178509
0.75348405
0.75507228
0.75655055
0.75792047
0.75918468
0.76034646
0.76140974
0.76237894
0.76325892
0.76405486
0.76477208
0.76541545
0.76599002
0.76649934
0.76695601
0.76736045
0.76771735
0.7680313
0.76830658
0.76854719
0.76875685
0.76893898
0.76909673
0.76923296
0.76935026
0.76945097
0.76953721
0.76961084
0.76967353
0.76972678
0.76977187
0.76980997
0.76984207
0.76986905
0.76989166
0.76991057
0.76992634
0.72031472
0.72314965
0.72594007
0.72867742
0.7313534
0.7339601
0.73648999
0.73893601
0.74129167
0.74355119
0.74570955
0.7477626
0.74970714
0.75154093
0.75326276
0.75487242
0.75637067
0.75775917
0.75904055
0.7602181
0.7612958
0.76227814
0.76317003
0.7639767
0.76470355
0.76535585
0.76593936
0.76645574
0.76691667
0.76732646
0.76768806
0.76800612
0.768285
0.76852875
0.76874113
0.76892562
0.7690854
0.76922338
0.76934218
0.76944418
0.76953151
0.76960607
0.76966955
0.76972346
0.76976912
0.76980769
0.76984019
0.7698675
0.76989039
0.76990952
0.76992547
0.71970576
0.72257659
0.72540182
0.72817293
0.73088165
0.73352005
0.73608061
0.73855623
0.74094042
0.74322734
0.74541195
0.74749005
0.74945838
0.7513147
0.75305774
0.75468729
0.75620408
0.75760981
0.75890711
0.76009929
0.76119037
0.76218488
0.7630878
0.76390442
0.76464019
0.76530056
0.76589105
0.76641674
0.76688074
0.76729511
0.76766101
0.76798288
0.76826508
0.76851173
0.76872663
0.76891329
0.76907496
0.76921455
0.76933474
0.76943792
0.76952626
0.76960168
0.76966589
0.76972041
0.76976659
0.76980559
0.76983846
0.76986608
0.71914199
0.72204616
0.72490369
0.72770611
0.73044516
0.73311295
0.73570192
0.73820497
0.74061558
0.74292788
0.74513679
0.74723807
0.74922844
0.75110561
0.75286829
0.75451623
0.75605019
0.75747184
0.75878389
0.75998961
0.76109304
0.76209881
0.76301193
0.76383775
0.76458177
0.76524957
0.76584677
0.76637937
0.76684888
0.76726618
0.7676361
0.76796147
0.76824674
0.76849606
0.76871328
0.76890195
0.76906535
0.76920643
0.76932789
0.76943217
0.76952144
0.76959764
0.76966252
0.76971761
0.76976426
0.76980367
0.76983687
0.71862138
0.72155643
0.72444387
0.72727526
0.73004237
0.73273731
0.73535254
0.73788094
0.74031595
0.74265169
0.74488303
0.74700573
0.74901644
0.75091286
0.75269367
0.75435861
0.75590842
0.75734478
0.75867041
0.7598886
0.76100345
0.76201959
0.76294211
0.7637764
0.76452803
0.76520267
0.765806
0.76634376
0.76682054
0.76724
0.76761322
0.7679418
0.7682299
0.76848167
0.76870102
0.76889154
0.76905653
0.76919898
0.76932162
0.76942689
0.76951701
0.76959394
0.76965944
0.76971505
0.76976213
0.7698019
0.76983541
0.7181419
0.72110551
0.72402057
0.72687868
0.72967166
0.73239165
0.73503107
0.73758282
0.74004032
0.74239765
0.74464966
0.74679207
0.74882152
0.75073566
0.75253316
0.75421374
0.75577815
0.75722815
0.75856619
0.75979584
0.76092118
0.76194687
0.76287803
0.76372011
0.76447874
0.76515966
0.76576861
0.76631133
0.76679342
0.76721701
0.7675922
0.76792378
0.76821446
0.76846849
0.7686898
0.76888201
0.76904846
0.76919216
0.76931587
0.76942207
0.76951297
0.76959056
0.76965662
0.7697127
0.76976019
0.7698003
0.76983408
0.71770153
0.72069147
0.72363197
0.72651467
0.72933146
0.73207446
0.73473613
0.73730934
0.73978749
0.74216465
0.74443565
0.74659616
0.74864281
0.75057322
0.75238604
0.75408098
0.75565878
0.75712117
0.75847071
0.75971089
0.76084585
0.76188029
0.76281938
0.7636686
0.76443365
0.76512031
0.7657344
0.76628165
0.76676761
0.76719686
0.76757321
0.76790731
0.76820036
0.76845645
0.76867955
0.76887331
0.76904109
0.76918594
0.76931063
0.76941766
0.76950928
0.76958748
0.76965405
0.76971057
0.76975842
0.76979883
0.76983287
0.71729828
0.72031241
0.72327628
0.72618155
0.72902017
0.73178428
0.73446633
0.7370592
0.73955626
0.74195159
0.74423996
0.74641705
0.74847945
0.75042475
0.7522516
0.75395968
0.75554973
0.75702347
0.7583835
0.75963332
0.76077708
0.76181952
0.76276586
0.76362161
0.76439252
0.76508443
0.76570319
0.7662546
0.76674427
0.7671777
0.76755659
0.76789227
0.76818751
0.76844548
0.76867021
0.76886538
0.76903438
0.76918027
0.76930586
0.76941366
0.76950593
0.76958468
0.76965172
0.76970862
0.76975681
0.7697975
0.76983177
0.71693016
0.71996646
0.72295174
0.72587768
0.72873626
0.73151966
0.73422033
0.73683114
0.73934548
0.74175738
0.74406162
0.74625383
0.7483306
0.75028949
0.75212912
0.75384919
0.75545042
0.75693451
0.75830412
0.75956272
0.7607145
0.76176423
0.76271717
0.76357886
0.76435511
0.7650518
0.76567482
0.76623001
0.76672306
0.76715976
0.76754201
0.76787867
0.76817584
0.76843552
0.76866173
0.76885818
0.76902828
0.76917513
0.76930153
0.76941003
0.76950288
0.76958214
0.7696496
0.76970687
0.76975535
0.76979629
0.76983078
0.71659516
0.7196518
0.72265664
0.72560143
0.72847821
0.73127917
0.73399679
0.73662394
0.73915399
0.74158097
0.74389963
0.74610561
0.74819543
0.75016668
0.75201795
0.75374891
0.75536029
0.7568538
0.7582321
0.75949867
0.76065774
0.7617141
0.76267303
0.76354012
0.76432121
0.76502223
0.76564911
0.76620772
0.76670379
0.76714286
0.76752923
0.76786674
0.76816526
0.76842649
0.76865405
0.76885167
0.76902277
0.76917048
0.76929762
0.76940674
0.76950014
0.76957984
0.76964769
0.76970528
0.76975403
0.76979521
0.76982988
0.70057348
0.70375634
0.70697395
0.71006424
0.71317101
0.71629123
0.71936663
0.7223893
0.72535124
0.72824454
0.73106145
0.73379444
0.73643639
0.73898069
0.74142133
0.74375307
0.7459715
0.74807316
0.7500556
0.7519174
0.75365823
0.7552788
0.75678084
0.758167
0.7594408
0.76060646
0.76166881
0.76263316
0.76350514
0.76429061
0.76499554
0.7656259
0.7661876
0.76668639
0.76712784
0.76751713
0.76785641
0.76815569
0.76841835
0.76864712
0.76884579
0.7690178
0.76916629
0.7692941
0.76940379
0.76949766
0.76957778
0.76964597
0.76970385
0.76975285
0.76979423
0.76982907
0.70020648
0.70340974
0.70664783
0.70975721
0.71287818
0.71601681
0.71910927
0.72214814
0.7251256
0.72803385
0.73086515
0.73361202
0.73626735
0.73882449
0.74127747
0.743621
0.74585068
0.74796301
0.74995554
0.75182684
0.75357657
0.75520543
0.75671515
0.7581084
0.75938871
0.76056031
0.76162806
0.76259729
0.76347367
0.76426309
0.76497154
0.76560504
0.76616951
0.76667076
0.76711437
0.76750587
0.76784747
0.76814715
0.76841103
0.76864089
0.76884051
0.76901334
0.76916253
0.76929093
0.76940113
0.76949544
0.76957593
0.76964443
0.76970257
0.76975179
0.76979335
0.76982835
0.69987665
0.70309844
0.70635499
0.70948165
0.71261522
0.71577024
0.71887811
0.72193159
0.72492306
0.72784475
0.730689
0.73344835
0.73611568
0.73868438
0.74114843
0.74350255
0.74574232
0.74786425
0.74986584
0.75174566
0.75350337
0.75513967
0.75665629
0.75805591
0.75934205
0.76051898
0.76159158
0.76256518
0.7634455
0.76423845
0.76495006
0.76558637
0.76615333
0.76665678
0.76710231
0.76749529
0.76783982
0.76813974
0.76840448
0.76863532
0.76883579
0.76900936
0.76915917
0.76928811
0.76939876
0.76949346
0.76957427
0.76964305
0.76970143
0.76975084
0.76979257
0.76982771
0.69958178
0.70282029
0.70609338
0.70923559
0.7123803
0.7155499
0.71867159
0.72173819
0.7247422
0.72767593
0.73053177
0.73330227
0.73598033
0.73855935
0.74103329
0.74339688
0.74564567
0.74777615
0.74978583
0.75167327
0.75343811
0.75508105