/*--------------------------------*- C++ -*----------------------------------*\
| =========                 |                                                 |
| \\      /  F ield         | OpenFOAM: The Open Source CFD Toolbox           |
|  \\    /   O peration     | Version:  2312                                  |
|   \\  /    A nd           | Website:  www.openfoam.com                      |
|    \\/     M anipulation  |                                                 |
\*---------------------------------------------------------------------------*/
FoamFile
{
    version     2.0;
    format      ascii;
    arch        "LSB;label=32;scalar=64";
    class       volScalarField;
    location    "0.01";
    object      O2;
}
// * * * * * * * * * * * * * * * * * * * * * * * * * * * * * * * * * * * * * //

dimensions      [0 0 0 0 0 0 0];

internalField   nonuniform List<scalar> 
3272
(
0.21875368
0.2194503
0.22013717
0.22081044
0.22146651
0.22210224
0.22271488
0.22330216
0.22386227
0.2243938
0.22489579
0.22536765
0.22580916
0.22622044
0.22660189
0.22695417
0.22727818
0.22757497
0.22784575
0.22809187
0.22831471
0.22851574
0.22869644
0.22885829
0.22900277
0.22913129
0.22924526
0.22934598
0.22943472
0.22951266
0.22958091
0.22964049
0.22969236
0.22973738
0.22977634
0.22980998
0.22983893
0.22986379
0.22988507
0.22990325
0.22991873
0.22993189
0.22994305
0.22995248
0.22996043
0.22996712
0.22997274
0.22997745
0.22998138
0.22998466
0.22998739
0.22998965
0.22999153
0.21817935
0.21890756
0.21962633
0.22033153
0.22101931
0.22168627
0.22232946
0.22294643
0.22353518
0.22409419
0.22462235
0.22511902
0.2255839
0.22601708
0.22641894
0.22679015
0.22713163
0.22744446
0.22772991
0.22798936
0.2282243
0.22843624
0.22862674
0.22879737
0.22894967
0.22908515
0.22920526
0.22931141
0.22940493
0.22948705
0.22955895
0.22962171
0.22967633
0.22972374
0.22976477
0.22980017
0.22983065
0.22985681
0.2298792
0.22989832
0.22991461
0.22992845
0.22994017
0.22995009
0.22995845
0.22996548
0.22997139
0.22997633
0.22998046
0.22998391
0.22998677
0.22998915
0.22999112
0.21710027
0.21788723
0.21866537
0.21943008
0.22017702
0.22090235
0.2216027
0.22227526
0.22291771
0.22352826
0.2241056
0.22464891
0.22515777
0.22563218
0.22607251
0.22647943
0.22685386
0.22719698
0.22751014
0.22779483
0.22805264
0.22828523
0.2284943
0.22868156
0.22884869
0.22899735
0.22912915
0.2292456
0.22934818
0.22943824
0.22951708
0.22958589
0.22964577
0.22969772
0.22974267
0.22978145
0.22981483
0.22984347
0.22986798
0.22988891
0.22990673
0.22992186
0.22993468
0.22994552
0.22995466
0.22996234
0.22996879
0.22997419
0.2299787
0.22998246
0.22998559
0.22998818
0.22999033
0.21555844
0.21642818
0.21729016
0.21813905
0.21896984
0.21977802
0.22055965
0.22131136
0.22203039
0.22271453
0.22336217
0.22397221
0.22454406
0.2250776
0.22557313
0.2260313
0.22645311
0.22683979
0.22719282
0.22751383
0.22780459
0.22806694
0.22830279
0.22851403
0.22870258
0.22887028
0.22901894
0.22915029
0.22926596
0.22936752
0.2294564
0.22953396
0.22960143
0.22965997
0.2297106
0.22975428
0.22979186
0.22982409
0.22985168
0.22987522
0.22989526
0.22991228
0.2299267
0.22993888
0.22994914
0.22995778
0.22996502
0.22997108
0.22997614
0.22998036
0.22998386
0.22998677
0.22998917
0.21357903
0.21455327
0.21552138
0.21647712
0.21741457
0.21832837
0.2192138
0.22006679
0.22088394
0.22166254
0.22240051
0.2230964
0.22374938
0.22435915
0.2249259
0.22545028
0.22593331
0.22637632
0.22678094
0.22714898
0.22748243
0.22778335
0.22805391
0.22829627
0.2285126
0.22870501
0.22887557
0.22902626
0.22915896
0.22927545
0.22937738
0.22946632
0.22954368
0.22961078
0.22966881
0.22971886
0.22976191
0.22979883
0.22983042
0.22985737
0.22988031
0.22989978
0.22991627
0.2299302
0.22994194
0.22995181
0.22996009
0.22996701
0.22997279
0.22997761
0.22998161
0.22998492
0.22998767
0.21117696
0.21227561
0.21337052
0.21445429
0.2155199
0.21656091
0.21757165
0.21854713
0.21948319
0.22037641
0.22122415
0.22202453
0.22277634
0.22347907
0.22413276
0.22473801
0.22529587
0.22580779
0.22627555
0.22670119
0.22708692
0.22743512
0.22774824
0.22802876
0.22827917
0.2285019
0.22869935
0.22887378
0.22902738
0.22916221
0.22928019
0.2293831
0.22947262
0.22955025
0.22961737
0.22967526
0.22972503
0.22976772
0.22980423
0.22983538
0.22986189
0.22988438
0.22990343
0.22991951
0.22993306
0.22994445
0.229954
0.22996199
0.22996866
0.22997421
0.22997883
0.22998265
0.22998581
0.20836177
0.20960321
0.21084422
0.21207604
0.21329028
0.21447925
0.21563606
0.21675466
0.2178299
0.21885752
0.21983417
0.2207574
0.22162556
0.22243782
0.22319405
0.22389475
0.224541
0.22513435
0.22567677
0.22617053
0.22661814
0.2270223
0.22738581
0.22771152
0.2280023
0.22826097
0.22849027
0.22869285
0.22887123
0.22902781
0.22916481
0.22928431
0.22938824
0.22947836
0.22955628
0.22962346
0.22968123
0.22973076
0.22977312
0.22980925
0.22983999
0.22986608
0.22988816
0.2299068
0.22992251
0.22993571
0.22994677
0.22995603
0.22996375
0.22997018
0.22997552
0.22997994
0.2299836
0.20514096
0.20654222
0.2079474
0.20934622
0.2107287
0.21208565
0.21340874
0.21469061
0.21592495
0.21710647
0.21823097
0.21929527
0.22029719
0.2212355
0.22210981
0.22292052
0.2236687
0.22435601
0.2249846
0.22555701
0.22607609
0.22654489
0.22696662
0.22734457
0.22768202
0.22798223
0.22824836
0.22848349
0.22869052
0.22887225
0.22903125
0.22916994
0.22929056
0.22939513
0.22948554
0.22956348
0.22963049
0.22968794
0.22973707
0.22977898
0.22981462
0.22984487
0.22987047
0.22989208
0.22991028
0.22992558
0.22993839
0.22994911
0.22995806
0.2299655
0.22997168
0.22997681
0.22998104
0.2015246
0.2030992
0.20468543
0.20626919
0.20783867
0.20938291
0.21089191
0.21235678
0.21376979
0.21512447
0.21641555
0.217639
0.21879199
0.21987278
0.22088067
0.22181589
0.2226795
0.22347325
0.22419949
0.22486107
0.22546117
0.22600327
0.22649102
0.2269282
0.2273186
0.22766594
0.22797384
0.22824587
0.22848541
0.22869566
0.22887962
0.22904011
0.22917967
0.22930067
0.22940527
0.22949543
0.22957294
0.22963939
0.2296962
0.22974465
0.22978585
0.22982081
0.22985039
0.22987536
0.22989639
0.22991406
0.22992887
0.22994126
0.22995159
0.22996019
0.22996733
0.22997324
0.22997813
0.19752724
0.19928251
0.20106573
0.20285134
0.20462566
0.20637574
0.20808965
0.20975673
0.2113676
0.21291434
0.21439047
0.21579094
0.21711211
0.21835165
0.21950847
0.22058259
0.22157502
0.22248756
0.2233228
0.22408393
0.22477455
0.22539847
0.22595991
0.22646321
0.22691274
0.22731281
0.22766751
0.22798089
0.22825681
0.22849896
0.22871081
0.22889561
0.22905622
0.22919544
0.22931578
0.22941952
0.2295087
0.22958515
0.22965052
0.22970626
0.22975367
0.2297939
0.22982794
0.22985668
0.22988088
0.22990121
0.22991825
0.22993249
0.22994437
0.22995426
0.22996247
0.19316289
0.19511286
0.19709965
0.19910243
0.20109824
0.20307176
0.20500882
0.20689666
0.20872402
0.21048129
0.21216054
0.21375552
0.21526165
0.21667592
0.21799673
0.21922388
0.22035831
0.22140169
0.22235697
0.22322779
0.22401857
0.2247333
0.22537649
0.22595307
0.22646815
0.22692592
0.22733162
0.22769002
0.22800559
0.22828256
0.22852485
0.22873612
0.2289199
0.22907924
0.229217
0.22933575
0.22943783
0.22952534
0.22960016
0.22966396
0.22971823
0.22976427
0.22980322
0.2298361
0.22986379
0.22988705
0.22990654
0.22992283
0.22993642
0.22994772
0.22995711
0.18843179
0.19061227
0.19280395
0.19503622
0.1972689
0.19948232
0.20165977
0.20378609
0.20584783
0.20783342
0.20973324
0.21153967
0.21324702
0.2148515
0.21635092
0.21774468
0.21903428
0.22022191
0.22130965
0.22230119
0.22320112
0.22401331
0.22474395
0.22539873
0.22598314
0.22650343
0.2269648
0.22737247
0.22773145
0.22804652
0.22832217
0.22856258
0.22877163
0.22895289
0.22910958
0.22924465
0.22936076
0.2294603
0.2295454
0.22961796
0.22967967
0.22973202
0.22977632
0.22981371
0.22984519
0.22987163
0.22989379
0.22991231
0.22992776
0.22994061
0.22995127
0.18337364
0.18578092
0.18820879
0.1906708
0.19315463
0.19562306
0.19805688
0.20043829
0.20275132
0.20498212
0.20711913
0.2091531
0.21107709
0.21288662
0.21458145
0.21615875
0.21761866
0.21895938
0.22018635
0.22130435
0.22231815
0.22323504
0.22406044
0.22480038
0.22546115
0.22604915
0.22657051
0.22703118
0.22743684
0.22779288
0.22810437
0.22837605
0.22861229
0.2288171
0.22899414
0.22914676
0.22927794
0.2293904
0.22948654
0.22956852
0.22963823
0.22969737
0.22974741
0.22978965
0.2298252
0.22985507
0.22988009
0.22990101
0.22991845
0.22993296
0.22994501
0.17801363
0.18064495
0.1833386
0.18604267
0.18877803
0.19151438
0.19421895
0.19687068
0.19945065
0.20194238
0.20433203
0.20660858
0.20876786
0.21080264
0.21270628
0.21447278
0.21610424
0.21760699
0.21898361
0.22023856
0.22137746
0.22240686
0.22333344
0.22416412
0.22490596
0.22556603
0.22615126
0.22666832
0.22712363
0.22752324
0.22787285
0.22817777
0.22844289
0.22867274
0.22887143
0.2290427
0.22918991
0.2293161
0.22942398
0.22951597
0.22959419
0.22966055
0.22971669
0.22976407
0.22980396
0.22983747
0.22986554
0.229889
0.22990857
0.22992484
0.22993835
0.17239327
0.1752543
0.17819574
0.18118891
0.18416953
0.18718102
0.19016913
0.19310482
0.19596587
0.19873274
0.20138894
0.20393072
0.20634146
0.20860449
0.21071755
0.21268486
0.21450518
0.21618109
0.21771635
0.21911607
0.22038648
0.22153461
0.22256794
0.22349427
0.22432149
0.22505748
0.22570998
0.22628644
0.22679403
0.22723951
0.22762924
0.22796913
0.22826466
0.22852087
0.22874233
0.22893322
0.22909729
0.22923794
0.22935817
0.22946069
0.22954787
0.22962181
0.22968438
0.22973718
0.22978163
0.22981896
0.22985023
0.22987638
0.22989817
0.22991631
0.22993135
0.16655673
0.16964824
0.17284176
0.17610978
0.17937519
0.1826519
0.18593502
0.18916634
0.19232079
0.195375
0.19832198
0.20113434
0.20379091
0.20629409
0.20863671
0.21081691
0.21283458
0.21469207
0.21639357
0.21794478
0.21935258
0.22062475
0.2217696
0.22279579
0.22371211
0.22452731
0.22524998
0.22588839
0.2264505
0.2269438
0.22737535
0.2277517
0.22807893
0.2283626
0.2286078
0.22881915
0.2290008
0.22915651
0.22928962
0.22940311
0.22949961
0.22958147
0.22965072
0.22970917
0.22975837
0.22979969
0.2298343
0.22986323
0.22988736
0.22990742
0.22992407
0.16055286
0.1638704
0.1673112
0.17084142
0.17442332
0.17798404
0.1815492
0.18508452
0.18854297
0.19189988
0.19513767
0.19822039
0.20114512
0.2039011
0.2064814
0.20888292
0.21110545
0.21315142
0.21502538
0.21673362
0.21828374
0.21968433
0.22094458
0.22207408
0.22308253
0.22397962
0.22477481
0.22547725
0.22609569
0.2266384
0.22711315
0.22752717
0.22788714
0.22819918
0.2284689
0.22870137
0.22890118
0.22907244
0.22921885
0.22934367
0.22944981
0.22953983
0.229616
0.22968027
0.22973437
0.22977981
0.22981787
0.22984968
0.2298762
0.22989826
0.22991657
0.1544356
0.15797223
0.16165629
0.16545061
0.16931549
0.17321117
0.1770578
0.18088975
0.18465763
0.18832931
0.19185429
0.19522615
0.19842675
0.20144354
0.2042686
0.20689804
0.20933142
0.21157127
0.21362252
0.21549209
0.21718834
0.21872071
0.22009933
0.22133476
0.22243766
0.22341867
0.22428817
0.2250562
0.22573235
0.22632568
0.22684469
0.22729728
0.22769078
0.22803188
0.22832671
0.22858081
0.22879921
0.22898641
0.22914643
0.22928285
0.22939885
0.22949724
0.22958047
0.22965071
0.22970983
0.22975948
0.22980107
0.22983583
0.2298648
0.2298889
0.2299089
0.14826092
0.15200669
0.15592661
0.15998083
0.16412653
0.16831984
0.17251577
0.17661875
0.18069364
0.18467355
0.18850736
0.19217488
0.19565732
0.19894063
0.20201569
0.20487787
0.20752644
0.20996403
0.212196
0.21422991
0.21607492
0.21774138
0.21924042
0.22058356
0.22178248
0.22284878
0.2237938
0.22462849
0.22536327
0.22600802
0.226572
0.22706379
0.22749136
0.22786198
0.22818231
0.2284584
0.22869569
0.22889906
0.22907291
0.22922112
0.22934714
0.22945402
0.22954443
0.22962072
0.22968494
0.22973887
0.22978404
0.22982178
0.22985325
0.22987942
0.14208474
0.14602659
0.15017148
0.15447715
0.15889786
0.1633872
0.16790257
0.17233142
0.17669922
0.18098283
0.18512418
0.1890903
0.19285817
0.19641157
0.19973996
0.20283789
0.20570431
0.20834196
0.21075666
0.21295662
0.21495187
0.21675371
0.21837426
0.21982606
0.22112184
0.22227417
0.22329536
0.22419726
0.22499118
0.22568779
0.22629711
0.22682843
0.22729035
0.22769074
0.2280368
0.22833505
0.22859137
0.22881107
0.22899885
0.22915894
0.22929506
0.2294105
0.22950815
0.22959054
0.22965989
0.22971812
0.2297669
0.22980765
0.22984163
0.22986988
0.1359609
0.14008308
0.14443889
0.14898384
0.15366868
0.15844158
0.16324945
0.16803514
0.17269907
0.17727323
0.18172803
0.18599503
0.19004993
0.19387491
0.19745805
0.20079296
0.20387827
0.2067168
0.20931485
0.21168135
0.2138272
0.2157647
0.21750697
0.21906763
0.2204604
0.22169888
0.22279634
0.22376555
0.22461868
0.22536723
0.22602195
0.22659285
0.22708916
0.22751937
0.22789118
0.22821162
0.22848701
0.22872304
0.22892478
0.22909676
0.22924299
0.22936699
0.22947188
0.22956038
0.22963486
0.2296974
0.22974978
0.22979355
0.22983003
0.22986036
0.12993945
0.13422411
0.13877435
0.14354392
0.14848039
0.15352738
0.15862637
0.16371887
0.16875323
0.17361132
0.17834499
0.18291116
0.18725204
0.19134799
0.19518544
0.19875692
0.2020606
0.20509943
0.20788017
0.21041253
0.21270833
0.21478083
0.21664424
0.21831319
0.21980247
0.22112666
0.22229999
0.22333616
0.2242482
0.22504842
0.22574831
0.22635859
0.22688913
0.22734899
0.22774643
0.22808894
0.2283833
0.22863557
0.2288512
0.229035
0.22919127
0.22932378
0.22943587
0.22953044
0.22961003
0.22967684
0.2297328
0.22977956
0.22981853
0.22985092
0.12406521
0.12849298
0.13321928
0.1381967
0.1433702
0.14867937
0.15406068
0.15945003
0.16478539
0.17000486
0.17501343
0.17985836
0.18448194
0.18884644
0.19293615
0.19674227
0.20026242
0.20349966
0.2064613
0.2091578
0.21160194
0.21380799
0.21579119
0.21756725
0.21915195
0.2205609
0.22180928
0.22291167
0.22388197
0.22473328
0.22547785
0.22612708
0.22669146
0.22718065
0.22760342
0.22796777
0.22828087
0.2285492
0.22877854
0.22897403
0.22914023
0.22928116
0.22940035
0.22950091
0.22958554
0.22965658
0.22971607
0.22976578
0.2298072
0.11837669
0.12292731
0.12780997
0.13297678
0.13837065
0.14392758
0.14957909
0.15525502
0.16088631
0.1664071
0.17176669
0.17686309
0.18175507
0.186384
0.19072253
0.19476005
0.19849353
0.20192617
0.20506585
0.20792387
0.21051393
0.21285135
0.21495238
0.21683377
0.21851234
0.22000465
0.22132683
0.22249435
0.22352196
0.22442353
0.22521204
0.22589957
0.22649724
0.22701527
0.22746295
0.22784876
0.22818029
0.22846441
0.22870723
0.2289142
0.22909015
0.22923934
0.22936552
0.22947196
0.22956153
0.22963672
0.22969968
0.22975228
0.22979611
0.11290565
0.11755858
0.12257712
0.12791364
0.13350965
0.13929802
0.14520556
0.15115621
0.15707423
0.16288611
0.16854178
0.17397522
0.17908563
0.18397223
0.18855523
0.19281983
0.1967624
0.20038642
0.20370042
0.20671654
0.20944943
0.2119154
0.21413175
0.21611623
0.21788665
0.21946054
0.22085495
0.22208622
0.22316991
0.22412066
0.22495217
0.22567718
0.22630742
0.22685365
0.22732571
0.2277325
0.22808206
0.22838162
0.22863762
0.22885581
0.22904129
0.22919855
0.22933155
0.22944374
0.22953813
0.22961737
0.22968371
0.22973913
0.2297853
0.10767689
0.11241188
0.11754567
0.1230316
0.12881047
0.13481258
0.14096045
0.14717252
0.15336777
0.15947229
0.16540461
0.17112956
0.1765185
0.18161976
0.18644329
0.19092982
0.19507628
0.19888676
0.20237058
0.20554072
0.20841277
0.21100398
0.21333267
0.21541758
0.21727748
0.21893085
0.22039563
0.221689
0.22282731
0.22382596
0.22469936
0.22546086
0.22612281
0.22669652
0.2271923
0.22761952
0.22798661
0.22830118
0.22857
0.22879911
0.22899386
0.22915897
0.22929859
0.22941636
0.22951545
0.22959861
0.22966824
0.2297264
0.22977484
0.1027085
0.10750614
0.1127349
0.11834986
0.12429181
0.13048908
0.13686027
0.14331822
0.14977483
0.15614571
0.16235103
0.16833582
0.17403641
0.17937185
0.18439524
0.18909706
0.19344121
0.19743245
0.20108096
0.20440052
0.20740757
0.2101203
0.21255798
0.21474031
0.21668702
0.2184175
0.21995052
0.22130412
0.22249542
0.22354053
0.22445453
0.22525142
0.22594411
0.22654444
0.22706321
0.22751022
0.2278943
0.22822341
0.22850465
0.22874432
0.22894803
0.22912073
0.22926676
0.22938993
0.22949355
0.22958051
0.22965332
0.22971413
0.098012309
0.10285441
0.10815874
0.11388278
0.11996802
0.1263415
0.13291837
0.13960612
0.14630981
0.15293727
0.15940269
0.16564338
0.17159438
0.17721651
0.18243945
0.18732723
0.19186213
0.19602771
0.19983529
0.20329927
0.20643681
0.20926698
0.21180998
0.21408647
0.21611707
0.21792204
0.21952101
0.2209328
0.22217527
0.22326525
0.22421846
0.22504952
0.22577187
0.2263979
0.22693885
0.22740495
0.22780542
0.22814855
0.22844175
0.2286916
0.22890396
0.22908397
0.22923617
0.22936454
0.22947252
0.22956313
0.22963899
0.22970234
0.09359449
0.09846447
0.1038262
0.10964021
0.11584942
0.12238023
0.12914493
0.13604609
0.14298235
0.14985504
0.15657569
0.16305605
0.16924635
0.17509804
0.18058113
0.1856383
0.19034308
0.19467583
0.19863651
0.20223962
0.20550285
0.20844613
0.21109055
0.21345769
0.21556906
0.21744574
0.21910819
0.22057597
0.22186769
0.22300083
0.22399176
0.22485566
0.22560655
0.22625727
0.22681954
0.22730398
0.22772019
0.22807679
0.22838147
0.2286411
0.22886175
0.22904877
0.22920689
0.22934024
0.2294524
0.22954652
0.2296253
0.22969107
0.089456332
0.094339384
0.099741884
0.10562796
0.11194264
0.11861236
0.12554717
0.13264514
0.13979866
0.14690156
0.15385576
0.16057341
0.16699515
0.17306708
0.17875743
0.18404796
0.18889461
0.19337909
0.19748687
0.20122365
0.20460755
0.20765937
0.21040111
0.21285523
0.21504408
0.21698955
0.21871288
0.22023436
0.22157329
0.2227478
0.22377488
0.22467026
0.22544847
0.22612284
0.22670551
0.22720751
0.22763879
0.22800826
0.22832393
0.2285929
0.22882147
0.2290152
0.22917898
0.22931707
0.22943323
0.22953069
0.22961226
0.22968035
0.085594996
0.090478225
0.095906589
0.10184829
0.10825104
0.11504201
0.12212962
0.12940797
0.13676349
0.14408282
0.15126034
0.15820333
0.16484417
0.17112597
0.1770145
0.18249017
0.18754498
0.19214005
0.19638804
0.20025294
0.20375229
0.20690789
0.2097427
0.21228
0.21454292
0.21655417
0.21833568
0.21990848
0.22129251
0.22250655
0.22356814
0.22449357
0.22529786
0.2259948
0.22659694
0.22711568
0.22756131
0.22794307
0.22826921
0.22854708
0.22878319
0.2289833
0.22915246
0.22929508
0.22941503
0.22951567
0.22959989
0.22967019
0.082004303
0.08687674
0.092317883
0.098300363
0.10477512
0.11167069
0.11889448
0.12633716
0.13387961
0.1414016
0.14879069
0.15595058
0.16279525
0.16927604
0.17535303
0.1810061
0.18623459
0.19098415
0.1953406
0.19932865
0.20293798
0.20619249
0.209116
0.21173257
0.21406611
0.21614002
0.21797697
0.21959865
0.22102563
0.22227729
0.22337173
0.22432575
0.22515486
0.22587326
0.22649391
0.22702856
0.22748784
0.22788126
0.22821733
0.22850365
0.22874693
0.2289531
0.22912735
0.22927427
0.22939782
0.22950146
0.22958819
0.22966059
0.078675462
0.08352801
0.088970693
0.094980813
0.10151299
0.10849767
0.1158419
0.12343343
0.13114801
0.13885871
0.14644566
0.15380407
0.16084711
0.16751786
0.17377331
0.17959185
0.18496669
0.18989518
0.19436495
0.19845192
0.20216514
0.20551356
0.20852136
0.21121326
0.21361388
0.21574733
0.21763693
0.21930502
0.22077277
0.22206014
0.22318574
0.22416689
0.22501952
0.22575826
0.22639645
0.22694618
0.22741838
0.22782284
0.22816833
0.22846264
0.2287127
0.22892459
0.22910367
0.22925464
0.22938159
0.22948807
0.22957717
0.22965154
0.075597755
0.080423068
0.085857844
0.091884177
0.098460724
0.10552034
0.11297026
0.1206959
0.12856832
0.13645415
0.14422629
0.15177282
0.15900213
0.16585225
0.17227645
0.1782518
0.18377024
0.18883404
0.19345727
0.1976323
0.20143359
0.20487116
0.20795883
0.21072211
0.21318628
0.21537611
0.21731557
0.21902759
0.22053393
0.22185508
0.22301016
0.22401695
0.22489182
0.22564979
0.22630455
0.22686852
0.22735292
0.2277678
0.22812217
0.22842403
0.22868047
0.22889776
0.22908139
0.22923618
0.22936633
0.22947549
0.22956683
0.22964305
0.072759133
0.077551448
0.082970565
0.089003357
0.095612778
0.10273452
0.11027652
0.1181224
0.12613898
0.13418682
0.14213184
0.14985566
0.15726326
0.16427923
0.17086246
0.17698632
0.18264195
0.18783299
0.19257307
0.19688102
0.20074474
0.20426512
0.20742823
0.21025894
0.21278312
0.2150262
0.21701273
0.21876623
0.22030898
0.221662
0.22284488
0.22387585
0.22477168
0.22554776
0.22621814
0.22679552
0.22729141
0.2277161
0.22807883
0.22838778
0.22865023
0.22887259
0.2290605
0.22921888
0.22935204
0.22946371
0.22955713
0.22963509
0.070146729
0.074901688
0.080298931
0.08633002
0.092962348
0.10013478
0.10775642
0.11570961
0.12385739
0.1320546
0.14016043
0.14804968
0.1556206
0.16279652
0.16953028
0.17579446
0.18157983
0.18689051
0.19174096
0.19615589
0.20011272
0.20369465
0.20692909
0.20982335
0.21240407
0.21469729
0.21672815
0.21852068
0.2200977
0.2214807
0.22268974
0.22374343
0.22465897
0.22545207
0.22613711
0.22672709
0.22723376
0.22766767
0.22803823
0.22835384
0.22862193
0.22884905
0.22904096
0.2292027
0.22933868
0.2294527
0.22954808
0.22962767
0.067747133
0.072461756
0.07783227
0.083854954
0.090501679
0.097714718
0.10540476
0.11345331
0.12172011
0.13005465
0.13830964
0.14635326
0.15407778
0.16140293
0.16827852
0.17467478
0.18058217
0.18600486
0.19095692
0.19545879
0.19952636
0.20317137
0.20646082
0.20941481
0.21204861
0.21438894
0.21646143
0.21829061
0.21989979
0.22131092
0.22254448
0.2236195
0.2245535
0.22536256
0.22606134
0.22666312
0.22717989
0.22762241
0.22800031
0.22832215
0.22859551
0.22882707
0.22902273
0.22918762
0.22932622
0.22944244
0.22953965
0.22962076
0.055266842
0.058104716
0.061519425
0.065545689
0.070218981
0.075559398
0.081568365
0.088222343
0.095467217
0.10321558
0.11134855
0.119723
0.12818349
0.13657651
0.14476388
0.15263221
0.16009692
0.16710545
0.17362557
0.17964737
0.18517491
0.19022214
0.1948091
0.1989576
0.20269595
0.2060255
0.20903262
0.21171612
0.2141006
0.21621209
0.21807559
0.21971488
0.22115233
0.22240884
0.22350379
0.22445507
0.22527904
0.22599066
0.22660346
0.22712966
0.22758023
0.22796498
0.22829263
0.22857091
0.22880662
0.22900577
0.22917359
0.22931464
0.22943291
0.22953182
0.22961433
0.053401151
0.056188469
0.059551515
0.063530093
0.068161075
0.073469021
0.079460152
0.086115487
0.093384645
0.10118239
0.10938982
0.1178614
0.12643711
0.13495758
0.1432785
0.1512812
0.15887817
0.16600909
0.17264485
0.17877366
0.18439927
0.18953568
0.19420343
0.19842713
0.20223875
0.20563072
0.20867594
0.21140586
0.21383167
0.2159796
0.21787515
0.21954255
0.22100457
0.22228249
0.22339605
0.22436342
0.22520131
0.22592489
0.22654796
0.22708295
0.22754102
0.22793215
0.22826521
0.22854806
0.22878763
0.22899003
0.22916057
0.22930391
0.22942407
0.22952456
0.22960838
0.051702815
0.054442354
0.057756092
0.061687476
0.066275916
0.071549896
0.077520114
0.084172034
0.091459054
0.099298311
0.10757123
0.11613022
0.12481111
0.13344898
0.14189364
0.15002114
0.15773932
0.16498644
0.17173035
0.17795908
0.18367623
0.18889597
0.19363928
0.19793145
0.20180085
0.20526848
0.20835208
0.21111706
0.21358151
0.21576338
0.21768877
0.21938233
0.22086723
0.22216508
0.22329595
0.22427831
0.22512913
0.22586384
0.22649646
0.22703962
0.22750465
0.22790171
0.22823979
0.22852688
0.22877004
0.22897545
0.22914852
0.22929398
0.2294159
0.22951785
0.22960288
0.050158412
0.05285293
0.056119819
0.060005344
0.064551694
0.069790988
0.075738119
0.082382845
0.089682337
0.097556245
0.10588659
0.11452409
0.12330079
0.13204658
0.14060563
0.14884884
0.15667993
0.16403496
0.17087967
0.17720149
0.18300391
0.18830128
0.19311494
0.19747057
0.20139613
0.20491764
0.20806253
0.21085018
0.2133495
0.21556282
0.21751588
0.21923374
0.22073988
0.22205624
0.22320317
0.22419945
0.22506226
0.22580731
0.22644878
0.22699951
0.227471
0.22787355
0.22821628
0.22850731
0.22875379
0.22896199
0.2291374
0.22928482
0.22940836
0.22951166
0.22959779
0.048755452
0.05140772
0.054630307
0.05847179
0.062977049
0.068181585
0.074104231
0.080738859
0.088046355
0.09594897
0.10432954
0.11303743
0.12190125
0.13074602
0.13941059
0.14776091
0.15569679
0.16315194
0.17009031
0.17649864
0.18238029
0.18774978
0.19262877
0.19704326
0.20102151
0.20459193
0.20778575
0.21061199
0.21313462
0.21537723
0.21735591
0.21909626
0.22062208
0.22195558
0.2231174
0.22412655
0.22500048
0.22575507
0.22640474
0.22696248
0.22743994
0.22784756
0.22819459
0.22848926
0.2287388
0.22894958
0.22912716
0.22927639
0.22940144
0.22950596
0.22959309
0.047482335
0.050095114
0.053276018
0.057075575
0.061541154
0.066711392
0.07260881
0.079231193
0.086543047
0.094469264
0.10289367
0.11166456
0.12060745
0.12954285
0.13830454
0.14675379
0.15478667
0.16233447
0.16935968
0.17584821
0.1818033
0.18723962
0.19217912
0.19664811
0.20067523
0.20428982
0.20752179
0.21039902
0.21293841
0.21520599
0.21720825
0.21896937
0.22051337
0.22186271
0.22303827
0.22405932
0.22494351
0.22570693
0.22636416
0.22692836
0.22741133
0.22782363
0.22817463
0.22847265
0.22872501
0.22893816
0.22911774
0.22926868
0.046328371
0.048904335
0.052046222
0.055806157
0.060233774
0.0653706
0.071242587
0.077851227
0.085164514
0.093109978
0.10157257
0.11039975
0.11941429
0.1284325
0.1372834
0.14582381
0.15394627
0.16157958
0.16868514
0.17524781
0.18127078
0.18676887
0.19176429
0.19628365
0.20035596
0.20401121
0.20727994
0.21019493
0.21276444
0.21504806
0.21707226
0.21885253
0.22041329
0.22177723
0.22296546
0.22399747
0.22489111
0.22566266
0.22632685
0.22689701
0.22738505
0.22780165
0.2281563
0.2284574
0.22871236
0.22892769
0.2291091
0.045283336
0.047825387
0.050930965
0.054653699
0.05904529
0.064149918
0.069996717
0.076590659
0.08390308
0.091864108
0.10035991
0.10923733
0.11831668
0.1274104
0.13634307
0.1449673
0.15317229
0.16088453
0.16806403
0.17469503
0.18078059
0.18633563
0.19138258
0.19594837
0.20006236
0.20375501
0.20705725
0.21000042
0.21260974
0.21490514
0.21694737
0.21874521
0.22032138
0.22169874
0.22289862
0.2239407
0.22484303
0.22562205
0.22629264
0.22686826
0.22736096
0.22778151
0.22813951
0.22844343
0.22870077
0.2289181
0.22910118
0.044338222
0.046849103
0.049921051
0.053609058
0.057966706
0.063040596
0.068862803
0.075441549
0.082751344
0.090724842
0.099249484
0.10817169
0.11730956
0.126472
0.13547943
0.14418054
0.15246138
0.16024669
0.16749367
0.17418746
0.18033057
0.18593796
0.19103229
0.19564075
0.19979305
0.20352005
0.20685303
0.20982335
0.21246166
0.21477966
0.21683269
0.21864687
0.22023719
0.22162686
0.22283742
0.22388874
0.22479903
0.22558489
0.22626135
0.22684197
0.22733893
0.22776311
0.22812417
0.22843068
0.22869019
0.22890934
0.22909394
0.043484755
0.045967077
0.049008004
0.052663764
0.056989637
0.062034433
0.06783292
0.074396346
0.08170221
0.089685603
0.098235262
0.10719733
0.11638796
0.12561281
0.13468844
0.14345986
0.15181014
0.15966178
0.16697128
0.1737227
0.17991858
0.18557398
0.19071173
0.19535931
0.19954672
0.20330516
0.20666622
0.20966134
0.21232078
0.21466974
0.21672903
0.21855705
0.22016027
0.2215612
0.22278152
0.22384129
0.22475887
0.22555098
0.2262328
0.226818
0.22731885
0.22774633
0.22811019
0.22841905
0.22868055
0.22890137
0.22908736
0.042715366
0.045171616
0.048184029
0.051809988
0.056106299
0.061123763
0.066899617
0.073447901
0.080748915
0.088740073
0.097311414
0.10630892
0.11554702
0.12482842
0.13396611
0.14280165
0.15121535
0.15912769
0.16649427
0.1732984
0.17954253
0.1852418
0.19041925
0.19510258
0.19932206
0.2031092
0.20649586
0.20951368
0.21219345
0.2145652
0.21663838
0.21847499
0.22009019
0.22150139
0.22273062
0.22379809
0.22472231
0.22552012
0.22620683
0.22679619
0.22730059
0.22773108
0.22809748
0.2284085
0.2286718
0.22889414
0.22908138
0.042023123
0.044455691
0.047441958
0.05104051
0.055309475
0.060301447
0.06605591
0.072589471
0.079885036
0.087882218
0.096472332
0.1055013
0.11478204
0.12411454
0.13330854
0.14220241
0.15067384
0.15864153
0.1660601
0.17291227
0.17920037
0.18493962
0.19015322
0.19486911
0.1991178
0.20293105
0.20634099
0.20937947
0.21207772
0.21446736
0.21655889
0.21840086
0.22002656
0.22144707
0.2226844
0.22375887
0.22468913
0.22549213
0.22618327
0.22677642
0.22728404
0.22771726
0.22808597
0.22839893
0.22866387
0.22888759
0.22907598
0.04140163
0.043812891
0.046775211
0.050348678
0.054592494
0.059560853
0.065295274
0.071814718
0.079104499
0.087106292
0.095712648
0.10476951
0.11408844
0.12346702
0.13271196
0.1416587
0.15018254
0.1582005
0.16566627
0.17256207
0.17889011
0.18466566
0.18991209
0.19465753
0.19893272
0.20276966
0.20620068
0.20925786
0.21197258
0.21437521
0.21648923
0.21833579
0.21996892
0.22139789
0.22264256
0.22372339
0.22465912
0.22546682
0.22616198
0.22675856
0.22726909
0.22770478
0.22807558
0.2283903
0.22865672
0.22888168
0.22907111
0.035384679
0.035766392
0.036476349
0.037508064
0.038944772
0.040844834
0.043236972
0.046177718
0.049728371
0.053949193
0.058895824
0.064611625
0.0711177
0.078401575
0.086406845
0.095027245
0.10410878
0.11346187
0.12288185
0.13217272
0.14116722
0.14973845
0.1578019
0.16531037
0.17224565
0.17860982
0.18441821
0.18969434
0.1944665
0.19876565
0.20262398
0.20607405
0.20914811
0.2118777
0.21429327
0.21642332
0.2182795
0.21991677
0.22135353
0.22260483
0.2236914
0.22463207
0.22544402
0.2261428
0.22674247
0.22725563
0.22769355
0.22806623
0.22838254
0.22865029
0.22887637
0.22906673
0.034937707
0.035315201
0.036017972
0.037040047
0.038462259
0.040347701
0.042722598
0.045643948
0.049173965
0.053373889
0.05830066
0.063999302
0.070492858
0.077770877
0.085778727
0.094411258
0.10351459
0.11289811
0.12235518
0.13168731
0.1407248
0.14933871
0.15744315
0.1649901
0.17196095
0.17835767
0.18419565
0.18949851
0.19429474
0.19861545
0.20249304
0.20596024
0.20904948
0.21179247
0.21421989
0.21636192
0.21823087
0.21987025
0.22131368
0.22257094
0.22366268
0.2246078
0.22542356
0.2261256
0.22672805
0.22724357
0.22768349
0.22805786
0.22837559
0.22864454
0.22887161
0.22906281
0.034539959
0.034913766
0.03561026
0.036623887
0.038033215
0.039905429
0.042264864
0.045168843
0.048680298
0.052861344
0.057770087
0.063453042
0.069935001
0.077207349
0.085217076
0.093860077
0.10298261
0.11239316
0.12188333
0.13125238
0.14032837
0.14898056
0.15712176
0.16470322
0.17170597
0.17813189
0.18399639
0.18932322
0.19414102
0.19848106
0.2023759
0.20585844
0.20896128
0.21171626
0.21415417
0.21630433
0.2181892
0.21982993
0.22127801
0.22254062
0.223637
0.22458611
0.22540528
0.22611024
0.22671517
0.22723281
0.22767451
0.22805039
0.22836939
0.22863941
0.22886738
0.22905932
0.034187417
0.034558043
0.035249069