/*--------------------------------*- C++ -*----------------------------------*\
| =========                 |                                                 |
| \\      /  F ield         | OpenFOAM: The Open Source CFD Toolbox           |
|  \\    /   O peration     | Version:  2312                                  |
|   \\  /    A nd           | Website:  www.openfoam.com                      |
|    \\/     M anipulation  |                                                 |
\*---------------------------------------------------------------------------*/
FoamFile
{
    version     2.0;
    format      ascii;
    arch        "LSB;label=32;scalar=64";
    class       volScalarField;
    location    "0.01";
    object      omega;
}
// * * * * * * * * * * * * * * * * * * * * * * * * * * * * * * * * * * * * * //

dimensions      [0 0 -1 0 0 0 0];

internalField   nonuniform List<scalar> 
3272
(
397.16889
395.99678
394.83554
393.68913
392.56084
391.45339
390.36898
389.30932
388.27558
387.26852
386.28845
385.33532
384.40875
383.5081
382.6325
381.78093
380.95221
380.14514
379.35844
378.59088
377.84124
377.10837
376.39122
375.68881
375.00031
374.32498
373.66222
373.01152
372.37251
371.74491
371.12856
370.52334
369.92925
369.34634
368.7747
368.21447
367.66583
367.12898
366.60412
366.09147
365.59125
365.10367
364.62893
364.16723
363.71874
363.28361
362.86199
362.45399
362.05971
361.6792
361.31249
360.95959
360.62042
398.12546
396.91718
395.71962
394.53704
393.37301
392.23054
391.11207
390.01949
388.95419
387.91705
386.90851
385.92862
384.97704
384.05316
383.15612
382.28486
381.43821
380.61487
379.81352
379.03283
378.27151
377.52831
376.80207
376.09174
375.39637
374.71514
374.04735
373.39241
372.74986
372.11935
371.50062
370.89353
370.29798
369.71398
369.14157
368.58085
368.03194
367.49502
366.97026
366.45784
365.95796
365.47082
364.99658
364.53544
364.08754
363.65305
363.23208
362.82474
362.43113
362.05133
361.68538
361.3333
360.99489
399.63916
398.35926
397.08984
395.83576
394.60116
393.38957
392.2039
391.04648
389.91903
388.82274
387.75828
386.72588
385.72532
384.75606
383.81725
382.90781
382.02648
381.17186
380.34252
379.53696
378.75371
377.99135
377.24853
376.52399
375.81661
375.12536
374.44934
373.78781
373.14012
372.50576
371.88434
371.27554
370.67916
370.09509
369.52325
368.96365
368.41634
367.88139
367.35892
366.84905
366.35191
365.86766
365.39642
364.93835
364.49356
364.06219
363.64433
363.24008
362.84951
362.47269
362.10965
361.76042
361.42475
401.71954
400.33989
398.97037
397.61664
396.28364
394.97562
393.69615
392.44814
391.23382
390.05482
388.91213
387.80624
386.73712
385.70433
384.70704
383.74414
382.81428
381.91595
381.04751
380.20726
379.3935
378.60454
377.83878
377.09469
376.37084
375.66596
374.97889
374.3086
373.65424
373.01504
372.3904
371.77982
371.1829
370.59936
370.02897
369.47161
368.92719
368.39568
367.87709
367.37146
366.87885
366.39933
365.93297
365.47987
365.0401
364.61376
364.2009
363.8016
363.4159
363.04386
362.6855
362.34081
362.00956
404.28007
402.77575
401.28106
399.80267
398.34647
396.91762
395.52052
394.1588
392.83536
391.55234
390.31121
389.11278
387.95727
386.84437
385.77333
384.74301
383.75196
382.79851
381.8808
380.99688
380.14476
379.32244
378.52796
377.75947
377.01518
376.29349
375.59288
374.91203
374.24975
373.605
372.97688
372.36466
371.76769
371.18548
370.6176
370.06375
369.52368
368.99722
368.48425
367.9847
367.49852
367.02569
366.56621
366.1201
365.68739
365.26809
364.86225
364.46989
364.09103
363.72569
363.37388
363.03559
362.71055
407.25523
405.60381
403.96137
402.33572
400.73388
399.16204
397.62559
396.12903
394.67602
393.26939
391.91113
390.60248
389.34397
388.13551
386.97642
385.86556
384.8014
383.78207
382.8055
381.86943
380.97153
380.10942
379.28077
378.4833
377.71484
376.97333
376.2569
375.5638
374.89248
374.24155
373.60978
372.99613
372.39967
371.81963
371.25536
370.70633
370.17211
369.65234
369.14676
368.65514
368.17732
367.71317
367.2626
366.82553
366.40193
365.99176
365.59498
365.21159
364.84158
364.48493
364.14162
363.81163
363.49468
410.5918
408.7729
406.96215
405.16863
403.4006
401.66544
399.96962
398.31865
396.7171
395.16855
393.67564
392.24014
390.86297
389.54427
388.28352
387.07959
385.93087
384.83533
383.79062
382.79418
381.84329
380.93516
380.06701
379.23608
378.43974
377.67548
376.94092
376.2339
375.5524
374.89465
374.25902
373.6441
373.04864
372.47157
371.91195
371.36898
370.84202
370.33051
369.834
369.35209
368.8845
368.43095
367.99124
367.5652
367.1527
366.75366
366.36797
365.99555
365.63635
365.29031
364.95743
364.63763
364.33059
414.24372
412.23869
410.24079
408.26048
406.30736
404.39008
402.51633
400.69274
398.92488
397.2172
395.57311
393.99497
392.48417
391.04118
389.66567
388.35656
387.11218
385.93033
384.8084
383.7435
382.7325
381.77216
380.85917
379.99029
379.16233
378.37228
377.61723
376.89449
376.20158
375.53623
374.89639
374.28023
373.68613
373.11266
372.55856
372.02275
371.50432
371.00247
370.51655
370.04598
369.59031
369.14912
368.72208
368.3089
367.90938
367.52334
367.15066
366.79112
366.44459
366.11095
365.79002
365.48169
365.18569
418.16986
415.96163
413.75935
411.5749
409.41927
407.30252
405.23362
403.22044
401.26962
399.38662
397.57569
395.83989
394.18116
392.60037
391.09743
389.67137
388.32048
387.0424
385.83428
384.69288
383.61467
382.59588
381.63268
380.72123
379.85779
379.03877
378.26068
377.52028
376.81451
376.1406
375.496
374.87841
374.2858
373.71634
373.16843
372.64065
372.13181
371.64083
371.16683
370.70902
370.26676
369.83946
369.42667
369.02795
368.64294
368.27133
367.91287
367.56741
367.2348
366.91489
366.60753
366.31245
366.02846
422.33288
419.90595
417.48361
415.07918
412.70513
410.37296
408.09302
405.87448
403.72518
401.65167
399.65912
397.7514
395.93107
394.19951
392.55691
391.00247
389.53446
388.1504
386.84718
385.62126
384.46871
383.3852
382.36629
381.40755
380.50458
379.65319
378.8493
378.08904
377.36876
376.68509
376.03497
375.41558
374.82436
374.25906
373.71768
373.19849
372.69993
372.22066
371.75952
371.3155
370.88769
370.47534
370.07777
369.6945
369.32507
368.96912
368.62632
368.29642
367.97921
367.67453
367.38234
426.6985
424.03896
421.38246
418.74379
416.13693
413.57484
411.06934
408.63096
406.26882
403.99064
401.80262
399.70951
397.71461
395.81987
394.0259
392.33202
390.73656
389.23696
387.82985
386.51135
385.2772
384.12258
383.04238
382.03154
381.08503
380.19783
379.36521
378.58265
377.84586
377.15087
376.49399
375.87188
375.2815
374.72014
374.18534
373.67497
373.18711
372.72012
372.27248
371.84288
371.43027
371.03374
370.65249
370.28587
369.93327
369.59422
369.2683
368.95515
368.65448
368.366
368.08924
431.23507
428.33065
425.42757
422.54204
419.68955
416.88459
414.14045
411.46909
408.88101
406.38513
403.9888
401.69773
399.51603
397.44634
395.48979
393.64591
391.91299
390.28851
388.76894
387.35011
386.02749
384.7954
383.64817
382.58006
381.58538
380.65848
379.79387
378.98628
378.23076
377.52264
376.85764
376.23179
375.64152
375.08359
374.55511
374.05349
373.57643
373.12185
372.68803
372.27342
371.87672
371.49681
371.1327
370.78356
370.44866
370.12739
369.81922
369.52372
369.24049
368.96919
368.70919
435.91309
432.75334
429.593
426.44971
423.34048
420.28129
417.28698
414.37097
411.54516
408.81982
406.20349
403.7029
401.32303
399.06728
396.93736
394.93343
393.05399
391.29618
389.65637
388.12985
386.7111
385.39459
384.17424
383.04362
381.99621
381.0256
380.12552
379.28997
378.51322
377.78992
377.1151
376.48417
375.89294
375.33765
374.81488
374.32158
373.85503
373.41287
372.99302
372.59366
372.21321
371.85032
371.50379
371.17263
370.85594
370.55299
370.26313
369.98583
369.72062
369.46709
369.22453
440.705
437.28128
433.85485
430.44474
427.0694
423.74637
420.49199
417.32119
414.24733
411.28207
408.43529
405.71488
403.1264
400.67448
398.36183
396.1884
394.15294
392.25283
390.48426
388.84226
387.32093
385.9141
384.61509
383.41684
382.31211
381.29369
380.35455
379.48789
378.68721
377.94643
377.25983
376.62217
376.02863
375.47485
374.95689
374.47123
374.01474
373.58468
373.17859
372.79436
372.43013
372.08428
371.75543
371.44236
371.14405
370.85961
370.58828
370.32941
370.08246
369.84695
369.62211
445.58478
441.89038
438.19094
434.5068
430.85787
427.26315
423.74053
420.30645
416.97574
413.76145
410.67486
407.72564
404.92059
402.26419
399.7592
397.40693
395.20668
393.15596
391.2508
389.48603
387.85544
386.35221
384.96899
383.69804
382.53137
381.46103
380.47915
379.57812
378.75065
377.98987
377.28933
376.64306
376.04558
375.49193
374.97764
374.49868
374.05148
373.63284
373.23997
372.8704
372.52199
372.19288
371.88143
371.58625
371.30615
371.04008
370.78716
370.54664
370.31789
370.10034
369.89316
450.52773
446.55787
442.58044
438.61701
434.68886
430.81646
427.01921
423.31511
419.72048
416.24968
412.91489
409.72951
406.69927
403.82988
401.12496
398.58638
396.21387
394.00518
391.95637
390.0621
388.31585
386.71029
385.23742
383.88877
382.65564
381.52925
380.50091
379.56219
378.70496
377.92153
377.20469
376.54774
375.9445
375.38941
374.8774
374.40391
373.96489
373.55671
373.17618
372.82051
372.48723
372.17421
371.8796
371.6018
371.33942
371.09128
370.85637
370.63382
370.4229
370.22298
370.03314
455.51025
451.26211
447.00365
442.75759
438.54649
434.39226
430.31578
426.33666
422.47278
418.74007
415.15406
411.72356
408.46014
405.37041
402.45854
399.72681
397.17531
394.80206
392.6032
390.57327
388.70549
386.99205
385.42434
383.99323
382.68924
381.50276
380.4243
379.44453
378.55451
377.74571
377.01011
376.34025
375.72929
375.17097
374.65962
374.19015
373.75797
373.35902
372.98972
372.64689
372.32778
372.02996
371.75135
371.49012
371.24473
371.01382
370.79625
370.59104
370.39736
370.21446
370.04133
460.50978
455.9824
451.44176
446.91162
442.41575
437.97735
433.61879
429.36134
425.2248
421.22611
417.38107
413.70228
410.20102
406.88535
403.76063
400.82978
398.09338
395.54974
393.19512
391.02401
389.02937
387.20298
385.53566
384.0176
382.63856
381.38814
380.25597
379.23188
378.30606
377.46913
376.71226
376.02722
375.40642
374.84294
374.33048
373.86336
373.4365
373.04537
372.68595
372.35472
372.04859
371.76485
371.50117
371.25552
371.02614
370.81154
370.61043
370.42172
370.24446
370.07782
369.92054
465.50473
460.69893
455.87676
451.06291
446.28228
441.55932
436.91766
432.37988
427.9673
423.7001
419.59394
415.66328
411.92035
408.37455
405.03236
401.89756
398.97132
396.25233
393.73704
391.41992
389.29373
387.34984
385.57858
383.96945
382.51149
381.19349
380.00424
378.93268
377.96812
377.10036
376.31971
375.61715
374.98436
374.41371
373.89825
373.43173
373.00852
372.62362
372.2726
371.95155
371.65705
371.38611
371.13612
370.90485
370.69035
370.49096
370.30525
370.13202
369.97025
369.81911
470.4745
465.39277
460.29137
455.19585
450.13219
445.12603
440.20236
435.38513
430.69697
426.15905
421.78958
417.60449
413.61718
409.8382
406.27516
402.93274
399.81277
396.91443
394.23441
391.76721
389.50543
387.44012
385.56109
383.85724
382.31686
380.92797
379.67848
378.55649
377.55043
376.64921
375.84233
375.11997
374.47303
373.89316
373.37277
372.905
372.4837
372.10338
371.75917
371.44678
371.16244
370.90288
370.66524
370.44703
370.24614
370.06072
369.88922
369.73028
369.58277
369.44552
475.39961
470.04589
464.6691
459.2955
453.95201
448.66541
443.46201
438.36713
433.40471
428.59682
423.96388
419.5235
415.29046
411.27654
407.49048
403.93791
400.62141
397.5407
394.69279
392.07225
389.6716
387.48159
385.49155
383.6898
382.06395
380.6012
379.28865
378.11353
377.06338
376.12626
375.29083
374.54645
373.88324
373.29214
372.76489
372.29405
371.87289
371.49544
371.1564
370.85108
370.57538
370.32571
370.09896
369.89243
369.70379
369.53103
369.37244
369.22656
369.09212
368.96768
480.26176
474.64135
468.99435
463.34762
457.72892
452.16606
446.68657
441.31723
436.0834
431.00764
426.11259
421.41757
416.93885
412.68953
408.67951
404.91543
401.4007
398.13561
395.11756
392.34129
389.79924
387.48192
385.37826
383.476
381.76208
380.22295
378.84487
377.61421
376.51765
375.54239
374.67624
373.90776
373.22628
372.62201
372.08605
371.61031
371.18755
370.81127
370.47575
370.1759
369.90728
369.66599
369.44866
369.25236
369.07457
368.9131
368.76611
368.63201
368.50942
368.3966
485.04399
479.16332
473.25247
467.33881
461.4508
455.61715
449.86639
444.22639
438.72387
433.38452
428.2308
423.2835
418.56062
414.07675
409.84305
405.86725
402.15364
398.70318
395.5137
392.58015
389.89497
387.44847
385.22921
383.22441
381.42034
379.80274
378.35705
377.0688
375.92382
374.90842
374.0096
373.21511
372.5135
371.89426
371.3478
370.86544
370.43938
370.06263
369.72901
369.43306
369.16996
368.93555
368.72616
368.53865
368.37029
368.21875
368.08202
367.95842
367.84655
489.73078
483.59721
477.42987
471.2565
465.10618
459.00842
452.99272
447.08812
441.32269
435.72339
430.31452
425.11816
420.15378
415.43739
410.98145
406.79483
402.88276
399.24692
395.88562
392.7941
389.96485
387.38803
385.05185
382.94305
381.04731
379.34963
377.83468
376.48716
375.29205
374.23482
373.30162
372.4794
371.75599
371.12012
370.56153
370.07094
369.63998
369.26118
368.92792
368.63433
368.37527
368.14625
367.94337
367.76323
367.60292
367.45992
367.33211
367.21763
367.11478
494.30812
487.92979
481.51412
475.08912
468.68437
462.33008
456.05667
449.89427
443.87227
438.01882
432.35957
426.91837
421.71616
416.77033
412.09464
407.69912
403.58999
399.76969
396.2371
392.98777
390.01429
387.3067
384.85295
382.63932
380.65091
378.87204
377.28661
375.87853
374.63194
373.53147
372.56246
371.71107
370.96438
370.31039
369.73818
369.23787
368.80054
368.41823
368.08386
367.7912
367.53475
367.30972
367.11194
366.93781
366.7842
366.64845
366.52826
366.42167
366.32665
498.76363
492.14925
485.49402
478.82614
472.17557
465.57311
459.04999
452.63738
446.36584
440.26473
434.36123
428.68063
423.2453
418.0741
413.18212
408.58058
404.27672
400.2738
396.57128
393.16508
390.04795
387.20987
384.63854
382.31983
380.2383
378.37761
376.72094
375.25141
373.95234
372.80755
371.80158
370.91981
370.14859
369.47519
368.88806
368.3767
367.93167
367.5445
367.20769
366.91461
366.65943
366.43707
366.24309
366.07366
365.92549
365.79573
365.68195
365.58207
365.49376
503.08656
496.24527
489.35972
482.45819
475.57095
468.72931
461.96518
455.31064
448.79731
442.45581
436.31496
430.40131
424.73851
419.34692
414.24301
409.43921
404.94381
400.76092
396.89064
393.32929
390.06981
387.10217
384.41386
381.9904
379.81582
377.87316
376.14492
374.61344
373.26126
372.07141
371.02762
370.11452
369.31774
368.62386
368.02069
367.49713
367.04321
366.64998
366.30951
366.01479
365.75966
365.53874
365.34734
365.18142
365.03748
364.91254
364.80403
364.70984
507.26779
500.209
493.10269
485.97712
478.86278
471.79139
464.79547
457.90792
451.16138
444.58765
438.21698
432.07705
426.1931
420.58685
415.27615
410.27465
405.59167
401.23223
397.19707
393.48298
390.08311
386.98747
384.18339
381.65605
379.38899
377.36469
375.56497
373.97143
372.56585
371.3305
370.24833
369.30321
368.48007
367.76488
367.14474
366.60801
366.14417
365.74383
365.39863
365.10117
364.84498
364.62438
364.43445
364.27092
364.13012
364.00889
363.90454
363.81466
511.29982
504.03311
496.71577
489.37599
482.04439
474.75299
467.53487
460.42364
453.45289
446.6555
440.06296
433.70437
427.60632
421.79187
416.28022
411.08624
406.22032
401.68842
397.49195
393.62816
390.09049
386.86899
383.95087
381.32101
378.96254
376.85735
374.98664
373.3313
371.87239
370.5914
369.47056
368.49301
367.64297
366.9058
366.26797
365.71727
365.24267
364.83432
364.48344
364.18228
363.92405
363.70278
363.51331
363.35117
363.21249
363.09398
362.99283
362.90635
515.17669
507.71171
500.19316
492.64911
485.11021
477.60875
470.17824
462.85296
455.66732
448.65524
441.84936
435.28018
428.97558
422.95994
417.25377
411.87315
406.82953
402.12986
397.77621
393.76634
390.09397
386.74928
383.71936
380.98884
378.54043
376.35552
374.41468
372.69815
371.18627
369.85982
368.7003
367.69014
366.8129
366.05331
365.39725
364.83195
364.3459
363.92878
363.57144
363.26575
363.00461
362.7818
362.59191
362.43025
362.2928
362.17611
362.07724
361.99336
518.89393
511.24028
503.53033
495.79195
488.05579
480.3543
472.72135
465.19181
457.80085
450.58335
443.57307
436.80179
430.29853
424.08912
418.19532
412.6344
407.41883
402.55658
398.05041
393.89856
390.09512
386.63036
383.49132
380.66239
378.12593
375.86282
373.85307
372.07628
370.51211
369.14063
367.94266
366.89996
365.99541
365.21315
364.53851
363.95817
363.46014
363.03367
362.6692
362.35829
362.09352
361.8684
361.6773
361.51534
361.37833
361.26266
361.16528
361.08323
522.44845
514.61563
506.724
498.80117
490.87773
482.98623
475.16084
467.43691
459.85034
452.43687
445.23129
438.26657
431.57299
425.17761
419.10343
413.36894
407.98769
402.96847
398.31483
394.02555
390.09504
386.51374
383.26865
380.34396
377.72167
375.38223
373.30509
371.46926
369.85373
368.43792
367.20197
366.12699
365.19524
364.39026
363.69687
363.10121
362.59082
362.15453
361.78242
361.46572
361.1967
360.96864
360.77567
360.61273
360.47545
360.3601
360.26351
360.18262
525.83841
517.8358
509.77204
501.6745
493.57366
485.50208
477.49418
469.58575
461.81331
454.2134
446.82177
439.67251
432.79711
426.22382
419.97685
414.07583
408.53542
403.36521
398.56952
394.1477
390.09452
386.40057
383.05283
380.03532
377.32975
374.91613
372.7734
370.87998
369.21428
367.75505
366.4818
365.37502
364.41636
363.58878
362.87662
362.2655
361.74251
361.29609
360.91596
360.59301
360.31926
360.08772
359.89232
359.72782
359.58969
359.47405
359.37764
359.2973
529.06312
520.89992
512.67339
504.41071
496.14215
487.90028
479.71971
471.63658
463.68796
455.91114
448.34278
441.01799
433.96944
427.22643
420.81443
414.75419
409.06138
403.74643
398.81442
394.26523
390.09405
386.29161
382.84491
379.73782
376.95177
374.46636
372.26007
370.31077
368.59627
367.09474
365.78506
364.64712
363.662
362.81212
362.08131
361.45472
360.91904
360.4623
360.07387
359.74434
359.46547
359.23003
359.03175
358.8652
358.72571
358.60928
358.51253
358.43222
532.12292
523.80816
515.42798
507.00947
498.58268
490.18012
481.83652
473.58834
465.47314
457.52889
449.79307
442.30176
435.08871
428.18435
421.61525
415.40322
409.56496
404.11173
399.04933
394.37821
390.09391
386.18738
382.64563
379.45242
376.5889
374.03432
371.7667
369.7634
368.00168
366.45912
365.11403
363.94574
362.93476
362.063
361.31379
360.67188
360.12351
359.65636
359.25947
358.92315
358.63887
358.3992
358.19767
358.02868
357.88742
357.76976
357.67224
357.59151
535.01896
526.56155
518.0366
509.47133
500.89553
492.34163
483.84444
475.44067
467.16833
459.06599
451.1719
443.52304
436.15415
429.09681
422.37858
416.02232
410.04567
404.46075
399.27405
394.48658
390.09424
386.08819
382.45549
379.17977
376.24197
373.62099
371.29444
369.23918
367.43196
365.8498
364.47048
363.27275
362.23664
361.34353
360.5763
359.91931
359.35839
358.88086
358.47544
358.13218
357.8423
357.59816
357.39311
357.22138
357.07802
356.95879
356.86012
356.77861
537.7533
529.16178
520.50081
511.79758
503.08171
494.38554
485.74394
477.19382
468.77358
460.52233
452.47902
444.68148
437.16541
429.96339
423.10398
416.61104
410.50313
404.79318
399.48837
394.59023
390.09504
385.99417
382.27473
378.92027
375.91151
373.22705
370.84409
368.73904
366.88815
365.26794
363.85566
362.62955
361.56913
360.65532
359.87056
359.19882
358.62555
358.13775
357.72384
357.37359
357.07801
356.82924
356.62046
356.44576
356.30004
356.17896
356.07885
355.99625
565.85619
557.47149
548.95566
540.33047
531.61184
522.82294
513.99018
505.14287
496.31323
487.53611
478.84861
470.28946
461.89826
453.71461
445.77713
438.12239
430.78394
423.79124
417.16913
410.93708
405.10878
399.69208
394.68903
390.09625
385.90533
382.10346
378.67411
375.59782
372.85288
370.41612
368.26355
366.37093
364.71431
363.27043
362.01707
360.93326
359.99949
359.19776
358.51169
357.92637
357.42849
357.00618
356.64898
356.34766
356.09418
355.88154
355.7037
355.55544
355.43229
355.33051
355.24656
568.6318
560.12951
551.49695
542.75255
533.91471
525.00581
516.05166
507.08124
498.12659
489.22256
480.40637
471.71703
463.1946
454.87927
446.81036
439.0253
431.55852
424.44032
417.69653
411.34741
405.40742
399.88504
394.78283
390.09775
385.82161
381.94166
378.44133
375.30097
372.49862
370.01076
367.81299
365.88065
364.18933
362.71531
361.43589
360.32968
359.37674
358.55869
357.85877
357.26177
356.75406
356.32353
355.95945
355.65242
355.39421
355.17766
354.99658
354.84565
354.72028
354.61663
354.53113
571.23493
562.6215
553.87875
545.02326
536.07392
527.05272
517.98502
508.8995
499.82802
490.80536
481.86886
473.05777
464.41255
455.97394
447.78193
439.87466
432.28737
425.05145
418.19334
411.73414
405.68905
400.06716
394.87151
390.09941
385.74286
381.78921
378.2218
375.02089
372.16424
369.628
367.38742
365.41741
363.69315
362.19046
360.88625
359.75868
358.78743
357.95374
357.24052
356.63225
356.11504
355.67651
355.30571
354.99305
354.73013
354.50965
354.32531
354.17163
354.04394
353.93828
353.85103
573.67046
564.95255
556.10623
547.14697
538.09348
528.9674
519.7937
510.60078
501.4203
492.28698
483.23824
474.31354
465.5537
456.99994
448.69286
440.67133
432.97135
425.62511
418.65986
412.09745
405.95375
400.23842
394.95499
390.10109
385.66892
381.64593
378.01534
374.75739
371.84954
369.26767
366.98667
364.98107
363.22565
361.69584
360.36811
359.22027
358.2316
357.38301
356.65707
356.03801
355.51165
355.06539
354.68807
354.36991
354.10236
353.87799
353.69038
353.53396
353.40389
353.29612
353.2069
575.94374
567.1279
558.18455
549.12841
539.97778
530.75392
521.48146
512.18851
502.90654
493.67022
484.51698
475.48649
466.61988
457.95883
449.54449
441.41637
433.61122
426.16193
419.09655
412.43763
406.20167
400.39888
395.03323
390.10266
385.5996
381.51153
377.82172
374.51017
371.55421
368.92944
366.61041
364.57132
362.78654
361.23114
359.88122
358.71421
357.70904
356.84631
356.10829
355.47894
354.94383
354.49013
354.10652
353.78303
353.51097
353.28278
353.09195
352.93284
352.80041
352.69042
352.59894
578.06042
569.15301
560.11902
550.97256
541.73147
532.41663
523.05234
513.66642
504.29016
494.95814
485.70784
476.57907
467.61324
458.85244
450.33833
442.11104
434.20798
426.66271
419.50402
412.75511
406.43307
400.54864
395.10621
390.10403
385.53469
381.38578
377.64055
374.27885
371.27784
368.61287
366.25821
364.18769
362.37535
360.79591
359.42511
358.24004
357.21933
356.34324
355.59378
354.95466
354.41122
353.95044
353.5608
353.23218
352.95575
352.72384
352.52987
352.36819
580.02635
571.03352
561.91507
552.68457
543.35942
533.96011
524.5106
515.03845
505.57477
496.15405
486.81378
477.59391
468.5361
459.68279
451.07614
442.75681
434.76283
427.12842
419.883
413.0504
406.64829
400.6879
395.17399
390.10509
385.47401
381.26839
377.47147
374.06299
371.01994
368.31744
365.92947
363.82958
361.99147
360.38952
358.99917
357.79716
356.76184
355.8732
355.11296
354.46462
353.9133
353.44579
353.0504
352.71687
352.43624
352.20075
352.00371
581.8475
572.77522
563.57824
554.26973
544.86663
535.38905
525.86064
516.3087
506.76416
497.26141
487.83794
478.53383
469.39095
460.45208
451.75979
443.35527
435.2771
427.56012
420.23433
413.32415
406.84778
400.81689
395.23663
390.1058
385.41736
381.15904
377.31409
373.86212
370.77997
368.04253
365.62357
363.49631
361.63418
360.01125
358.60263
357.38481
356.33583
355.43542
354.66508
354.00806
353.44932
352.97546
352.57463
352.23644
351.9518
351.71286
351.51278
583.52991
574.38395
565.11417
555.73342
546.25819
536.70826
527.10697
517.48137
507.86221
498.28379
488.78359
479.40178
470.18043
461.16262
452.3913
443.90814
435.75224
427.95899
420.55893
413.57704
407.032
400.93592
395.29426
390.10611
385.36457
381.05745
377.16799
373.67572
370.55732
367.78749
365.33977
363.18712
361.30268
359.66025
358.23466
357.00211
355.94041
355.02903
354.24925
353.58412
353.01842
352.53859
352.13264
351.79004
351.50161
351.2594
351.0564
585.07964
575.86561
566.52852
557.08103
547.53925
537.92261
528.25417
518.56074
508.8729
499.22485
489.65407
480.20079
470.90726
461.81682
452.97279
444.41725
436.18978
428.32627
420.85782
413.80985
407.20152
401.04531
395.34704
390.106
385.31546
380.9633
377.03275
373.50326
370.35138
367.55162
365.07731
362.90118
360.99611
359.33562
357.8943
356.64812
355.5746
354.65304
353.86448
353.19181
352.61962
352.1342
351.72345
351.37672
351.08471
350.83941
350.63366
586.50276
577.22608
567.82693
558.31797
548.71494
539.03697
529.30683
519.55112
509.80025
500.08832
490.45279
480.93395
471.57422
462.41716
453.50643
444.88447
436.59131
428.66331
421.13204
414.02339
407.3569
401.14546
395.39514
390.10548
385.26989
380.8763
376.90794
373.3442
370.16151
367.3342
364.8354
362.63764
360.71354
359.03641
357.58058
356.3218
355.23738
354.30639
353.50971
352.83003
352.25182
351.76121
351.34599
350.99539
350.70003
350.45183
350.2435
587.80532
578.47118
569.01501
559.4496
549.79038
540.05618
530.26952
520.4568
510.64826
500.8779
491.18316
481.60438
472.18412
462.96615
453.99441
445.31171
436.95848
428.97147
421.38272
414.21851
407.49879
401.23676
395.43877
390.10457
385.22769
380.79614
376.79313
373.19799
369.98704
367.13446
364.6132
362.39558
360.45402
358.7616
357.29245
356.02208
354.92762
353.98796
353.18379
352.49766
351.91388
351.41847
350.9991
350.64491
350.34643
350.09552
349.88479
588.99347
579.60664
570.09829
560.48122
550.7706
540.98503
531.14678
521.28204
511.42091
501.59729
491.84859
482.2152
472.73978
463.46631
454.43899
445.70093
437.29293
429.25214
421.61097
414.3961
407.62782
401.31963
395.47816
390.10331
385.18875
380.72254
376.68789
373.06408
369.82732
366.95167
364.40988
362.1741
360.21658
358.51018
357.02883
355.74786
354.64421
353.6966
352.88556
352.19349
351.60459
351.10477
350.68157
350.32406
350.0227
349.76927
349.55632
635.2445
626.49008
617.59367
608.55646
599.37986
590.07407
580.63827
571.08221
561.418
551.66058
541.82825
531.94308
522.03106
512.12215
502.25015
492.45245
482.76948
473.244
463.92015
454.84237
446.05405
437.59633
429.5067
421.81792
414.55704
407.74465
401.39453
395.51353
390.10174
385.15293
380.65521
376.5918
372.94192
369.68169
366.78504
364.22458
361.97229
360.00023
358.2811
356.78864
355.49801
354.38598
353.43111
352.6138
351.91632
351.32273
350.81886
350.39216
350.0316
349.72758
349.47183
349.25684
636.46342
627.65771
618.71164
609.62669
600.40466
591.05196
581.57155
571.97205
562.26505
552.46515
542.59044
532.66278
522.70797
512.75582
502.84008
492.99808
483.27028
473.69954
464.33016
455.20676
446.37302
437.87034
429.73655
422.00473
414.70222
407.84993
401.46188
395.54513
390.09992
385.12012
380.59389
376.50444
372.83096
369.54948
366.63382
364.05645
361.7892
359.80398
358.07331
356.57079
355.2714
354.15176
353.19031
352.3673
351.66489
351.06705
350.55949
350.12959
349.76625
349.4598
349.20192
348.98505
637.56228
628.70986
619.71877
610.59039
601.3269
591.93249
582.41177
572.77298
563.02729
553.18905
543.27612
533.31015
523.31678
513.32571
503.37058
493.48871
483.72058
474.10912
464.69876
455.53432
446.65971
438.11658
429.94305
422.1725
414.83254
407.94433
401.52214
395.5732
390.09789
385.09019
380.53828
376.42539
372.73066
369.43004
366.49726
363.90465
361.62392
359.62684
357.88577
356.37417
355.06687
353.94038
352.97298
352.14483
351.43797
350.83627
350.32537
349.89257
349.52671
349.21805
348.95824
348.73966
638.54741
629.65276
620.6211
611.45359
602.15261
592.72101
583.16411
573.48998
563.70953
553.83687
543.88965
533.88934
523.86142
513.83548
503.84508
493.92752
484.12328
474.47537
465.02835
455.82719
446.91599
438.33666
430.12757
422.32234
414.94885
408.02849
401.57574
395.59798
390.09573
385.06303
380.48814
376.35425
372.64048
369.32272
366.37461
363.76835
361.47555
359.46783
357.71744
356.1977
354.88332
353.75067
352.77794
351.94517
351.2343
350.62914
350.11524
349.67983
349.31169
349.00105
348.73949
348.51936
639.42509
630.49255
621.42456
612.22207
602.88745
593.42279
583.8336
574.12791
564.31643
554.41306
544.43527
534.40436
524.34567
514.28868
504.26689
494.31756
484.4812
474.80087
465.32123
456.0874
447.14367
438.53214
430.2914
422.45533
415.05201
408.10305
401.6231
395.61969
390.09347
385.03854
380.44319
376.29062
372.55991
369.2269
366.26513
363.64673
361.34317
359.32598
357.5673
356.04031
354.71962
353.58148
352.60399
351.7671
351.05267
350.44441
349.92783
349.49008
349.11992
348.80749
348.54436
348.32286
640.20141
631.23516
622.13489
612.90134
603.53683
594.04292
584.42512
574.69145
564.85247
554.92191
544.91706
534.85908
524.77318
514.68874
504.63921
494.66181
484.79707
475.0881
465.57965
456.31696
447.34448
438.70451
430.43583
422.57251
415.14284
408.16861
401.66463
395.63858
390.09117
385.01661
380.40318
376.2341
372.48843
369.14193
366.1681
363.53897
361.22591
359.20035
357.43434
355.90094
354.57467
353.43168
352.44999
351.60945
350.89186
350.28086
349.7619
349.32208
348.95011
348.6361
348.37159
348.14885
640.88231
631.88634
622.75765
613.49677
604.10592
594.58633
584.94339
575.18511
565.32198
555.36754
545.33895
535.25722
525.14746
515.03896
504.96511
494.96311
485.0735
475.33944
465.80574
456.51777
447.52012
438.85523
430.56207
422.67488
415.22213
408.22577
401.70074
395.65484
390.08889
384.99711
380.36785
376.18432
372.42553
369.06722
366.08283
363.44429
361.12292
359.09002
357.31758
355.77857
354.4474
353.30017
352.31478
351.47104
350.75068
350.13728
349.61622
349.17459
348.80103
348.48563
348.2199
347.99608
641.47351
632.45162
623.29816
614.01349
604.5997
595.05776
585.39294
575.61324
565.72911
555.75392
545.7047
535.60235
525.47188
515.34249
505.24753
495.22419
485.31301
475.55717
466.00158
456.69168
447.67219
438.98569
430.6713
422.76341
415.29064
408.27508
401.7318
395.66869
390.08664
384.97994
380.33695
376.14088
372.37072
369.00218
366.00862
363.36193
361.03333
358.99409
357.21607
355.67219
354.33677
353.18585
352.19726
351.35075
350.62798
350.01249
349.48962
349.04641
348.67147
348.35486
348.08807
347.86331
641.98054
632.93634
623.76157
614.45644
605.02291
595.46176
585.77813
575.98
566.07784
556.08484
546.01793
535.8979
525.74966
515.60236
505.4893
495.44766
485.51798
475.74349
466.16913
456.84044
447.80224
439.09722
430.76463
422.839
415.34909
408.31708
401.75816
395.68031
390.08447
384.96499
380.31024