/*--------------------------------*- C++ -*----------------------------------*\
| =========                 |                                                 |
| \\      /  F ield         | OpenFOAM: The Open Source CFD Toolbox           |
|  \\    /   O peration     | Version:  2312                                  |
|   \\  /    A nd           | Website:  www.openfoam.com                      |
|    \\/     M anipulation  |                                                 |
\*---------------------------------------------------------------------------*/
FoamFile
{
    version     2.0;
    format      ascii;
    arch        "LSB;label=32;scalar=64";
    class       surfaceScalarField;
    location    "0.01";
    object      phi;
}
// * * * * * * * * * * * * * * * * * * * * * * * * * * * * * * * * * * * * * //

dimensions      [1 0 -1 0 0 0 0];

oriented        oriented;

internalField   nonuniform List<scalar> 
6418
(
8.942205e-08
-1.6251512e-07
8.8105197e-08
-1.607283e-07
8.6832235e-08
-1.5892146e-07
8.5594067e-08
-1.5709592e-07
8.4382406e-08
-1.5525327e-07
8.3189795e-08
-1.5339505e-07
8.2009595e-08
-1.5152266e-07
8.0835971e-08
-1.4963741e-07
7.9663873e-08
-1.4774055e-07
7.8489014e-08
-1.4583324e-07
7.7307845e-08
-1.4391663e-07
7.6117519e-08
-1.4199178e-07
7.4915853e-08
-1.4005978e-07
7.3701292e-08
-1.3812167e-07
7.2472859e-08
-1.3617851e-07
7.1230109e-08
-1.3423134e-07
6.9973081e-08
-1.3228122e-07
6.8702243e-08
-1.3032924e-07
6.7418441e-08
-1.2837647e-07
6.6122849e-08
-1.2642402e-07
6.4816911e-08
-1.2447302e-07
6.3502297e-08
-1.2252459e-07
6.2180846e-08
-1.205799e-07
6.0854528e-08
-1.1864008e-07
5.952539e-08
-1.1670632e-07
5.8195521e-08
-1.1477977e-07
5.686701e-08
-1.1286158e-07
5.5541914e-08
-1.1095292e-07
5.4222225e-08
-1.0905492e-07
5.2909844e-08
-1.071687e-07
5.160656e-08
-1.0529536e-07
5.0314028e-08
-1.0343599e-07
4.9033754e-08
-1.0159162e-07
4.7767089e-08
-9.9763276e-08
4.6515218e-08
-9.7951956e-08
4.5279156e-08
-9.6158611e-08
4.405975e-08
-9.4384163e-08
4.2857682e-08
-9.2629499e-08
4.1673474e-08
-9.0895472e-08
4.05075e-08
-8.9182901e-08
3.9359997e-08
-8.7492571e-08
3.823108e-08
-8.5825234e-08
3.7120757e-08
-8.4181609e-08
3.6028946e-08
-8.2562383e-08
3.495549e-08
-8.0968209e-08
3.3900176e-08
-7.9399713e-08
3.2862754e-08
-7.7857494e-08
3.1842949e-08
-7.6342131e-08
3.0840487e-08
-7.4854193e-08
2.9855103e-08
-7.3394239e-08
2.8886555e-08
-7.1962842e-08
2.7934623e-08
-7.0560617e-08
-6.9188311e-08
8.8960639e-08
-1.4924403e-07
8.7666615e-08
-1.472959e-07
8.641243e-08
-1.4533001e-07
8.5189522e-08
-1.4334852e-07
8.3990118e-08
-1.4135376e-07
8.2807243e-08
-1.3934786e-07
8.1634714e-08
-1.373328e-07
8.0467121e-08
-1.3531038e-07
7.9299809e-08
-1.3328222e-07
7.812885e-08
-1.3124982e-07
7.6951019e-08
-1.2921457e-07
7.5763755e-08
-1.2717771e-07
7.4565128e-08
-1.2514043e-07
7.3353797e-08
-1.2310383e-07
7.2128967e-08
-1.2106895e-07
7.0890338e-08
-1.1903676e-07
6.9638067e-08
-1.1700822e-07
6.8372706e-08
-1.1498425e-07
6.7095164e-08
-1.1296575e-07
6.5806646e-08
-1.1095361e-07
6.4508615e-08
-1.0894869e-07
6.3202735e-08
-1.0695187e-07
6.1890828e-08
-1.0496403e-07
6.0574834e-08
-1.0298602e-07
5.925676e-08
-1.0101871e-07
5.793865e-08
-9.9062956e-08
5.6622542e-08
-9.7119622e-08
5.5310438e-08
-9.5189552e-08
5.4004276e-08
-9.3273587e-08
5.2705901e-08
-9.1372556e-08
5.1417047e-08
-8.9487275e-08
5.0139318e-08
-8.7618544e-08
4.8874172e-08
-8.5767149e-08
4.7622914e-08
-8.3933855e-08
4.6386689e-08
-8.211941e-08
4.5166478e-08
-8.0324538e-08
4.3963098e-08
-7.8549942e-08
4.2777203e-08
-7.6796301e-08
4.1609295e-08
-7.5064272e-08
4.0459731e-08
-7.3354494e-08
3.9328738e-08
-7.1667581e-08
3.8216431e-08
-7.0004129e-08
3.7122823e-08
-6.8364709e-08
3.6047842e-08
-6.6749871e-08
3.4991347e-08
-6.5160137e-08
3.3953142e-08
-6.3596012e-08
3.2932992e-08
-6.205798e-08
3.1930639e-08
-6.0546512e-08
3.0945806e-08
-5.9062063e-08
2.9978211e-08
-5.7605091e-08
2.9027564e-08
-5.6176049e-08
2.8093563e-08
-5.4775422e-08
-5.3403823e-08
8.974674e-08
-1.3710487e-07
8.8468985e-08
-1.3499963e-07
8.7226592e-08
-1.3287878e-07
8.6011565e-08
-1.3074534e-07
8.4816686e-08
-1.2860236e-07
8.3635509e-08
-1.2645264e-07
8.2462343e-08
-1.242987e-07
8.1292241e-08
-1.2214283e-07
8.0120967e-08
-1.1998707e-07
7.894498e-08
-1.1783324e-07
7.7761395e-08
-1.1568295e-07
7.6567952e-08
-1.1353766e-07
7.5362984e-08
-1.1139864e-07
7.4145369e-08
-1.0926705e-07
7.2914494e-08
-1.071439e-07
7.1670209e-08
-1.0503011e-07
7.0412781e-08
-1.0292653e-07
6.9142848e-08
-1.0083391e-07
6.786137e-08
-9.8752968e-08
6.6569583e-08
-9.6684354e-08
6.5268955e-08
-9.4628703e-08
6.3961142e-08
-9.2586622e-08
6.2647945e-08
-9.05587e-08
6.1331269e-08
-8.8545516e-08
6.0013085e-08
-8.6547635e-08
5.869539e-08
-8.4565618e-08
5.7380175e-08
-8.2600018e-08
5.6069396e-08
-8.0651386e-08
5.4764942e-08
-7.8720267e-08
5.3468615e-08
-7.6807201e-08
5.2182106e-08
-7.4912722e-08
5.0906978e-08
-7.3037362e-08
4.9644656e-08
-7.1181642e-08
4.8396418e-08
-6.934608e-08
4.7163387e-08
-6.7531186e-08
4.5946529e-08
-6.5737459e-08
4.474665e-08
-6.3965386e-08
4.3564397e-08
-6.2215442e-08
4.240027e-08
-6.0488095e-08
4.1254629e-08
-5.8783804e-08
4.0127712e-08
-5.710302e-08
3.9019656e-08
-5.544619e-08
3.7930504e-08
-5.3813745e-08
3.6860223e-08
-5.2206103e-08
3.5808714e-08
-5.0623661e-08
3.4775822e-08
-4.9066806e-08
3.3761354e-08
-4.7535912e-08
3.2765083e-08
-4.6031342e-08
3.1786756e-08
-4.4553448e-08
3.0826102e-08
-4.3102582e-08
2.9882835e-08
-4.1679099e-08
2.8956657e-08
-4.0283372e-08
-3.8915877e-08
9.1462977e-08
-1.2627509e-07
9.0191541e-08
-1.2401813e-07
8.8950734e-08
-1.2174759e-07
8.7733204e-08
-1.1946738e-07
8.6532344e-08
-1.1718127e-07
8.5342286e-08
-1.1489273e-07
8.4157881e-08
-1.1260484e-07
8.2974677e-08
-1.1032039e-07
8.1788894e-08
-1.0804183e-07
8.0597397e-08
-1.057713e-07
7.9397667e-08
-1.0351068e-07
7.8187762e-08
-1.012616e-07
7.6966286e-08
-9.902544e-08
7.5732348e-08
-9.6803402e-08
7.4485523e-08
-9.4596495e-08
7.3225809e-08
-9.2405573e-08
7.1953587e-08
-9.0231357e-08
7.0669573e-08
-8.8074452e-08
6.9374776e-08
-8.593537e-08
6.8070451e-08
-8.3814545e-08
6.6758062e-08
-8.1712359e-08
6.5439242e-08
-7.9629156e-08
6.4115764e-08
-7.7565251e-08
6.2789491e-08
-7.5520937e-08
6.1462347e-08
-7.3496485e-08
6.0136276e-08
-7.1492154e-08
5.8813215e-08
-6.95082e-08
5.7495067e-08
-6.7544879e-08
5.6183673e-08
-6.5602446e-08
5.4880785e-08
-6.3681156e-08
5.3588048e-08
-6.1781268e-08
5.2306985e-08
-5.9903043e-08
5.1038984e-08
-5.8046747e-08
4.9785295e-08
-5.6212656e-08
4.8547023e-08
-5.4401048e-08
4.7325127e-08
-5.2612204e-08
4.6120405e-08
-5.0846399e-08
4.4933503e-08
-4.9103909e-08
4.3764918e-08
-4.7385012e-08
4.2615013e-08
-4.5689991e-08
4.1484039e-08
-4.4019141e-08
4.0372161e-08
-4.2372767e-08
3.9279466e-08
-4.0751171e-08
3.8205974e-08
-3.9154641e-08
3.7151638e-08
-3.758345e-08
3.6116358e-08
-3.6037872e-08
3.5099997e-08
-3.4518183e-08
3.4102381e-08
-3.3024645e-08
3.3123296e-08
-3.1557513e-08
3.2162496e-08
-3.0117041e-08
3.1219718e-08
-2.8703505e-08
3.0294661e-08
-2.7317177e-08
-2.5958376e-08
9.3819015e-08
-1.1682542e-07
9.2543286e-08
-1.1442322e-07
9.1293414e-08
-1.1200943e-07
9.0062742e-08
-1.095888e-07
8.8845328e-08
-1.0716585e-07
8.7635925e-08
-1.0474469e-07
8.6429961e-08
-1.0232901e-07
8.5223512e-08
-9.9922069e-08
8.4013278e-08
-9.7526724e-08
8.2796555e-08
-9.514546e-08
8.1571203e-08
-9.2780407e-08
8.0335609e-08
-9.0433368e-08
7.9088658e-08
-8.8105847e-08
7.7829692e-08
-8.5799079e-08
7.6558472e-08
-8.3514064e-08
7.5275144e-08
-8.1251592e-08
7.3980201e-08
-7.901227e-08
7.2674431e-08
-7.6796544e-08
7.1358881e-08
-7.4604724e-08
7.0034808e-08
-7.2437009e-08
6.870365e-08
-7.0293528e-08
6.7367003e-08
-6.8174369e-08
6.6026594e-08
-6.6079582e-08
6.4684237e-08
-6.400918e-08
6.3341794e-08
-6.196314e-08
6.2001144e-08
-5.9941422e-08
6.0664156e-08
-5.7943986e-08
5.9332671e-08
-5.5970798e-08
5.800847e-08
-5.4021827e-08
5.6693249e-08
-5.2097051e-08
5.53886e-08
-5.0196457e-08
5.4095991e-08
-4.8320043e-08
5.2816763e-08
-4.6467821e-08
5.1552128e-08
-4.4639829e-08
5.0303175e-08
-4.2836129e-08
4.9070852e-08
-4.1056787e-08
4.7855956e-08
-3.9301874e-08
4.6659125e-08
-3.7571469e-08
4.5480846e-08
-3.5865661e-08
4.432147e-08
-3.418456e-08
4.318125e-08
-3.252831e-08
4.2060374e-08
-3.0897085e-08
4.0958988e-08
-2.9291066e-08
3.9877174e-08
-2.7710412e-08
3.8814933e-08
-2.6155264e-08
3.7772219e-08
-2.4625786e-08
3.6748966e-08
-2.312218e-08
3.574507e-08
-2.1644627e-08
3.4760359e-08
-2.0193286e-08
3.3794611e-08
-1.876833e-08
3.2847594e-08
-1.736997e-08
3.1919048e-08
-1.5998404e-08
-1.4653744e-08
9.6571109e-08
-1.0874266e-07
9.5280054e-08
-1.0620266e-07
9.4010221e-08
-1.03653e-07
9.2755695e-08
-1.0109931e-07
9.1511238e-08
-9.8546856e-08
9.0272258e-08
-9.6000391e-08
8.9034788e-08
-9.3464167e-08
8.779546e-08
-9.0941934e-08
8.6551473e-08
-8.8436957e-08
8.5300568e-08
-8.5952046e-08
8.4040995e-08
-8.3489579e-08
8.2771479e-08
-8.1051532e-08
8.1491186e-08
-7.8639515e-08
8.0199688e-08
-7.6254804e-08
7.8896928e-08
-7.3898383e-08
7.7583196e-08
-7.1570982e-08
7.6259091e-08
-6.9273099e-08
7.4925472e-08
-6.7005016e-08
7.3583411e-08
-6.4766831e-08
7.2234143e-08
-6.2558492e-08
7.087904e-08
-6.0379859e-08
6.9519633e-08
-5.8230773e-08
6.8157592e-08
-5.6111044e-08
6.6794676e-08
-5.4020423e-08
6.5432677e-08
-5.1958592e-08
6.4073379e-08
-4.9925199e-08
6.2718566e-08
-4.7919911e-08
6.1370002e-08
-4.5942412e-08
6.00294e-08
-4.3992391e-08
5.8698387e-08
-4.2069555e-08
5.737849e-08
-4.0173631e-08
5.6071111e-08
-3.8304359e-08
5.4777512e-08
-3.6461498e-08
5.3498848e-08
-3.4644851e-08
5.2236191e-08
-3.2854279e-08
5.0990488e-08
-3.1089647e-08
4.976253e-08
-2.9350828e-08
4.8552945e-08
-2.7637709e-08
4.7362196e-08
-2.5950198e-08
4.6190596e-08
-2.4288232e-08
4.5038365e-08
-2.2651807e-08
4.3905709e-08
-2.1040977e-08
4.2792845e-08
-1.9455806e-08
4.1699965e-08
-1.7896336e-08
4.0627069e-08
-1.6362521e-08
3.9574096e-08
-1.4854419e-08
3.8541098e-08
-1.3372212e-08
3.7528076e-08
-1.1916024e-08
3.6534906e-08
-1.0485939e-08
3.5561347e-08
-9.0820448e-09
3.460709e-08
-7.7044591e-09
3.3672297e-08
-6.3535132e-09
-5.0290072e-09
9.9525045e-08
-1.0195321e-07
9.8207484e-08
-9.9283326e-08
9.6906778e-08
-9.6605839e-08
9.5617788e-08
-9.3927176e-08
9.4336015e-08
-9.125332e-08
9.3057553e-08
-8.8589667e-08
9.1779067e-08
-8.5941014e-08
9.0497759e-08
-8.331158e-08
8.9211342e-08
-8.070502e-08
8.7918014e-08
-7.8124457e-08
8.6616424e-08
-7.5572501e-08
8.5305634e-08
-7.3051292e-08
8.3985091e-08
-7.0562529e-08
8.2654582e-08
-6.8107516e-08
8.1314221e-08
-6.5687221e-08
7.9964434e-08
-6.3302325e-08
7.8605932e-08
-6.0953223e-08
7.7239652e-08
-5.8640032e-08
7.5866688e-08
-5.6362626e-08
7.4488208e-08
-5.4120655e-08
7.3105451e-08
-5.1913676e-08
7.1719834e-08
-4.9741305e-08
7.0332971e-08
-4.760316e-08
6.8946584e-08
-4.5498761e-08
6.7562387e-08
-4.3427493e-08
6.6182017e-08
-4.1388665e-08
6.480715e-08
-3.9381646e-08
6.3439471e-08
-3.7405848e-08
6.2080605e-08
-3.5460681e-08
6.0732098e-08
-3.3545588e-08
5.939541e-08
-3.1660061e-08
5.8071877e-08
-2.980361e-08
5.6762622e-08
-2.7975719e-08
5.5468666e-08
-2.6175943e-08
5.4191116e-08
-2.4403989e-08
5.2930924e-08
-2.2659507e-08
5.1688875e-08
-2.0942186e-08
5.0465587e-08
-1.9251753e-08
4.92615e-08
-1.7587963e-08
4.8076857e-08
-1.5950589e-08
4.6911758e-08
-1.4339474e-08
4.5766415e-08
-1.2754564e-08
4.464115e-08
-1.1195754e-08
4.3536403e-08
-9.6629084e-09
4.2452051e-08
-8.1558949e-09
4.1387676e-08
-6.6744908e-09
4.0343693e-08
-5.219031e-09
3.9320234e-08
-3.7894549e-09
3.831721e-08
-2.3858317e-09
3.7334459e-08
-1.008434e-09
3.6371227e-08
3.4240904e-10
3.5429026e-08
1.6670743e-09
2.9654675e-09
1.0253138e-07
-9.6343541e-08
1.0117622e-07
-9.3552076e-08
9.9833902e-08
-9.0755165e-08
9.8500111e-08
-8.7960044e-08
9.7171116e-08
-8.5173393e-08
9.5843721e-08
-8.2401209e-08
9.4515236e-08
-7.9648813e-08
9.3183448e-08
-7.6920869e-08
9.1846593e-08
-7.4221399e-08
9.0503333e-08
-7.155381e-08
8.9152716e-08
-6.8920926e-08
8.7794145e-08
-6.6325024e-08
8.6427332e-08
-6.3767875e-08
8.5052262e-08
-6.1250786e-08
8.3669181e-08
-5.8774698e-08
8.2278651e-08
-5.6340265e-08
8.0881517e-08
-5.3947809e-08
7.9478822e-08
-5.1597266e-08
7.807171e-08
-4.9288276e-08
7.6661218e-08
-4.7020128e-08
7.5248287e-08
-4.4792014e-08
7.3834153e-08
-4.2603338e-08
7.2420394e-08
-4.0453587e-08
7.1008791e-08
-3.8342138e-08
6.9601053e-08
-3.6268112e-08
6.8198434e-08
-3.423034e-08
6.6802545e-08
-3.2227937e-08
6.5415003e-08
-3.0260025e-08
6.4037319e-08
-2.8325723e-08
6.2670928e-08
-2.6424217e-08
6.1317217e-08
-2.4554785e-08
5.9977587e-08
-2.271684e-08
5.8652816e-08
-2.0909527e-08
5.7343698e-08
-1.9132276e-08
5.6051494e-08
-1.7384354e-08
5.477712e-08
-1.5665272e-08
5.3521335e-08
-1.3974615e-08
5.2284748e-08
-1.2312004e-08
5.1067794e-08
-1.0677103e-08
4.9870663e-08
-9.0696212e-09
4.8693123e-08
-7.4893437e-09
4.7535624e-08
-5.9362504e-09
4.6398585e-08
-4.4097887e-09
4.5282516e-08
-2.9099572e-09
4.4187512e-08
-1.4365698e-09
4.3112062e-08
1.0530005e-11
4.2057392e-08
1.4326813e-09
4.1023423e-08
2.829839e-09
4.0009902e-08
4.2018123e-09
3.9016778e-08
5.5485698e-09
3.8045205e-08
6.8702284e-09
3.7095051e-08
8.1660475e-09
9.4338086e-09
1.0547851e-07
-9.1778472e-08
1.0407503e-07
-8.8873412e-08
1.0268074e-07
-8.5965509e-08
1.0129227e-07
-8.3062602e-08
9.9906688e-08
-8.0171966e-08
9.8521507e-08
-7.7300163e-08
9.7134692e-08
-7.4453004e-08
9.5744621e-08
-7.1635565e-08
9.4350062e-08
-6.88522e-08
9.2950144e-08
-6.6106572e-08
9.1544316e-08
-6.3401678e-08
9.0132314e-08
-6.0739905e-08
8.8714112e-08
-5.8123072e-08
8.7289833e-08
-5.5552442e-08
8.5859794e-08
-5.3028902e-08
8.4424681e-08
-5.0553118e-08
8.2985526e-08
-4.8125355e-08
8.1543496e-08
-4.574532e-08
8.0099947e-08
-4.341249e-08
7.8655755e-08
-4.11258e-08
7.7211127e-08
-3.8884e-08
7.5767079e-08
-3.6686207e-08
7.4325119e-08
-3.453167e-08
7.2887237e-08
-3.2419732e-08
7.1455771e-08
-3.0349714e-08
7.003082e-08
-2.8319838e-08
6.8614046e-08
-2.6328475e-08
6.7207017e-08
-2.4374498e-08
6.5811093e-08
-2.2456906e-08
6.4427567e-08
-2.057464e-08
6.305763e-08
-1.8726581e-08
6.1702948e-08
-1.6911857e-08
6.0363859e-08
-1.5130483e-08
5.9041504e-08
-1.3381373e-08
5.7736531e-08
-1.1663603e-08
5.644972e-08
-9.9763857e-09
5.5181751e-08
-8.3190856e-09
5.3933162e-08
-6.6911831e-09
5.2704269e-08
-5.0922328e-09
5.1495045e-08
-3.5219082e-09
5.0304987e-08
-1.9802176e-09
4.9135696e-08
-4.6548808e-10
4.7986722e-08
1.0227835e-09
4.6859266e-08
2.4857458e-09
4.5753417e-08
3.9234067e-09
4.4670346e-08
5.3358064e-09
4.3608515e-08
6.7226016e-09
4.2567571e-08
8.0839197e-09
4.1547311e-08
9.4198221e-09
4.0547468e-08
1.0730239e-08
3.9567525e-08
1.2014871e-08
3.8605621e-08
1.0828646e-07
-8.8113392e-08
1.06824e-07
-8.5102899e-08
1.0536792e-07
-8.2092381e-08
1.0391554e-07
-7.9090273e-08
1.0246469e-07
-7.6104434e-08
1.010136e-07
-7.3141943e-08
9.9560885e-08
-7.0209058e-08
9.8105526e-08
-6.7311222e-08
9.6646818e-08
-6.4453084e-08
9.5184367e-08
-6.1638515e-08
9.3718028e-08
-5.8870635e-08
9.224786e-08
-5.6151895e-08
9.0774092e-08
-5.3484169e-08
8.9296891e-08
-5.0868589e-08
8.781641e-08
-4.8305883e-08
8.6333556e-08
-4.579683e-08
8.4849807e-08
-4.3341715e-08
8.3366004e-08
-4.0939538e-08
8.1884329e-08
-3.8590063e-08
8.0405764e-08
-3.6292175e-08
7.8929172e-08
-3.4045239e-08
7.7454975e-08
-3.1845804e-08
7.5984533e-08
-2.9693401e-08
7.4519769e-08
-2.7586708e-08
7.3064827e-08
-2.5524317e-08
7.1619547e-08
-2.3506555e-08
7.0184415e-08
-2.1531807e-08
6.876041e-08
-1.959829e-08
6.7348786e-08
-1.7704495e-08
6.5950769e-08
-1.584916e-08
6.4567282e-08
-1.4031213e-08
6.3197207e-08
-1.2249347e-08
6.1843378e-08
-1.0501218e-08
6.0507035e-08
-8.7862371e-09
5.9188911e-08
-7.1037026e-09
5.7889569e-08
-5.4528082e-09
5.6609448e-08
-3.8327877e-09
5.5348973e-08
-2.2429924e-09
5.4108435e-08
-6.8284831e-10
5.288721e-08
8.4843135e-10
5.1688389e-08
2.3528603e-09
5.0511546e-08
3.8306045e-09
4.9357325e-08
5.281995e-09
4.8224535e-08
6.7070593e-09
4.7113262e-08
8.1061928e-09
4.6023843e-08
9.4796247e-09
4.4955719e-08
1.082738e-08
4.3908477e-08
1.2149536e-08
4.2881795e-08
1.3446186e-08
4.1875245e-08
1.4717336e-08
1.5962889e-08
1.1089923e-07
-8.520487e-08
1.0936797e-07
-8.2097202e-08
1.0784105e-07
-7.8991969e-08
1.0631631e-07
-7.5899091e-08
1.0479233e-07
-7.2826693e-08
1.0326806e-07
-6.9782321e-08
1.0174276e-07
-6.677263e-08
1.0021599e-07
-6.3803393e-08
9.8687593e-08
-6.0879516e-08
9.7157665e-08
-5.800502e-08
9.5626469e-08
-5.5183055e-08
9.4094311e-08
-5.2415985e-08
9.2561685e-08
-4.9705871e-08
9.102882e-08
-4.7053806e-08
8.9495059e-08
-4.4460004e-08
8.7961669e-08
-4.19251e-08
8.6432071e-08
-3.9450237e-08
8.4904884e-08
-3.7033874e-08
8.3384062e-08
-3.4673917e-08
8.1870705e-08
-3.2369118e-08
8.0366103e-08
-3.0117379e-08
7.8865464e-08
-2.7921696e-08
7.7371182e-08
-2.5779882e-08
7.5885467e-08
-2.3689423e-08
7.4406194e-08
-2.1647962e-08
7.293741e-08
-1.9652265e-08
7.1480613e-08
-1.7701628e-08
7.0036854e-08
-1.5794662e-08
6.8607025e-08
-1.3929738e-08
6.7191882e-08
-1.2105238e-08
6.5792143e-08
-1.031956e-08
6.4409635e-08
-8.5711611e-09
6.3044812e-08
-6.8589466e-09
6.1698347e-08
-5.1814464e-09
6.0370781e-08
-3.5375068e-09
5.9062571e-08
-1.9260948e-09
5.7774058e-08
-3.4619751e-10
5.6505664e-08
1.2032745e-09
5.5258204e-08
2.7234645e-09
5.4033295e-08
4.2152542e-09
5.2830483e-08
5.6789648e-09
5.1649606e-08
7.1151586e-09
5.0490709e-08
8.524332e-09
4.9353419e-08
9.9068557e-09
4.823766e-08
1.1263142e-08
4.7143396e-08
1.259352e-08
4.6070361e-08
1.3898199e-08
4.5018214e-08
1.5177356e-08
4.3986597e-08
1.6431145e-08
4.2975073e-08
1.7659678e-08
1.8863068e-08
1.1327918e-07
-8.2917621e-08
1.1167121e-07
-7.9719783e-08
1.1006487e-07
-7.6528178e-08
1.0846031e-07
-7.3352546e-08
1.0685631e-07
-7.0201969e-08
1.0525256e-07
-6.7084284e-08
1.0364895e-07
-6.400646e-08
1.0204561e-07
-6.0974574e-08
1.0044297e-07
-5.7993771e-08
9.8841648e-08
-5.5068167e-08
9.7242154e-08
-5.2200626e-08
9.5644877e-08
-4.9393177e-08
9.4050635e-08
-4.6648447e-08
9.2460403e-08
-4.3968147e-08
9.0873088e-08
-4.1354208e-08
8.9288638e-08
-3.8800191e-08
8.7714937e-08
-3.630587e-08
8.6150978e-08
-3.3875153e-08
8.4596965e-08
-3.1507727e-08
8.3054358e-08
-2.9204528e-08
8.1512603e-08
-2.6966622e-08
7.9977184e-08
-2.4787739e-08
7.8450992e-08
-2.2664293e-08
7.6935425e-08
-2.0593995e-08
7.543208e-08
-1.8575025e-08
7.3942555e-08
-1.6605866e-08
7.2467653e-08
-1.4684312e-08
7.1007971e-08
-1.2808572e-08
6.956416e-08
-1.0976856e-08
6.8136903e-08
-9.1873697e-09
6.6727022e-08
-7.4383595e-09
6.5335517e-08
-5.7281991e-09
6.3962741e-08
-4.0554354e-09
6.2609209e-08
-2.4185803e-09
6.1275416e-08
-8.1623975e-10
5.9961827e-08
7.5287551e-10
5.8668972e-08
2.2899761e-09
5.7397346e-08
3.7961715e-09
5.6147307e-08
5.2724425e-09
5.4919544e-08
6.7196752e-09
5.3713976e-08
8.1384881e-09
5.2530501e-08
9.5294588e-09
5.1369023e-08
1.089315e-08
5.0229379e-08
1.223006e-08
4.9111405e-08
1.354064e-08
4.8014922e-08
1.482528e-08
4.693967e-08
1.6084287e-08
4.5885332e-08
1.7317922e-08
4.4851555e-08
1.8526414e-08
4.3837943e-08
1.9709954e-08
2.0868731e-08
1.1540421e-07
-8.112728e-08
1.137112e-07
-7.7846638e-08
1.1201883e-07
-7.4576167e-08
1.1032774e-07
-7.1325765e-08
1.0863787e-07
-6.8105076e-08
1.0694944e-07
-6.4922266e-08
1.0526286e-07
-6.1784591e-08
1.0357883e-07
-5.8698402e-08
1.0189843e-07
-5.5669189e-08
1.0022297e-07
-5.2701192e-08
9.8552727e-08
-4.979616e-08
9.6887252e-08
-4.6955365e-08
9.5230316e-08
-4.4186275e-08
9.3583255e-08
-4.1483453e-08
9.1954698e-08
-3.8844585e-08
9.0334403e-08
-3.6279072e-08
8.8715712e-08
-3.3785344e-08
8.7104836e-08
-3.1358998e-08
8.5502161e-08
-2.9000532e-08
8.3907394e-08
-2.6708972e-08
8.23261e-08
-2.4482108e-08
8.0759924e-08
-2.2318206e-08
7.920844e-08
-2.02141e-08
7.7671578e-08
-1.8167169e-08
7.6149906e-08
-1.6175079e-08
7.4643853e-08
-1.4235663e-08
7.3154219e-08
-1.23466e-08
7.1681708e-08
-1.0505679e-08
7.0226944e-08
-8.7107879e-09
6.8790536e-08
-6.9598874e-09
6.7373105e-08
-5.251029e-09
6.5975241e-08
-3.5823904e-09
6.4597354e-08
-1.9522748e-09
6.3239826e-08
-3.5905302e-10
6.190304e-08
1.1988131e-09
6.058738e-08
2.7227506e-09
5.9293241e-08
4.2140668e-09
5.8020936e-08
5.6739383e-09
5.6770713e-08
7.1034158e-09
5.5542805e-08
8.5034232e-09
5.4337237e-08
9.8747292e-09
5.3153917e-08
1.1218018e-08
5.1992712e-08
1.2533921e-08
5.0853449e-08
1.3823011e-08
4.9735927e-08
1.50858e-08
4.8639914e-08
1.6322735e-08
4.7565135e-08
1.7534196e-08
4.6511272e-08
1.872051e-08
4.5477982e-08
1.9881959e-08
4.4464894e-08
2.1018786e-08
2.2131213e-08
1.1726166e-07
-7.9723251e-08
1.1547652e-07
-7.6366843e-08
1.1369238e-07
-7.3024683e-08
1.1190951e-07
-6.9707398e-08
1.1012914e-07
-6.6424302e-08
1.0835197e-07
-6.3184206e-08
1.0657882e-07
-5.9994443e-08
1.048108e-07
-5.6861541e-08
1.0304974e-07
-5.3791514e-08
1.0129875e-07
-5.0789703e-08
9.9559309e-08
-4.7856882e-08
9.7824914e-08
-4.4990202e-08
9.6116113e-08
-4.2185939e-08
9.4425564e-08
-3.9461992e-08
9.2736222e-08
-3.6822042e-08
9.1055179e-08
-3.425905e-08
8.9384297e-08
-3.1770618e-08
8.7726817e-08
-2.9355504e-08
8.6082265e-08
-2.7011631e-08
8.445104e-08
-2.4736901e-08
8.2838417e-08
-2.252891e-08
8.1244907e-08
-2.0385991e-08
7.9669699e-08
-1.8306158e-08
7.8112369e-08
-1.628694e-08
7.6573056e-08
-1.4325694e-08
7.505208e-08
-1.2419808e-08
7.3549923e-08
-1.0566697e-08
7.2067081e-08
-8.763864e-09
7.0604006e-08
-7.0089216e-09
6.9161122e-08
-5.2995943e-09
6.7738835e-08
-3.6337262e-09
6.6337507e-08
-2.0092953e-09
6.4957431e-08
-4.2441109e-10
6.3598863e-08
1.122708e-09
6.226205e-08
2.6337265e-09
6.0947227e-08
4.1101821e-09
5.9654611e-08
5.5534788e-09
5.8384366e-08
6.9648837e-09
5.7136607e-08
8.3455314e-09
5.5911391e-08
9.6964281e-09
5.470868e-08
1.1018452e-08
5.3528353e-08
1.2312388e-08
5.237024e-08
1.3578944e-08
5.1234133e-08
1.4818758e-08
5.0119798e-08
1.6032401e-08
4.902697e-08
1.7220375e-08
4.7955351e-08
1.8383116e-08
4.6904616e-08
1.9521003e-08
4.5874415e-08
2.0634362e-08
4.4864377e-08
2.1723472e-08
2.2788574e-08
1.1884618e-07
-7.8608898e-08
1.1696352e-07
-7.5183659e-08
1.1508244e-07
-7.1777107e-08
1.1320428e-07
-6.8400114e-08
1.1132998e-07
-6.5062514e-08
1.0946133e-07
-6.1772522e-08
1.0759923e-07
-5.8537735e-08
1.0574486e-07
-5.5364362e-08
1.0390037e-07
-5.2258215e-08
1.0207177e-07
-4.9225921e-08
1.002787e-07
-4.6280099e-08
9.849942e-08
-4.3383482e-08
9.6718797e-08
-4.0574767e-08
9.4948708e-08
-3.7850443e-08
9.3194425e-08
-3.5208924e-08
9.1459578e-08
-3.2649284e-08
8.9743713e-08
-3.0169001e-08
8.8045842e-08
-2.7766393e-08
8.6365676e-08
-2.5439197e-08
8.470403e-08
-2.3184772e-08
8.3063444e-08
-2.1000497e-08
8.1444667e-08
-1.8884237e-08
7.9847375e-08
-1.6833855e-08
7.8271252e-08
-1.4846797e-08
7.671625e-08
-1.2920251e-08
7.518249e-08
-1.1051371e-08
7.3670173e-08
-9.2373478e-09
7.2179524e-08
-7.4754629e-09
7.0710757e-08
-5.7631098e-09
6.9264073e-08
-4.0978072e-09
6.7839656e-08
-2.477209e-09
6.6437665e-08
-8.9911168e-10
6.5058224e-08
6.3854463e-10
6.3701436e-08
2.1376832e-09
6.2367392e-08
3.6000891e-09
6.1056167e-08
5.0274078e-09
5.9767814e-08
6.4211419e-09
5.8502355e-08
7.7826519e-09
5.725977e-08
9.1131622e-09
5.6039995e-08
1.0413767e-08
5.4842906e-08
1.1685441e-08
5.3668327e-08
1.2929054e-08
5.2516042e-08
1.4145387e-08
5.1385802e-08
1.5335143e-08
5.0277336e-08
1.6498945e-08
4.9190345e-08
1.7637346e-08
4.8124508e-08
1.8750831e-08
4.7079477e-08
1.983982e-08
4.6054888e-08
2.0904678e-08
4.5050359e-08
2.1945714e-08
2.2963186e-08
1.2015768e-07
-7.77014e-08
1.1817328e-07
-7.4214258e-08
1.161918e-07
-7.0750538e-08
1.1421554e-07
-6.732138e-08
1.1224593e-07
-6.3936701e-08
1.1028488e-07
-6.0604623e-08
1.0833398e-07
-5.7331995e-08
1.0639395e-07
-5.4124199e-08
1.0446652e-07
-5.0985611e-08
1.0255314e-07
-4.7916147e-08
1.0073017e-07
-4.4904039e-08
9.8865401e-08
-4.2038142e-08
9.7010507e-08
-3.9251835e-08
9.5175724e-08
-3.6539527e-08
9.3366452e-08
-3.3906724e-08
9.158281e-08
-3.1356583e-08
8.9823435e-08
-2.8889168e-08
8.8087117e-08
-2.6503197e-08
8.6373501e-08
-2.4196468e-08
8.4683091e-08
-2.1966246e-08
8.3016941e-08
-1.980969e-08
8.1375541e-08
-1.7724235e-08
7.9758793e-08
-1.5707295e-08
7.8166454e-08
-1.3756033e-08
7.659835e-08
-1.1867446e-08
7.5054382e-08
-1.0038501e-08
7.3534501e-08
-8.2662005e-09
7.2038672e-08
-6.5476369e-09
7.0566867e-08
-4.8800162e-09
6.9119054e-08
-3.2606771e-09
6.7695196e-08
-1.6871023e-09
6.6295249e-08
-1.569269e-10
6.4919152e-08
1.3320591e-09
6.3566839e-08
2.7819092e-09
6.2238234e-08
4.1945247e-09
6.0933252e-08
5.5716554e-09
5.9651793e-08
6.9149008e-09
5.8393739e-08
8.2257128e-09
5.7158943e-08
9.5054032e-09
5.5947232e-08
1.0755151e-08
5.4758393e-08
1.1976012e-08
5.3592183e-08
1.3168934e-08
5.2448332e-08
1.4334764e-08
5.1326543e-08
1.5474261e-08
5.0226502e-08
1.6588101e-08
4.9147876e-08
1.7676882e-08
4.8090311e-08
1.8741131e-08
4.7053436e-08
1.9781305e-08
4.6036866e-08
2.0797801e-08
4.5040191e-08
2.1790958e-08
2.2761048e-08
1.2119957e-07
-7.6930978e-08
1.1911052e-07
-7.3388998e-08
1.1702653e-07
-6.9875468e-08
1.1495049e-07
-6.6401684e-08
1.1288523e-07
-6.2977661e-08
1.1083347e-07
-5.9612058e-08
1.0879827e-07
-5.6311771e-08
1.0678062e-07
-5.3081094e-08
1.0477963e-07
-4.9921943e-08
1.0282733e-07
-4.6851862e-08
1.0084054e-07
-4.3880332e-08
9.8913848e-08
-4.0982334e-08
9.7009901e-08
-3.817877e-08
9.5127554e-08
-3.5466554e-08
9.3271638e-08
-3.2842504e-08
9.1443725e-08
-3.0305869e-08
8.9643752e-08
-2.7856009e-08
8.7871342e-08
-2.5491319e-08
8.6126358e-08
-2.3209391e-08
8.4409002e-08
-2.100736e-08
8.2719652e-08
-1.8882195e-08
8.1058425e-08
-1.6830946e-08
7.9425131e-08
-1.4850621e-08
7.781945e-08
-1.2938085e-08
7.6241055e-08
-1.1090123e-08
7.4689635e-08
-9.3035092e-09
7.3164903e-08
-7.5750695e-09
7.166658e-08
-5.9017208e-09
7.0194401e-08
-4.2805001e-09
6.8748104e-08
-2.7085838e-09
6.7327436e-08
-1.183301e-09
6.5932147e-08
2.9785774e-10
6.456199e-08
1.7372351e-09
6.321672e-08
3.1370048e-09
6.1896094e-08
4.4991766e-09
6.0599868e-08
5.8255993e-09
5.9327798e-08
7.1179636e-09
5.8079627e-08
8.3778071e-09
5.6855091e-08
9.6065225e-09
5.5653908e-08
1.0805365e-08
5.447578e-08
1.1975464e-08
5.332039e-08
1.3117832e-08
5.2187405e-08
1.4233376e-08
5.1076477e-08
1.5322908e-08
4.9987247e-08
1.6387148e-08
4.891934e-08
1.7426736e-08
4.7872371e-08
1.8442235e-08
4.6845939e-08
1.9434137e-08
4.5839633e-08
2.0402867e-08
4.4853016e-08
2.1348793e-08
2.2272198e-08
1.2197754e-07
-7.6239694e-08
1.1978215e-07
-7.2650065e-08
1.1759458e-07
-6.9094102e-08
1.1541829e-07
-6.5583159e-08
1.1325683e-07
-6.2127325e-08
1.11114e-07
-5.8735626e-08
1.0899367e-07
-5.5416615e-08
1.0689929e-07
-5.2179107e-08
1.0481771e-07
-4.9028044e-08
1.0277203e-07
-4.5947825e-08
1.0072876e-07
-4.2962133e-08
9.8731773e-08
-4.0066821e-08
9.6768816e-08
-3.7266862e-08
9.4835557e-08
-3.4563006e-08
9.2933216e-08
-3.1952962e-08
9.1062967e-08
-2.9435047e-08
8.9225055e-08
-2.7007745e-08
8.7419342e-08
-2.466897e-08
8.5645669e-08
-2.2416067e-08
8.3903958e-08
-2.0246008e-08
8.2194148e-08
-1.8155574e-08
8.0516019e-08
-1.6141507e-08
7.8869176e-08
-1.4200488e-08
7.7253126e-08
-1.232912e-08
7.5667347e-08
-1.0523971e-08
7.4111308e-08
-8.7816283e-09
7.2584488e-08
-7.0987426e-09
7.1086374e-08
-5.4720663e-09
6.9616469e-08
-3.8984807e-09
6.817429e-08
-2.3750147e-09
6.6759369e-08
-8.988595e-10
6.5371256e-08
5.3262376e-10
6.4009515e-08
1.9218959e-09
6.2673725e-08
3.2712397e-09
6.1363478e-08
4.5827636e-09
6.0078377e-08
5.8584072e-09
5.8818033e-08
7.0999441e-09
5.7582062e-08
8.3089902e-09
5.6370084e-08
9.4870099e-09
5.5181714e-08
1.0635327e-08
5.4016567e-08
1.1755133e-08
5.2874249e-08
1.2847497e-08
5.1754363e-08
1.391338e-08
5.0656507e-08
1.4953637e-08
4.9580271e-08
1.5969031e-08
4.8525241e-08
1.6960238e-08
4.7490994e-08
1.7927853e-08
4.6477101e-08
1.8872397e-08
4.548312e-08
1.9794325e-08
4.4508592e-08
2.0694025e-08
1.22499e-07
-7.5580217e-08
1.2019684e-07
-7.195029e-08
1.1790582e-07
-6.835931e-08
1.1562969e-07
-6.4818489e-08
1.1337208e-07
-6.133765e-08
1.1113664e-07
-5.7925312e-08
1.0892669e-07
-5.4588641e-08
1.0674511e-07
-5.1333985e-08
1.0460867e-07
-4.8167976e-08
1.0248137e-07
-4.5102985e-08
1.0038179e-07
-4.2129749e-08
9.8322133e-08
-3.924858e-08
9.6301367e-08
-3.6463938e-08
9.4317574e-08
-3.3777439e-08
9.2370662e-08
-3.1188059e-08
9.0460912e-08
-2.8694299e-08
8.8588295e-08
-2.6294323e-08
8.6752563e-08
-2.398576e-08
8.4953388e-08
-2.1765754e-08
8.3190413e-08
-1.963111e-08
8.1463226e-08
-1.7578419e-08
7.9771306e-08
-1.5604175e-08
7.8114014e-08
-1.3704797e-08
7.6490639e-08
-1.1876658e-08
7.4900435e-08
-1.0116123e-08
7.3342644e-08
-8.4196006e-09
7.1816512e-08
-6.7835746e-09
7.0321297e-08
-5.2046456e-09
6.8856276e-08
-3.6795506e-09
6.7420751e-08
-2.205186e-09
6.6014047e-08
-7.7861835e-10
6.4635518e-08
6.0290464e-10
6.3284544e-08
1.9419497e-09
6.1960533e-08
3.2408952e-09
6.0662914e-08
4.5019388e-09
5.9391144e-08
5.7270996e-09
5.8144697e-08
6.9182262e-09
5.6923066e-08
8.0770018e-09
5.5725757e-08
9.2049548e-09
5.4552288e-08
1.0303467e-08
5.3402185e-08
1.1373783e-08
5.2274982e-08
1.2417022e-08
5.1170216e-08
1.3434188e-08
5.0087425e-08
1.4426177e-08
4.9026154e-08
1.5393786e-08
4.7985943e-08
1.6337723e-08
4.6966334e-08
1.7258612e-08
4.5966868e-08
1.8156999e-08
4.4987083e-08
1.9033361e-08
1.9888117e-08
1.227726e-07
-7.491461e-08
1.2036468e-07
-7.1252039e-08
1.1797203e-07
-6.7633833e-08
1.1559877e-07
-6.4071053e-08
1.132488e-07
-6.0573306e-08
1.1092589e-07
-5.7148865e-08
1.0863387e-07
-5.3804733e-08
1.0637636e-07
-5.0547386e-08
1.0415653e-07
-4.7384008e-08
1.0196307e-07
-4.4323701e-08
9.9806258e-08
-4.1363533e-08
9.7691709e-08
-3.8500151e-08
9.5620001e-08
-3.5736082e-08
9.3590541e-08
-3.3072601e-08
9.1603184e-08
-3.0509104e-08
8.9657891e-08
-2.8044153e-08
8.775444e-08
-2.5675714e-08
8.5892429e-08
-2.3401193e-08
8.4071332e-08
-2.1217545e-08
8.2290527e-08
-1.912139e-08
8.0549308e-08
-1.7109131e-08
7.884687e-08
-1.5177042e-08
7.7182324e-08
-1.3321326e-08
7.5554717e-08
-1.153815e-08
7.3963072e-08
-9.8236988e-09
7.2406397e-08
-8.1742098e-09
7.0883708e-08
-6.5860175e-09
6.9394039e-08
-5.0555797e-09
6.7936451e-08
-3.5795057e-09
6.6510033e-08
-2.1545715e-09
6.5113913e-08
-7.7773545e-10
6.3747257e-08
5.538558e-10
6.2409267e-08
1.8428603e-09
6.1099183e-08
3.0917409e-09
5.9816285e-08
4.3027713e-09
5.8559884e-08
5.4780408e-09
5.7329325e-08
6.6194612e-09
5.6123983e-08
7.7287742e-09
5.4943258e-08
8.8075618e-09
5.3786574e-08
9.8572544e-09
5.2653371e-08
1.0879143e-08