/*--------------------------------*- C++ -*----------------------------------*\
| =========                 |                                                 |
| \\      /  F ield         | OpenFOAM: The Open Source CFD Toolbox           |
|  \\    /   O peration     | Version:  2312                                  |
|   \\  /    A nd           | Website:  www.openfoam.com                      |
|    \\/     M anipulation  |                                                 |
\*---------------------------------------------------------------------------*/
FoamFile
{
    version     2.0;
    format      ascii;
    arch        "LSB;label=32;scalar=64";
    class       volScalarField;
    location    "0.01";
    object      Qdot;
}
// * * * * * * * * * * * * * * * * * * * * * * * * * * * * * * * * * * * * * //

dimensions      [1 -1 -3 0 0 0 0];

internalField   nonuniform List<scalar> 
3272
(
7403.5371
6327.2604
5344.6874
4464.8933
3690.6499
3020.0218
2447.5986
1965.6032
1564.8573
1235.5761
967.98215
752.74837
581.28973
445.92876
339.96306
257.66086
194.20762
145.62276
108.66136
80.711413
59.694395
43.973336
32.271182
23.600232
17.202601
12.500957
9.0584348
6.5464815
4.7193992
3.3944053
2.4361747
1.744962
1.2475472
0.89038517
0.63445564
0.4514144
0.3207341
0.22758907
0.16129894
0.11418775
0.080750644
0.057047702
0.040264313
0.02839313
0.020004852
0.014083189
0.0099065567
0.0069631962
0.0048906122
0.0034323096
0.0024069713
0.0016865432
0.0011806779
9230.2993
7896.1523
6675.9529
5581.5438
4616.9666
3780.3476
3065.3949
2462.7697
1961.293
1548.9462
1213.6522
943.84315
728.838
559.06192
426.14028
322.9006
243.3112
182.38088
136.03821
101.00452
74.670054
54.979266
40.328585
29.477946
21.476043
15.59843
11.297134
8.1602251
5.8798059
4.2269419
3.0322332
2.1708906
1.5513641
1.106744
0.78829936
0.56065361
0.39820123
0.28245956
0.20012126
0.14162751
0.10012674
0.070717685
0.049900574
0.035180655
0.024782275
0.017443465
0.012268471
0.008622319
0.0060553515
0.0042495066
0.002980018
0.0020881655
0.0014618959
13674.772
11722.365
9929.8168
8316.4887
6890.1308
5649.5466
4586.7495
3688.9697
2940.4483
2323.9467
1821.9413
1417.5057
1094.9117
839.98855
640.29186
485.12913
365.48507
273.88397
204.21776
151.56155
111.99156
82.415273
60.419249
44.136789
32.135883
23.326203
16.883265
12.187535
8.7761765
6.3052527
4.5204311
3.2344843
2.3101544
1.6471989
1.1726654
0.83363309
0.59182607
0.41963652
0.2972011
0.21026156
0.14860469
0.10492908
0.074024318
0.052178217
0.036750127
0.025864173
0.018189511
0.012783102
0.0089773983
0.0063003822
0.0044185799
0.0030965762
0.0021682099
22952.602
19736.87
16767.797
14081.865
11696.15
9612.3994
7820.4555
6301.5401
5031.2543
3982.1557
3125.8393
2434.5103
1882.0835
1444.8719
1101.9417
835.21209
629.3726
471.68235
351.70093
260.99024
192.81458
141.85726
103.96421
75.919705
55.255394
40.091198
29.005202
20.928949
15.064329
10.818412
7.7528911
5.5452375
3.9591122
2.8219977
2.0084082
1.4273633
1.0130962
0.7181956
0.50856804
0.35975296
0.25423763
0.17950777
0.12663662
0.089266676
0.062877043
0.044257118
0.03112972
0.02188157
0.015370931
0.010790549
0.007570182
0.0053072967
0.0037177613
41825.145
36111.836
30798.615
25960.197
21636.468
17838.966
14556.617
11761.436
9413.9024
7467.7032
5873.6585
4582.7692
3548.4184
2727.8158
2082.8111
1580.2126
1191.7427
893.74853
666.76428
494.99983
365.81229
269.19677
197.3197
144.10659
104.88823
76.104284
55.059711
39.728076
28.594977
20.534979
14.715974
10.525592
7.5150889
5.3569041
3.8127878
2.7100186
1.923756
1.3640134
0.96608885
0.68356567
0.48321427
0.3412902
0.24085606
0.16984892
0.11969007
0.084286706
0.05931692
0.041718345
0.029323247
0.020598607
0.014461158
0.010145981
0.0071129461
79846.124
69275.141
59359.838
50258.988
42066.78
34823.053
28522.969
23127.134
18571.511
14776.441
11654.333
9115.8288
7074.4043
5449.5328
4168.6099
3167.8767
2392.5867
1796.6404
1341.8818
997.20845
737.6125
543.23286
398.47095
291.19924
212.07506
153.9609
111.44512
80.452978
57.935807
41.625799
29.84485
21.357131
15.256449
10.880926
7.7488743
5.5109238
3.9144519
2.7772915
1.9684072
1.3937554
0.98597992
0.69692887
0.49223659
0.34741386
0.24503389
0.17271341
0.12166322
0.085651681
0.060264806
0.042378785
0.029784581
0.020920952
0.01468456
155209.36
135398.5
116635.73
99259.39
83487.773
69434.523
57124.428
46511.144
37495.385
29942.114
23695.71
18592.517
14470.558
11176.517
8570.2665
6527.3619
4939.9315
3716.4057
2780.4648
2069.524
1532.9997
1130.5359
830.31233
607.50484
442.93328
321.9063
233.25867
168.56528
121.51133
87.392164
62.721702
44.929408
32.12818
22.93792
16.352855
11.642793
8.2792756
5.8808774
4.1729702
2.9582604
2.0953018
1.4828806
1.0486831
0.74111972
0.52342108
0.36944253
0.26060776
0.18373013
0.12945918
0.09116992
0.064171868
0.045145115
0.031739453
300547.16
263728.71
228488.03
195530.1
165343.13
138217.31
114268.95
93470.259
75681.889
60684.919
48210.231
37963.651
29646.134
22968.875
17663.684
13489.262
10234.159
7717.2047
5786.19
4315.4372
3202.7607
2366.2045
1740.8374
1275.8028
931.67215
678.15284
492.15532
356.20014
257.1583
185.22958
133.13882
95.512597
68.401012
48.909991
34.923514
24.904174
17.73809
12.620161
8.9698338
6.3693921
4.5188763
3.2034338
2.2692781
1.6064358
1.1364963
0.80357064
0.56787288
0.40109574
0.283151
0.19978522
0.14089107
0.099309082
0.069969753
570356.5
503604.71
438918.5
377789.35
321257.62
270001.64
224370.83
184432.58
150027.36
120825.99
96384.509
76192.824
59715.309
46422.381
35813.249
27430.707
20869.254
15777.91
11859.128
8865.4028
6594.2335
4882.3043
3599.4235
2643.2007
1933.9785
1410.3861
1025.5364
743.677
537.9395
388.22706
279.58586
200.94419
144.16734
103.26925
73.869153
52.772025
37.656846
26.842882
19.116158
13.601782
9.6704157
6.870956
4.8787494
3.4619159
2.4549817
1.7398495
1.232288
0.87230671
0.61714811
0.43638509
0.30838753
0.21779395
0.15370891
1048438
931903.65
817081.41
707410.77
604972.57
511229.02
427051.01
352782.02
288324.97
233239.22
186838.06
148278.95
116641.61
90991.019
70424.844
54105.95
41282.357
31296.525
23584.775
17674.729
13177.77
9779.6755
7226.6655
5318.8233
3900.0563
2849.809
2075.9488
1508.0891
1092.8522
790.1612
570.12185
410.54436
295.24645
212.0294
152.06212
108.91915
77.927705
55.696475
39.769724
28.373333
20.226749
14.406864
10.253514
7.2924071
5.1830815
3.6816271
2.6135938
1.8543533
1.3149375
0.93189171
0.65998675
1852910.3
1657354.2
1462373.4
1273424.5
1095109.9
930377.52
781156.44
648434.77
532387.34
432530.36
347885.42
277138.59
218783.41
171240.49
132951.59
102444.96
78380.477
59581.592
45017.705
33820.224
25266.654
18783.593
13902.82
10248.611
7525.399
5511.3605
4025.1575
2932.0027
2130.5842
1544.8591
1118.013
807.83122
582.60668
419.51707
301.66385
216.64855
155.4163
111.37519
79.73722
57.034401
40.761722
29.109678
20.773842
14.815315
10.559321
7.5215087
5.3546033
3.8098587
2.7092537
1.9254805
1.367526
3137220
2819478.5
2504209
2192954
1895962.3
1618971.8
1365871.6
1138958.4
939107.03
765998.22
618378.06
494323.82
391493
307337.24
239289.51
184874.01
141770.19
107941.31
81666.166
61431.543
45965.932
34253.458
25421.35
18796.178
13853.985
10174.776
7450.1446
5440.602
3963.6324
2881.451
2090.7297
1514.3855
1095.124
790.76112
570.22388
410.69349
295.46675
212.35192
152.475
109.38718
78.412963
56.167694
40.20504
28.759975
20.560133
14.689409
10.488948
7.4853671
5.338837
3.8055887
2.7108366
5073412.4
4583772.3
4091855.3
3604286.5
3131588.5
2686635.6
2276583.7
1906109.3
1577549.4
1291191.4
1045654.2
838309.95
665703.8
523867.09
408473.38
315850.44
242353.04
184877.97
140209.58
105760.48
79406.844
59317.637
44119.27
32689.951
24138.997
17767.867
13040.735
9546.6548
6972.6812
5082.195
3697.4011
2685.4232
1947.4289
1410.2714
1019.9781
736.8429
531.7376
383.34987
276.12244
198.72148
142.90562
102.69187
73.743269
52.920426
37.953448
27.202919
19.485992
13.950025
9.9809212
7.1367139
5.0994878
7835995.8
7118069.7
6379116.1
5648143.3
4932034.9
4249107.9
3614402.4
3036680
2520990.8
2069022.3
1679625.9
1349444.5
1072792.6
844441.41
658896.2
510494.99
392923.24
300294.74
228085.92
172282.94
129484.92
96867.16
72164.459
53561.787
39622.4
29222.65
21494.34
15771.646
11547.519
8438.3352
6155.548
4483.2417
3260.5886
2368.2849
1718.1273
1245.0978
901.39683
651.96717
471.15178
340.20885
245.47127
176.98782
127.52287
91.821975
66.073657
47.516024
34.149632
24.528277
17.606759
12.630226
9.0538446
11570652
10562809
9510889.2
8447020.8
7413428.6
6411152.8
5470762.3
4608757.1
3834747.5
3153085.9
2563530.8
2059415.4
1636966.5
1290160
1008798.9
782239.46
602125.17
460350.15
349812.6
264363.45
198806.85
148846.63
111002.05
82489.276
61109.3
45144.812
33268.307
24462.07
17951.426
13150.385
9618.118
7024.5916
5123.7609
3732.87
2716.5999
1975.031
1434.5606
1041.0875
754.92107
546.99178
396.04156
286.54602
207.18203
149.70007
108.09613
78.004654
56.25416
40.54257
29.200142
21.016602
15.115284
16369119
15012849
13576042
12101666
10653293
9248839.7
7911017.6
6676917.5
5562908.9
4577931.8
3718871.8
2987382.4
2377563.3
1873617.6
1463479.7
1133791.7
871899.8
666044.25
505765.99
382026.85
287209.62
215031.68
160405.78
119273.68
88439.413
65414.066
48277.899
35562.152
26150.806
19200.847
14078.693
10310.232
7542.0018
5511.3386
4023.5857
2934.8299
2138.8936
1557.5821
1133.4012
824.13775
598.83781
434.83
315.52681
228.80389
165.80709
120.0759
86.900116
62.848188
45.421936
32.803836
23.672499
22249942
20497083
18611888
16654332
14686141
12783351
10961379
9261062.6
7718074.7
6347342.9
5152398
4138091.6
3287240
2585192.6
2014598.4
1557036.5
1194549.2
910473.84
689972.19
520251.6
390571.81
292113.41
217767.34
161891.04
120063.7
88859.423
65647.623
48423.792
35670.214
26243.842
19287.619
14161.299
10388.089
7613.8374
5576.071
4080.6204
2984.0754
2180.6619
1592.4599
1162.1301
847.51965
617.6676
449.85218
327.41126
238.13539
173.08419
125.7156
91.245684
66.178512
47.960967
34.730089
29151955
26970773
24585624
22074144
19517814
16994836
14599717
12344305
10281926
8439608.1
6843557.4
5480603.5
4339127.4
3399760.3
2638861.3
2031208.4
1552031.8
1178349.1
889746.34
668706.68
500614.34
373551.86
277984.94
206404.67
152973.29
113200.37
83661.682
61764.42
45556.422
33574.546
24726.143
18197.591
13384.431
9838.4131
7227.6153
5306.5451
3893.8107
2855.4938
2092.7961
1532.8751
1122.057
820.81447
600.05398
438.37303
320.03548
233.47762
170.20654
123.98818
90.249147
65.636515
47.696058
36941605
34322890
31405844
28286473
25069740
21860369
18755783
15874944
13207660
10817710
8739335.9
6968352
5489549.4
4277581.3
3300922.6
2525644.1
1918328.3
1448033.3
1087415.3
813180.83
606064.39
450510.16
334201.18
247539.08
183139.53
135379.67
100012.46
73850.263
54511.981
40225.405
29674.947
21885.809
16136.635
11894.07
8763.9744
6455.1874
4752.6598
3497.5779
2572.6678
1891.3373
1389.6558
1020.43
748.82857
549.14998
402.43485
294.70198
215.64514
157.67019
115.18347
84.064871
45429933
42391485
38935707
35176404
31244302
27274178
23390315
19760419
16413510
13403581
10777590
8543860.9
6686014.2
5171814.1
3959939.3
3005532.9
2264386.8
1695736.5
1263819.9
938463.86
694992.08
513724.82
379281.76
279835.87
206408.01
152248.4
112320.94
82888.573
61188.76
45184.396
33375.464
24658.147
18220.237
13463.901
9948.846
7350.5757
5429.7523
4009.7174
2959.9875
2184.1278
1610.8323
1187.3563
874.6751
643.91084
473.69401
348.21234
255.76774
187.708
137.63564
100.81981
54394081
50982999
47010325
42605244
37925593
33142500
28425415
23933093
19831852
16137630
12896771
10149959
7877211.8
6037552
4577542.8
3438851.4
2564056.9
1900517
1402469.3
1031749.1
757560.74
555702.78
407551.96
299013.18
219554.09
161379.56
118759.75
87502.18
64547.589
47666.396
35233.845
26065.041
19294.716
14289.933
10586.824
7844.7673
5813.1656
4307.3254
3190.9054
2363.1163
1749.3607
1294.3718
957.17253
707.36298
522.38118
385.47841
284.22048
209.37674
154.09584
113.29458
63598606
59891064
55453403
50425326
44990684
39359428
33748016
28359155
23358947
18928457
15041469
11738671
9021646.3
6839600.8
5124643.8
3802209.4
2799029.5
2048391.8
1492910.6
1085358
788203.95
572443.16
416147
303017.78
221098.33
161697.53
118537.78
87101.647
64143.554
47331.552
34987.847
25902.528
19200.543
14246.947
10579.45
7860.325
5842.0488
4342.6667
3228.0621
2399.1444
1782.5518
1323.8772
982.71432
729.02119
540.44279
400.33417
296.29711
219.09468
161.84483
119.4276
72813502
68911942
64090392
58491604
52321797
45830562
39286436
32948891
27041387
21733822
17161781
13278344
10093053
7556984.8
5585195
4083945.6
2961334.2
2134309.6
1532256.8
1097904.6
786500.59
564089.53
405496.71
292386.02
211577.27
153683.45
112057.89
82008.054
60222.756
44362.272
32768.534
24261.897
17999.185
13374.702
9951.1135
7411.0667
5523.1794
4118.0108
3070.9888
2290.2087
1707.6613
1272.8908
948.38388
706.20136
525.50632
390.74231
290.28622
215.44805
159.72292
81827742
77855686
72757271
66668332
59811028
52473121
44979071
37653620
30784912
24594767
19216307
14746422
11080817
8183391.6
5956359.1
4284026.2
3053026.4
2161689.4
1524638.9
1073712.7
756602.79
534399.67
378856.23
269843.89
193213.34
139110.32
100709.51
73294.183
53603.169
39375.573
29037.002
21484.877
15942.022
11856.844
8835.1126
6593.1484
4925.5016
3682.4936
2754.4909
2060.8091
1541.8219
1153.3096
862.38009
644.507
481.36605
359.24528
267.87209
199.54315
148.47111
90458437
86553456
81305748
74832111
67361394
59215236
50775704
42439925
34571049
27457059
21273360
16109004
11988146
8724956.2
6245957.5
4411485.9
3083741.9
2140143.1
1479132.3
1020975.1
705639.24
489391.46
341181.02
239389.64
169179.06
120461.34
86414.782
62434.379
45407.203
33220.636
24432.357
18050.319
13386.429
9959.1563
7428.4847
5552.2087
4156.3599
3115.0203
2336.4161
1753.2451
1315.8847
987.57751
740.98919
555.72608
416.53229
311.97102
233.45414
174.52372
130.31742
98556255
94861936
89606119
82872966
74886157
65993869
56634743
47283528
38387424
30307519
23295768
17440857
12801833
9196868.6
6468424.7
4480677.5
3067305.2
2082447.6
1407102.1
949470.46
641790.02
435749.28
297829.25
205252.16
142771.17
100281.95
71124.541
50915.378
36763.094
26750.882
19598.535
14443.128
10696.943
7955.282
5936.3526
4441.7958
3330.5343
2501.2669
1880.6198
1415.0349
1065.153
801.87928
603.59946
454.1893
341.57867
256.70688
192.75688
144.58937
108.3292
1.0600785e+08
1.0266565e+08
97548829
90694651
82307723
72752517
62520360
52167196
42234873
33175995
25302996
18756526
13548588
9590461.8
6639665.4
4507518.8
3018523.2
2001765.5
1319828.7
868575
572653.85
379505.81
253512.59
171065.53
116766.91
80681.122
56433.844
39940.847
28578.308
20650.427
15051.512
11052.73
8167.6891
6067.4953
4526.7543
3388.959
2544.0678
1913.8054
1441.9011
1087.5199
820.78097
619.66217
467.83293
353.12065
266.41287
200.86373
151.31417
113.86045
1.1273584e+08
1.0987772e+08
1.0504525e+08
98214837
89556805
79439117
68398770
57073427
46106683
36051644
27299151
20039309
14292384
9930597.1
6764525.3
4507161.2
2950934.8
1909708.7
1226908.1
785977.89
504240.35
325266.04
211706.96
139425.59
93092.078
63083.141
43395.877
30291.19
21433.238
15352.884
11116.829
8124.7007
5984.7235
4437.2787
3307.5942
2476.173
1860.0893
1400.9943
1057.3114
799.07875
604.4891
457.53277
346.36916
262.18606
198.39078
150.02975
113.36691
85.567283
1.1869687e+08
1.1643932e+08
1.1202793e+08
1.0536541e+08
96572247
86005121
74236747
61984009
49997147
38939157
29289284
21306226
15013744
10276426
6854721.1
4487221.5
2875525
1815355.5
1135514.1
707154.6
440614.32
275980.47
174517.03
111815.46
72784.762
48213.658
32519.866
22326.786
15586.007
11045.814
7932.8821
5762.7023
4226.7533
3125.0849
2325.7313
1740.0071
1307.2701
985.37473
744.59384
563.6787
427.26206
324.1164
245.96657
186.66804
141.62977
107.40364
81.387881
61.606731
1.2387814e+08
1.2231802e+08
1.1845015e+08
1.1209277e+08
1.0330138e+08
92405480
80001081
66878902
53898641
41842775
31293861
22571074
15725566
10611805
6958186.5
4450436.7
2798449.1
1725064.6
1050341.6
635419.95
384023.9
233112.93
142856.25
88779.708
56153.177
36236.223
23885.073
16080.579
11046.033
7728.1049
5494.9818
3961.8628
2890.1288
2128.8471
1580.5505
1180.9792
886.90946
668.71583
505.74047
383.35452
291.05631
221.21698
168.23772
127.97375
97.334216
74.000085
56.221589
42.669874
1.282929e+08
1.2750512e+08
1.2428498e+08
1.1835788e+08
1.0970061e+08
98599261
85658833
71735756
57799205
44757955
33306714
23838501
16436342
10945349
7061933.5
4431320
2717028.3
1642701.3
973949.64
572309.64
335287.7
197005.24
116773.14
70205.526
43011.066
26944.869
17295.478
11380.468
7669.697
5284.018
3712.2108
2652.1443
1921.7307
1408.7947
1042.6058
777.50417
583.33205
439.73613
332.70532
252.42137
191.8952
146.08316
111.30239
84.836648
64.665577
49.275757
37.525927
28.549511
1.3197531e+08
1.3201232e+08
1.2952351e+08
1.2413595e+08
1.1573598e+08
1.0455054e+08
91178219
76530677
61683935
47677851
35328093
25110562
17151216
11282527
7170907.3
4419810.8
2651637.8
1565621.8
907339.79
518078.15
294253.62
167278.91
95790.751
55602.485
32903.75
19943.926
12421.043
7959.2476
5245.2836
3548.4711
2457.3919
1736.4768
1248.0063
909.52152
670.36368
498.57858
373.48105
281.34763
212.86519
161.58364
122.95475
93.720881
71.517164
54.607072
41.703117
31.842941
24.301639
18.528973
1.3497522e+08
1.3586788e+08
1.3417257e+08
1.2941559e+08
1.2138335e+08
1.1022925e+08
96529671
81239239
65535775
50593003
37355773
26393792
17873096
11626163
7287600.7
4418191
2601589.7
1496402.3
847875.22
472127.68
260213.16
143179.01
79184.123
44322.825
25280.577
14781.504
8900.1912
5532.8438
3552.5447
2352.3219
1601.5206
1116.9571
794.92676
575.20488
421.82164
312.65574
233.70091
175.83888
132.97884
100.95696
76.867893
58.648132
44.809532
34.264877
26.211138
20.049702
15.330389
11.711682
1.3735299e+08
1.3911263e+08
1.3825215e+08
1.3419745e+08
1.2662827e+08
1.1561181e+08
1.0168684e+08
85837533
69336307
53491241
39382476
27680775
18600935
11976912
7412712.3
4426157.4
2560556.1
1442367.6
795288.67
432981.89
232242.05
123823.86
66171.024
35706.528
19604.123
11030.972
6400.3033
3845.1878
2396.0311
1547.2304
1032.4096
708.91697
498.66609
357.75888
260.76269
192.46299
143.45843
107.75514
81.418835
61.79836
47.065333
35.933195
27.480923
21.039473
16.116826
12.347396
9.456821
7.2371381
1.3917478e+08
1.4179602e+08
1.417924e+08
1.3849258e+08
1.3146537e+08
1.2068137e+08
1.0662739e+08
90303171
73066801
56359058
41399732
28967402
19331525
12334019
7545869.4
4443174.8
2528617.7
1397421
753728.24
398888.05
209354.16
108353.02
56021.566
29160.289
15406.043
8329.9806
4644.8341
2687.0761
1618.3105
1015.0372
661.45075
445.88945
309.31835
219.66516
158.94448
116.71536
86.696426
64.974372
49.029892
37.192184
28.323735
21.632326
16.555423
12.686984
9.7298683
7.4641041
5.725034
4.3879836
1.4050817e+08
1.4397213e+08
1.4483083e+08
1.4232045e+08
1.3589737e+08
1.2542773e+08
1.1133349e+08
94616096
76709118
59182464
43398239
30248868
20065234
12696107
7686021.3
4468315.5
2504995.6
1360421.4
719175.74
371656.34
190163.43
96015.654
48108.046
24189.242
12306.158
6391.1553
3418.7891
1898.6003
1100.7367
667.71207
423.22635
279.13857
190.46895
133.63412
95.858495
69.962277
51.7508
38.676617
29.134665
22.07914
16.80813
12.83832
9.8295825
7.5381295
5.7865236
4.4439581
3.4128102
2.6192628
1.4141905e+08
1.4569619e+08
1.4740949e+08
1.4570698e+08
1.3993397e+08
1.2984691e+08
1.1579201e+08
98759148
80246408
61947607
45368043
31518506
20796032
13060839
7831678.8
4500394.7
2488618.8
1330226.4
690556.84
349824.44
174126.33
85904.619
41908.886
20399.948
10010.355
4997.1463
2562.754
1363.2239
758.11032
442.81284
271.7922
174.70032
116.88713
80.834174
57.388878
41.583113
30.605609
22.796521
17.13478
12.968079
9.8655016
7.5340363
5.7695088
4.4266975
3.4005366
2.6139288
2.0095307
1.5440521
1.2029448e+08
1.2791404e+08
1.3534349e+08
1.4197646e+08
1.4702654e+08
1.4957382e+08
1.4868284e+08
1.4359047e+08
1.3394049e+08
1.1999444e+08
1.0271838e+08
83663634
64641357
47299244
32769616
21519921
13425526
7981142.1
4538123.3
2478361.5
1305753.2
666781.44
331604.91
161527.69
77491.627
37004.551
17492.265
8298.893
3989.0078
1962.4782
998.92405
531.40209
297.64958
176.07951
109.80666
71.772223
48.787338
34.214029
24.579051
17.983799
13.341555
10.001404
7.556581
5.7430931
4.3839224
3.3570565
2.5764429
1.9802304
1.5232626
1.1720802
0.90147
1.1911032e+08
1.2707993e+08
1.3499242e+08
1.4223829e+08
1.4801806e+08
1.5136961e+08
1.5128148e+08
1.4688647e+08
1.377148e+08
1.239366e+08
1.0648317e+08
86947909
67251729
49182416
33995646
22232707
13786998
8132664.7
4580217.1
2473148
1286036.3
646983.59
316393.86
151171.47
70876.357
33026.923
15244.798
7011.2846
3253.1233
1538.0156
749.40627
380.7816
203.83286
115.67543
69.643915
44.276401
29.483211
20.374669
14.488282
10.526818
7.7725746
5.8082355
4.3793871
3.3241666
2.5357189
1.9412766
1.4899938
1.1455843
0.88170444
0.67891692
0.52260069
1.1783207e+08
1.2610829e+08
1.3445208e+08
1.4225998e+08
1.4872247e+08
1.5284166e+08
1.5353762e+08
1.4984451e+08
1.4118002e+08
1.2761817e+08
1.1004616e+08
90088675
69768176
51008909
35190449
22930625
14144103
8284658.5
4625467.2
2472000.3
1270239.8
630454.1
303651.54
142607.08
65612.188
29778.803
13455.932
6030.591
2709.3216
1234.3019
576.7054
279.87948
142.86463
77.455823
44.791073
27.560081
17.904575
12.156538
8.5394937
6.1533391
4.5180901
3.3636792
2.529977
1.9173681
1.4612372
1.1181708
0.8581427
0.65989211
0.50808019
0.39144795
0.30152835
1.1649987e+08
1.2504322e+08
1.3377139e+08
1.4209109e+08
1.4918734e+08
1.5403268e+08
1.5548598e+08
1.5248894e+08
1.443493e+08
1.3104219e+08
1.13403e+08
93077739
72181749
52771029
36348347
23609786
14493518
8435523.4
4672767.6
2474055.1
1257652.7
616610.41
292925.96
135462.69
61264.273
27243.57
12000.951
5273.095
2301.622
1013.8
455.51089
211.46303
102.86458
53.11498
29.357756
17.388084
10.967929
7.2897823
5.0460136
3.6002082
2.62608
1.9465561
1.4598693
1.1043034
0.84061488
0.64283489
0.49320471
0.37925418
0.29205524
0.22511212
0.17350572
1.1514741e+08
1.2392226e+08
1.3299163e+08
1.4177487e+08
1.4945559e+08
1.5498253e+08
1.5716037e+08
1.5484497e+08
1.472379e+08
1.3421444e+08
1.1655214e+08
95909206
74485170
54462162
37464311
24266788
14833200
8583855
4721139.6
2478566.5
1247677.3
604975.44
283850.22
129458.08
57652.443
25190.646
10858.261
4666.8618
1991.2056
851.05946
369.0579
164.3586
76.273616
37.453126
19.705516
11.172475
6.8049246
4.4078518
2.9971899
2.1130865
1.5292965
1.1277582
0.84293859
0.6362273
0.48362594
0.36952404
0.2833789
0.2178435
0.16771152
0.1292959
0.099716881
1.1380196e+08
1.2277631e+08
1.3214733e+08
1.4134846e+08
1.4956523e+08
1.5572767e+08
1.5859294e+08
1.5693783e+08
1.4986249e+08
1.3714293e+08
1.1949441e+08
98579333
76672821
56076837
38534028
24898652
15161255
8728426.2
4769735.2
2484899.4
1239815.7
595159.62
276129.51
124376.48
54628.987
23502.975
9954.5873
4175.2058
1750.0754
728.83968
306.26906
131.34619
58.305839
27.236034
13.604657
7.3462997
4.2949464
2.6970064
1.794438
1.2469334
0.89398264
0.65525401
0.48783603
0.36725992
0.27870834
0.21273111
0.16302899
0.12521345
1.1220894e+08
1.216302e+08
1.3126694e+08
1.4084338e+08
1.4954948e+08
1.5630099e+08
1.5981369e+08
1.5879213e+08
1.5224046e+08
1.3983729e+08
1.2223268e+08
1.0108634e+08
78740684
57610730
39553940
25502869
15476055
8868195.6
4817833.6
2492519.8
1233654.8
586845.32
269527.46
120048.49
52078.798
22099.668
9215.293
3791.6043
1557.4692
635.68372
259.82095
107.75745
45.933945
20.457345
9.6945517
4.9660708
2.7703369
1.6763305
1.0861356
0.74147554
0.52555932
0.38242373
0.28339502
0.21271259
0.16111321
0.12282274
0.094042746
1.1092392e+08
1.2050331e+08
1.3037357e+08
1.4028603e+08
1.4943698e+08
1.5673171e+08
1.6085022e+08
1.6043143e+08
1.5438943e+08
1.4230835e+08
1.2477152e+08
1.0343019e+08
80686228
59060636
40521246
26077405
15776251
9002229
4864831.1
2500983.7
1228854.2
579773.63
263854.26
116340.85
49912.786
20922.413
8605.3847
3487.2414
1401.1036
562.95691
224.78992
90.557092
37.237653
15.871359
7.1456553
3.4650674
1.8347496
1.0629072
0.6668248
0.44538782
0.3112998
0.22453615
0.16547841
0.12377282
0.093539271
0.071208517
0.054467711
1.0969594e+08
1.194108e+08
1.2948572e+08
1.396982e+08
1.4925216e+08
1.5704549e+08
1.6172752e+08
1.6187791e+08
1.563268e+08
1.4456767e+08
1.271168e+08
1.0561233e+08
82508282
60424405
41433877
26620696
16060785
9129777.5
4910238.2
2509926
1225133.7
573733.34
258956.98
113148.05
48061.623
19927.221
8097.2031
3237.2364
1278.6439
504.60941
197.94948
77.762563
30.99192
12.701551
5.4511389
2.5027256
1.2531156
0.69062571
0.41678599
0.27098322
0.18614495
0.13282771
0.097245984
0.072438807
0.0546028
0.041500273
0.031709702
1.0853345e+08
1.1836407e+08
1.2861795e+08
1.3909771e+08
1.4901557e+08
1.5726463e+08
1.6246802e+08
1.6315213e+08
1.5806944e+08
1.4662722e+08
1.2927544e+08
1.0763549e+08
84206886
61700858
42290451
27131622
16328904
9250540
4953675
2519050.2
1222264.2
568551.95
254711.92
110385.94
46470.934
19080.33
7670.1698
3030.2152
1181.0708
456.9348
176.9292
68.052474
26.407577
10.460484
4.29983
1.8737636
0.88580355
0.4619259
0.26629709
0.16751038
0.11260899
0.079291419
0.057585639
0.042686294
0.032078838
0.024335469
0.018572092
1.074417e+08
1.1737126e+08
1.2778142e+08
1.3849882e+08
1.4874435e+08
1.5740832e+08
1.6309161e+08
1.64273e+08
1.596335e+08
1.4849909e+08
1.3125507e+08
1.0950344e+08
85783132
62889696
43090219
27609470
16580046
9363950.9
4994834.8
2528118.4
1220058.5
564088.35
251018.53
107986.97
45097.708
18355.531
7308.7149
2857.2474
1100.6555
419.36089
160.01783
60.559004
22.971688
8.8393372
3.4992597
1.4537654
0.64956107
0.3193683
0.1746941
0.10557526
0.069088843
0.047843742
0.034402985
0.025351616
0.018983991
0.014370098
0.010951917
1.064231e+08
1.1643773e+08
1.2698444e+08
1.3791285e+08
1.4845261e+08
1.5749289e+08
1.6361579e+08
1.6525768e+08
1.6103418e+08
1.5019524e+08
1.3306383e+08
1.1122079e+08
87239015
63991393
43833004
28053895
16813887
9469756.4
5033493.4
2536943
1218364.9
560226.9
247794.68
105896.48
43907.627
17732.261
7000.9037
2711.6362
1033.8736
389.12632
146.27731
54.667317
20.344083
7.6400207
2.9292092
1.1667435
0.4944579
0.22898797
0.11818676
0.068111689
0.043111495
0.029234939
0.020762212
0.015189229
0.011325777
0.0085512232
0.0065069716
1.0547744e+08
1.1525526e+08
1.262329e+08
1.3734854e+08
1.4815181e+08
1.5753213e+08
1.6405582e+08
1.6612163e+08
1.6228571e+08
1.5172736e+08
1.3471017e+08
1.1279279e+08
88577285
65007102
44519136
28464891
17030306
9567811.3
5069495.5
2545379.3
1217060.4
556872.66
244972.9
104069.95
42873.067
17194.224
6737.4699
2588.281
978.00109
364.58791
134.88602
49.910605
18.297322
6.7338658
2.513697
0.96583038
0.39031663
0.1705793
0.08278776
0.045173379
0.027451501
0.018130529
0.012675149
0.0091897884
0.0068168842
0.0051312638
0.0038975924
73267177
77401036
82575821
88634822
95950372
1.0460322e+08
1.1443992e+08
1.255309e+08
1.3681254e+08
1.4785118e+08
1.5753758e+08
1.6442493e+08
1.6687873e+08
1.6340125e+08
1.5310671e+08
1.3620266e+08
1.142252e+08
89801308
65938546
45149386
28842744
17229364
9658067.8
5102743.9
2553318.1
1216046.3
553947.47
242497.49
102470.83
41971.602
16728.378
6511.131
2483.2448
930.92289
344.06152
125.79089
46.022169
16.681725
6.0361625
2.204028
0.82177447
0.31871955
0.13202751
0.060222802
0.030932685
0.017905832
0.011441685
0.0078408712
0.0056202931
0.0041425883
0.0031069119
0.0023548781
72517948
76621172
81771437
87814508
95121315
1.0380206e+08
1.1369041e+08
1.248813e+08
1.3630981e+08
1.4755801e+08
1.5751881e+08
1.6473451e+08
1.6754129e+08
1.6439295e+08
1.5434407e+08
1.3754985e+08
1.1552408e+08
90914941
66787929
45724899
29187994
17411268
9740563.1
5133190.4
2560680.3
1215243.4
551386.84
240322.18
101068.88
41184.866
16324.183
6316.0971
2393.4543
891.04321
326.83145
118.39533
42.814989
15.384983
5.4894419
1.9684615
0.71606443
0.26829763
0.1060021
0.045560095
0.021953316
0.012013873
0.0073705315
0.0049241142
0.003478729
0.0025435489
0.0018992068
0.001435774
71844131
75919487
81046952
87075298
94372298
1.0307427e+08
1.130073e+08
1.2428581e+08
1.3584384e+08
1.4727795e+08
1.5748369e+08
1.6499429e+08
1.6812026e+08
1.6527193e+08
1.5544964e+08
1.3876022e+08
1.1669573e+08
91922421
67557846
46247137
29501394
17576360
9815406.6
5160827.6
2567411.2
1214588.7
549137.35
238408.31
99838.928
40497.69
15973.039
6147.7148
2316.4812
857.12939
312.3118
112.34718
40.116078
14.321308
5.0545384
1.785993
0.63680819
0.23193978
0.088016832
0.035831251
0.016193674
0.00832642
0.0048642227
0.0031471758
0.0021820878
0.0015792246
0.0011726304
0.00088382504
71241339
75291655
80398319
86413385
93700194
1.0241868e+08
1.1239009e+08
1.2374509e+08
1.3541694e+08
1.470153e+08
1.5743859e+08
1.6521258e+08
1.6862528e+08
1.6604831e+08
1.5643307e+08
1.3984202e+08
1.1774658e+08
92828259
68251197
46717816
29783873
17725084
9882766.9
5185681.5
2573476.4
1214032.4
547154.6
236723.36
98759.834
39897.443
15667.863
6002.2049
2250.3844
828.21328
300.02877
107.25386
37.946451
13.441818
4.7056087
1.642518
0.57623349
0.20513156
0.075294465
0.029233589
0.012429809
0.005983977
0.0033022418
0.0020528656
0.0013896434
0.00099256892
0.00073180655
0.00054946526
70705874
74733921
79821883
85825040
93101772
1.0183317e+08
1.1183747e+08
1.2325898e+08
1.3503044e+08
1.467732e+08
1.5738865e+08
1.6539637e+08
1.6906482e+08
1.6673132e+08
1.573034e+08
1.408033e+08
1.1868308e+08
93637161
68871121
47138857
30036505
17857972
9942861.3
5207805.2
2578857.6
1213535.2
545401.54
235239.83
97813.722
39373.519
15402.773
5876.4679
2193.595
803.5251
289.61413
102.96304
36.17212
12.712772
4.4225706
1.5282137
0.52915867
0.18496028
0.066089628
0.024658499
0.0099211136
0.0044710587
0.0023155465
0.0013713668
0.00090041824
0.00063221084
0.00046194065
0.00034516607
70234065
74242509
79313872
85306428
92573649
1.01315e+08
1.1134753e+08
1.2282667e+08
1.3468484e+08
1.4655384e+08
1.5733791e+08
1.6555159e+08
1.6944635e+08
1.6732932e+08
1.580691e+08
1.4165179e+08
1.1951162e+08
94353955
69420933
47512338
30260474
17975626
9995946.3
5227274
2583549.8
1213066.9
543847.2
233934.32
96985.387
38916.952
15172.843
5767.9394
2144.8326
782.44576
280.7766
99.34668
34.711112
12.101928
4.1905671
1.4361442
0.49206697
0.16951462
0.059290737
0.021415967
0.0082146487
0.0034772394
0.0016833361
0.00094195323
0.00059515935
0.00040870767
0.00029516366
0.00021922723
69822230
73813595
78870411