/*--------------------------------*- C++ -*----------------------------------*\
| =========                 |                                                 |
| \\      /  F ield         | OpenFOAM: The Open Source CFD Toolbox           |
|  \\    /   O peration     | Version:  2312                                  |
|   \\  /    A nd           | Website:  www.openfoam.com                      |
|    \\/     M anipulation  |                                                 |
\*---------------------------------------------------------------------------*/
FoamFile
{
    version     2.0;
    format      ascii;
    arch        "LSB;label=32;scalar=64";
    class       volScalarField;
    location    "0.01";
    object      T;
}
// * * * * * * * * * * * * * * * * * * * * * * * * * * * * * * * * * * * * * //

dimensions      [0 0 0 1 0 0 0];

internalField   nonuniform List<scalar> 
3272
(
518.36063
517.60225
516.70692
515.688
514.55712
513.32532
512.0032
510.6009
509.12803
507.59374
506.00661
504.37471
502.70556
501.00616
499.28296
497.54194
495.78856
494.02781
492.26423
490.50195
488.74468
486.99576
485.25819
483.53464
481.82749
480.13883
478.47053
476.8242
475.20125
473.6029
472.03019
470.48402
468.96511
467.47407
466.01139
464.57742
463.17243
461.79657
460.44992
459.13245
457.84408
456.58464
455.35388
454.15151
452.97716
451.83041
450.71079
449.61778
448.55079
447.50918
446.49223
445.49907
444.52865
521.84892
521.10707
520.22562
519.21782
518.09533
516.86931
515.55047
514.14909
512.67497
511.13738
509.5451
507.90635
506.22881
504.51965
502.78547
501.0324
499.26602
497.49148
495.71343
493.93612
492.16336
490.3986
488.64493
486.90509
485.18153
483.47643
481.79169
480.12898
478.48976
476.87528
475.28663
473.72472
472.19032
470.68405
469.20641
467.75778
466.33844
464.94856
463.58821
462.2574
460.95602
459.68393
458.44088
457.22659
456.04069
454.88279
453.75243
452.64911
451.5723
450.52145
449.49599
448.4952
447.51722
528.25044
527.54396
526.69249
525.70943
524.60665
523.39551
522.087
520.69166
519.21955
517.68026
516.08282
514.43576
512.74706
511.02415
509.27393
507.50276
505.71652
503.92055
502.11977
500.3186
498.52107
496.7308
494.95104
493.18468
491.43432
489.70224
487.99046
486.30074
484.63462
482.99343
481.37833
479.79027
478.23008
476.69843
475.19585
473.72276
472.27946
470.86613
469.48288
468.12973
466.80658
465.51331
464.24969
463.01544
461.81023
460.63365
459.48528
458.36463
457.27122
456.2045
455.16391
454.14872
453.15697
537.05253
536.40136
535.59789
534.65571
533.58695
532.40327
531.11596
529.7359
528.27352
526.73877
525.14108
523.48934
521.79191
520.0566
518.29068
516.50086
514.69336
512.87385
511.04755
509.21917
507.39301
505.57293
503.76241
501.96456
500.18215
498.41764
496.67319
494.9507
493.25184
491.57804
489.93053
488.31038
486.71847
485.15554
483.62219
482.11887
480.64592
479.20357
477.79194
476.41108
475.06093
473.74137
472.4522
471.19317
469.96396
468.7642
467.59345
466.45129
465.33723
464.25076
463.19134
462.15825
461.1495
547.79587
547.22124
546.48566
545.60285
544.5852
543.44468
542.19293
540.84119
539.40029
537.8806
536.29196
534.64373
532.94469
531.20309
529.42663
527.62245
525.79716
523.95685
522.10707
520.25292
518.399
516.5495
514.70816
512.87836
511.06311
509.26508
507.48663
505.72982
503.99647
502.28814
500.60619
498.95179
497.32593
495.72944
494.163
492.62712
491.12218
489.64847
488.20613
486.79525
485.4158
484.06771
482.75082
481.46491
480.20967
478.98475
477.78975
476.62425
475.4878
474.37994
473.30018
472.24783
471.22095
560.06552
559.58965
558.9433
558.14026
557.19312
556.11414
554.91526
553.60811
552.20391
550.71344
549.14702
547.51444
545.82497
544.08733
542.30967
540.49963
538.66425
536.81006
534.94305
533.06871
531.19203
529.31753
527.4493
525.59102
523.74596
521.91709
520.10698
518.31792
516.55187
514.81055
513.09545
511.40787
509.74897
508.11972
506.52089
504.95305
503.41666
501.91201
500.43932
498.9987
497.59017
496.21372
494.86927
493.55667
492.27561
491.02576
489.80673
488.6181
487.45946
486.33043
485.23061
484.15944
483.11503
573.48569
573.13133
572.59648
571.8949
571.03934
570.04224
568.91584
567.67209
566.32257
564.87847
563.35054
561.74902
560.08366
558.36365
556.59766
554.79378
552.95955
551.10198
549.22751
547.34206
545.45107
543.55946
541.67165
539.79165
537.92306
536.06918
534.23293
532.41678
530.62287
528.85304
527.10889
525.3919
523.70347
522.04487
520.41694
518.82029
517.2554
515.72263
514.22223
512.75432
511.31898
509.91629
508.54635
507.20926
505.90455
504.63186
503.39083
502.18098
501.00192
499.85332
498.73513
497.6471
496.58753
587.71756
587.50719
587.10631
586.52848
585.78647
584.89285
583.86006
582.70028
581.42541
580.04699
578.57616
577.0236
575.39948
573.7135
571.97477
570.19188
568.37288
566.52526
564.65594
562.77131
560.87729
558.97925
557.08197
555.18972
553.30646
551.43592
549.58163
547.74622
545.93193
544.14062
542.3739
540.63328
538.92072
537.23842
535.58693
533.96677
532.37845
530.82238
529.29887
527.80803
526.3497
524.92422
523.53201
522.17276
520.84663
519.55369
518.294
517.06673
515.87137
514.70748
513.57464
512.47299
511.40377
602.4579
602.41335
602.16845
601.73652
601.13021
600.36211
599.44474
598.39046
597.21137
595.91931
594.52573
593.04169
591.47778
589.84409
588.15021
586.40519
584.61757
582.79539
580.94599
579.07617
577.19241
575.30088
573.40655
571.51372
569.6264
567.74896
565.887
564.04247
562.21757
560.41419
558.63361
556.87621
555.145
553.44209
551.76934
550.12797
548.51881
546.94251
545.39964
543.89063
542.41567
540.97698
539.57319
538.20307
536.86599
535.56144
534.28888
533.04859
531.84037
530.66378
529.51802
528.40132
527.30789
617.44005
617.58097
617.51307
617.24835
616.79933
616.17847
615.39827
614.47114
613.40932
612.22482
610.92937
609.53431
608.05056
606.48859
604.85837
603.16933
601.43048
599.65077
597.83772
595.99804
594.13846
592.26827
590.39146
588.51185
586.63218
584.75536
582.88757
581.03428
579.19886
577.38375
575.59055
573.81896
572.08324
570.3784
568.70377
567.05984
565.44737
563.86709
562.31969
560.80615
559.32651
557.87788
556.46091
555.07649
553.72496
552.40635
551.12055
549.86751
548.64702
547.45876
546.30233
632.43438
632.77738
632.90505
632.82734
632.55593
632.10302
631.48093
630.702
629.77851
628.72259
627.5461
626.26061
624.87729
623.40685
621.85961
620.24516
618.57236
616.85359
615.09541
613.30261
611.47365
609.62185
607.75721
605.8841
604.00193
602.14234
600.29661
598.46475
596.64915
594.85289
593.07982
591.33622
589.61117
587.91083
586.23792
584.59407
582.98043
581.39793
579.84681
578.32703
576.83949
575.3848
573.96339
572.57548
571.22115
569.90038
568.61307
567.35908
566.13817
564.94999
563.79355
647.2397
647.80623
648.14349
648.27065
648.19544
647.92958
647.48509
646.87415
646.10897
645.20172
644.16435
643.00857
641.74567
640.38626
638.9414
637.42102
635.82665
634.16163
632.44448
630.68553
628.89202
627.09522
625.28899
623.478
621.67459
619.86073
618.04864
616.24456
614.45286
612.67727
610.92109
609.18695
607.47469
605.78636
604.12395
602.48911
600.88308
599.30681
597.76133
596.24734
594.76548
593.31624
591.89979
590.5165
589.16657
587.85008
586.56702
585.31728
584.1007
582.917
581.7654
661.69673
662.4988
663.06274
663.40862
663.54608
663.48429
663.23494
662.80993
662.22135
661.48136
660.60203
659.59516
658.47241
657.24205
655.89132
654.44061
652.90176
651.32939
649.71352
648.0606
646.38793
644.6728
642.93276
641.17792
639.41544
637.64666
635.87689
634.11128
632.35431
630.60989
628.88136
627.17141
625.48193
623.81493
622.1723
620.55574
618.96666
617.40628
615.87567
614.3757
612.9071
611.47045
610.06617
608.6946
607.35599
606.05049
604.77815
603.53893
602.33275
601.15942
600.01847
675.67429
676.72059
677.52969
678.10533
678.46775
678.62454
678.5855
678.36208
677.96616
677.40999
676.70575
675.86496
674.87164
673.73827
672.49454
671.19079
669.83283
668.39081
666.88545
665.32929
663.73199
662.09638
660.43095
658.74382
657.04174
655.32978
653.6131
651.8967
650.18515
648.48251
646.79237
645.11775
643.46125
641.82515
640.21155
638.62228
637.05894
635.52293
634.01543
632.53747
631.08987
629.67333
628.28838
626.93546
625.61487
624.32684
623.07147
621.84882
620.65886
619.50151
618.37658
689.07357
690.37275
691.43106
692.25626
692.85015
693.23718
693.42118
693.41246
693.22264
692.86442
692.35075
691.64273
690.77885
689.82777
688.79634
687.652
686.4183
685.10182
683.714
682.26554
680.76569
679.22203
677.64264
676.03523
674.40676
672.76335
671.11067
669.45395
667.79803
666.14723
664.50542
662.87598
661.26187
659.66573
658.08987
656.53635
655.00694
653.50322
652.02653
650.578
649.15861
647.76915
646.41026
645.08248
643.78618
642.52167
641.28913
640.08868
638.92036
637.78419
636.68028
701.82213
703.37967
704.69425
705.77333
706.61317
707.23627
707.6538
707.87028
707.89701
707.74879
707.38519
706.86445
706.24759
705.48926
704.61178
703.62139
702.53054
701.34967
700.08944
698.76006
697.37105
695.9312
694.44892
692.93218
691.3883
689.82394
688.24526
686.65789
685.06696
683.47715
681.89263
680.31711
678.75389
677.20589
675.6757
674.16557
672.67752
671.21327
669.77432
668.36196
666.97728
665.62121
664.29448
662.99771
661.73139
660.49588
659.29146
658.11832
656.97655
655.86626
654.78787
713.8714
715.68973
717.26356
718.598
719.699
720.56528
721.22047
721.67002
721.91862
721.9717
721.82033
721.54975
721.12132
720.54773
719.8422
719.0156
718.07938
717.04459
715.92197
714.72188
713.45418
712.12819
710.75276
709.3362
707.88624
706.41002
704.91413
703.40459
701.88692
700.36613
698.84673
697.33276
695.82784
694.33516
692.85757
691.39758
689.95738
688.5389
687.14379
685.77351
684.42927
683.1121
681.82287
680.56229
679.33094
678.12926
676.9576
675.81621
674.70528
673.62501
672.57614
725.19386
727.27322
729.1079
730.7014
732.05885
733.18645
734.08213
734.77088
735.2543
735.50607
735.62304
735.55961
735.33059
734.94835
734.42464
733.77085
732.99838
732.11846
731.14208
730.07984
728.94195
727.73814
726.47768
725.16925
723.82102
722.44055
721.03484
719.61033
718.17291
716.72795
715.2803
713.83433
712.39396
710.96268
709.54359
708.13943
706.75261
705.38525
704.03917
702.71598
701.41702
700.14346
698.89628
697.67627
696.48412
695.32035
694.18538
693.07953
692.00306
690.95626
689.94037
735.7794
738.11786
740.21277
742.06605
743.6816
745.06431
746.21991
747.14471
747.87892
748.37975
748.70899
748.85852
748.83582
748.65142
748.31651
747.84242
747.24061
746.52244
745.69909
744.78145
743.78007
742.70506
741.56604
740.37213
739.13188
737.85328
736.54373
735.21007
733.85859
732.49499
731.12448
729.75176
728.38105
727.01611
725.66032
724.31665
722.98772
721.67585
720.38303
719.11102
717.86132
716.63521
715.43378
714.25794
713.10844
711.98591
710.89084
709.82361
708.78452
707.77386
745.63214
748.2258
750.57814
752.68958
754.56274
756.2015
757.61146
758.77873
759.71938
760.4932
761.0564
761.42652
761.61511
761.63313
761.4917
761.20213
760.77586
760.22437
759.55903
758.79098
757.93108
756.98978
755.97709
754.90251
753.77498
752.60291
751.3941
750.15577
748.89459
747.61662
746.32742
745.032
743.7349
742.44015
741.15139
739.87183
738.60431
737.35133
736.11507
734.89745
733.70009
732.52442
731.37163
730.24275
729.13861
728.05992
727.00725
725.98105
724.98181
724.01078
754.76749
757.61066
760.21575
762.58159
764.70942
766.60163
768.26186
769.69493
770.90442
771.88037
772.66824
773.25889
773.66053
773.88333
773.93806
773.83586
773.58816
773.20649
772.70238
772.08721
771.3721
770.56786
769.68484
768.73291
767.72142
766.65915
765.55429
764.41447
763.2467
762.05742
760.85252
759.63733
758.41668
757.19491
755.97589
754.76307
753.55951
752.3679
751.19061
750.0297
748.88695
747.7639
746.66187
745.58197
744.52515
743.49218
742.48371
741.50029
740.5425
739.61224
763.20953
766.29505
769.14656
771.76131
774.13905
776.28056
778.18732
779.86023
781.29411
782.52878
783.54625
784.35948
784.97488
785.40315
785.65495
785.74128
785.67348
785.46311
785.12183
784.66125
784.09275
783.42742
782.67597
781.84864
780.95514
780.00464
779.00572
777.96636
776.89395
775.79529
774.67658
773.54349
772.40114
771.25413
770.1066
768.96223
767.8243
766.69569
765.57894
764.47627
763.38961
762.32062
761.27072
760.24114
759.23291
758.24688
757.28377
756.34417
755.42877
754.54012
770.98868
774.30817
777.39847
780.25523
782.87673
785.26228
787.41206
789.32713
791.01094
792.47985
793.71356
794.74288
795.57035
796.20304
796.65125
796.92569
797.03758
796.9985
796.82021
796.5145
796.09301
795.56712
794.94785
794.2458
793.47103
792.6331
791.74093
790.80289
789.82673
788.81957
787.78797
786.73788
785.67473
784.60338
783.52823
782.45319
781.38175
780.31698
779.26159
778.21796
777.18816
776.17397
775.17693
774.19837
773.23939
772.30093
771.38375
770.48849
769.61573
778.13971
781.68387
785.00426
788.09498
790.95292
793.57601
795.96334
798.11557
800.03638
801.73409
803.19823
804.43219
805.4663
806.30079
806.94331
807.40407
807.6941
807.82496
807.80851
807.6567
807.3814
806.99427
806.50663
805.92941
805.27303
804.54739
803.76179
802.92495
802.04496
801.12928
800.1848
799.21777
798.23388
797.2383
796.23565
795.23007
794.22525
793.22446
792.23058
791.24614
790.27335
789.31411
788.37007
787.44265
786.53305
785.64227
784.77117
783.92058
783.09243
784.7001
788.4589
791.99986
795.31559
798.4016
801.25449
803.8721
806.25407
808.4031
810.3287
812.00456
813.46165
814.68711
815.71963
816.55327
817.19739
817.66282
817.9611
818.10419
818.1042
817.9732
817.7231
817.36553
816.91171
816.37242
815.75789
815.07778
814.34115
813.55643
812.73141
811.87328
810.9886
810.08335
809.16293
808.23222
807.29558
806.3569
805.41963
804.48683
803.56116
802.64498
801.74031
800.8489
799.97227
799.11168
798.26823
797.44284
796.63648
795.85199
790.7086
794.67157
798.423
801.95408
805.25898
808.33291
811.17228
813.7748
816.13889
818.25866
820.16935
821.8411
823.26927
824.4866
825.50753
826.33106
826.9681
827.43028
827.72964
827.87844
827.88893
827.77325
827.5433
827.21062
826.7863
826.28091
825.70445
825.06631
824.37524
823.63937
822.86618
822.06252
821.23463
820.38818
819.52828
818.6595
817.78593
816.91121
816.03855
815.17076
814.31033
813.4594
812.61982
811.79319
810.98086
810.18398
809.40351
808.64048
807.89847
796.20423
800.36059
804.31201
808.04831
811.56235
814.84801
817.9003
820.71557
823.29173
825.629
827.73894
829.60405
831.23977
832.64062
833.83572
834.83367
835.63764
836.25932
836.71087
837.00463
837.15302
837.1684
837.06291
836.8484
836.53626
836.13737
835.66208
835.12009
834.52047
833.87166
833.18143
832.45691
831.70461
830.93044
830.13973
829.33727
828.52735
827.71377
826.89989
826.08869
825.28277
824.48437
823.69546
822.91772
822.15256
821.40118
820.66453
819.9435
801.2254
805.56428
809.705
813.63608
817.34916
820.8368
824.09268
827.11186
829.89125
832.43064
834.73639
836.79183
838.61543
840.21079
841.57423
842.73587
843.70131
844.47738
845.07635
845.51063
845.79271
845.93517
845.95039
845.85049
845.64717
845.35162
844.97449
844.52581
844.01494
843.45063
842.84092
842.19324
841.51432
840.81033
840.08682
839.34877
838.60066
837.84645
837.08968
836.33344
835.58045
834.83309
834.0934
833.36314
832.64382
831.93667
831.24282
830.56456
805.80931
810.31987
814.63914
818.75444
822.65622
826.33582
829.78561
832.99931
835.97225
838.70114
841.18044
843.43578
845.44203
847.21288
848.75689
850.07248
851.19032
852.11503
852.85617
853.42598
853.83706
854.10213
854.23383
854.24454
854.14623
853.95042
853.66803
853.3094
852.88421
852.40146
851.8695
851.29598
850.68792
850.05169
849.39305
848.71719
848.02876
847.33189
846.63026
845.9271
845.22524
844.52717
843.83502
843.15063
842.47558
841.81117
841.15858
840.52093
809.9915
814.66304
819.15019
823.43914
827.51924
831.38064
835.01448
838.41321
841.57093
844.48364
847.14994
849.57869
851.75405
853.69211
855.39826
856.88039
858.13809
859.20348
860.08117
860.78121
861.31618
861.69903
861.9426
862.05955
862.06212
861.9621
861.77071
861.49859
861.15568
860.75128
860.29399
859.79172
859.25172
858.68057
858.08426
857.46814
856.83705
856.19527
855.54662
854.89446
854.24173
853.59102
852.94455
852.30424
851.67174
851.0484
850.43544
849.83638
813.80555
818.62763
823.27216
827.72429
831.97236
836.00539
839.81335
843.38747
846.72066
849.80792
852.64714
855.24175
857.58213
859.68056
861.54174
863.17332
864.58374
865.77419
866.78247
867.60712
868.26061
868.75609
869.10667
869.32523
869.42428
869.41587
869.31152
869.12212
868.8579
868.52842
868.14253
867.70839
867.23347
866.72456
866.18784
865.62886
865.0526
864.46351
863.86552
863.26213
862.65639
862.05097
861.4482
860.85006
860.25825
859.6742
859.09915
858.53678
817.28294
822.24541
827.03706
831.64211
836.04794
840.24253
844.21471
847.95454
851.45373
854.70596
857.70684
860.45127
862.95796
865.20992
867.21857
868.9926
870.54283
871.86464
872.99081
873.93439
874.70076
875.30355
875.75608
876.07145
876.26241
876.34128
876.31983
876.20922
876.01995
875.76182
875.44393
875.07467
874.66171
874.21208
873.73211
873.22753
872.70349
872.16456
871.61483
871.05789
870.4969
869.93464
869.37349
868.81552
868.26248
867.71584
867.17688
866.64938
820.4529
825.54598
830.47479
835.22277
839.7764
844.12265
848.24928
852.14524
855.80109
859.2094
862.36504
865.26562
867.91743
870.31154
872.45937
874.36766
876.04539
877.50159
878.74124
879.79322
880.66657
881.37122
881.92054
882.32781
882.60602
882.76772
882.82495
882.78911
882.67095
882.48052
882.22715
881.91943
881.56527
881.17186
880.74573
880.29276
879.81825
879.32692
878.82297
878.3101
877.79159
877.27027
876.74862
876.22877
875.71253
875.20139
874.69667
874.2022
823.34241
828.55674
833.61311
838.49437
843.18612
847.67439
851.94591
855.98857
859.79184
863.34725
866.64879
869.69362
872.48466
875.01382
877.29355
879.32896
881.12862
882.70257
884.06289
885.21509
886.18709
886.98816
887.62907
888.1233
888.48405
888.72411
888.85575
888.89062
888.83971
888.71329
888.52091
888.27139
887.97281
887.63255
887.25732
886.85314
886.42546
885.97913
885.51846
885.04726
884.5689
884.08631
883.60202
883.11824
882.63681
882.15926
881.68691
881.22364
825.97609
831.30287
836.4776
841.48289
846.30345
850.9244
855.33151
859.51167
863.45332
867.14692
870.58539
873.7642
876.67945
879.34393
881.74913
883.9047
885.81974
887.5046
888.9711
890.23184
891.2907
892.18252
892.9098
893.48604
893.92463
894.23859
894.44039
894.54193
894.55441
894.48832
894.35343
894.15875
893.91255
893.62238
893.2951
892.93691
892.55336
892.14943
891.72954
891.29762
890.85711
890.41102
889.96197
889.51219
889.06359
888.61772
888.17589
887.74202
828.37618
833.80732
839.09174
844.21226
849.15273
853.89739
858.43111
862.73984
866.81103
870.63417
874.2012
877.50685
880.54876
883.33134
885.85307
888.12145
890.14508
891.93419
893.50068
894.85872
896.00852
896.98117
897.78977
898.44315
898.95493
899.33835
899.60612
899.77031
899.84237
899.83299
899.75212
899.60897
899.41198
899.16887
898.88665
898.57165
898.22956
897.86547
897.48391
897.08889
896.68395
896.27218
895.85625
895.43846
895.02075
894.60467
894.19154
893.78528
830.56268
836.0908
841.47703
846.7045
851.75638
856.61613
861.26782
865.6965
869.88871
873.83299
877.5204
880.94495
884.10407
886.99974
889.6301
892.00421
894.1297
896.01648
897.67618
899.12159
900.36391
901.41312
902.29483
903.02053
903.60094
904.0495
904.37911
904.60204
904.72994
904.7737
904.74345
904.64858
904.4977
904.29868
904.05868
903.78415
903.4809
903.15413
902.80848
902.44804
902.07643
901.69682
901.31195
900.92418
900.53546
900.14735
899.76114
899.38076
815.07045
820.98841
826.8215
832.55643
838.17295
843.65325
848.97975
854.13496
859.1016
863.86298
868.40333
872.70834
876.76565
880.56547
884.10103
887.36906
890.37094
893.10315
895.5764
897.79726
899.77543
901.52233
903.05054
904.37287
905.50385
906.4502
907.24288
907.88746
908.39695
908.78438
909.06223
909.24233
909.33575
909.35281
909.30307
909.19528
909.03746
908.8369
908.60019
908.33323
908.04134
907.72924
907.40111
907.06066
906.71112
906.3553
905.99562
905.63405
905.27215
904.91113
904.55498
816.67567
822.65723
828.56251
834.37324
840.07126
845.6384
851.05647
856.30731
861.37302
866.23619
870.8803
875.29022
879.45275
883.35728
886.9962
890.36509
893.46138
896.29357
898.86003
901.17005
903.23355
905.06191
906.66776
908.06462
909.26809
910.28179
911.13353
911.83802
912.40437
912.84574
913.1748
913.40357
913.5433
913.60447
913.59678
913.52916
913.40974
913.24595
913.04448
912.81135
912.55196
912.27113
911.97312
911.66171
911.3402
911.01149
910.67804
910.34188
910.00449
909.66699
909.33348
818.13857
824.17808
830.1481
836.02861
841.8017
847.44888
852.95143
858.29064
863.448
868.40545
873.14576
877.65304
881.91333
885.9152
889.65029
893.11352
896.30304
899.22319
901.87595
904.26894
906.4119
908.31617
909.99437
911.46015
912.72797
913.81
914.71676
915.47489
916.0942
916.58574
916.96244
917.23647
917.41927
917.52145
917.55288
917.52261
917.4389
917.30929
917.14059
916.93891
916.70975
916.45799
916.18798
915.90357
915.60813
915.30463
914.99563
914.6832
914.36873
914.05309
913.74074
819.47155
825.56363
831.59229
837.53672
843.37877
849.09957
854.67995
860.10067
865.34266
870.38725
875.21658
879.81403
884.16493
888.25711
892.08151
895.63247
898.90801
901.91062
904.64338
907.11341
909.33019
911.30499
913.05042
914.58012
915.90846
917.04924
918.01445
918.81937
919.4876
920.02569
920.44658
920.76262
920.98537
921.12562
921.19333
921.1977
921.14712
921.04923
920.91092
920.73842
920.53728
920.31249
920.06844
919.80906
919.53779
919.25768
918.9714
918.68114
918.38813
918.09271
917.80011
820.68632
826.82577
832.90758
838.91037
844.81559
850.60399
856.25593
861.75168
867.07167
872.19667
877.1082
881.789
886.22371
890.39948
894.30662
897.93893
901.294
904.37332
907.18018
909.72158
912.00679
914.04696
915.85468
917.44362
918.82808
920.02244
921.04092
921.89359
922.60447
923.18566
923.64745
924.00237
924.26211
924.43758
924.53888
924.57532
924.5554
924.48685
924.37667
924.23116
924.05597
923.85612
923.6361
923.39986
923.15094
922.89244
922.62717
922.35762
922.08499
921.80831
921.53421
821.79314
827.97519
834.10513
840.16106
846.12404
851.97439
857.69201
863.25672
868.64847
873.84751
878.83479
883.59246
888.10452
892.3575
896.3411
900.0486
903.47713
906.62759
909.50292
912.11029
914.45878
916.55941
918.42474
920.06843
921.50482
922.74847
923.81381
924.7155
925.46405
926.08453
926.58405
926.97488
927.26878
927.47677
927.60909
927.67514
927.68352
927.64207
927.55787
927.43728
927.28603
927.10921
926.91136
926.69648
926.46815
926.22951
925.98356
925.73341
822.80111
829.02147
835.19491
841.29916
847.31486
853.22187
858.99968
864.62765
870.08529
875.35236
880.4093
885.23772
889.82102
894.14513
898.19921
901.97603
905.47229
908.68867
911.62696
914.29522
916.7021
918.85851
920.77697
922.47117
923.95548
925.24463
926.35344
927.29769
928.08527
928.73986
929.27423
929.69814
930.02351
930.26148
930.42237
930.51569
930.55015
930.53366
930.47338
930.37575
930.24656
930.09095
929.9135
929.71827
929.50884
929.28838
929.06002
823.71842
829.9732
836.18589
842.33401
848.39775
854.35653
860.18938
865.87527
871.39328
876.72274
881.84362
886.73699
891.38574
895.77525
899.89414
903.73469
907.29315
910.56983
913.56649
916.2909
918.75154
920.95928
922.92665
924.66732
926.19574
927.52675
928.67536
929.65677
930.48411
931.16889
931.73474
932.18903
932.54333
932.80884
932.99599
933.11438
933.17281
933.17926
933.14096
933.06443
932.9555
932.81937
932.66066
932.48347
932.29135
932.08742
931.87508
824.55244
830.83807
837.08611
843.27403
849.38152
855.3875
861.2706
867.00943
872.58264
877.96919
883.1486
888.10148
892.81022
897.2597
901.43802
905.33704
908.95245
912.28317
915.33475
918.11084
920.62086
922.87573
924.88798
926.6713
928.24021
929.60963
930.7947
931.81061
932.67217
933.38816
933.98113
934.46336
934.84418
935.13495
935.34617
935.48755
935.56794
935.59542
935.57728
935.52009
935.42973
935.31146
935.16992
935.00923
934.83294
934.64397
934.44634
825.30977
831.62298
837.90285
844.12686
850.27413
856.32309
862.252
868.03908
873.66266
879.10132
884.33419
889.34146
894.10504
898.60936
902.84208
906.7946
910.46227
913.84423
916.94436
919.76763
922.32284
924.62086
926.67419
928.49656
930.10252
931.50709
932.72549
933.77293
934.66413
935.41195
936.02844
936.53593
936.941
937.25486
937.4881
937.65049
937.75097
937.79768
937.79797
937.75846
937.68508
937.58313
937.45729
937.31168
937.14983
936.97456
936.79034
825.99616
832.33405
838.64263
844.89942
851.08283
857.17087
863.14143
868.97242
874.64184
880.12795
885.40952
890.46636
895.27995
899.83429
904.11662
908.11798
911.8334
915.2619
918.4066
921.27289
923.86935
926.20676
928.2976
930.1556
931.79537
933.232
934.4808
935.55702
936.47556
937.25084
937.89117
938.42053
938.84775
939.18266
939.43597
939.61753
939.73633
939.80057
939.81767
939.79428
939.73639
939.64932
939.53779
939.40592
939.25726
939.09454
938.92254
826.61647
832.97667
839.31137
845.59799
851.81424
857.93774
863.94609
869.81692
875.52795
881.05715
886.38296
891.48483
896.34388
900.94371
905.27118
909.31698
913.07585
916.54662
919.73198
922.63743
925.27142
927.64467
929.76963
931.66005
933.33058
934.79638
936.07281
937.1752
938.1186
938.91801
939.58181
940.13021
940.57749
940.93153
941.20309
941.40207
941.53753
941.61772
941.65009
941.64136
941.59755
941.52401
941.42549
941.30613
941.16947
941.01822
940.85736
827.17462
833.55559
839.91451
846.22833
852.47438
858.62999
864.67254
870.57941
876.32811
881.89631
887.26218
892.40485
897.30509
901.94616
906.31455
910.40065
914.19893
917.708
920.93028
923.87125
926.53928
928.94503
931.10094
933.02076
934.71919
936.21142
937.51289
938.639
939.60484
940.42508
941.11214
941.67752
942.14239
942.51378
942.80188
943.01666
943.16721
943.26185
943.30806
943.31262
943.28157
943.2203
943.13357
943.02556
942.8998
942.759
942.60825
796.33596
802.49617
808.82263
814.99006
821.27626
827.67409
834.07568
840.45714
846.79576
853.06878
859.25339
865.32678
871.26617
877.04883
882.65222
888.05424
893.23374
898.17118
902.84948
907.25484
911.37735
915.21124
918.75491
922.01057
924.98365
927.68244
930.11756
932.30143
934.24782
935.97144
937.48755
938.81164
939.95916
940.94528
941.78471
942.49143
943.07384
943.55381
943.9409
944.24395
944.47299
944.63718
944.74486
944.80358
944.82014
944.80061
944.75042
944.67435
944.5766
944.46071
944.32939
944.18779
796.73397
802.89559
809.22958
815.40773
821.7014
828.12062
834.54178
840.94401
847.30515
853.6025
859.8132
865.91432
871.88292
877.6961
883.33111
888.76563
893.97824
898.94913
903.66093
908.09955
912.25483
916.12077
919.69557
922.98127
925.98325
928.70973
931.17128
933.38031
935.35061
937.0969
938.6345
939.97894
941.14572
942.15009
943.00683
943.73048
944.32954
944.82252
945.22366
945.54015
945.78202
945.95848
946.0779
946.14786
946.17521
946.16606
946.12584
946.05936
945.97085
945.86386
945.74111
945.60776
797.09148
803.25434
809.5946
815.7824
822.08213
828.51928
834.95836
841.37951
847.76098
854.08019
860.31427
866.4402
872.43494
878.27542
883.93873
889.40233
894.64457
899.64541
904.38721
908.85563
913.04025
916.93489
920.53758
923.85022
926.87809
929.62936
932.11459
934.34616
936.33787
938.10448
939.66131
941.02397
942.20801
943.22872
944.10094
944.83891
945.45438
945.95871
946.37208
946.7006
946.95397
947.14141
947.27134
947.35139
947.3884
947.38853
947.35725
947.29938
947.21915
947.12016
947.0051
946.87917
797.41122
803.57515
809.92074
816.11725
822.42184
828.87429
835.32948
841.76768
848.16739
854.50614
860.76104
866.90907
872.92707
878.79186
884.48035
889.96984
895.23848
900.26599
905.03451
909.52948
913.74025
917.66047
921.28801
924.62465
927.6756
930.44898
932.95531
935.20697
937.21776
939.00246
940.57644
941.95534
943.15475
944.19002
945.07603
945.82704
946.45619
946.97174
947.39549
947.73477
947.99839
948.19563
948.33492
948.42394
948.46957
948.47798
948.45466
948.40446
948.33164
948.23979
948.13162
948.01232
797.69604
803.86089
810.21102
816.41529
822.72375
829.18928
835.65879
842.11222
848.52818
854.88426
861.15762
867.3252
873.36378
879.25007
884.96085
890.47326
895.76527
900.8164
905.60859
910.12706
914.361
918.30388
921.95343
925.31133
928.38273
931.17569
933.70071
935.97017
937.99786
939.79859
941.38776
942.78103
943.99406
945.04223
945.94046
946.7031
947.34388
947.87013
948.30268
948.65151
948.92421
949.13012
949.27772
949.37469
949.42795
949.44369
949.42743
949.38403
949.31778
949.23229
949.13025
949.01684
797.94855
804.11418
810.46817
816.67926
822.99085
829.46737
835.94957
842.4165
848.84681
855.21817
861.50775
867.69251
873.74918
879.65437
885.38474
890.9173
896.22985
901.30175
906.11475
910.6539
914.90821
918.87102
922.53994
925.91654
929.00592
931.81611
934.35757
936.64268
938.68525
940.50008
942.1026
943.50853
944.73353
945.79304
946.70202
947.47487
948.1255
948.66195
949.10188
949.45907
949.73977
949.9533
950.1082
950.21217
950.27215
950.29434
950.28429
950.24689
950.18643
950.10656
950.00995
949.90175
798.17111
804.33738
810.69463
816.91164
823.22577
829.71143
836.20483
842.68361
849.12651
855.5112
861.81492
868.01464
874.08707
880.00872
885.75617
891.30629
896.63676
901.72677
906.55792
911.1151
915.38719
919.36738
923.05319
926.44611
929.55118
932.3764
934.93221
937.23097
939.28651
941.11364
942.72782
944.14477
945.38023
946.44963
947.36799
948.14971
948.80841
949.35485
949.80083
950.16518
950.45284
950.67304
950.83431
950.94438
951.01022
951.03805
951.03342
951.00126
950.94587
950.87092
950.77909
950.67548
798.36588
804.53264
810.89261
817.11469
823.43084
829.92415
836.42728
842.91639
849.37021
855.76641
862.08231
868.29493
874.38095
880.31681
886.079
891.64428
896.99022
902.09586
906.94269
911.51544
915.80287
919.79807
923.49847
926.90548
930.0241
932.8623
935.4305
937.74106
939.80779
941.64555
943.26979
944.69628
945.94076
947.01871
947.94517
948.73456
949.40046
949.9549
950.4067
950.77701
951.0707
951.29666
951.46344
951.57879
951.64969
951.68239
951.68246
951.65482
951.60383
951.53316
951.44551
951.34591
798.53484
804.70193
811.0641
817.29047
823.60821
830.1079
836.61941
843.11743
849.58062
855.98662
862.31286
868.53645
874.63404
880.58202
886.35678
891.93499
897.29411
902.41309
907.27328
911.85931
916.15983
920.16783
923.88068
927.29971
930.42988
933.27915
935.85792
938.17854
940.25483
942.10165
943.73448
945.1691
946.42128
947.50652