/*--------------------------------*- C++ -*----------------------------------*\
| =========                 |                                                 |
| \\      /  F ield         | OpenFOAM: The Open Source CFD Toolbox           |
|  \\    /   O peration     | Version:  2312                                  |
|   \\  /    A nd           | Website:  www.openfoam.com                      |
|    \\/     M anipulation  |                                                 |
\*---------------------------------------------------------------------------*/
FoamFile
{
    version     2.0;
    format      ascii;
    arch        "LSB;label=32;scalar=64";
    class       volVectorField;
    location    "0.01";
    object      U;
}
// * * * * * * * * * * * * * * * * * * * * * * * * * * * * * * * * * * * * * //

dimensions      [0 1 -1 0 0 0 0];

internalField   nonuniform List<vector> 
3272
(
(0.38112458 -1.3093527 0)
(0.37483063 -1.2949156 0)
(0.36866671 -1.2800254 0)
(0.36260389 -1.2647311 0)
(0.35661686 -1.2490783 0)
(0.35068282 -1.2331101 0)
(0.34478168 -1.216867 0)
(0.33889622 -1.2003872 0)
(0.33301202 -1.1837062 0)
(0.32711739 -1.1668576 0)
(0.32120327 -1.1498728 0)
(0.3152631 -1.1327811 0)
(0.30929265 -1.1156101 0)
(0.30328986 -1.0983853 0)
(0.29725466 -1.081131 0)
(0.29118875 -1.0638698 0)
(0.28509542 -1.0466227 0)
(0.27897933 -1.0294096 0)
(0.2728463 -1.0122492 0)
(0.26670311 -0.9951589 0)
(0.26055729 -0.97815517 0)
(0.25441694 -0.96125337 0)
(0.24829053 -0.94446796 0)
(0.24218673 -0.92781248 0)
(0.23611426 -0.9112996 0)
(0.23008174 -0.89494117 0)
(0.22409753 -0.87874823 0)
(0.21816967 -0.86273106 0)
(0.21230573 -0.8468992 0)
(0.20651274 -0.83126146 0)
(0.20079711 -0.81582599 0)
(0.19516463 -0.80060023 0)
(0.18962033 -0.78559102 0)
(0.18416856 -0.77080454 0)
(0.17881293 -0.75624643 0)
(0.17355631 -0.74192171 0)
(0.16840084 -0.72783488 0)
(0.163348 -0.71398995 0)
(0.15839858 -0.70039043 0)
(0.1535528 -0.68703937 0)
(0.1488103 -0.67393945 0)
(0.14417026 -0.66109291 0)
(0.13963142 -0.64850166 0)
(0.13519218 -0.63616727 0)
(0.13085067 -0.624091 0)
(0.12660479 -0.61227386 0)
(0.1224523 -0.60071664 0)
(0.11839093 -0.58941993 0)
(0.1144183 -0.57838425 0)
(0.11053225 -0.56761004 0)
(0.10673045 -0.55709782 0)
(0.10301082 -0.54684844 0)
(0.099372019 -0.53686333 0)
(0.39228138 -1.1716625 0)
(0.38589363 -1.1556644 0)
(0.3796205 -1.139273 0)
(0.3734341 -1.1225432 0)
(0.36731052 -1.1055261 0)
(0.36122841 -1.0882694 0)
(0.35516918 -1.0708174 0)
(0.34911703 -1.0532113 0)
(0.34305893 -1.0354886 0)
(0.33698454 -1.0176842 0)
(0.33088606 -0.99982983 0)
(0.3247581 -0.98195452 0)
(0.31859752 -0.9640848 0)
(0.31240326 -0.94624482 0)
(0.30617612 -0.92845656 0)
(0.29991862 -0.91074 0)
(0.29363475 -0.8931133 0)
(0.28732977 -0.875593 0)
(0.28101004 -0.85819411 0)
(0.27468278 -0.8409303 0)
(0.26835588 -0.82381404 0)
(0.26203775 -0.80685667 0)
(0.25573711 -0.79006854 0)
(0.24946282 -0.7734591 0)
(0.24322377 -0.75703693 0)
(0.23702868 -0.74080988 0)
(0.23088601 -0.72478507 0)
(0.22480385 -0.70896898 0)
(0.2187898 -0.69336745 0)
(0.21285091 -0.67798578 0)
(0.20699361 -0.66282874 0)
(0.20122363 -0.64790057 0)
(0.19554602 -0.63320507 0)
(0.18996506 -0.61874558 0)
(0.18448433 -0.60452506 0)
(0.17910664 -0.59054604 0)
(0.17383411 -0.5768107 0)
(0.16866813 -0.56332088 0)
(0.16360944 -0.55007811 0)
(0.15865819 -0.53708365 0)
(0.15381398 -0.52433847 0)
(0.14907592 -0.51184334 0)
(0.14444273 -0.49959879 0)
(0.1399128 -0.48760513 0)
(0.13548424 -0.47586249 0)
(0.13115495 -0.46437087 0)
(0.12692269 -0.45313008 0)
(0.12278513 -0.44213995 0)
(0.11873998 -0.43140016 0)
(0.11478485 -0.42091048 0)
(0.11091738 -0.41067077 0)
(0.10713496 -0.40068095 0)
(0.10343586 -0.39094127 0)
(0.41171568 -1.091079 0)
(0.40517533 -1.0739233 0)
(0.39872788 -1.0564066 0)
(0.39234744 -1.0385892 0)
(0.38601205 -1.020527 0)
(0.37970229 -1.0022719 0)
(0.37340148 -0.98387174 0)
(0.3670957 -0.96537012 0)
(0.36077371 -0.94680695 0)
(0.35442689 -0.92821838 0)
(0.34804904 -0.90963704 0)
(0.34163627 -0.89109227 0)
(0.33518682 -0.87261034 0)
(0.32870087 -0.85421472 0)
(0.32218037 -0.83592626 0)
(0.31562883 -0.81776345 0)
(0.30905115 -0.79974269 0)
(0.30245336 -0.78187843 0)
(0.29584251 -0.76418344 0)
(0.28922638 -0.74666894 0)
(0.28261337 -0.72934485 0)
(0.27601228 -0.71221989 0)
(0.26943219 -0.69530174 0)
(0.26288226 -0.67859716 0)
(0.25637162 -0.66211208 0)
(0.24990922 -0.64585168 0)
(0.24350369 -0.62982051 0)
(0.23716327 -0.61402252 0)
(0.23089569 -0.59846114 0)
(0.22470812 -0.58313932 0)
(0.21860706 -0.56805959 0)
(0.21259832 -0.55322408 0)
(0.20668701 -0.53863457 0)
(0.20087746 -0.52429254 0)
(0.19517328 -0.51019915 0)
(0.18957735 -0.49635529 0)
(0.18409179 -0.48276161 0)
(0.17871803 -0.4694185 0)
(0.1734568 -0.45632617 0)
(0.16830826 -0.44348468 0)
(0.163272 -0.43089394 0)
(0.15834715 -0.4185537 0)
(0.15353249 -0.40646362 0)
(0.14882647 -0.3946232 0)
(0.14422727 -0.38303182 0)
(0.13973286 -0.37168879 0)
(0.13534106 -0.36059334 0)
(0.13104961 -0.34974464 0)
(0.12685616 -0.3391419 0)
(0.12275835 -0.32878436 0)
(0.11875371 -0.31867128 0)
(0.11483954 -0.30880212 0)
(0.11101383 -0.29917629 0)
(0.43845457 -1.0208676 0)
(0.43169167 -1.0024665 0)
(0.42499467 -0.98373062 0)
(0.41834028 -0.96472685 0)
(0.41170908 -0.94551691 0)
(0.40508417 -0.92615766 0)
(0.3984513 -0.90670106 0)
(0.39179888 -0.88719433 0)
(0.38511795 -0.86768006 0)
(0.378402 -0.84819642 0)
(0.3716468 -0.82877738 0)
(0.3648503 -0.80945303 0)
(0.35801242 -0.79024976 0)
(0.35113487 -0.77119064 0)
(0.34422097 -0.75229566 0)
(0.33727545 -0.73358204 0)
(0.33030429 -0.71506454 0)
(0.32331448 -0.69675566 0)
(0.31631385 -0.67866595 0)
(0.30931088 -0.66080426 0)
(0.30231453 -0.64317796 0)
(0.29533408 -0.62579315 0)
(0.28837901 -0.60865485 0)
(0.28145884 -0.59176712 0)
(0.274583 -0.57513316 0)
(0.26776069 -0.55875548 0)
(0.26100075 -0.54263599 0)
(0.25431162 -0.52677607 0)
(0.2477012 -0.51117668 0)
(0.24117677 -0.49583835 0)
(0.23474497 -0.48076133 0)
(0.22841171 -0.46594557 0)
(0.22218215 -0.4513908 0)
(0.21606071 -0.43709655 0)
(0.21005107 -0.42306219 0)
(0.20415616 -0.40928692 0)
(0.1983782 -0.39576977 0)
(0.19271864 -0.38250966 0)
(0.18717824 -0.36950544 0)
(0.18175713 -0.35675591 0)
(0.1764549 -0.34425986 0)
(0.17127073 -0.33201609 0)
(0.16620347 -0.32002333 0)
(0.16125169 -0.30828026 0)
(0.15641369 -0.29678549 0)
(0.15168754 -0.28553759 0)
(0.1470712 -0.27453518 0)
(0.14256248 -0.26377684 0)
(0.1381591 -0.25326115 0)
(0.13385872 -0.24298677 0)
(0.12965878 -0.23295254 0)
(0.12555658 -0.22315729 0)
(0.12154971 -0.21360008 0)
(0.47157073 -0.96123877 0)
(0.46451431 -0.9415239 0)
(0.45749219 -0.92149593 0)
(0.45048431 -0.90122889 0)
(0.44347435 -0.88079105 0)
(0.43644851 -0.86024498 0)
(0.42939547 -0.83964754 0)
(0.42230653 -0.81905004 0)
(0.41517537 -0.79849835 0)
(0.40799803 -0.77803314 0)
(0.40077262 -0.75769019 0)
(0.39349927 -0.73750064 0)
(0.38617987 -0.71749135 0)
(0.37881789 -0.69768526 0)
(0.37141825 -0.67810171 0)
(0.36398709 -0.65875681 0)
(0.35653163 -0.6396638 0)
(0.34905995 -0.62083334 0)
(0.3415808 -0.6022738 0)
(0.33410341 -0.58399164 0)
(0.32663731 -0.5659917 0)
(0.31919224 -0.54827748 0)
(0.31177813 -0.53085137 0)
(0.30440488 -0.51371472 0)
(0.29708226 -0.49686801 0)
(0.2898197 -0.48031102 0)
(0.28262628 -0.46404299 0)
(0.27551059 -0.44806271 0)
(0.2684807 -0.43236862 0)
(0.26154406 -0.41695884 0)
(0.25470741 -0.40183128 0)
(0.24797672 -0.38698368 0)
(0.24135723 -0.37241369 0)
(0.23485339 -0.35811891 0)
(0.22846894 -0.3440969 0)
(0.22220694 -0.33034514 0)
(0.21606967 -0.31686105 0)
(0.21005863 -0.30364203 0)
(0.20417458 -0.29068551 0)
(0.19841759 -0.27798901 0)
(0.19278719 -0.2655502 0)
(0.18728254 -0.2533669 0)
(0.18190261 -0.24143703 0)
(0.17664618 -0.22975838 0)
(0.17151168 -0.2183287 0)
(0.16649728 -0.20714584 0)
(0.16160106 -0.19620788 0)
(0.15682104 -0.18551284 0)
(0.15215507 -0.17505865 0)
(0.14760069 -0.16484346 0)
(0.14315544 -0.15486563 0)
(0.13881657 -0.14512385 0)
(0.13458149 -0.13561605 0)
(0.51021901 -0.9122299 0)
(0.50279602 -0.89115173 0)
(0.49537187 -0.86977805 0)
(0.48793032 -0.84819079 0)
(0.48045879 -0.82646542 0)
(0.47294706 -0.80467079 0)
(0.46538734 -0.78286924 0)
(0.45777422 -0.76111664 0)
(0.45010452 -0.73946262 0)
(0.4423772 -0.71795078 0)
(0.43459309 -0.69661902 0)
(0.42675479 -0.67549989 0)
(0.41886642 -0.65462095 0)
(0.41093348 -0.63400521 0)
(0.40296264 -0.61367155 0)
(0.39496162 -0.59363515 0)
(0.38693901 -0.57390786 0)
(0.37890414 -0.55449853 0)
(0.37086678 -0.53541337 0)
(0.36283691 -0.51665639 0)
(0.35482457 -0.49822982 0)
(0.34683988 -0.48013466 0)
(0.33889314 -0.46237072 0)
(0.33099471 -0.4449367 0)
(0.32315472 -0.4278303 0)
(0.31538281 -0.41104851 0)
(0.30768818 -0.39458789 0)
(0.3000796 -0.37844463 0)
(0.29256526 -0.3626146 0)
(0.28515272 -0.34709349 0)
(0.27784881 -0.33187687 0)
(0.27065958 -0.31696026 0)
(0.26359022 -0.30233913 0)
(0.25664512 -0.28800914 0)
(0.24982808 -0.27396615 0)
(0.2431423 -0.26020592 0)
(0.23659017 -0.24672422 0)
(0.23017326 -0.23351689 0)
(0.22389227 -0.22057989 0)
(0.21774713 -0.20790937 0)
(0.21173712 -0.19550183 0)
(0.20586131 -0.18335424 0)
(0.20011888 -0.1714637 0)
(0.194509 -0.15982711 0)
(0.18903026 -0.1484411 0)
(0.18368058 -0.13730278 0)
(0.17845814 -0.12641014 0)
(0.17336144 -0.11576072 0)
(0.1683885 -0.10535195 0)
(0.16353674 -0.095181439 0)
(0.15880318 -0.085247361 0)
(0.15418626 -0.075548075 0)
(0.14968384 -0.066079544 0)
(0.55363278 -0.87305062 0)
(0.54576694 -0.85057271 0)
(0.53786167 -0.82781383 0)
(0.52990485 -0.80486442 0)
(0.52188813 -0.78180762 0)
(0.51380554 -0.75871907 0)
(0.50565327 -0.73566699 0)
(0.49742972 -0.71271224 0)
(0.48913528 -0.68990855 0)
(0.48077219 -0.66730276 0)
(0.47234437 -0.6449352 0)
(0.46385718 -0.62284001 0)
(0.45531724 -0.60104568 0)
(0.44673223 -0.57957542 0)
(0.4381107 -0.55844783 0)
(0.42946204 -0.53767731 0)
(0.42079641 -0.51727448 0)
(0.41212454 -0.4972464 0)
(0.40345739 -0.47759707 0)
(0.39480571 -0.45832782 0)
(0.38617973 -0.43943815 0)
(0.37758963 -0.42092667 0)
(0.36904606 -0.40279084 0)
(0.36055994 -0.38502684 0)
(0.35214191 -0.36762953 0)
(0.34380169 -0.3505928 0)
(0.33554842 -0.33391063 0)
(0.32739099 -0.31757659 0)
(0.31933769 -0.30158394 0)
(0.31139611 -0.28592587 0)
(0.30357312 -0.27059564 0)
(0.29587488 -0.25558655 0)
(0.28830643 -0.24089174 0)
(0.28087179 -0.22650493 0)
(0.27357477 -0.2124203 0)
(0.26641885 -0.19863189 0)
(0.25940661 -0.18513383 0)
(0.25253966 -0.17192045 0)
(0.24581867 -0.15898623 0)
(0.23924332 -0.14632593 0)
(0.23281229 -0.13393486 0)
(0.22652435 -0.12180931 0)
(0.22037907 -0.10994529 0)
(0.21437654 -0.098338758 0)
(0.20851547 -0.086985325 0)
(0.20279245 -0.075881079 0)
(0.19720551 -0.065024088 0)
(0.19175425 -0.054411551 0)
(0.186437 -0.044040859 0)
(0.18125071 -0.033910121 0)
(0.17619235 -0.024017256 0)
(0.1712633 -0.014357472 0)
(0.16646218 -0.0049268866 0)
(0.60110729 -0.8427625 0)
(0.5927191 -0.81886217 0)
(0.58425058 -0.79469357 0)
(0.5756945 -0.77035595 0)
(0.56704747 -0.74594047 0)
(0.55830829 -0.72152988 0)
(0.54947768 -0.69719858 0)
(0.54055827 -0.67301269 0)
(0.53155444 -0.6490303 0)
(0.52247212 -0.62530171 0)
(0.51331858 -0.6018698 0)
(0.50410227 -0.5787705 0)
(0.49483252 -0.55603327 0)
(0.48551929 -0.53368164 0)
(0.47617302 -0.51173397 0)
(0.46680476 -0.49020419 0)
(0.45742648 -0.46910187 0)
(0.44805061 -0.44843234 0)
(0.43868964 -0.42819737 0)
(0.42935514 -0.40839512 0)
(0.42005681 -0.38902191 0)
(0.41080406 -0.37007425 0)
(0.40160783 -0.35154775 0)
(0.39248004 -0.33343644 0)
(0.38343238 -0.31573239 0)
(0.37447437 -0.29842555 0)
(0.3656145 -0.28150716 0)
(0.35686189 -0.26496813 0)
(0.3482249 -0.24879902 0)
(0.33971092 -0.23299046 0)
(0.33132674 -0.21753344 0)
(0.32307886 -0.20241934 0)
(0.31497211 -0.18763929 0)
(0.30700966 -0.17318498 0)
(0.29919527 -0.15904806 0)
(0.29153279 -0.1452209 0)
(0.28402485 -0.13169639 0)
(0.27667309 -0.11846775 0)
(0.26947827 -0.10552848 0)
(0.26243966 -0.092872597 0)
(0.25555482 -0.080495203 0)
(0.24882246 -0.068391908 0)
(0.24224299 -0.056556658 0)
(0.23581703 -0.044985001 0)
(0.22954384 -0.033671998 0)
(0.22341824 -0.022612036 0)
(0.21743748 -0.011797749 0)
(0.21160187 -0.00122502 0)
(0.20590877 0.0091086353 0)
(0.20035541 0.01920545 0)
(0.19494383 0.029067727 0)
(0.18967628 0.038695417 0)
(0.18454291 0.048081748 0)
(0.65199022 -0.82039465 0)
(0.64299373 -0.79506321 0)
(0.63387601 -0.76947581 0)
(0.62463397 -0.74374047 0)
(0.61526959 -0.71795637 0)
(0.60578703 -0.6922135 0)
(0.59619203 -0.66659261 0)
(0.58649189 -0.64116524 0)
(0.57669534 -0.61599394 0)
(0.56681236 -0.59113256 0)
(0.55685394 -0.56662661 0)
(0.54683183 -0.54251378 0)
(0.53675832 -0.51882449 0)
(0.5266457 -0.49558248 0)
(0.5165059 -0.47280595 0)
(0.50635152 -0.45050896 0)
(0.49619666 -0.4287005 0)
(0.48605582 -0.4073838 0)
(0.4759438 -0.38655892 0)
(0.46587363 -0.36622025 0)
(0.45585293 -0.34635976 0)
(0.44588853 -0.32697134 0)
(0.43599133 -0.30804921 0)
(0.42617492 -0.289586 0)
(0.41645404 -0.27157211 0)
(0.40683811 -0.25399334 0)
(0.39733359 -0.23683613 0)
(0.38794958 -0.22008832 0)
(0.37869441 -0.20373832 0)
(0.36957502 -0.18777445 0)
(0.36059743 -0.17218517 0)
(0.35176802 -0.15696055 0)
(0.3430918 -0.14209361 0)
(0.33457253 -0.12757357 0)
(0.32621374 -0.11338925 0)
(0.31801797 -0.099530853 0)
(0.30998742 -0.085989737 0)
(0.30212363 -0.072758133 0)
(0.29442695 -0.059828983 0)
(0.28689546 -0.047195959 0)
(0.27952626 -0.034853516 0)
(0.2723206 -0.022791234 0)
(0.26527904 -0.011000209 0)
(0.25840108 0.00052799158 0)
(0.25168809 0.011798211 0)
(0.24514091 0.022815086 0)
(0.23875621 0.033585654 0)
(0.23252738 0.044114092 0)
(0.22645072 0.054403269 0)
(0.22052363 0.064455955 0)
(0.2147407 0.074273722 0)
(0.20909103 0.083853075 0)
(0.20356969 0.093187206 0)
(0.70566991 -0.804935 0)
(0.69597637 -0.77817785 0)
(0.68611863 -0.75117773 0)
(0.67610047 -0.72405117 0)
(0.66592956 -0.69690522 0)
(0.65561563 -0.66983717 0)
(0.6451698 -0.64293413 0)
(0.63460447 -0.61627307 0)
(0.62393312 -0.58992102 0)
(0.61317014 -0.56393528 0)
(0.60233054 -0.53836384 0)
(0.59142965 -0.513246 0)
(0.58048296 -0.48861326 0)
(0.56950499 -0.46448933 0)
(0.55850802 -0.44089215 0)
(0.54750548 -0.41783702 0)
(0.53651512 -0.39533331 0)
(0.52555352 -0.37338011 0)
(0.51463847 -0.351976 0)
(0.5037868 -0.33111171 0)
(0.49300323 -0.31077622 0)
(0.48228881 -0.29095479 0)
(0.4716523 -0.27164074 0)
(0.4611084 -0.25282392 0)
(0.45067666 -0.23449303 0)
(0.44037036 -0.2166408 0)
(0.43019381 -0.19925065 0)
(0.42015263 -0.18230607 0)
(0.41025425 -0.16579208 0)
(0.400506 -0.14969452 0)
(0.39091246 -0.13399975 0)
(0.38147424 -0.1186941 0)
(0.37219785 -0.10376411 0)
(0.36309291 -0.089197692 0)
(0.35416273 -0.074983532 0)
(0.34540854 -0.061110709 0)
(0.33683111 -0.047569144 0)
(0.32843084 -0.034349699 0)
(0.32020737 -0.021443901 0)
(0.31215867 -0.0088423732 0)
(0.30428893 0.0034675206 0)
(0.29660274 0.015497516 0)
(0.28909895 0.027255597 0)
(0.28177363 0.038750002 0)
(0.27462171 0.049986036 0)
(0.26764223 0.06096775 0)
(0.26083262 0.071697395 0)
(0.25418789 0.082178622 0)
(0.24770407 0.092415011 0)
(0.24137723 0.10240921 0)
(0.23520085 0.11216288 0)
(0.76157595 -0.795355 0)
(0.75109102 -0.76719226 0)
(0.74039853 -0.73879926 0)
(0.72951127 -0.71030302 0)
(0.71844261 -0.68181784 0)
(0.7072081 -0.65344809 0)
(0.69582471 -0.62528713 0)
(0.68431024 -0.59741724 0)
(0.67268336 -0.5699098 0)
(0.66096333 -0.54282534 0)
(0.64916951 -0.51621388 0)
(0.63732062 -0.49011638 0)
(0.62543559 -0.46456636 0)
(0.61353142 -0.43958735 0)
(0.60161847 -0.41519552 0)
(0.58970914 -0.39140398 0)
(0.57782955 -0.36822393 0)
(0.56599978 -0.34565057 0)
(0.55423802 -0.32367317 0)
(0.5425637 -0.30228135 0)
(0.53098536 -0.28146686 0)
(0.5194977 -0.26122829 0)
(0.50810097 -0.24155343 0)
(0.49681255 -0.22242463 0)
(0.48564167 -0.2038229 0)
(0.4746032 -0.18573423 0)
(0.46371423 -0.16814298 0)
(0.45298085 -0.15103135 0)
(0.44240789 -0.13438141 0)
(0.43200056 -0.1181762 0)
(0.42176453 -0.10239939 0)
(0.4117058 -0.087033614 0)
(0.40182771 -0.07205942 0)
(0.39213252 -0.057463008 0)
(0.38262337 -0.043232009 0)
(0.37330204 -0.029354253 0)
(0.36416923 -0.015817768 0)
(0.35522521 -0.0026107053 0)
(0.34647173 0.010278701 0)
(0.33791376 0.022862205 0)
(0.32955316 0.035152987 0)
(0.32138632 0.047158525 0)
(0.31341016 0.058885609 0)
(0.3056213 0.070339541 0)
(0.29801607 0.081526984 0)
(0.29059208 0.092453813 0)
(0.28334631 0.10312424 0)
(0.27627468 0.11354266 0)
(0.26937288 0.12371333 0)
(0.26263641 0.13363981 0)
(0.25605948 0.14332517 0)
(0.8191754 -0.7906399 0)
(0.80779957 -0.76110244 0)
(0.79617531 -0.73135036 0)
(0.78432237 -0.70151951 0)
(0.77226301 -0.67173223 0)
(0.76001808 -0.6420993 0)
(0.74761052 -0.6127199 0)
(0.73506393 -0.58368144 0)
(0.72240258 -0.55505964 0)
(0.70965133 -0.52691775 0)
(0.69683371 -0.49930747 0)
(0.68397016 -0.47227055 0)
(0.67108359 -0.44584662 0)
(0.65819653 -0.42005495 0)
(0.64532085 -0.39490809 0)
(0.63246303 -0.37039491 0)
(0.61965325 -0.34652365 0)
(0.60692739 -0.32331499 0)
(0.59430234 -0.30076625 0)
(0.58178452 -0.27887954 0)
(0.56935954 -0.25765041 0)
(0.55702662 -0.23706611 0)
(0.5448108 -0.21709647 0)
(0.53273345 -0.1977149 0)
(0.520806 -0.17889855 0)
(0.50903483 -0.16062229 0)
(0.49742868 -0.14286903 0)
(0.48599582 -0.1256208 0)
(0.47474205 -0.1088584 0)
(0.46367234 -0.092562385 0)
(0.45279182 -0.076713531 0)
(0.44210563 -0.061293495 0)
(0.43161638 -0.046285353 0)
(0.42132542 -0.031672118 0)
(0.41123471 -0.017438131 0)
(0.40134599 -0.0035686392 0)
(0.39166068 0.0099506219 0)
(0.38218014 0.023133621 0)
(0.37290529 0.035993781 0)
(0.36383761 0.048542664 0)
(0.35497699 0.060788562 0)
(0.34632048 0.072739642 0)
(0.33786492 0.084404114 0)
(0.32960713 0.095789302 0)
(0.32154379 0.10690263 0)
(0.31367167 0.11775075 0)
(0.30598715 0.12833925 0)
(0.29848611 0.13867334 0)
(0.29116428 0.14875779 0)
(0.28401689 0.15859704 0)
(0.27703876 0.16819517 0)
(0.87797459 -0.78981091 0)
(0.86560225 -0.75893991 0)
(0.85294493 -0.72787517 0)
(0.84002921 -0.69675739 0)
(0.82688477 -0.66571771 0)
(0.81353955 -0.63487289 0)
(0.80002223 -0.60432746 0)
(0.78636189 -0.5741741 0)
(0.77258917 -0.54449302 0)
(0.75873535 -0.515352 0)
(0.74482892 -0.48680013 0)
(0.73088601 -0.45887047 0)
(0.71693794 -0.43161591 0)
(0.70302042 -0.40503611 0)
(0.68916719 -0.379138 0)
(0.67538131 -0.35394864 0)
(0.66163597 -0.32947042 0)
(0.64795596 -0.30571408 0)
(0.6343738 -0.28268481 0)
(0.62090245 -0.26038621 0)
(0.60755964 -0.23880955 0)
(0.59436581 -0.21791723 0)
(0.58133596 -0.19767384 0)
(0.56847507 -0.17805236 0)
(0.55578702 -0.15903104 0)
(0.54327692 -0.14058709 0)
(0.53095142 -0.12269755 0)
(0.51881801 -0.10534043 0)
(0.50688279 -0.088493847 0)
(0.49515075 -0.072136027 0)
(0.48362629 -0.056245676 0)
(0.47231316 -0.040802652 0)
(0.46121369 -0.025788208 0)
(0.45032927 -0.011183703 0)
(0.43966116 0.0030286054 0)
(0.4292105 0.016865385 0)
(0.41897829 0.030342275 0)
(0.4089651 0.043473786 0)
(0.39917091 0.056273097 0)
(0.38959537 0.068752192 0)
(0.38023723 0.08092093 0)
(0.37109391 0.092788732 0)
(0.36216229 0.10436463 0)
(0.35343898 0.115657 0)
(0.34492043 0.12667363 0)
(0.33660291 0.13742163 0)
(0.32848245 0.14790731 0)
(0.32055483 0.15813645 0)
(0.31281556 0.16811438 0)
(0.30525998 0.17784594 0)
(0.29788288 0.18733577 0)
(0.93751286 -0.79194409 0)
(0.92403528 -0.75979196 0)
(0.91024202 -0.72747005 0)
(0.89616609 -0.69512506 0)
(0.88184308 -0.66289325 0)
(0.86730904 -0.63089834 0)
(0.85259771 -0.59924967 0)
(0.8377431 -0.56804472 0)
(0.82278041 -0.53737183 0)
(0.80775368 -0.50730678 0)
(0.79271067 -0.47788628 0)
(0.77764717 -0.44908679 0)
(0.76260973 -0.4209678 0)
(0.74766295 -0.39361542 0)
(0.73276856 -0.36705405 0)
(0.7179227 -0.34130882 0)
(0.70315875 -0.31636591 0)
(0.68849648 -0.29219862 0)
(0.67395215 -0.26879915 0)
(0.65954066 -0.24615499 0)
(0.64529273 -0.22424955 0)
(0.63123668 -0.20305793 0)
(0.61737888 -0.1825564 0)
(0.60371729 -0.16272113 0)
(0.59025409 -0.14352651 0)
(0.57699444 -0.12494619 0)
(0.56394416 -0.10695313 0)
(0.55110898 -0.089521188 0)
(0.53849385 -0.072625037 0)
(0.5261028 -0.056240138 0)
(0.51393911 -0.040342879 0)
(0.50200534 -0.024910865 0)
(0.4903031 -0.0099229626 0)
(0.47883329 0.004641128 0)
(0.46759644 0.018800647 0)
(0.45659283 0.032573618 0)
(0.4458225 0.045976762 0)
(0.43528499 0.059025421 0)
(0.42497939 0.071733604 0)
(0.4149043 0.084114075 0)
(0.40505763 0.096178182 0)
(0.39543654 0.10793639 0)
(0.38603769 0.11939844 0)
(0.37685741 0.13057334 0)
(0.3678918 0.14146941 0)
(0.35913681 0.15209421 0)
(0.35058814 0.16245463 0)
(0.34224133 0.17255693 0)
(0.33409178 0.18240678 0)
(0.32613466 0.19200944 0)
(0.31836464 0.20136967 0)
(0.99736506 -0.7961862 0)
(0.98267263 -0.76281411 0)
(0.96763924 -0.72929966 0)
(0.95230657 -0.69579602 0)
(0.936715 -0.66244268 0)
(0.92090632 -0.62936775 0)
(0.9049209 -0.59668417 0)
(0.88879219 -0.56449249 0)
(0.87255575 -0.53288773 0)
(0.85628535 -0.50195465 0)
(0.84011201 -0.47173768 0)
(0.82400215 -0.44211522 0)
(0.80783404 -0.41324968 0)
(0.79167112 -0.38525385 0)
(0.77559886 -0.35815772 0)
(0.75964767 -0.3319313 0)
(0.74384175 -0.30655361 0)
(0.72818729 -0.28200463 0)
(0.71268791 -0.25826809 0)
(0.6973563 -0.23532259 0)
(0.68221831 -0.2131448 0)
(0.66729735 -0.19171652 0)
(0.65260055 -0.17101859 0)
(0.63812916 -0.15102577 0)
(0.6238861 -0.13170913 0)
(0.60987561 -0.11303894 0)
(0.59610197 -0.094985476 0)
(0.58256912 -0.077519685 0)
(0.56928037 -0.06061345 0)
(0.55623832 -0.044239709 0)
(0.54344489 -0.028372568 0)
(0.53090132 -0.012987458 0)
(0.51860816 0.0019388476 0)
(0.50656539 0.016428322 0)
(0.4947726 0.030501625 0)
(0.48322903 0.044178044 0)
(0.47193362 0.057475445 0)
(0.46088491 0.070410232 0)
(0.45008102 0.082997438 0)
(0.43951961 0.095250765 0)
(0.42919786 0.10718264 0)
(0.41911244 0.11880444 0)
(0.40925959 0.13012664 0)
(0.39963529 0.14115887 0)
(0.39023528 0.15190996 0)
(0.38105511 0.162388 0)
(0.37209023 0.17260029 0)
(0.36333584 0.1825535 0)
(0.35478712 0.19225368 0)
(0.34643907 0.20170625 0)
(0.33828606 0.21091625 0)
(1.0571404 -0.80176408 0)
(1.0411238 -0.76724147 0)
(1.0247482 -0.73260826 0)
(1.0080638 -0.69802276 0)
(0.99111798 -0.6636283 0)
(0.97395838 -0.6295525 0)
(0.95663032 -0.59590725 0)
(0.93916671 -0.56278598 0)
(0.9215987 -0.5302663 0)
(0.90400972 -0.49841616 0)
(0.88667829 -0.46727222 0)
(0.8694368 -0.43711094 0)
(0.85201944 -0.40783634 0)
(0.83462806 -0.3794059 0)
(0.81738234 -0.35185115 0)
(0.80032533 -0.32518231 0)
(0.78346339 -0.29939999 0)
(0.76679459 -0.27449751 0)
(0.75032313 -0.25045814 0)
(0.73406126 -0.22725774 0)
(0.71802766 -0.20486972 0)
(0.70223904 -0.18327194 0)
(0.68670352 -0.16244073 0)
(0.67142492 -0.14234783 0)
(0.65640648 -0.12296208 0)
(0.6416513 -0.10425151 0)
(0.62716209 -0.086184172 0)
(0.61294106 -0.068728641 0)
(0.5989898 -0.051854456 0)
(0.58530927 -0.035532285 0)
(0.57189984 -0.01973412 0)
(0.55876129 -0.0044333732 0)
(0.54589288 0.010395039 0)
(0.53329339 0.024774708 0)
(0.52096123 0.038727703 0)
(0.5088945 0.052274587 0)
(0.49709097 0.065434376 0)
(0.48554811 0.078224576 0)
(0.47426301 0.090661224 0)
(0.46323247 0.10275898 0)
(0.45245287 0.11453119 0)
(0.44192027 0.12599008 0)
(0.4316304 0.13714682 0)
(0.42157877 0.14801165 0)
(0.41176071 0.15859392 0)
(0.40217141 0.16890213 0)
(0.39280588 0.17894403 0)
(0.38365905 0.1887266 0)
(0.37472579 0.19825618 0)
(0.36600085 0.20753843 0)
(0.35747825 0.21657855 0)
(1.1164812 -0.8079915 0)
(1.0990328 -0.77239576 0)
(1.0812154 -0.73672606 0)
(1.0630878 -0.70114488 0)
(1.044707 -0.66579942 0)
(1.0261306 -0.63081865 0)
(1.0074164 -0.59631284 0)
(0.98861391 -0.56236789 0)
(0.9697637 -0.52905216 0)
(0.95096845 -0.49646611 0)
(0.93210604 -0.4646732 0)
(0.91326096 -0.43399896 0)
(0.89464598 -0.40426199 0)
(0.87616404 -0.37539871 0)
(0.85782598 -0.34743044 0)
(0.83968115 -0.32038371 0)
(0.82175601 -0.29426955 0)
(0.80406108 -0.26908263 0)
(0.78660647 -0.24480517 0)
(0.76940485 -0.22141223 0)
(0.75247043 -0.1988758 0)
(0.73581541 -0.17716865 0)
(0.71944712 -0.15626201 0)
(0.70336969 -0.13612434 0)
(0.68758579 -0.11672219 0)
(0.67209725 -0.098021419 0)
(0.65690517 -0.079987853 0)
(0.64201001 -0.062587921 0)
(0.62741157 -0.045788984 0)
(0.61310904 -0.029559658 0)
(0.59910111 -0.013869947 0)
(0.58538596 0.0013085683 0)
(0.57196136 0.016002701 0)
(0.5588247 0.030237547 0)
(0.54597305 0.044036574 0)
(0.53340324 0.057421567 0)
(0.52111182 0.070412692 0)
(0.50909512 0.08302849 0)
(0.49734921 0.095285986 0)
(0.48586991 0.10720073 0)
(0.47465281 0.11878693 0)
(0.46369325 0.13005754 0)
(0.45298638 0.14102441 0)
(0.44252716 0.15169832 0)
(0.43231045 0.1620891 0)
(0.42233095 0.17220568 0)
(0.41258333 0.18205614 0)
(0.4030621 0.19164779 0)
(0.39376181 0.20098717 0)
(0.38467693 0.21008025 0)
(0.37580101 0.21893226 0)
(1.1750617 -0.81427179 0)
(1.1560769 -0.77768748 0)
(1.1367219 -0.7410707 0)
(1.1170625 -0.70458701 0)
(1.0971645 -0.66838796 0)
(1.0770959 -0.63260997 0)
(1.0569281 -0.59737522 0)
(1.0367179 -0.56278876 0)
(1.016457 -0.52892096 0)
(0.99621381 -0.49580173 0)
(0.97597266 -0.46362543 0)
(0.95582257 -0.43233252 0)
(0.93593333 -0.40201595 0)
(0.91624529 -0.3726924 0)
(0.8967522 -0.34435515 0)
(0.87749188 -0.31700338 0)
(0.85849026 -0.29063555 0)
(0.83976243 -0.26524026 0)
(0.82132099 -0.240797 0)
(0.80317782 -0.21727936 0)
(0.7853441 -0.1946576 0)
(0.76782881 -0.17290063 0)
(0.75063766 -0.15197576 0)
(0.73377373 -0.13184834 0)
(0.71723843 -0.11248245 0)
(0.70103204 -0.093841613 0)
(0.6851539 -0.07588952 0)
(0.66960257 -0.058590471 0)
(0.65437595 -0.041909845 0)
(0.63947137 -0.025814295 0)
(0.62488569 -0.010272033 0)
(0.61061539 0.0047470956 0)
(0.59665658 0.019271445 0)
(0.58300512 0.033327571 0)
(0.56965665 0.046940216 0)
(0.55660658 0.060132368 0)
(0.54385021 0.072925248 0)
(0.53138265 0.085338403 0)
(0.51919889 0.097389745 0)
(0.50729377 0.10909567 0)
(0.49566199 0.12047114 0)
(0.48429812 0.1315298 0)
(0.47319665 0.14228406 0)
(0.46235193 0.15274524 0)
(0.45175827 0.16292359 0)
(0.4414099 0.17282841 0)
(0.43130101 0.18246812 0)
(0.42142573 0.19185025 0)
(0.41177825 0.20098163 0)
(0.40235268 0.20986838 0)
(0.39314206 0.21851589 0)
(1.2325874 -0.8200967 0)
(1.2119667 -0.7826143 0)
(1.1909838 -0.74514454 0)
(1.1697103 -0.70785376 0)
(1.148215 -0.67089405 0)
(1.1265662 -0.63440337 0)
(1.1048335 -0.59850787 0)
(1.0830985 -0.56332447 0)
(1.0614573 -0.52894459 0)
(1.0398507 -0.49538877 0)
(1.01823 -0.46278057 0)
(0.99676805 -0.43108711 0)
(0.97557214 -0.40039916 0)
(0.95463089 -0.37075526 0)
(0.93395225 -0.34215183 0)
(0.91356096 -0.31458417 0)
(0.89347743 -0.28804488 0)
(0.87371688 -0.26251866 0)
(0.85429166 -0.23798287 0)
(0.83521219 -0.21440944 0)
(0.81648712 -0.19176654 0)
(0.79812277 -0.17002019 0)
(0.78012278 -0.14913449 0)
(0.76248854 -0.12907203 0)
(0.74521972 -0.10979438 0)
(0.7283147 -0.091262851 0)
(0.71177083 -0.073438989 0)
(0.69558465 -0.056285132 0)
(0.67975202 -0.039764723 0)
(0.6642683 -0.023842653 0)
(0.64912843 -0.0084854299 0)
(0.63432702 0.0063386461 0)
(0.61985845 0.020659383 0)
(0.60571693 0.034504648 0)
(0.59189653 0.047900392 0)
(0.57839124 0.060870689 0)
(0.56519496 0.073437758 0)
(0.55230159 0.085622048 0)
(0.53970495 0.097442297 0)
(0.52739885 0.10891565 0)
(0.51537708 0.12005774 0)
(0.50363339 0.13088282 0)
(0.49216149 0.14140382 0)
(0.48095513 0.1516325 0)
(0.47000798 0.16157952 0)
(0.45931378 0.17125451 0)
(0.4488662 0.18066614 0)
(0.43865893 0.18982223 0)
(0.42868582 0.19872981 0)
(0.41894057 0.20739519 0)
(1.2887941 -0.8250441 0)
(1.2664459 -0.78676023 0)
(1.2437553 -0.74853787 0)
(1.2208 -0.71054261 0)
(1.1976548 -0.67292444 0)
(1.1743927 -0.63581692 0)
(1.1510841 -0.59933718 0)
(1.1278002 -0.56359285 0)
(1.1046146 -0.52870926 0)
(1.0815273 -0.49482604 0)
(1.0585469 -0.46191753 0)
(1.0357791 -0.42997254 0)
(1.0132949 -0.3990579 0)
(0.99111264 -0.36921051 0)
(0.96925023 -0.34043935 0)
(0.94772931 -0.31274351 0)
(0.92656861 -0.28611397 0)
(0.90578283 -0.26053348 0)
(0.88538343 -0.23597765 0)
(0.8653792 -0.2124166 0)
(0.84577648 -0.18981648 0)
(0.82657912 -0.16814076 0)
(0.80778851 -0.14735089 0)
(0.78940392 -0.12740694 0)
(0.77142294 -0.10826818 0)
(0.75384178 -0.089893765 0)
(0.73665562 -0.072243255 0)
(0.7198588 -0.055277095 0)
(0.70344506 -0.03895697 0)
(0.68740763 -0.023246117 0)
(0.67173941 -0.0081095064 0)
(0.6564331 0.0064859765 0)
(0.64148122 0.020571457 0)
(0.62687624 0.034175983 0)
(0.61261059 0.047326612 0)
(0.59867675 0.060048386 0)
(0.58506722 0.072364438 0)
(0.57177458 0.084296006 0)
(0.55879148 0.095862584 0)
(0.54611066 0.10708195 0)
(0.53372491 0.11797036 0)
(0.52162712 0.12854254 0)
(0.50981023 0.13881192 0)
(0.49826727 0.14879064 0)
(0.48699133 0.1584897 0)
(0.47597552 0.16791901 0)
(0.465213 0.17708751 0)
(0.4546971 0.18600324 0)
(0.44442121 0.19467332 0)
(0.43437863 0.20310454 0)
(1.3434461 -0.82877262 0)
(1.3192863 -0.78978947 0)
(1.2948147 -0.75092124 0)
(1.2701149 -0.71233296 0)
(1.2452677 -0.67417399 0)
(1.2203516 -0.63657722 0)
(1.1954389 -0.59965904 0)
(1.1705781 -0.5635296 0)
(1.1458058 -0.52830862 0)
(1.1211921 -0.49411678 0)
(1.0968181 -0.46094119 0)
(1.0727349 -0.42880006 0)
(1.0489745 -0.39773116 0)
(1.0255624 -0.36776385 0)
(1.002524 -0.33890945 0)
(0.97988207 -0.31116674 0)
(0.95765514 -0.28452483 0)
(0.93585733 -0.25896432 0)
(0.91449892 -0.23445885 0)
(0.89358686 -0.21097656 0)
(0.87312518 -0.18848155 0)
(0.8531153 -0.16693494 0)
(0.83355617 -0.14629587 0)
(0.81444469 -0.12652211 0)
(0.79577608 -0.10757083 0)
(0.7775442 -0.089399164 0)
(0.75974188 -0.071964845 0)
(0.74236114 -0.055226546 0)
(0.72539342 -0.039144368 0)
(0.70882976 -0.023680016 0)
(0.69266095 -0.0087971047 0)
(0.67687763 0.0055387812 0)
(0.66147043 0.019359908 0)
(0.64643 0.032696414 0)
(0.63174709 0.045576296 0)
(0.6174126 0.058025491 0)
(0.60341757 0.070067893 0)
(0.58975325 0.081725472 0)
(0.57641106 0.09301833 0)
(0.56338262 0.10396484 0)
(0.55065974 0.11458172 0)
(0.53823438 0.12488419 0)
(0.52609869 0.13488603 0)
(0.51424494 0.14459973 0)
(0.50266557 0.15403657 0)
(0.49135311 0.16320671 0)
(0.48030023 0.17211933 0)
(0.46949962 0.18078254 0)
(0.45894465 0.18920387 0)
(0.44862767 0.19738978 0)
(1.396336 -0.83101464 0)
(1.3702892 -0.79143814 0)
(1.343971 -0.75203373 0)
(1.3174699 -0.712966 0)