/*--------------------------------*- C++ -*----------------------------------*\
| =========                 |                                                 |
| \\      /  F ield         | OpenFOAM: The Open Source CFD Toolbox           |
|  \\    /   O peration     | Version:  2312                                  |
|   \\  /    A nd           | Website:  www.openfoam.com                      |
|    \\/     M anipulation  |                                                 |
\*---------------------------------------------------------------------------*/
FoamFile
{
    version     2.0;
    format      ascii;
    arch        "LSB;label=32;scalar=64";
    class       volScalarField;
    location    "0.04";
    object      N2;
}
// * * * * * * * * * * * * * * * * * * * * * * * * * * * * * * * * * * * * * //

dimensions      [0 0 0 0 0 0 0];

internalField   nonuniform List<scalar> 
3250
(
0.75070274
0.75139293
0.75207332
0.75274331
0.75340213
0.75404901
0.75468327
0.75530429
0.75591151
0.75650444
0.75708266
0.75764581
0.7581936
0.75872579
0.75924219
0.7597427
0.76022723
0.76069577
0.76114835
0.76158502
0.76200591
0.76241116
0.76280095
0.76317549
0.76353503
0.76387983
0.76421019
0.7645264
0.7648288
0.76511773
0.76539354
0.76565659
0.76590726
0.76614592
0.76637296
0.76658876
0.76679371
0.7669882
0.76717261
0.76734732
0.76751272
0.76766918
0.76781707
0.76795675
0.75059955
0.75129389
0.7519784
0.75265246
0.75331526
0.75396606
0.75460414
0.75522889
0.75583974
0.75643621
0.75701786
0.75758434
0.75813535
0.75867064
0.75919005
0.75969345
0.76018076
0.76065198
0.76110711
0.76154624
0.76196947
0.76237696
0.76276888
0.76314546
0.76350693
0.76385357
0.76418566
0.76450352
0.76480748
0.76509788
0.76537508
0.76563944
0.76589134
0.76613116
0.76635929
0.76657611
0.76678202
0.76697739
0.76716264
0.76733813
0.76750425
0.76766138
0.76780989
0.76795015
0.75040785
0.75110993
0.75180205
0.7524836
0.75315376
0.75381175
0.75445688
0.7550885
0.75570606
0.75630904
0.75689703
0.75746966
0.75802662
0.75856768
0.75909264
0.7596014
0.76009387
0.76057003
0.76102992
0.7614736
0.76190119
0.76231284
0.76270874
0.7630891
0.76345418
0.76380424
0.76413958
0.76446052
0.76476739
0.76506054
0.76534034
0.76560715
0.76586136
0.76610335
0.76633351
0.76655224
0.76675994
0.76695699
0.7671438
0.76732075
0.76748823
0.76764663
0.76779632
0.76793768
0.75014033
0.75085313
0.7515558
0.75224771
0.75292804
0.75359601
0.7542509
0.75489206
0.75551891
0.75613096
0.75672776
0.75730893
0.75787418
0.75842324
0.75895595
0.75947218
0.75997184
0.76045492
0.76092145
0.7613715
0.76180519
0.76222266
0.76262412
0.76300979
0.76337991
0.76373477
0.76407466
0.76439992
0.76471088
0.7650079
0.76529135
0.7655616
0.76581906
0.7660641
0.76629713
0.76651855
0.76672876
0.76692818
0.76711719
0.7672962
0.76746561
0.76762579
0.76777715
0.76792006
0.74980842
0.75053439
0.75125003
0.7519547
0.75264757
0.75332783
0.75399475
0.75464768
0.75528602
0.75590926
0.75651694
0.75710869
0.75768419
0.75824319
0.75878549
0.75931098
0.75981957
0.76031124
0.76078602
0.76124398
0.76168525
0.76210998
0.76251836
0.76291063
0.76328705
0.76364789
0.76399346
0.76432411
0.76464017
0.76494202
0.76523003
0.76550459
0.76576609
0.76601495
0.76625156
0.76647635
0.76668972
0.76689208
0.76708386
0.76726545
0.76743726
0.76759969
0.76775313
0.76789798
0.74942232
0.75016348
0.75089409
0.75161349
0.75232084
0.75301531
0.75369615
0.7543627
0.75501434
0.75565055
0.75627085
0.75687487
0.75746228
0.75803281
0.75858627
0.75912253
0.75964151
0.76014318
0.76062757
0.76109476
0.76154487
0.76197806
0.76239453
0.76279452
0.76317828
0.76354611
0.76389833
0.76423528
0.76455731
0.76486481
0.76515816
0.76543775
0.765704
0.76595733
0.76619814
0.76642687
0.76664394
0.76684977
0.76704478
0.76722939
0.76740402
0.76756908
0.76772497
0.7678721
0.74899124
0.7497492
0.75049638
0.75123211
0.75195551
0.75266575
0.75336206
0.75404374
0.75471017
0.75536081
0.75599517
0.75661286
0.75721354
0.75779694
0.75836285
0.75891114
0.75944173
0.75995458
0.76044973
0.76092724
0.76138725
0.76182992
0.76225545
0.76266408
0.76305608
0.76343175
0.76379143
0.76413545
0.76446419
0.76477803
0.76507738
0.76536263
0.76563422
0.76589256
0.7661381
0.76637126
0.76659249
0.76680221
0.76700086
0.76718888
0.76736668
0.7675347
0.76769334
0.76784302
0.74852346
0.74929946
0.75006447
0.75081779
0.75155851
0.75228576
0.75299876
0.75369679
0.75437921
0.75504546
0.75569505
0.75632754
0.75694261
0.75753996
0.75811939
0.75868075
0.75922394
0.75974894
0.76025578
0.76074453
0.76121531
0.7616683
0.76210369
0.76252174
0.76292273
0.76330696
0.76367476
0.7640265
0.76436255
0.76468332
0.76498921
0.76528064
0.76555806
0.76582189
0.76607258
0.76631058
0.76653635
0.76675032
0.76695295
0.76714468
0.76732595
0.7674972
0.76765885
0.76781132
0.74802667
0.74882137
0.74960517
0.75037705
0.75113606
0.75188129
0.75261195
0.75332728
0.75402664
0.75470943
0.75537515
0.75602336
0.7566537
0.75726587
0.75785966
0.75843491
0.75899152
0.75952946
0.76004875
0.76054946
0.76103173
0.76149571
0.76194163
0.76236974
0.76278031
0.76317366
0.76355015
0.76391013
0.764254
0.76458216
0.76489505
0.76519309
0.76547673
0.76574642
0.76600263
0.76624581
0.76647643
0.76669494
0.76690183
0.76709753
0.76728251
0.7674572
0.76762206
0.76777753
0.7458486
0.74668243
0.74750685
0.74832127
0.7491246
0.74991577
0.75069379
0.75145773
0.75220676
0.75294012
0.75365713
0.75435717
0.75503973
0.75570434
0.75635063
0.7569783
0.75758711
0.75817689
0.75874754
0.75929903
0.75983136
0.76034462
0.76083893
0.76131446
0.76177142
0.76221008
0.76263072
0.76303366
0.76341926
0.76378791
0.76413999
0.76447593
0.76479617
0.76510115
0.76539134
0.7656672
0.7659292
0.76617782
0.76641355
0.76663685
0.7668482
0.76704808
0.76723695
0.76741527
0.76758351
0.76774211
0.745271
0.74612531
0.74697021
0.7478049
0.74862828
0.74943924
0.75023677
0.75101992
0.75178784
0.75253973
0.7532749
0.7539927
0.7546926
0.75537412
0.75603687
0.75668052
0.75730483
0.75790963
0.7584948
0.75906029
0.75960612
0.76013236
0.76063914
0.76112662
0.76159502
0.76204461
0.76247568
0.76288857
0.76328363
0.76366126
0.76402186
0.76436587
0.76469374
0.76500593
0.76530291
0.76558516
0.76585318
0.76610745
0.76634847
0.76657672
0.76679271
0.76699692
0.76718983
0.76737192
0.76754366
0.76770551
0.74468127
0.74555652
0.74642218
0.74727744
0.74812115
0.7489522
0.74976955
0.75057223
0.75135935
0.7521301
0.75288375
0.75361965
0.75433722
0.75503599
0.75571552
0.7563755
0.75701566
0.7576358
0.75823581
0.75881563
0.75937528
0.75991481
0.76043435
0.76093408
0.76141421
0.76187501
0.76231678
0.76273986
0.76314463
0.76353147
0.76390081
0.7642531
0.7645888
0.76490838
0.76521233
0.76550115
0.76577534
0.76603541
0.76628186
0.76651521
0.76673596
0.76694461
0.76714166
0.76732761
0.76750293
0.76766812
0.74408484
0.74498109
0.74586758
0.74674349
0.74760765
0.74845891
0.74929621
0.75011855
0.75092502
0.75171479
0.75248709
0.75324126
0.7539767
0.75469289
0.75538942
0.75606591
0.75672211
0.7573578
0.75797285
0.75856721
0.75914086
0.75969388
0.76022638
0.76073854
0.76123059
0.76170277
0.76215542
0.76258886
0.76300349
0.7633997
0.76377793
0.76413864
0.7644823
0.76480941
0.76512045
0.76541595
0.76569641
0.76596237
0.76621435
0.76645287
0.76667846
0.76689162
0.76709288
0.76728275
0.76746172
0.76763029
0.74348626
0.74440342
0.74531066
0.74620716
0.7470917
0.74796313
0.74882036
0.74966236
0.75048819
0.75129699
0.75208798
0.75286045
0.7536138
0.75434748
0.75506106
0.75575414
0.75642646
0.75707778
0.75770796
0.75831693
0.75890469
0.75947129
0.76001685
0.76054154
0.76104558
0.76152925
0.76199286
0.76243676
0.76286133
0.76326699
0.7636542
0.7640234
0.7643751
0.76470979
0.76502799
0.76533022
0.76561702
0.76588892
0.76614648
0.76639021
0.76662067
0.76683839
0.7670439
0.76723771
0.76742036
0.76759234
0.74288955
0.74382739
0.74475516
0.74567203
0.74657678
0.74746822
0.74834522
0.74920674
0.7500518
0.75087953
0.7516891
0.7524798
0.75325099
0.7540021
0.75473268
0.75544232
0.75613072
0.75679764
0.75744294
0.75806653
0.75866839
0.75924857
0.75980719
0.76034442
0.76086048
0.76135565
0.76183024
0.7622846
0.76271914
0.76313428
0.76353047
0.76390818
0.76426793
0.76461023
0.76493559
0.76524458
0.76553772
0.76581558
0.76607872
0.76632768
0.76656302
0.7667853
0.76699505
0.76719282
0.76737914
0.76755453
0.74229825
0.74325638
0.74420434
0.74514127
0.74606592
0.74697708
0.7478736
0.74875439
0.74961846
0.75046489
0.75129285
0.75210159
0.75289044
0.75365883
0.75440626
0.75513232
0.75583668
0.7565191
0.75717941
0.75781752
0.75843339
0.75902708
0.75959869
0.7601484
0.76067642
0.76118303
0.76166855
0.76213334
0.7625778
0.76300237
0.76340751
0.7637937
0.76416147
0.76451134
0.76484385
0.76515955
0.76545902
0.76574281
0.7660115
0.76626566
0.76650586
0.76673268
0.76694665
0.76714835
0.76733832
0.7675171
0.74171548
0.74269332
0.74366102
0.7446176
0.74556177
0.74649228
0.74740795
0.74830768
0.74919043
0.75005526
0.75090132
0.75172782
0.75253407
0.75331948
0.75408353
0.75482579
0.75554591
0.75624363
0.75691877
0.75757123
0.75820096
0.75880801
0.75939248
0.75995453
0.76049439
0.76101232
0.76150867
0.76198378
0.76243807
0.76287198
0.76328599
0.76368059
0.7640563
0.76441367
0.76475325
0.76507561
0.76538133
0.765671
0.76594519
0.7662045
0.76644952
0.76668081
0.76689897
0.76710456
0.76729814
0.76748027
0.74114405
0.74214069
0.7431276
0.74410336
0.74506659
0.74601601
0.7469504
0.74786864
0.74876967
0.74965252
0.7505163
0.7513602
0.75218352
0.75298563
0.753766
0.75452416
0.75525977
0.75597253
0.75666226
0.75732883
0.7579722
0.75859239
0.75918952
0.75976373
0.76031525
0.76084435
0.76135135
0.76183664
0.76230062
0.76274374
0.76316649
0.76356937
0.76395291
0.76431768
0.76466423
0.76499315
0.76530504
0.76560049
0.76588011
0.76614449
0.76639424
0.76662996
0.76685223
0.76706164
0.76725878
0.7674442
0.73956035
0.74058486
0.74160043
0.74260612
0.74360054
0.74458231
0.74555012
0.74650275
0.74743902
0.74835786
0.74925828
0.75013934
0.75100024
0.75184022
0.75265865
0.75345496
0.75422868
0.75497943
0.75570691
0.75641092
0.75709131
0.75774804
0.75838112
0.75899065
0.75957679
0.76013974
0.76067979
0.76119726
0.76169253
0.76216602
0.76261818
0.76304951
0.76346051
0.76385174
0.76422376
0.76457716
0.76491252
0.76523046
0.76553159
0.76581652
0.76608587
0.76634027
0.76658031
0.76680662
0.76701978
0.76722039
0.76740904
0.73899761
0.74004058
0.74107444
0.74209832
0.74311082
0.74411056
0.74509622
0.74606652
0.74702029
0.74795643
0.74887389
0.74977176
0.75064917
0.75150537
0.75233967
0.75315151
0.75394038
0.75470589
0.75544772
0.75616565
0.75685953
0.7575293
0.75817496
0.7587966
0.75939438
0.7599685
0.76051925
0.76104695
0.76155198
0.76203476
0.76249575
0.76293546
0.76335441
0.76375315
0.76413226
0.76449234
0.764834
0.76515785
0.76546452
0.76575465
0.76602886
0.76628778
0.76653206
0.76676229
0.76697911
0.76718312
0.76737492
0.73845245
0.73951284
0.74056426
0.74160566
0.74263561
0.7436527
0.74465559
0.74564298
0.74661367
0.74756653
0.74850051
0.74941464
0.75030806
0.75117996
0.75202966
0.75285656
0.75366014
0.75443998
0.75519575
0.75592721
0.7566342
0.75731664
0.75797453
0.75860796
0.75921706
0.75980206
0.76036322
0.76090087
0.7614154
0.76190723
0.76237682
0.76282469
0.76325138
0.76365743
0.76404345
0.76441004
0.76475782
0.76508743
0.7653995
0.76569467
0.76597361
0.76623695
0.76648533
0.76671939
0.76693976
0.76714707
0.76734192
0.73792616
0.7390028
0.74007103
0.74112927
0.74217601
0.74320981
0.74422929
0.74523315
0.74622015
0.74718914
0.74813905
0.74906888
0.74997775
0.75086483
0.75172941
0.75257087
0.75338867
0.75418238
0.75495164
0.7556962
0.75641589
0.75711061
0.75778036
0.75842521
0.7590453
0.75964084
0.7602121
0.76075941
0.76128315
0.76178376
0.7622617
0.7627175
0.76315168
0.76356484
0.76395756
0.76433046
0.76468418
0.76501937
0.76533667
0.76563675
0.76592026
0.76618787
0.76644023
0.766678
0.76690182
0.76711232
0.76731012
0.73631757
0.73741817
0.73851117
0.73959564
0.74067006
0.74173291
0.74278274
0.74381816
0.74483783
0.74584051
0.74682501
0.74779024
0.74873518
0.74965892
0.75056062
0.75143954
0.75229504
0.75312656
0.75393364
0.75471592
0.75547313
0.75620507
0.75691166
0.75759287
0.75824876
0.75887947
0.7594852
0.76006622
0.76062287
0.76115552
0.76166462
0.76215063
0.76261409
0.76305553
0.76347555
0.76387475
0.76425376
0.76461323
0.76495381
0.76527617
0.76558098
0.76586892
0.76614066
0.76639687
0.76663821
0.76686535
0.76707893
0.76727959
0.73581384
0.73693017
0.73803878
0.73913878
0.74022869
0.74130696
0.74237215
0.74342282
0.74445765
0.74547534
0.74647471
0.74745464
0.74841408
0.7493521
0.75026784
0.75116054
0.75202952
0.75287423
0.75369418
0.75448899
0.75525837
0.75600212
0.75672013
0.75741237
0.75807889
0.75871983
0.75933539
0.75992583
0.76049147
0.76103272
0.76155
0.7620438
0.76251464
0.76296308
0.76338972
0.76379517
0.76418006
0.76454507
0.76489084
0.76521808
0.76552745
0.76581965
0.76609537
0.76635528
0.76660007
0.76683041
0.76704695
0.76725035
0.73533189
0.73646276
0.73758616
0.73870096
0.73980563
0.74089863
0.74197847
0.74304372
0.74409303
0.74512508
0.74613867
0.74713265
0.74810597
0.74905766
0.74998685
0.75089274
0.75177466
0.75263201
0.7534643
0.75427113
0.75505219
0.75580728
0.75653626
0.7572391
0.75791584
0.75856661
0.75919161
0.75979109
0.7603654
0.7609149
0.76144005
0.76194133
0.76241928
0.76287445
0.76330745
0.7637189
0.76410945
0.76447977
0.76483055
0.76516247
0.76547622
0.76577251
0.76605205
0.76631552
0.76656361
0.76679702
0.76701641
0.76722244
0.73487195
0.73601616
0.73715357
0.73828245
0.73940118
0.7405082
0.741602
0.74268115
0.74374425
0.74479
0.74581715
0.74682455
0.74781112
0.74877586
0.74971789
0.7506364
0.75153069
0.75240013
0.75324423
0.75406256
0.75485481
0.75562074
0.75636023
0.75707322
0.75775975
0.75841995
0.75905399
0.75966215
0.76024475
0.76080217
0.76133487
0.76184332
0.76232808
0.7627897
0.76322879
0.763646
0.76404198
0.7644174
0.76477297
0.76510937
0.76542732
0.76572754
0.76601073
0.7662776
0.76652886
0.7667652
0.76698732
0.76719587
0.73326862
0.73443244
0.73559024
0.73674109
0.73788337
0.73901547
0.74013581
0.74124288
0.74233523
0.74341146
0.74447023
0.74551029
0.74653047
0.74752965
0.74850684
0.74946111
0.75039165
0.75129772
0.75217871
0.75303407
0.75386338
0.75466631
0.75544261
0.75619213
0.75691483
0.75761072
0.75827992
0.75892261
0.75953906
0.76012959
0.76069459
0.7612345
0.76174982
0.76224108
0.76270887
0.7631538
0.76357651
0.76397767
0.76435797
0.76471811
0.7650588
0.76538077
0.76568473
0.76597141
0.76624153
0.76649582
0.76673496
0.76695967
0.76717063
0.73283751
0.73401445
0.73518512
0.73634873
0.73750372
0.73864849
0.73978146
0.74090111
0.74200599
0.74309467
0.74416581
0.74521813
0.74625043
0.74726161
0.74825062
0.74921653
0.75015851
0.75107581
0.75196778
0.75283387
0.75367364
0.75448674
0.75527291
0.756032
0.75676395
0.75746876
0.75814655
0.75879749
0.75942185
0.76001995
0.76059217
0.76113896
0.76166082
0.7621583
0.76263197
0.76308247
0.76351043
0.76391653
0.76430148
0.76466598
0.76501076
0.76533655
0.76564408
0.76593409
0.76620731
0.76646447
0.76670629
0.76693348
0.76714673
0.73242893
0.73361797
0.73480072
0.73597637
0.73714337
0.73830011
0.73944503
0.7405766
0.74169333
0.7427938
0.74387665
0.74494059
0.74598439
0.74700693
0.74800716
0.74898413
0.74993696
0.75086491
0.75176731
0.7526436
0.7534933
0.75431607
0.75511163
0.75587982
0.75662056
0.75733386
0.75801982
0.75867861
0.7593105
0.75991579
0.76049489
0.76104823
0.76157632
0.76207971
0.76255898
0.76301477
0.76344773
0.76385854
0.76424791
0.76461656
0.76496523
0.76529465
0.76560557
0.76589874
0.76617491
0.7664348
0.76667916
0.7669087
0.76712413
0.73204232
0.73324269
0.73443677
0.73562375
0.73680207
0.73797011
0.73912631
0.74026912
0.74139706
0.74250868
0.7436026
0.74467752
0.7457322
0.7467655
0.74777635
0.74876377
0.74972689
0.75066494
0.75157722
0.75246316
0.7533223
0.75415423
0.7549587
0.75573552
0.75648461
0.75720596
0.75789967
0.75856592
0.75920495
0.75981708
0.7604027
0.76096227
0.76149627
0.76200527
0.76248986
0.76295067
0.76338837
0.76380365
0.76419722
0.76456981
0.76492216
0.76525503
0.76556917
0.76586534
0.7661443
0.76640678
0.76665354
0.76688531
0.76710283
0.73167718
0.73288818
0.73409289
0.73529053
0.73647949
0.73765818
0.738825
0.73997841
0.7411169
0.74223903
0.7433434
0.74442869
0.74549364
0.7465371
0.74755798
0.74855529
0.74952813
0.75047572
0.75139735
0.75229244
0.75316048
0.7540011
0.754814
0.75559899
0.75635598
0.75708496
0.75778602
0.75845932
0.75910512
0.75972372
0.76031553
0.76088099
0.7614206
0.76193491
0.76242454
0.76289011
0.7633323
0.76375181
0.76414935
0.76452567
0.76488152
0.76521765
0.76553484
0.76583385
0.76611544
0.76638038
0.76662941
0.76686327
0.7670827
0.76728843
0.73133297
0.73255394
0.73376863
0.73497626
0.73617522
0.7373639
0.73854071
0.73970409
0.74085253
0.74198455
0.74309876
0.74419381
0.74526845
0.74632148
0.74735182
0.74835845
0.74934047
0.75029706
0.75122751
0.75213123
0.75300769
0.75385651
0.75467737
0.75547008
0.75623454
0.75697072
0.75767872
0.7583587
0.75901089
0.75963562
0.76023328
0.7608043
0.76134921
0.76186855
0.76236294
0.76283301
0.76327945
0.76370295
0.76410425
0.76448409
0.76484324
0.76518246
0.76550253
0.76580421
0.7660883
0.76635554
0.76660671
0.76684255
0.7670638
0.76727116
0.73100911
0.73223942
0.73346345
0.73468044
0.73588877
0.73708683
0.73827302
0.73944576
0.74060353
0.74174486
0.74286832
0.74397255
0.74505629
0.74611834
0.74715758
0.74817298
0.74916364
0.75012871
0.75106748
0.75197932
0.75286372
0.75372026
0.75454863
0.75534862
0.75612012
0.7568631
0.75757765
0.75826392
0.75892214
0.75955265
0.76015582
0.7607321
0.761282
0.76180609
0.76230497
0.76277929
0.76322973
0.763657
0.76406184
0.76444501
0.76480726
0.76514939
0.76547217
0.76577638
0.76606281
0.76633224
0.76658542
0.76682312
0.76704608
0.76725501
0.73070497
0.73194401
0.73317677
0.73440251
0.73561962
0.73682646
0.73802143
0.73920295
0.74036948
0.74151953
0.74265167
0.74376453
0.74485682
0.74592733
0.74697493
0.74799858
0.74899735
0.74997039
0.75091698
0.75183646
0.75272832
0.75359213
0.75442756
0.7552344
0.75601253
0.75676191
0.75748262
0.75817481
0.75883872
0.75947467
0.76008303
0.76066425
0.76121886
0.76174742
0.76225052
0.76272884
0.76318304
0.76361387
0.76402204
0.76440833
0.76477352
0.76511838
0.76544371
0.7657503
0.76603893
0.7663104
0.76656548
0.76680493
0.7670295
0.76723992
0.73041989
0.73166706
0.73290797
0.73414188
0.73536718
0.73658224
0.73778543
0.73897517
0.7401499
0.74130812
0.74244839
0.74356933
0.74466963
0.74574807
0.74680351
0.7478349
0.74884128
0.74982181
0.75077573
0.75170239
0.75260125
0.75347188
0.75431395
0.75512722
0.75591157
0.75666696
0.75739346
0.75809122
0.75876046
0.75940152
0.76001475
0.76060063
0.76115966
0.76169241
0.76219949
0.76268155
0.7631393
0.76357346
0.76398477
0.76437399
0.76474193
0.76508935
0.76541708
0.76572589
0.7660166
0.76628999
0.76654685
0.76678794
0.76701402
0.76722584
0.7301532
0.73140792
0.73265639
0.73389791
0.73513087
0.73635359
0.73756447
0.73876188
0.73994428
0.74111014
0.74225802
0.74338651
0.74449432
0.74558018
0.74664296
0.74768159
0.7486951
0.74968263
0.75064341
0.7515768
0.75248222
0.75335925
0.75420753
0.75502683
0.75581701
0.75657804
0.75730997
0.75801294
0.7586872
0.75933304
0.75995085
0.76054109
0.76110426
0.76164094
0.76215174
0.76263733
0.7630984
0.76353568
0.76394992
0.7643419
0.76471241
0.76506224
0.76539221
0.76570311
0.76599576
0.76627095
0.76652947
0.7667721
0.76699961
0.76721273
0.72990416
0.73116586
0.73242135
0.73366996
0.73491004
0.73613992
0.73735796
0.73856254
0.73975209
0.74092509
0.74208007
0.74321563
0.74433043
0.74542323
0.74649287
0.74753826
0.74855843
0.74955251
0.75051972
0.75145939
0.75237095
0.75325396
0.75410805
0.75493299
0.75572863
0.75649493
0.75723194
0.7579398
0.75861873
0.75926906
0.75989115
0.76048547
0.76105252
0.76159288
0.76210717
0.76259605
0.76306022
0.76350042
0.76391741
0.76431196
0.76468488
0.76503696
0.76536903
0.76568189
0.76597635
0.76625322
0.7665133
0.76675737
0.7669862
0.76720055
0.72967206
0.73094016
0.73220216
0.73345736
0.73470407
0.73594061
0.73716533
0.73837659
0.73957281
0.74075246
0.74191406
0.7430562
0.74417753
0.7452768
0.74635283
0.74740453
0.74843092
0.74943111
0.75040431
0.75134985
0.75226714
0.75315573
0.75401525
0.75484545
0.75564619
0.75641741
0.75715916
0.75787158
0.75855489
0.7592094
0.75983549
0.76043361
0.76100429
0.76154809
0.76206563
0.76255758
0.76302466
0.76346759
0.76388714
0.76428409
0.76465926
0.76501344
0.76534747
0.76566214
0.7659583
0.76623674
0.76649827
0.76674369
0.76697376
0.76718925
0.72945615
0.73073008
0.73199811
0.73325942
0.73451231
0.73575505
0.73698598
0.73820346
0.73940589
0.74059173
0.74175949
0.74290775
0.74403516
0.74514045
0.74622243
0.74728001
0.74831219
0.74931807
0.75029685
0.75124785
0.75217048
0.75306426
0.75392884
0.75476395
0.75556944
0.75634525
0.75709142
0.75780808
0.75849547
0.75915388
0.7597837
0.76038537
0.76095942
0.76150642
0.762027
0.76252182
0.7629916
0.76343707
0.76385901
0.7642582
0.76463546
0.7649916
0.76532745
0.76564382
0.76594155
0.76622146
0.76648434
0.76673101
0.76696223
0.76717878
0.7292557
0.73053487
0.73180848
0.73307548
0.7343341
0.73558262
0.73681932
0.73804258
0.73925077
0.74044236
0.74161585
0.7427698
0.74390286
0.74501374
0.74610126
0.7471643
0.74820185
0.74921302
0.75019699
0.75115306
0.75208065
0.75297928
0.75384856
0.75468823
0.75549814
0.75627821
0.75702849
0.75774911
0.75844029
0.75910232
0.75973561
0.76034059
0.76091778
0.76146776
0.76199115
0.76248864
0.76296092
0.76340876
0.76383292
0.76423419
0.7646134
0.76497136
0.7653089
0.76562685
0.76592605
0.76620731
0.76647146
0.76671928
0.76695158
0.76716912
0.72906997
0.73035374
0.73163255
0.73290486
0.73416882
0.73542269
0.73666476
0.73789338
0.73910693
0.74030385
0.74148264
0.74264187
0.74378017
0.74489624
0.74598888
0.74705699
0.74809953
0.7491156
0.75010438
0.75106517
0.75199736
0.75290047
0.75377412
0.75461803
0.75543203
0.75621606
0.75697016
0.75769444
0.75838914
0.75905455
0.75969105
0.76029909
0.76087919
0.76143194
0.76195795
0.76245791
0.76293253
0.76338256
0.76380877
0.76421198
0.76459299
0.76495264
0.76529175
0.76561117
0.76591172
0.76619425
0.76645956
0.76670846
0.76694176
0.76716021
0.72889803
0.73018593
0.73146964
0.7327469
0.73401584
0.73527468
0.73652172
0.7377553
0.73897381
0.74017566
0.74135937
0.74252348
0.74366663
0.7447875
0.74588489
0.74695768
0.74800485
0.74902546
0.7500187
0.75098384
0.7519203
0.75282756
0.75370525
0.75455308
0.75537087
0.75615857
0.7569162
0.75764389
0.75834184
0.75901037
0.75964985
0.76026073
0.76084353
0.76139883
0.76192727
0.76242952
0.76290629
0.76335835
0.76378648
0.76419147
0.76457416
0.76493536
0.76527593
0.7655967
0.76589851
0.7661822
0.7664486
0.7666985
0.76693272
0.76715202
0.72485156
0.72614172
0.72744255
0.72873773
0.73003064
0.73131906
0.73260098
0.73387454
0.73513799
0.73638963
0.7376278
0.73885088
0.7400573
0.74124555
0.74241417
0.74356179
0.7446871
0.74578887
0.746866
0.74791742
0.74894223
0.74993958
0.75090876
0.75184915
0.75276025
0.75364167
0.75449312
0.75531443
0.75610551
0.75686641
0.75759723
0.7582982
0.75896961
0.75961184
0.76022534
0.76081064
0.76136831
0.76189898
0.76240334
0.76288211
0.76333605
0.76376594
0.76417258
0.76455681
0.76491945
0.76526137
0.76558339
0.76588636
0.76617113
0.76643853
0.76668936
0.76692443
0.76714451
0.72341397
0.72469152
0.72598405
0.72728861
0.72858963
0.72988736
0.73118023
0.73246647
0.73374432
0.73501203
0.73626792
0.73751033
0.73873763
0.73994826
0.74114069
0.74231347
0.74346521
0.7445946
0.74570043
0.74678154
0.7478369
0.74886557
0.74986671
0.75083961
0.75178363
0.75269827
0.75358313
0.75443792
0.75526245
0.75605666
0.75682057
0.75755428
0.75825803
0.75893209
0.75957686
0.76019278
0.76078037
0.76134022
0.76187296
0.76237927
0.76285988
0.76331554
0.76374705
0.76415522
0.76454087
0.76490484
0.76524799
0.76557117
0.76587521
0.76616098
0.76642929
0.76668098
0.76691683
0.76713764
0.7232618
0.72454426
0.72583897
0.72714767
0.72845345
0.72975555
0.73105255
0.7323428
0.7336246
0.73489625
0.73615605
0.73740236
0.73863354
0.73984804
0.74104432
0.74222092
0.74337646
0.74450961
0.74561915
0.74670393
0.74776291
0.74879513
0.74979976
0.75077607
0.75172343
0.75264132
0.75352934
0.7543872
0.75521472
0.7560118
0.75677847
0.75751485
0.75822114
0.75889765
0.75954475
0.76016289
0.7607526
0.76131445
0.76184909
0.76235719
0.76283949
0.76329674
0.76372974
0.7641393
0.76452626
0.76489146
0.76523574
0.76555998
0.76586501
0.76615169
0.76642085
0.76667332
0.7669099
0.76713138
0.72312285
0.7244096
0.72570611
0.72701874
0.72832863
0.72963466
0.73093544
0.73222938
0.73351483
0.73479009
0.73605349
0.73730338
0.73853813
0.73975618
0.74095599
0.7421361
0.74329512
0.74443172
0.74554466
0.74663281
0.7476951
0.74873058
0.74973841
0.75071785
0.75166827
0.75258915
0.75348007
0.75434075
0.75517099
0.7559707
0.75673991
0.75747873
0.75818736
0.75886611
0.75951535
0.76013554
0.76072718
0.76129087
0.76182725
0.76233699
0.76282084
0.76327954
0.76371391
0.76412475
0.76451291
0.76487922
0.76522455
0.76554976
0.76585569
0.76614321
0.76641315
0.76666634
0.76690359
0.76712569
0.72299598
0.72428691
0.72558487
0.72690106
0.72821455
0.72952412
0.73082834
0.73212567
0.73341445
0.73469303
0.73595972
0.73721289
0.73845091
0.73967221
0.74087525
0.74205857
0.74322077
0.74436052
0.74547659
0.74656781
0.74763313
0.7486716
0.74968236
0.75066466
0.75161788
0.75254148
0.75343506
0.75429831
0.75513104
0.75593317
0.7567047
0.75744575
0.75815653
0.75883732
0.75948852
0.76011057
0.76070398
0.76126935
0.76180732
0.76231856
0.76280382
0.76326386
0.76369948
0.76411149
0.76450074
0.76486808
0.76521436
0.76554045
0.76584721
0.7661355
0.76640615
0.76666
0.76689787
0.76712053
0.72288018
0.72417556
0.72547466
0.72679392
0.72811061
0.72942335
0.7307307
0.73203111
0.73332295
0.73460455
0.73587425
0.73713041
0.73837142
0.73959568
0.74080167
0.74198792
0.74315302
0.74429565
0.74541456
0.74650859
0.74757668
0.74861787
0.74963129
0.75061621
0.75157198
0.75249807
0.75339407
0.75425967
0.75509467
0.75589899
0.75667264
0.75741573
0.75812846
0.75881112
0.7594641
0.76008785
0.76068288
0.76124978
0.76178919
0.76230181
0.76278836
0.76324961
0.76368636
0.76409944
0.76448969
0.76485796
0.76520511
0.76553201
0.76583952
0.7661285
0.76639981
0.76665427
0.7668927
0.76711589
0.72277445
0.72407507
0.72537495
0.72669668
0.72801622
0.72933181
0.73064199
0.73194519
0.7332398
0.73452416
0.7357966
0.73705549
0.73829921
0.73952617
0.74073484
0.74192375
0.7430915
0.74423674
0.74535824
0.74645482
0.74752542
0.74856908
0.74958493
0.75057222
0.75153031
0.75245866
0.75335686
0.7542246
0.75506167
0.75586799
0.75664356
0.75738849
0.75810299
0.75878736
0.75944196
0.76006724
0.76066374
0.76123204
0.76177277
0.76228662
0.76277434
0.7632367
0.76367449
0.76408853
0.76447969
0.7648488
0.76519674
0.76552437
0.76583256
0.76612218
0.76639408
0.76664909
0.76688804
0.76711171
0.72267758
0.72398521
0.72528518
0.72660875
0.72793081
0.72924894
0.73056166
0.7318674
0.73316452
0.73445138
0.73572631
0.73698767
0.73823385
0.73946325
0.74067436
0.74186569
0.74303583
0.74418344
0.74530728
0.74640617
0.74747905
0.74852495
0.749543
0.75053244
0.75149263
0.75242303
0.75332322
0.75419289
0.75503183
0.75583996
0.75661727
0.75736388
0.75807998
0.75876588
0.75942195
0.76004864
0.76064646
0.76121601
0.76175793
0.76227292
0.7627617
0.76322505
0.76366377
0.7640787
0.76447067
0.76484054
0.76518919
0.76551749
0.7658263
0.76611649
0.76638893
0.76664444
0.76688387
0.76710799
0.72258789
0.72390632
0.7252047
0.72652956
0.72785382
0.72917422
0.73048923
0.73179725
0.73309664
0.73438576
0.73566293
0.73692653
0.73817493
0.73940654
0.74061985
0.74181336
0.74298566
0.74413541
0.74526136
0.74636234
0.74743728
0.7484852
0.74950523
0.75049661
0.75145869
0.75239094
0.75329293
0.75416434
0.75500497
0.75581472
0.75659361
0.75734172
0.75805928
0.75874657
0.75940395
0.7600319
0.76063092
0.76120161
0.7617446
0.7622606
0.76275033
0.76321458
0.76365415
0.76406986
0.76446257
0.76483313
0.76518242
0.76551132
0.76582068
0.7661114
0.76638431
0.76664028
0.76688014
0.76710468
0.72250898
0.72383358
0.72513259
0.72645852
0.72778472
0.72910715
0.73042421
0.73173428
0.73303571
0.73432685
0.73560605
0.73687165
0.73812205
0.73935566
0.74057094
0.7417664
0.74294065
0.74409233
0.74522018
0.74632303
0.74739982
0.74844955
0.74947136
0.75046448
0.75142827
0.75236218
0.75326578
0.75413876
0.7549809
0.75579212
0.75657241
0.75732188
0.75804074
0.75872927
0.75938784
0.76001692
0.76061701
0.76118872
0.76173267
0.76224958
0.76274017
0.76320522
0.76364555
0.76406197
0.76445533
0.76482652
0.76517638
0.76550581
0.76581567
0.76610685
0.7663802
0.76663658
0.76687683
0.76710177
0.72243917
0.72376771
0.72506809
0.72639506
0.727723
0.72904724
0.73036613
0.73167803
0.73298128
0.73427425
0.73555525
0.73682266
0.73807485
0.73931023
0.74052728
0.7417245
0.74290048
0.74405388
0.74518343
0.74628796
0.7473664
0.74841775
0.74944115
0.75043584
0.75140115
0.75233654
0.75324158
0.75411595
0.75495945
0.75577197
0.75655352
0.75730421
0.75802422
0.75871386
0.75937349
0.76000358
0.76060463
0.76117725
0.76172206
0.76223978
0.76273113
0.76319691
0.7636379
0.76405495
0.76444891
0.76482064
0.76517102
0.76550092
0.76581123
0.76610282
0.76637655
0.7666333
0.7668739
0.76709921
0.72237746
0.72370878
0.72501069
0.72633866
0.72766817
0.72899403
0.73031455
0.73162808
0.73293296
0.73422754
0.73551015
0.73677916
0.73803295
0.73926992
0.74048854
0.74168732
0.74286485
0.74401978
0.74515084
0.74625686
0.74733676
0.74838956
0.74941438
0.75041044
0.7513771
0.75231381
0.75322013
0.75409575
0.75494045
0.75575413
0.7565368
0.75728856
0.7580096
0.75870023
0.7593608
0.75999178
0.76059368
0.7611671
0.76171268
0.76223112
0.76272315
0.76318956
0.76363115
0.76404876
0.76444324
0.76481546
0.76516629
0.76549662
0.76580732
0.76609927
0.76637334
0.76663041
0.76687131
0.76709695
0.72232311
0.72365654
0.72495994
0.72628886
0.72761979
0.72894708
0.73026905
0.73158402
0.73289034
0.73418635
0.73547039
0.73674082
0.73799601
0.73923438
0.74045439
0.74165456
0.74283345
0.74398974
0.74512214
0.74622948
0.74731067
0.74836474
0.74939081
0.7503881
0.75135595
0.75229382
0.75320127
0.75407798
0.75492374
0.75573845
0.7565221
0.7572748
0.75799676
0.75868825
0.75934965
0.75998142
0.76058407
0.7611582