/*--------------------------------*- C++ -*----------------------------------*\
| =========                 |                                                 |
| \\      /  F ield         | OpenFOAM: The Open Source CFD Toolbox           |
|  \\    /   O peration     | Version:  2312                                  |
|   \\  /    A nd           | Website:  www.openfoam.com                      |
|    \\/     M anipulation  |                                                 |
\*---------------------------------------------------------------------------*/
FoamFile
{
    version     2.0;
    format      ascii;
    arch        "LSB;label=32;scalar=64";
    class       volScalarField;
    location    "0.04";
    object      nut;
}
// * * * * * * * * * * * * * * * * * * * * * * * * * * * * * * * * * * * * * //

dimensions      [0 2 -1 0 0 0 0];

internalField   nonuniform List<scalar> 
3250
(
0.032038106
0.032094962
0.032153189
0.03221293
0.03227431
0.032337442
0.032402431
0.032469371
0.032538347
0.032609435
0.032682703
0.03275821
0.032836007
0.03291614
0.032998649
0.033083568
0.033170927
0.033260757
0.033353084
0.033447935
0.033545337
0.033645321
0.033747919
0.033853168
0.03396111
0.034071791
0.034185266
0.034301595
0.034420846
0.034543095
0.034668425
0.034796928
0.034928703
0.035063859
0.03520251
0.035344779
0.035490794
0.035640692
0.035794609
0.035952689
0.036115101
0.036281992
0.036453521
0.036629857
0.032044393
0.032100771
0.032158531
0.032217815
0.03227875
0.03234145
0.032406021
0.032472558
0.032541147
0.032611866
0.032684782
0.032759955
0.032837438
0.032917276
0.032999509
0.033084172
0.033171297
0.033260911
0.033353041
0.033447715
0.03354496
0.033644805
0.033747282
0.033852428
0.033960284
0.034070896
0.034184317
0.034300609
0.034419837
0.034542077
0.034667412
0.034795933
0.034927739
0.035062938
0.035201643
0.035343976
0.035490067
0.035640049
0.035794059
0.035952239
0.036114756
0.036281753
0.036453386
0.036629833
0.032050643
0.032106151
0.03216306
0.032221517
0.032281651
0.032343579
0.032407408
0.032473236
0.03254115
0.03261123
0.032683544
0.032758153
0.032835111
0.032914463
0.03299625
0.033080506
0.033167263
0.033256548
0.033348389
0.033442811
0.03353984
0.033639506
0.03374184
0.033846876
0.033954654
0.034065221
0.034178628
0.034294933
0.034414203
0.034536512
0.034661942
0.034790582
0.034922531
0.035057893
0.035196783
0.035339322
0.035485635
0.035635858
0.035790127
0.035948577
0.036111381
0.036278677
0.036450621
0.036627396
0.032058397
0.032112697
0.032168427
0.032225738
0.032284763
0.032345622
0.032408426
0.032473274
0.032540258
0.032609457
0.032680942
0.032754776
0.032831013
0.0329097
0.032990876
0.033074577
0.033160834
0.033249674
0.033341123
0.033435207
0.03353195
0.03363138
0.033733527
0.033838423
0.033946109
0.034056626
0.034170026
0.034286366
0.034405709
0.034528129
0.034653705
0.034782525
0.034914686
0.035050292
0.035189455
0.035332294
0.035478935
0.035629509
0.035784155
0.035943
0.036106221
0.036273953
0.036446353
0.036623604
0.032066951
0.032119753
0.032174024
0.032229919
0.032287574
0.032347115
0.032408654
0.032472297
0.032538135
0.032606252
0.03267672
0.032749604
0.032824958
0.032902831
0.032983263
0.033066289
0.033151939
0.033240242
0.033331221
0.0334249
0.033521303
0.033620457
0.033722388
0.033827128
0.033934715
0.034045189
0.034158599
0.034274999
0.034394451
0.034517027
0.034642803
0.034771866
0.03490431
0.035040237
0.035179758
0.035322988
0.035470054
0.035621084
0.035776215
0.035935575
0.036099332
0.036267628
0.036440615
0.036618476
0.032075782
0.032126843
0.032179416
0.032233665
0.032289731
0.032347742
0.032407817
0.032470063
0.032534577
0.032601443
0.032670737
0.032742525
0.032816864
0.032893801
0.03297338
0.033055633
0.033140592
0.033228283
0.03331873
0.033411955
0.033507979
0.033606828
0.033708527
0.033813104
0.033920595
0.034031037
0.034144478
0.034260968
0.034380568
0.034503346
0.034629376
0.034758742
0.034891537
0.035027859
0.035167818
0.035311527
0.035459109
0.035610692
0.03576641
0.035926392
0.036090796
0.03625977
0.036433463
0.036612057
0.03208451
0.032133619
0.032184295
0.032236706
0.032290997
0.032347304
0.032405748
0.032466439
0.032529479
0.032594955
0.032662946
0.032733519
0.032806733
0.032882637
0.032961273
0.033042676
0.033126876
0.033213899
0.033303766
0.033396498
0.033492117
0.033590642
0.033692099
0.033796513
0.033903916
0.034014344
0.03412784
0.034244453
0.034364239
0.034487264
0.034613601
0.034743329
0.034876538
0.035013326
0.035153797
0.035298064
0.035446247
0.035598472
0.035754869
0.03591557
0.036080721
0.036250477
0.036424981
0.036604418
0.032092829
0.032139809
0.032188421
0.032238835
0.032291202
0.03234566
0.032402335
0.032461343
0.032522788
0.032586761
0.032653343
0.032722605
0.032794606
0.032869398
0.032947021
0.033027513
0.033110901
0.033197211
0.033286463
0.033378677
0.033473871
0.033572064
0.033673276
0.033777533
0.033884861
0.033995294
0.034108871
0.034225639
0.034345651
0.034468969
0.034595661
0.034725806
0.034859491
0.034996808
0.035137861
0.035282759
0.03543162
0.035584566
0.035741727
0.035903232
0.036069219
0.036239849
0.036415259
0.036595636
0.032100491
0.032145192
0.032191608
0.0322399
0.032290221
0.032342715
0.032397512
0.032454733
0.032514486
0.032576866
0.032641957
0.032709831
0.03278055
0.032854167
0.032930725
0.033010258
0.033092795
0.033178361
0.033266974
0.033358653
0.033453412
0.033551269
0.033652241
0.033756349
0.033863618
0.033974078
0.034087765
0.034204721
0.034324997
0.03444865
0.034575746
0.03470636
0.034840575
0.034978481
0.035120179
0.035265774
0.035415381
0.035569121
0.035727119
0.035889507
0.03605641
0.036227994
0.036404394
0.036585795
0.032027003
0.032066449
0.032107233
0.032149592
0.032193721
0.032239796
0.032287978
0.032338417
0.032391251
0.032446605
0.03250459
0.032565307
0.032628842
0.032695271
0.032764657
0.032837054
0.032912505
0.032991046
0.033072706
0.033157506
0.033245466
0.033336599
0.033430921
0.033528444
0.033629183
0.033733157
0.033840386
0.033950896
0.034064721
0.034181898
0.034302474
0.034426503
0.034554047
0.034685178
0.034819974
0.034958523
0.035100922
0.035247274
0.03539769
0.035552287
0.035711189
0.035874525
0.036042415
0.036215023
0.036392484
0.036574983
0.032037903
0.032074741
0.032113012
0.032152928
0.032194685
0.032238464
0.032284433
0.03233275
0.032383556
0.032436982
0.032493145
0.032552148
0.032614081
0.032679022
0.032747038
0.032818182
0.032892501
0.032970028
0.033050792
0.033134815
0.033222114
0.0333127
0.033406587
0.033503783
0.033604302
0.033708157
0.033815366
0.033925952
0.034039942
0.034157371
0.034278282
0.034402726
0.034530759
0.03466245
0.034797874
0.034937115
0.035080266
0.035227427
0.035378705
0.035534215
0.035694078
0.035858419
0.036027358
0.036201049
0.036379632
0.036563291
0.032047853
0.032082036
0.032117723
0.032155128
0.032194451
0.032235878
0.032279582
0.032325727
0.03237446
0.032425917
0.032480219
0.032537473
0.032597773
0.0326612
0.032727821
0.032797694
0.032870863
0.032947364
0.033027226
0.033110467
0.033197104
0.033287147
0.033380606
0.033477487
0.0335778
0.033681555
0.033788766
0.03389945
0.034013633
0.034131346
0.034252625
0.034377518
0.034506078
0.034638368
0.034774461
0.034914437
0.035058384
0.035206399
0.035358586
0.035515057
0.035675929
0.035841325
0.036011363
0.036186187
0.036365944
0.036550814
0.032056755
0.032088242
0.032121301
0.032156154
0.032193003
0.03223204
0.032273447
0.032317389
0.032364021
0.032413484
0.032465901
0.032521387
0.032580036
0.032641933
0.032707149
0.032775741
0.032847754
0.032923227
0.033002185
0.033084647
0.033170629
0.033260137
0.033353179
0.03344976
0.033549883
0.033653557
0.033760791
0.033871599
0.033986002
0.034104025
0.034225703
0.034351077
0.034480197
0.034613123
0.034749921
0.034890668
0.035035449
0.035184358
0.035337494
0.035494965
0.035656887
0.035823378
0.035994557
0.036170555
0.036351525
0.036537649
0.032064543
0.032093309
0.032123718
0.032155995
0.03219035
0.03222698
0.032266072
0.032307797
0.032352316
0.032399773
0.032450298
0.032504007
0.032561001
0.032621366
0.032685174
0.032752484
0.032823345
0.032897793
0.032975854
0.033057546
0.033142882
0.033231868
0.033324509
0.033420804
0.033520757
0.03362437
0.033731649
0.033842605
0.033957252
0.034075612
0.034197716
0.0343236
0.03445331
0.0345869
0.034724434
0.034865985
0.035011632
0.035161466
0.035315584
0.035474089
0.035637092
0.03580471
0.035977062
0.036154267
0.036336483
0.036523891
0.032071188
0.032097224
0.032124975
0.032154672
0.032186529
0.03222075
0.032257525
0.032297034
0.03233944
0.032384894
0.03243353
0.032485467
0.03254081
0.032599648
0.032662056
0.032728094
0.032797812
0.032871245
0.032948421
0.033029356
0.033114061
0.033202541
0.033294796
0.033390825
0.033490626
0.033594199
0.033701545
0.033812669
0.033927584
0.034046306
0.03416886
0.034295279
0.034425604
0.034559885
0.034698181
0.03484056
0.0349871
0.035137885
0.03529301
0.035452573
0.035616684
0.035785454
0.035959002
0.036137437
0.036320923
0.036509638
0.032076688
0.0321
0.032125102
0.032152228
0.032181597
0.03221342
0.032247892
0.032285196
0.032325503
0.032368966
0.032415726
0.032465905
0.032519612
0.032576938
0.03263796
0.032702741
0.032771331
0.032843767
0.032920074
0.033000269
0.033084361
0.033172352
0.033264241
0.033360023
0.033459692
0.033563244
0.033670677
0.033781991
0.033897195
0.034016299
0.034139325
0.0342663
0.034397261
0.034532254
0.034671333
0.034814562
0.034962014
0.035113771
0.035269921
0.035430561
0.035595797
0.035765736
0.035940495
0.036120179
0.036304946
0.036494983
0.032081066
0.032101673
0.032124148
0.032148725
0.032175631
0.032205078
0.032237269
0.032272392
0.032310623
0.032352119
0.032397025
0.032445469
0.032497561
0.032553396
0.032613054
0.0326766
0.032744083
0.032815541
0.032891
0.032970475
0.033053974
0.033141497
0.033233039
0.033328593
0.03342815
0.033531701
0.03363924
0.033750763
0.033866274
0.033985779
0.034109295
0.034236844
0.034368458
0.03450418
0.034644057
0.034788151
0.03493653
0.035089271
0.035246459
0.035408189
0.03557456
0.035745678
0.035921656
0.036102598
0.036288654
0.036480016
0.032084361
0.032102298
0.032122179
0.032144243
0.032168718
0.032195824
0.032225767
0.032258741
0.032294926
0.032334487
0.032377569
0.032424307
0.032474812
0.032529185
0.032587506
0.032649841
0.032716243
0.032786748
0.032861382
0.03294016
0.033023087
0.033110163
0.033201379
0.033296725
0.033396188
0.033499757
0.03360742
0.033719169
0.033835003
0.033954925
0.034078945
0.034207082
0.034339363
0.034475824
0.034616512
0.034761481
0.034910795
0.035064529
0.035222763
0.035385587
0.035553098
0.035725398
0.035902597
0.036084796
0.036272138
0.036464828
0.032073055
0.032086619
0.032101941
0.032119277
0.032138871
0.032160958
0.032185764
0.0322135
0.032244365
0.032278545
0.032316206
0.032357502
0.032402568
0.032451522
0.032504464
0.032561479
0.032622634
0.032687982
0.032757561
0.032831396
0.032909501
0.032991881
0.033078531
0.033169441
0.033264599
0.033363987
0.033467591
0.033575393
0.033687384
0.033803555
0.033923906
0.034048442
0.034177177
0.034310133
0.034447343
0.034588847
0.034734696
0.03488495
0.035039678
0.035198958
0.035362876
0.035531526
0.035705005
0.035883419
0.036066871
0.036255497
0.036449506
0.032077017
0.03208794
0.032100693
0.032115532
0.032132706
0.032152456
0.03217501
0.032200587
0.03222939
0.032261609
0.032297415
0.032336967
0.032380402
0.032427842
0.03247939
0.032535134
0.032595141
0.032659467
0.032728149
0.032801212
0.03287867
0.032960526
0.033046772
0.033137398
0.033232386
0.033331717
0.033435371
0.033543328
0.033655572
0.033772092
0.033892881
0.034017941
0.034147281
0.034280918
0.034418879
0.034561201
0.034707931
0.034859123
0.035014844
0.035175166
0.035340173
0.035509953
0.035684601
0.035864222
0.036048917
0.036238813
0.036434126
0.032080063
0.032088401
0.032098642
0.032111042
0.032125853
0.03214332
0.032163678
0.032187149
0.032213942
0.032244249
0.032278249
0.032316102
0.03235795
0.032403918
0.032454112
0.032508622
0.032567518
0.032630854
0.03269867
0.032770991
0.032847828
0.032929183
0.033015049
0.03310541
0.033200247
0.033299536
0.033403255
0.033511378
0.033623886
0.033740763
0.033861998
0.033987587
0.034117535
0.034251854
0.034390566
0.034533705
0.034681311
0.034833436
0.034990142
0.035151498
0.035317582
0.035488479
0.035664285
0.035845098
0.036031017
0.036222163
0.036418761
0.032082259
0.032088086
0.032095879
0.032105902
0.032118412
0.032133659
0.03215188
0.032173303
0.032198141
0.032226592
0.032258837
0.03229504
0.032335349
0.03237989
0.032428773
0.032482089
0.03253991
0.032602291
0.032669273
0.032740881
0.032817124
0.032898004
0.032983511
0.033073627
0.033168329
0.033267592
0.033371387
0.033479688
0.033592469
0.033709709
0.033831393
0.033957513
0.034088068
0.034223067
0.034362527
0.034506476
0.034654951
0.034808
0.034965679
0.035128054
0.035295199
0.0354672
0.035644144
0.035826127
0.036013247
0.03620562
0.036403478
0.032082085
0.0320837
0.032087082
0.032092497
0.032100212
0.032110488
0.032123578
0.032139726
0.032159163
0.032182106
0.032208757
0.032239303
0.03227391
0.032312729
0.03235589
0.032403506
0.032455669
0.032512453
0.032573916
0.032640097
0.032711021
0.032786697
0.032867126
0.032952295
0.033042185
0.033136769
0.033236019
0.033339902
0.033448388
0.033561447
0.033679054
0.033801189
0.033927839
0.034058999
0.034194672
0.034334873
0.034479622
0.034628955
0.034782914
0.034941551
0.035104927
0.035273118
0.035446199
0.035624257
0.035807385
0.035995679
0.03618925
0.036388339
0.032085293
0.032084468
0.032085479
0.032088588
0.032094066
0.032102178
0.032113181
0.032127322
0.032144838
0.032165948
0.03219086
0.032219763
0.032252828
0.032290209
0.032332039
0.032378434
0.032429487
0.032485274
0.032545854
0.032611267
0.032681537
0.032756674
0.032836675
0.032921527
0.033011208
0.03310569
0.033204938
0.033308919
0.033417597
0.033530938
0.033648913
0.033771498
0.033898674
0.034030433
0.034166773
0.034307702
0.03445324
0.034603416
0.034758267
0.034917842
0.035082202
0.035251413
0.035425549
0.035604694
0.035788938
0.035978375
0.036173112
0.036373398
0.03208782
0.032084642
0.032083358
0.032084238
0.032087554
0.032093575
0.032102563
0.032114767
0.032130428
0.032149771
0.032173005
0.032200324
0.032231904
0.0322679
0.032308449
0.032353669
0.032403655
0.032458486
0.03251822
0.032582898
0.032652544
0.032727168
0.032806765
0.03289132
0.032980809
0.033075201
0.033174459
0.033278544
0.033387419
0.033501044
0.033619386
0.033742417
0.033870114
0.034002463
0.034139458
0.034281104
0.034427415
0.034578416
0.034734139
0.034894633
0.03505995
0.035230155
0.035405318
0.03558552
0.035770846
0.035961392
0.036157258
0.036358702
0.032089735
0.032084298
0.032080803
0.032079532
0.032080764
0.03208477
0.032091815
0.032102153
0.032116028
0.032133669
0.032155289
0.032181085
0.032211236
0.032245902
0.03228522
0.032329312
0.032378276
0.03243219
0.032491115
0.032555091
0.032624143
0.032698279
0.032777495
0.032861772
0.032951085
0.033045399
0.033144676
0.033248873
0.033357946
0.033471856
0.033590563
0.033714034
0.033842243
0.033975171
0.034112808
0.034255155
0.034402221
0.034554024
0.0347106
0.034871987
0.035038235
0.035209405
0.035385565
0.03556679
0.035753164
0.035944778
0.036141733
0.036344293
0.032100519
0.032091149
0.032083517
0.032077889
0.032074548
0.032073774
0.032075841
0.032081019
0.032089564
0.032101723
0.03211773
0.0321378
0.032162134
0.032190914
0.032224303
0.032262442
0.032305454
0.032353438
0.032406476
0.032464628
0.032527936
0.032596423
0.032670097
0.032748952
0.03283297
0.032922122
0.03301637
0.033115673
0.033219985
0.03332926
0.033443451
0.033562518
0.033686422
0.033815133
0.033948628
0.034086892
0.034229921
0.03437772
0.034530307
0.034687708
0.034849961
0.035017111
0.035189216
0.035366339
0.035548553
0.035735937
0.035928578
0.036126575
0.036330201
0.032103651
0.032092107
0.032082365
0.032074687
0.032069357
0.032066657
0.032066865
0.032070251
0.032077076
0.03208759
0.032102029
0.032120614
0.032143548
0.032171016
0.032203183
0.032240194
0.032282173
0.032329222
0.032381423
0.032438839
0.032501509
0.03256946
0.032642697
0.032721213
0.032804989
0.032893992
0.032988184
0.03308752
0.033191951
0.033301426
0.033415897
0.033535317
0.033659645
0.033788846
0.033922892
0.034061765
0.034205456
0.034353967
0.034507312
0.034665513
0.034828603
0.034996625
0.035169632
0.035347685
0.035530851
0.035719206
0.035912831
0.036111819
0.036316446
0.032106288
0.032092665
0.032080901
0.032071259
0.032064024
0.03205948
0.032057906
0.032059577
0.032064756
0.032073696
0.032086636
0.0321038
0.032125395
0.032151609
0.032182609
0.032218542
0.032259536
0.032305693
0.032357098
0.032413812
0.032475878
0.032543319
0.032616143
0.032694341
0.03277789
0.032866758
0.032960903
0.033060277
0.033164828
0.033274503
0.033389248
0.033509014
0.033633755
0.033763431
0.033898012
0.034037475
0.034181807
0.034331007
0.034485084
0.034644055
0.034807952
0.034976814
0.035150689
0.035329636
0.035513719
0.035703008
0.035897575
0.0360975
0.036303037
0.032108489
0.032092878
0.032079182
0.032067663
0.032058607
0.0320523
0.032049024
0.032049056
0.032052663
0.0320601
0.032071609
0.032087417
0.032107735
0.032132751
0.032162639
0.032197545
0.0322376
0.032282908
0.032333555
0.032389603
0.032451095
0.032518055
0.032590488
0.032668386
0.032751724
0.032840468
0.032934574
0.033033991
0.033138663
0.033248534
0.033363548
0.03348365
0.033608792
0.033738929
0.033874028
0.03401406
0.034159011
0.034308874
0.034463654
0.034623367
0.034788039
0.034957707
0.035132417
0.035312223
0.035497186
0.035687372
0.035882848
0.03608367
0.036290005
0.032110307
0.0320928
0.032077261
0.032063951
0.032053158
0.03204517
0.032040272
0.032038741
0.032040849
0.032046852
0.032056998
0.032071514
0.032090615
0.032114493
0.03214332
0.03217725
0.032216412
0.032260914
0.03231084
0.032366256
0.032427205
0.032493709
0.032565774
0.032643391
0.032726533
0.032815163
0.032909237
0.033008699
0.033113492
0.033223556
0.033338832
0.03345926
0.033584789
0.033715371
0.033850968
0.033991548
0.034137093
0.034287593
0.034443048
0.034603472
0.034768887
0.034939327
0.035114835
0.035295464
0.035481271
0.035672322
0.035868681
0.036070408
0.036277675
0.036490736
0.03211179
0.032092477
0.032075184
0.03206017
0.032047724
0.032038135
0.032031692
0.032028675
0.032029356
0.032033997
0.032042845
0.032056133
0.032074077
0.032096871
0.032124693
0.032157695
0.032196009
0.032239745
0.03228899
0.032343807
0.032404241
0.032470315
0.032542034
0.032619386
0.032702345
0.032790872
0.032884919
0.032984429
0.033089342
0.033199595
0.033315123
0.033435867
0.033561769
0.033692779
0.033828854
0.033969961
0.034116075
0.034267184
0.034423285
0.034584388
0.034750513
0.03492169
0.03509796
0.035279374
0.035465988
0.035657866
0.035855078
0.036057688
0.036265829
0.03647987
0.032112981
0.032091952
0.032072993
0.032056359
0.032042343
0.032031235
0.032023324
0.032018895
0.032018221
0.032021567
0.032029184
0.032041306
0.032058152
0.032079919
0.032106786
0.032138908
0.03217642
0.032219431
0.032268029
0.032322281
0.032382229
0.032447897
0.03251929
0.032596395
0.032679183
0.032767616
0.032861641
0.0329612
0.033066231
0.033176666
0.033292439
0.033413486
0.033539747
0.033671167
0.033807701
0.03394931
0.034095968
0.034247659
0.034404376
0.034566126
0.034732926
0.034904805
0.0350818
0.03526396
0.035451341
0.035644007
0.035842029
0.036045477
0.036254476
0.03646936
0.032113918
0.032091263
0.032070724
0.032052556
0.03203705
0.032024501
0.0320152
0.032009431
0.032007474
0.032009593
0.032016042
0.03202706
0.032042865
0.03206366
0.032089623
0.032120912
0.032157664
0.032199989
0.032247977
0.032301694
0.032361184
0.032426471
0.032497557
0.03257443
0.03265706
0.032745406
0.032839414
0.032939024
0.033044169
0.033154781
0.033270789
0.033392127
0.033518731
0.033650543
0.033787514
0.033929602
0.034076778
0.034229022
0.034386325
0.03454869
0.034716131
0.034888676
0.035066359
0.035249227
0.035437334
0.035630745
0.03582953
0.036033763
0.036243563
0.036459236
0.032114636
0.032090442
0.032068409
0.032048789
0.032031875
0.032017962
0.032007344
0.032000309
0.031997136
0.031998094
0.03200344
0.032013412
0.032028234
0.032048108
0.032073217
0.03210372
0.032139754
0.032181432
0.032228845
0.032282058
0.032341117
0.032406043
0.032476842
0.032553498
0.032635981
0.032724247
0.032818242
0.032917902
0.033023159
0.033133941
0.033250175
0.033371791
0.033498722
0.033630907
0.033768294
0.033910838
0.034058505
0.034211274
0.034369132
0.034532079
0.034700128
0.034873302
0.035051635
0.035235171
0.035423964
0.035618076
0.035817578
0.036022545
0.036233088
0.036449505
0.032115165
0.03208952
0.032066077
0.032045086
0.032026842
0.032011641
0.031999779
0.031991546
0.031987225
0.031987087
0.03199139
0.032000376
0.03201427
0.032033276
0.032057579
0.03208734
0.032122697
0.032163765
0.032210636
0.032263375
0.032322027
0.032386617
0.032457146
0.032533599
0.032615945
0.032704138
0.032798123
0.032897833
0.033003197
0.033114142
0.033230591
0.033352472
0.033479714
0.033612254
0.033750035
0.033893011
0.034041144
0.03419441
0.034352792
0.03451629
0.034684912
0.03485868
0.035037624
0.035221789
0.035411226
0.035605997
0.035806171
0.036011821
0.036223056
0.03644017
0.032115531
0.032088521
0.032063751
0.032041468
0.032021969
0.032005553
0.031992519
0.031983157
0.031977754
0.031976583
0.031979903
0.031987959
0.032000977
0.032019166
0.03204271
0.032071772
0.032106493
0.032146987
0.032193348
0.032245641
0.032303913
0.032368186
0.032438462
0.032514726
0.032596945
0.032685072
0.032779048
0.032878807
0.032984275
0.033095376
0.03321203
0.033334162
0.033461699
0.033594574
0.033732729
0.033876113
0.034024686
0.034178419
0.034337297
0.034501313
0.034670474
0.0348448
0.035024319
0.035209074
0.035399114
0.0355945
0.035795301
0.036001587
0.036213466
0.036431231
0.032115757
0.032087468
0.032061451
0.032037954
0.032017274
0.031999715
0.031985576
0.031975152
0.03196873
0.031966586
0.031968981
0.031976162
0.031988358
0.032005778
0.032028608
0.032057014
0.032091137
0.032131092
0.032176974
0.032228849
0.032286764
0.03235074
0.032420781
0.032496868
0.032578969
0.032667034
0.032761005
0.032860812
0.032966379
0.033077627
0.033194476
0.033316845
0.033444661
0.033577853
0.03371636
0.033860128
0.034009115
0.03416329
0.034322632
0.034487135
0.034656802
0.034831651
0.035011709
0.035197015
0.035387618
0.035583578
0.035784961
0.035991839
0.036204316
0.036422689
0.032115864
0.032086383
0.032059197
0.032034558
0.032012768
0.031994134
0.031978957
0.031967535
0.031960156
0.031957098
0.031958625
0.031964985
0.031976409
0.031993107
0.032015268
0.032043058
0.032076619
0.032116069
0.032161502
0.032212986
0.032270566
0.032334266
0.032404086
0.032480009
0.032562
0.032650009
0.032743976
0.032843829
0.032949491
0.033060879
0.033177911
0.033300505
0.033428583
0.033562074
0.033700911
0.033845041
0.033994416
0.034149005
0.034308783
0.034473741
0.034643882
0.03481922
0.03499978
0.0351856
0.035376727
0.035573219
0.035775143
0.035982569
0.036195598
0.036414536
0.03211587
0.032085284
0.032057003
0.032031293
0.032008461
0.031988817
0.031972667
0.031960308
0.031952032
0.031948117
0.03194883
0.031954421
0.031965121
0.031981143
0.032002677
0.03202989
0.032062926
0.032101904
0.032146917
0.032198035
0.032255303
0.032318744
0.032388358
0.032464128
0.032546017
0.032633976
0.03272794
0.032827837
0.032933588
0.033045108
0.033162313
0.033285118
0.033413443
0.033547214
0.033686362
0.03383083
0.033980569
0.034135544
0.03429573
0.034461115
0.034631697
0.03480749
0.034988518
0.035174815
0.035366428
0.035563413
0.035765836
0.035973766
0.036187305
0.036406763
0.032115795
0.032084191
0.032054882
0.032028167
0.032004358
0.031983769
0.031966706
0.031953471
0.031944354
0.031939638
0.03193959
0.031944461
0.031954484
0.031969874
0.031990822
0.032017496
0.032050042
0.032088578
0.0321332
0.032183976
0.032240952
0.032304152
0.032373575
0.032449202
0.032530998
0.032618909
0.032712872
0.032812811
0.032918647
0.033030291
0.033147658
0.033270661
0.033399217
0.033533249
0.033672688
0.033817472
0.033967552
0.034122888
0.034283454
0.034449235
0.034620228
0.034796444
0.034977905
0.035164645
0.035356707
0.035554146
0.035757028
0.035965421
0.036179427
0.036399362
0.032115671
0.03208312
0.032052846
0.032025186
0.032000463
0.031978989
0.031961074
0.031947019
0.031937118
0.031931653
0.031930894
0.031935093
0.031944485
0.031959285
0.031979686
0.032005858
0.032037947
0.032076071
0.032120328
0.032170786
0.032227491
0.032290466
0.032359711
0.032435207
0.032516915
0.032604783
0.032698745
0.032798725
0.032904639
0.0330164
0.033133919
0.033257107
0.033385879
0.033520155
0.033659865
0.033804943
0.03395534
0.034111012
0.034271931
0.03443808
0.034609455
0.034786063
0.034967925
0.035155072
0.035347548
0.035545404
0.035748706
0.035957523
0.036171954
0.036392323
0.03222787
0.032188714
0.032151124
0.032115604
0.032082091
0.032050899
0.032022355
0.031996775
0.031974476
0.031955765
0.031940946
0.031930314
0.031924152
0.031922731
0.031926304
0.031935108
0.031949359
0.031969251
0.031994956
0.032026618
0.03206436
0.032108277
0.032158439
0.032214893
0.032277659
0.032346739
0.032422112
0.03250374
0.032591569
0.03268553
0.032785548
0.032891536
0.033003406
0.033121067
0.033244427
0.0333734
0.033507904
0.033647864
0.033793217
0.033943907
0.034099891
0.034261138
0.034427628
0.034599355
0.034776326
0.034958558
0.035146081
0.035338935
0.035537173
0.035740857
0.035950057
0.036164873
0.036385634
0.032272021
0.032230588
0.03219051
0.032152039
0.032115522
0.032081098
0.032049045
0.032019672
0.031993295
0.031970226
0.031950775
0.031935245
0.031923933
0.031917123
0.031915086
0.031918077
0.031926335
0.031940076
0.031959496
0.031984766
0.032016033
0.03205342
0.032097022
0.03214691
0.032203129
0.032265703
0.03233463
0.03240989
0.032491443
0.032579235
0.032673197
0.03277325
0.032879308
0.032991279
0.033109071
0.033232591
0.033361751
0.033496465
0.033636659
0.033782266
0.033933228
0.0340895
0.034251049
0.034417854
0.034589907
0.034767212
0.034949784
0.035137651
0.035330852
0.035529437
0.035733467
0.035943013
0.036158175
0.036379282
0.032275432
0.032233084
0.032192134
0.03215281
0.032115405
0.032080138
0.032047281
0.032017138
0.031990018
0.031966234
0.031946095
0.031929906
0.031917963
0.031910552
0.031907944
0.031910396
0.031918148
0.031931416
0.031950398
0.031975266
0.032006167
0.032043224
0.032086535
0.032136168
0.032192172
0.032254567
0.032323353
0.032398508
0.032479993
0.032567751
0.032661713
0.0327618
0.032867922
0.032979987
0.033097901
0.033221569
0.033350901
0.03348581
0.03362622
0.033772061
0.033923274
0.034079812
0.03424164
0.034408735
0.034581087
0.034758698
0.034941582
0.035129764
0.03532328
0.03552218
0.035726522
0.035936377
0.036151845
0.036373254
0.032278516
0.032235342
0.032193582
0.03215346
0.032115251
0.032079207
0.032045606
0.032014748
0.03198694
0.031962494
0.031941718
0.031924919
0.031912392
0.031904424
0.031901288
0.031903242
0.031910525
0.031923357
0.031941934
0.03196643
0.031996993
0.032033746
0.032076787
0.032126186
0.03218199
0.03224422
0.032312876
0.032387935
0.032469357
0.032557084
0.032651047
0.032751164
0.032857345
0.032969497
0.033087524
0.033211328
0.033340819
0.033475909
0.033616517
0.033762573
0.033914017
0.0340708
0.034232884
0.034400245
0.034572872
0.034750763
0.034933931
0.0351224
0.035316204
0.035515387
0.035720008
0.035930135
0.03614587
0.036367538
0.032281302
0.032237371
0.032194865
0.032154004
0.032115061
0.032078305
0.032044018
0.032012499
0.031984056
0.031958998
0.031937635
0.031920272
0.031907206
0.031898724
0.031895102
0.031896596
0.031903447
0.031915876
0.031934079
0.031958233
0.031988484
0.032024957
0.03206775
0.032116934
0.032172554
0.032234632
0.032303167
0.032378138
0.032459501
0.032547201
0.032641164
0.032741309
0.032847545
0.032959777
0.033077907
0.033201837
0.033331474
0.033466729
0.033607519
0.033753773
0.033905429
0.034062436
0.034224755
0.03439236
0.034565237
0.034743384
0.034926812
0.035115541
0.035309604
0.035509043
0.035713912
0.035924276
0.036140238
0.036362121
0.032283814
0.032239187
0.032195994
0.032154454
0.032114841
0.032077432
0.032042515
0.032010388
0.031981359
0.031955738
0.031933834
0.031915952
0.031902391
0.031893437
0.031889366
0.031890437
0.031896891
0.03190895
0.03192681
0.031950648
0.031980613
0.03201683
0.032059394
0.032108379
0.03216383
0.03222577
0.032294195
0.032369084
0.032450394
0.032538067
0.032632031
0.032732202
0.032838489
0.032950794
0.033069018
0.033193064
0.033322834
0.033458239
0.033599197
0.033745632
0.033897481
0.034054692
0.034217225
0.034385052
0.034558157
0.034736538
0.034920201
0.035109167
0.035303463
0.035503131
0.035708219
0.035918788
0.036134937
0.036356987
0.032286072
0.032240805
0.032196981
0.032154819
0.032114595
0.03207659
0.032041095
0.032008411
0.031978845
0.031952707
0.031930306
0.031911948
0.031897932
0.031888545
0.031884063
0.031884746
0.031890836
0.031902555
0.031920101
0.031943651
0.031973353
0.032009334
0.03205169
0.032100493
0.032155789
0.032217601
0.032285926
0.03236074
0.032442001
0.032529651
0.032623615
0.03272381
0.032830142
0.032942514
0.033060825
0.033184975
0.033314867
0.03345041
0.033591519
0.033738119
0.033890144
0.034047541
0.034210269
0.034378298
0.03455161
0.034730202
0.034914078
0.035103257
0.035297764
0.035497636
0.035702916
0.03591366
0.036129957
0.036352121
0.032288093
0.032242241
0.03219784
0.032155109
0.032114327
0.032075778
0.032039756
0.032006562
0.031976505
0.031949894
0.031927039
0.031908246
0.031893814
0.031884031
0.031879174
0.031879502
0.03188526
0.031896668
0.031913927
0.031937213
0.031966676
0.032002441
0.032044606
0.032093244
0.032148399
0.032210094
0.032278327
0.032353073
0.03243429
0.032521918
0.032615883
0.032716099
0.032822472
0.032934905
0.033053294
0.033177539
0.033307542
0.03344321
0.033584457
0.033731206
0.033883391
0.034040956
0.03420386
0.034372071
0.034545571
0.034724353
0.034908422
0.035097793
0.035292489
0.035492542
0.035697992
0.035908884
0.03612529
0.036347509
0.032289893
0.032243506
0.032198579
0.032155331
0.032114041
0.032074997
0.032038495
0.032004838
0.031974333
0.031947292
0.031924023
0.031904834
0.031890022
0.031879879
0.031874679
0.031874686
0.03188014
0.031891266
0.031908264
0.031931309
0.031960554
0.031996124
0.032038115
0.032086602
0.032141629
0.032203218
0.032271367
0.032346051
0.032427228
0.032514836
0.0326088
0.032709036