/*--------------------------------*- C++ -*----------------------------------*\
| =========                 |                                                 |
| \\      /  F ield         | OpenFOAM: The Open Source CFD Toolbox           |
|  \\    /   O peration     | Version:  2312                                  |
|   \\  /    A nd           | Website:  www.openfoam.com                      |
|    \\/     M anipulation  |                                                 |
\*---------------------------------------------------------------------------*/
FoamFile
{
    version     2.0;
    format      ascii;
    arch        "LSB;label=32;scalar=64";
    class       volScalarField;
    location    "0.04";
    object      O2;
}
// * * * * * * * * * * * * * * * * * * * * * * * * * * * * * * * * * * * * * //

dimensions      [0 0 0 0 0 0 0];

internalField   nonuniform List<scalar> 
3250
(
0.17778256
0.17899465
0.18022654
0.18147511
0.18273746
0.18401074
0.18529214
0.1865789
0.18786833
0.18915779
0.19044473
0.19172672
0.19300138
0.19426648
0.19551987
0.19675956
0.19798363
0.19919032
0.20037801
0.20154517
0.20269042
0.20381253
0.20491036
0.20598292
0.20702934
0.20804887
0.20904088
0.21000483
0.21094033
0.21184707
0.21272483
0.21357351
0.21439308
0.21518361
0.21594522
0.21667815
0.21738267
0.21805912
0.21870791
0.21932951
0.21992442
0.22049319
0.22103643
0.22155479
0.17752753
0.17874527
0.17998296
0.18123751
0.18250601
0.18378559
0.18507342
0.18636673
0.1876628
0.18895897
0.19025268
0.19154147
0.19282294
0.19409483
0.195355
0.1966014
0.19783212
0.19904539
0.20023955
0.20141307
0.20256457
0.20369278
0.20479658
0.20587494
0.20692701
0.20795201
0.20894931
0.20991839
0.21085882
0.21177031
0.21265263
0.21350568
0.21432944
0.21512397
0.2158894
0.21662596
0.21733393
0.21801366
0.21866555
0.21929007
0.21988773
0.22045907
0.22100469
0.22152531
0.17705208
0.1782799
0.1795281
0.18079353
0.18207326
0.18336438
0.18466402
0.18596937
0.18727767
0.18858623
0.18989245
0.1911938
0.19248787
0.19377237
0.19504509
0.19630398
0.19754708
0.19877259
0.19997881
0.20116421
0.20232736
0.20346698
0.20458192
0.20567115
0.20673378
0.20776904
0.20877628
0.20975496
0.21070466
0.21162507
0.21251597
0.21337726
0.2142089
0.21501096
0.21578359
0.21652699
0.21724148
0.21792739
0.21858514
0.21921521
0.21981809
0.22039437
0.22094465
0.22146965
0.17638751
0.17762907
0.17889163
0.18017198
0.18146713
0.18277412
0.18409005
0.18541203
0.18673724
0.18806296
0.1893865
0.1907053
0.1920169
0.19331893
0.19460915
0.19588544
0.19714581
0.19838841
0.19961151
0.20081352
0.20199298
0.20314859
0.20427915
0.20538363
0.20646109
0.20751076
0.20853197
0.20952416
0.2104869
0.21141987
0.21232286
0.21319574
0.21403849
0.21485118
0.21563395
0.21638702
0.2171107
0.21780535
0.21847138
0.21910928
0.21971958
0.22030284
0.2208597
0.2213909
0.17556157
0.17681982
0.17809985
0.17939839
0.18071238
0.18203882
0.18337471
0.18471711
0.18606314
0.18740999
0.18875491
0.19009527
0.19142853
0.19275227
0.19406417
0.19536205
0.19664387
0.19790771
0.19915179
0.20037447
0.20157426
0.20274979
0.20389984
0.20502334
0.20611933
0.207187
0.20822566
0.20923474
0.2102138
0.2111625
0.21208061
0.21296801
0.21382468
0.21465069
0.21544617
0.21621136
0.21694657
0.21765217
0.21832859
0.21897633
0.21959592
0.22018796
0.22075309
0.22129208
0.17459903
0.1758763
0.17717626
0.1784956
0.1798312
0.18117996
0.18253882
0.18390477
0.18527483
0.1866461
0.18801577
0.18938111
0.19073951
0.19208846
0.19342557
0.19474858
0.19605538
0.19734399
0.19861255
0.19985937
0.2010829
0.20228172
0.20345458
0.20460034
0.20571803
0.20680679
0.20786591
0.2088948
0.20989299
0.21086014
0.211796
0.21270046
0.21357347
0.21441511
0.21522553
0.21600497
0.21675373
0.21747221
0.21816084
0.21882014
0.21945066
0.22005302
0.22062787
0.22117601
0.17352209
0.17482013
0.17614194
0.17748414
0.17884352
0.18021691
0.18160116
0.18299316
0.18438985
0.18578824
0.18718542
0.18857858
0.18996499
0.19134207
0.19270734
0.19405845
0.19539321
0.19670954
0.19800554
0.19927943
0.20052961
0.20175459
0.20295306
0.20412385
0.20526594
0.20637843
0.20746057
0.20851176
0.2095315
0.21051943
0.2114753
0.21239897
0.21329041
0.21414968
0.21497694
0.21577244
0.21653648
0.21726948
0.21797189
0.21864423
0.21928709
0.21990108
0.2204869
0.22104535
0.1723506
0.17367076
0.17501586
0.17638247
0.1777673
0.1791671
0.18057863
0.18199868
0.18342409
0.18485176
0.1862787
0.18770196
0.18911875
0.19052635
0.19192221
0.19330387
0.19466905
0.19601559
0.19734149
0.19864492
0.19992417
0.20117772
0.20240418
0.20360233
0.20477109
0.20590954
0.20701688
0.20809248
0.20913582
0.21014651
0.21112429
0.21206901
0.21298063
0.21385922
0.21470494
0.21551803
0.21629883
0.21704774
0.21776524
0.21845188
0.21910824
0.21973498
0.22033281
0.22090257
0.17110226
0.17244567
0.1738151
0.17520724
0.17661875
0.1780463
0.17948654
0.18093616
0.1823919
0.18385057
0.18530902
0.18676423
0.18821327
0.18965334
0.19108176
0.19249597
0.19389359
0.19527236
0.1966302
0.19796519
0.19927553
0.20055964
0.20181606
0.20304351
0.20424085
0.20540711
0.20654147
0.20764324
0.20871188
0.20974698
0.21074826
0.21171557
0.21264885
0.21354817
0.21441369
0.21524566
0.21604443
0.21681042
0.21754412
0.21824609
0.21891695
0.21955736
0.22016807
0.22074995
0.16715639
0.16845788
0.1697939
0.17116077
0.17255509
0.17397348
0.1754125
0.17686873
0.17833871
0.17981904
0.18130632
0.18279725
0.18428858
0.18577716
0.18725993
0.18873399
0.19019652
0.19164487
0.19307655
0.19448919
0.19588062
0.19724879
0.19859187
0.19990817
0.20119615
0.20245448
0.20368196
0.20487756
0.20604041
0.2071698
0.20826514
0.20932601
0.21035211
0.21134326
0.2122994
0.21322061
0.21410704
0.21495894
0.21577669
0.2165607
0.21731149
0.21802964
0.21871578
0.21937063
0.21999492
0.22058958
0.16575927
0.16708146
0.16843958
0.16983012
0.17124965
0.17269469
0.17416174
0.17564724
0.17714765
0.17865945
0.18017912
0.18170324
0.18322844
0.18475143
0.18626905
0.18777824
0.18927608
0.19075981
0.1922268
0.19367458
0.19510087
0.19650355
0.19788065
0.19923042
0.20055125
0.20184171
0.20310057
0.20432672
0.20551926
0.20667742
0.20780059
0.20888832
0.20994027
0.21095627
0.21193625
0.21288026
0.21378848
0.21466116
0.21549867
0.21630146
0.21707005
0.21780505
0.21850711
0.21917697
0.21981541
0.22042336
0.16432966
0.16567213
0.16705223
0.16846643
0.16991122
0.17138306
0.17287834
0.17439342
0.17592465
0.17746837
0.17902097
0.18057888
0.18213861
0.18369674
0.18524998
0.18679513
0.18832916
0.18984916
0.19135239
0.19283627
0.1942984
0.19573654
0.19714866
0.19853288
0.19988753
0.20121111
0.2025023
0.20375994
0.20498308
0.20617091
0.20732278
0.20843819
0.20951682
0.21055844
0.21156299
0.21253053
0.2134612
0.2143553
0.21521318
0.21603532
0.21682226
0.21757461
0.21829308
0.2189784
0.21963139
0.22025302
0.16287936
0.16424171
0.16564348
0.16708109
0.16855097
0.17004951
0.171573
0.1731177
0.17467986
0.1762557
0.17784148
0.1794335
0.18102814
0.18262186
0.1842112
0.18579285
0.18736364
0.18892052
0.19046063
0.19198127
0.19347992
0.19495423
0.19640206
0.19782146
0.19921064
0.20056803
0.20189224
0.20318207
0.20443648
0.20565462
0.20683582
0.20797954
0.20908542
0.21015323
0.2111829
0.21217447
0.2131281
0.21404407
0.21492277
0.21576467
0.21657034
0.21734041
0.21807561
0.2187767
0.21944454
0.22008012
0.16141905
0.16280076
0.16422371
0.16568429
0.1671789
0.16870383
0.1702553
0.17182946
0.17342243
0.17503034
0.17664932
0.17827553
0.17990521
0.18153469
0.18316036
0.18477879
0.18638665
0.18798076
0.18955814
0.19111594
0.19265153
0.19416245
0.19564645
0.19710147
0.19852564
0.19991731
0.20127501
0.20259747
0.2038836
0.20513249
0.20634344
0.20751587
0.2086494
0.20974379
0.21079893
0.21181487
0.21279177
0.21372992
0.21462971
0.21549164
0.21631628
0.2171043
0.21785644
0.2185735
0.21925635
0.21990605
0.15995823
0.16135861
0.16280212
0.16428512
0.16580393
0.16735478
0.16893381
0.17053705
0.17216055
0.17380028
0.17545225
0.17711251
0.17877715
0.18044234
0.18210436
0.1837596
0.18540461
0.18703607
0.18865085
0.19024599
0.19181871
0.19336645
0.19488684
0.19637772
0.19783713
0.19926333
0.20065476
0.20201009
0.20332818
0.20460807
0.205849
0.20705036
0.20821175
0.2093329
0.21041371
0.2114542
0.21245454
0.21341502
0.21433605
0.21521813
0.21606186
0.21686793
0.2176371
0.21837021
0.21906816
0.21973203
0.15850523
0.15992354
0.16138689
0.1628916
0.16443397
0.16601013
0.16761614
0.16924796
0.1709015
0.17257263
0.17425723
0.17595121
0.17765052
0.17935119
0.18104935
0.18274125
0.18442328
0.186092
0.18774412
0.18937655
0.1909864
0.19257096
0.19412776
0.19565454
0.19714922
0.19860999
0.20003521
0.20142348
0.20277359
0.20408452
0.20535548
0.20658584
0.20777513
0.2089231
0.2100296
0.21109467
0.21211848
0.21310131
0.21404359
0.21494583
0.21580865
0.21663277
0.21741897
0.21816812
0.21888114
0.21955917
0.15706739
0.15850281
0.15998518
0.16151082
0.16307598
0.16467673
0.16630904
0.16796878
0.16965175
0.17135371
0.17307041
0.17479762
0.17653115
0.17826689
0.18000082
0.18172904
0.1834478
0.18515349
0.18684271
0.18851221
0.19015898
0.19178018
0.19337323
0.19493575
0.19646557
0.19796078
0.19941968
0.20084076
0.20222278
0.20356466
0.20486556
0.2061248
0.2073419
0.20851658
0.20964868
0.21073824
0.21178541
0.2127905
0.21375392
0.21467622
0.21555804
0.2164001
0.21720323
0.21796831
0.21869631
0.21938839
0.15565104
0.15710274
0.15860326
0.16014898
0.16173609
0.16336061
0.16501844
0.16670534
0.16841701
0.17014911
0.17189724
0.17365705
0.17542421
0.17719446
0.17896363
0.18072768
0.18248269
0.18422493
0.18595083
0.18765702
0.18934034
0.19099784
0.19262681
0.19422475
0.19578942
0.19731879
0.19881108
0.20026473
0.2016784
0.20305097
0.20438156
0.20566945
0.20691414
0.2081153
0.20927279
0.21038661
0.21145694
0.21248407
0.21346844
0.21441061
0.21531122
0.21617104
0.21699092
0.21777176
0.21851456
0.21922052
0.15284914
0.15426185
0.15572881
0.15724656
0.15881144
0.1604196
0.16206701
0.16374949
0.1654627
0.16720226
0.16896369
0.17074249
0.17253416
0.17433424
0.17613831
0.17794206
0.17974131
0.18153197
0.18331018
0.18507221
0.18681455
0.18853391
0.19022722
0.19189163
0.19352455
0.19512362
0.19668672
0.19821199
0.19969779
0.20114273
0.20254563
0.20390554
0.20522172
0.20649364
0.20772095
0.20890349
0.21004127
0.21113444
0.21218332
0.21318835
0.21415009
0.21506923
0.21594655
0.21678291
0.21757926
0.21833663
0.21905625
0.15147928
0.15290438
0.15438568
0.15591972
0.15750282
0.1591311
0.16080046
0.16250665
0.16424527
0.16601182
0.1678017
0.1696103
0.17143299
0.17326516
0.17510227
0.17693984
0.17877352
0.18059912
0.18241259
0.18421007
0.18598791
0.18774267
0.18947116
0.19117042
0.19283773
0.19447064
0.19606692
0.19762464
0.19914208
0.20061777
0.2020505
0.20343925
0.20478327
0.20608197
0.207335
0.20854217
0.20970348
0.2108191
0.21188934
0.21291465
0.21389562
0.21483295
0.21572743
0.21657996
0.21739152
0.21816317
0.21889616
0.15014596
0.15158257
0.15307728
0.15462667
0.15622703
0.15787446
0.15956481
0.16129375
0.16305681
0.16484938
0.16666677
0.16850424
0.17035703
0.17222039
0.17408964
0.17596016
0.17782744
0.17968714
0.18153507
0.18336721
0.18517977
0.18696919
0.18873214
0.19046553
0.19216654
0.1938326
0.19546141
0.19705094
0.19859939
0.20010523
0.20156719
0.20298422
0.20435551
0.20568045
0.20695867
0.20818997
0.20937433
0.21051193
0.21160307
0.21264823
0.213648
0.21460311
0.21551436
0.2163827
0.21720911
0.21799469
0.21874074
0.14885247
0.15029968
0.15180689
0.15337069
0.15498736
0.15665296
0.1583633
0.160114
0.16190049
0.16371808
0.16556198
0.16742732
0.16930923
0.17120281
0.17310324
0.17500576
0.17690572
0.17879861
0.18068008
0.18254601
0.18439243
0.18621567
0.18801224
0.18977895
0.19151287
0.19321132
0.1948719
0.1964925
0.19807124
0.19960655
0.20109706
0.20254171
0.20393963
0.2052902
0.20659301
0.20784785
0.2090547
0.21021374
0.21132527
0.21238978
0.21340788
0.2143803
0.2153079
0.21619162
0.21703248
0.21783162
0.21859037
0.14620933
0.1476014
0.14905836
0.15057718
0.15215446
0.15378648
0.15546928
0.15719861
0.15897005
0.16077894
0.16262053
0.1644899
0.16638208
0.16829207
0.17021485
0.17214544
0.17407895
0.17601057
0.17793566
0.17984972
0.18174846
0.18362781
0.18548393
0.18731322
0.18911237
0.19087832
0.1926083
0.19429983
0.19595068
0.19755892
0.19912291
0.20064123
0.20211277
0.20353661
0.20491212
0.20623886
0.2075166
0.20874533
0.20992521
0.21105656
0.21213987
0.21317578
0.21416502
0.21510848
0.21600712
0.21686202
0.2176743
0.21844536
0.1449956
0.14639481
0.14786069
0.14939026
0.15098012
0.15262655
0.15432557
0.1560729
0.15786406
0.15969432
0.16155885
0.16345263
0.16537058
0.16730758
0.16925848
0.17121816
0.17318159
0.17514383
0.17710007
0.17904568
0.18097622
0.18288749
0.18477549
0.18663653
0.18846715
0.19026419
0.19202479
0.19374634
0.19542657
0.19706346
0.19865529
0.2002006
0.20169823
0.20314724
0.20454694
0.20589689
0.20719685
0.20844679
0.20964688
0.21079743
0.21189896
0.2129521
0.21395763
0.21491645
0.21582953
0.21669799
0.21752298
0.21830593
0.14382866
0.14523425
0.14670827
0.14824775
0.14984931
0.15150924
0.15322352
0.15498787
0.15679772
0.15864832
0.16053472
0.16245183
0.16439447
0.16635738
0.16833529
0.17032297
0.17231522
0.17430697
0.17629327
0.17826934
0.18023061
0.18217272
0.18409156
0.18598331
0.18784438
0.18967152
0.19146174
0.19321238
0.19492104
0.19658566
0.19820444
0.19977589
0.20129877
0.20277212
0.20419523
0.20556764
0.20688908
0.20815953
0.20937914
0.21054825
0.21166738
0.21273717
0.21375842
0.21473204
0.21565906
0.21654059
0.21737784
0.21817224
0.14270957
0.14412079
0.1456022
0.1471508
0.14876322
0.15043576
0.15216438
0.15394476
0.15577231
0.15764221
0.15954943
0.16148879
0.16345501
0.16544271
0.16744652
0.16946106
0.171481
0.17350113
0.17551635
0.17752176
0.17951264
0.18148449
0.18343308
0.18535445
0.18724492
0.18910111
0.19091994
0.19269864
0.19443476
0.19612614
0.19777095
0.19936761
0.20091487
0.20241171
0.20385741
0.20525147
0.20659363
0.20788385
0.20912228
0.21030928
0.21144535
0.21253118
0.21356756
0.21455544
0.21549587
0.21638997
0.21723899
0.21804441
0.1402966
0.14163875
0.14305507
0.1445432
0.14610017
0.14772265
0.14940693
0.15114899
0.15294447
0.15478873
0.1566769
0.15860388
0.16056441
0.16255311
0.16456449
0.16659306
0.16863331
0.17067978
0.17272713
0.17477013
0.17680373
0.17882306
0.18082352
0.18280073
0.18475061
0.18666937
0.18855353
0.1903999
0.19220563
0.19396819
0.19568535
0.19735521
0.19897615
0.20054687
0.20206633
0.20353376
0.20494865
0.20631073
0.20761996
0.20887649
0.21008067
0.21123303
0.21233426
0.21338517
0.21438674
0.21534002
0.21624619
0.2171065
0.21792246
0.1392714
0.14061658
0.14203742
0.14353162
0.14509626
0.14672803
0.14842324
0.15017786
0.15198751
0.15384752
0.15575296
0.15769867
0.1596793
0.16168937
0.16372332
0.1657755
0.16784031
0.16991216
0.17198556
0.17405516
0.17611576
0.17816239
0.18019029
0.18219496
0.18417222
0.18611815
0.18802916
0.18990199
0.19173368
0.19352164
0.19526356
0.19695748
0.19860174
0.20019498
0.20173614
0.20322443
0.20465932
0.20604052
0.20736798
0.20864186
0.20986251
0.21103048
0.21214646
0.21321129
0.21422596
0.21519155
0.21610926
0.21698036
0.21780641
0.1382953
0.13964302
0.14106783
0.14256749
0.14413913
0.14577947
0.14748483
0.14925118
0.15107411
0.15294894
0.15487066
0.15683407
0.15883375
0.16086412
0.1629195
0.16499417
0.16708239
0.16917844
0.17127672
0.17337174
0.17545817
0.17753091
0.17958507
0.18161605
0.18361952
0.18559147
0.18752822
0.18942639
0.19128296
0.19309525
0.19486089
0.19657786
0.19824446
0.19985928
0.20142123
0.20292949
0.20438351
0.20578301
0.20712791
0.20841839
0.2096548
0.21083769
0.21196777
0.2130459
0.21407309
0.21505044
0.21597916
0.21686056
0.21769618
0.13736789
0.13871771
0.14014599
0.14165055
0.14322858
0.14487681
0.14659158
0.14836885
0.15020422
0.15209295
0.15403001
0.15601013
0.15802781
0.16007741
0.16215314
0.16424917
0.16635964
0.16847874
0.17060072
0.17271997
0.17483104
0.1769287
0.17900794
0.18106404
0.18309257
0.1850894
0.18705074
0.18897314
0.1908535
0.19268904
0.19447736
0.19621637
0.19790431
0.19953974
0.20112155
0.20264889
0.20412119
0.20553816
0.20689972
0.20820604
0.20945748
0.2106546
0.21179812
0.21288893
0.21392805
0.2149166
0.21585582
0.21674703
0.21759172
0.1364885
0.13784005
0.13927135
0.14078031
0.14236415
0.14401963
0.14574311
0.14753055
0.14937752
0.15127929
0.15323076
0.15522662
0.1572613
0.15932907
0.16142407
0.16354035
0.16567195
0.16781294
0.16995745
0.17209976
0.17423429
0.17635569
0.17845883
0.18053887
0.18259128
0.18461183
0.18659663
0.18854214
0.19044518
0.19230291
0.19411285
0.19587287
0.19758117
0.19923626
0.200837
0.20238252
0.20387224
0.20530584
0.20668326
0.20800466
0.20927041
0.21048108
0.2116374
0.21274027
0.21379073
0.21478993
0.21573915
0.2166397
0.21749311
0.21830109
0.13565629
0.13700924
0.13844316
0.13995606
0.14154518
0.14320731
0.14493883
0.14673571
0.14859352
0.15050748
0.15247248
0.15448314
0.15653384
0.15861876
0.16073196
0.1628674
0.16501901
0.16718076
0.16934665
0.17151085
0.17366767
0.17581162
0.17793749
0.18004031
0.18211543
0.18415855
0.18616567
0.18813317
0.1900578
0.19193665
0.19376717
0.19554718
0.19727484
0.19894863
0.20056737
0.20213018
0.20363646
0.20508588
0.20647838
0.20781411
0.20909345
0.21031698
0.21148544
0.21259976
0.21366098
0.21467029
0.21562897
0.2165384
0.21740003
0.2182157
0.13487024
0.13622429
0.13766049
0.1391769
0.1407708
0.14243904
0.14417799
0.14598363
0.14785153
0.14977688
0.15175455
0.15377911
0.15584486
0.15794594
0.16007631
0.16222985
0.16440038
0.16658176
0.1687679
0.17095284
0.17313078
0.17529613
0.17744356
0.17956799
0.18166468
0.18372922
0.18575754
0.18774593
0.18969105
0.19158995
0.19344001
0.195239
0.19698504
0.19867659
0.20031242
0.20189163
0.20341362
0.20487804
0.20628483
0.20763414
0.20892637
0.21016208
0.21134206
0.21246721
0.21353863
0.2145575
0.21552514
0.21644294
0.21731239
0.21813527
0.13412919
0.13548409
0.13692225
0.13844178
0.14004003
0.14171384
0.14345964
0.1452734
0.14715068
0.14908667
0.15107619
0.15311377
0.15519367
0.15730994
0.15945648
0.16162707
0.16381545
0.16601537
0.16822064
0.1704252
0.17262312
0.17480873
0.17697656
0.17912146
0.18123858
0.18332342
0.18537182
0.18738
0.18934455
0.19126244
0.19313102
0.19494799
0.19671145
0.1984198
0.20007182
0.20166656
0.20320342
0.20468204
0.20610236
0.20746452
0.20876893
0.21001617
0.21120702
0.21234243
0.21342347
0.21445138
0.21542748
0.21635318
0.21722999
0.21805969
0.13343186
0.1347874
0.13622722
0.13774954
0.13935172
0.14103064
0.14278275
0.14460402
0.14649001
0.1484359
0.15043649
0.15248625
0.15457941
0.15670995
0.15887168
0.16105832
0.16326351
0.1654809
0.16770422
0.16992728
0.17214408
0.17434881
0.17653592
0.17870017
0.18083661
0.18294063
0.18500802
0.18703491
0.18901783
0.19095368
0.19283977
0.19467375
0.19645366
0.1981779
0.19984521
0.20145463
0.20300554
0.20449757
0.20593066
0.20730496
0.20862087
0.20987899
0.2110801
0.21222517
0.2133153
0.21435172
0.21533579
0.21626893
0.21715268
0.21798882
0.13277688
0.13413286
0.13557412
0.13709891
0.13870465
0.14038824
0.14214614
0.14397435
0.14586843
0.14782354
0.14983444
0.15189559
0.15400115
0.15614505
0.15832104
0.16052275
0.16274374
0.16497757
0.16721787
0.16945837
0.17169294
0.1739157
0.176121
0.17830349
0.18045815
0.18258028
0.18466559
0.18671013
0.18871038
0.19066318
0.19256578
0.1944158
0.19621124
0.19795047
0.1996322
0.20125546
0.20281961
0.20432429
0.20576941
0.20715514
0.20848189
0.20975025
0.21096103
0.2121152
0.21321387
0.21425831
0.21524987
0.21619002
0.21708029
0.21792248
0.13216281
0.13351907
0.13496155
0.13648854
0.13809748
0.13978534
0.14154857
0.14338319
0.14528476
0.14724842
0.14926893
0.15134071
0.15345786
0.15561426
0.1578036
0.16001943
0.16225525
0.16450452
0.16676077
0.16901765
0.17126894
0.17350867
0.17573108
0.17793074
0.18010254
0.18224173
0.1843439
0.18640507
0.18842164
0.1903904
0.19230855
0.19417367
0.19598373
0.19773707
0.19943236
0.20106865
0.20264525
0.20416182
0.20561826
0.20701475
0.20835167
0.20962967
0.21084953
0.21201224
0.21311895
0.21417091
0.21516951
0.21611623
0.21701262
0.21786051
0.13158814
0.13294456
0.13438807
0.13591701
0.13752886
0.1392206
0.14098872
0.14282925
0.14473775
0.14670936
0.1487388
0.15082046
0.15294842
0.1551165
0.15731832
0.15954737
0.16179707
0.1640608
0.16633202
0.16860427
0.17087125
0.1731269
0.17536538
0.17758117
0.17976909
0.18192428
0.18404231
0.1861191
0.188151
0.19013476
0.19206752
0.19394683
0.19577062
0.1975372
0.19924525
0.20089376
0.20248206
0.20400979
0.20547686
0.20688343
0.20822991
0.20951693
0.21074531
0.21191605
0.21303028
0.21408929
0.2150945
0.21604737
0.2169495
0.21780271
0.13105134
0.1324078
0.1338522
0.13538287
0.13699734
0.13869262
0.14046523
0.14231121
0.14422611
0.14620507
0.14824281
0.15033367
0.15247169
0.15465065
0.15686412
0.15910552
0.16136819
0.16364545
0.16593067
0.1682173
0.17049899
0.17276955
0.17502309
0.177254
0.17945702
0.18162723
0.18376012
0.18585157
0.18789785
0.18989566
0.19184212
0.19373473
0.19557139
0.1973504
0.19907039
0.20073035
0.20232962
0.2038678
0.20534482
0.20676084
0.20811627
0.20941175
0.2106481
0.21182633
0.21294761
0.21401322
0.2150246
0.21598324
0.21689072
0.21774892
0.13055088
0.13190728
0.13335243
0.13488464
0.13650147
0.13819998
0.1399767
0.14182768
0.1437485
0.14573426
0.14777968
0.14987908
0.15202646
0.15421555
0.15643987
0.15869278
0.16096755
0.16325744
0.16555573
0.16785581
0.17015123
0.17243574
0.17470337
0.17694842
0.17916557
0.18134984
0.18349663
0.18560178
0.18766152
0.18967249
0.19163176
0.19353682
0.19538552
0.19717614
0.1989073
0.20057798
0.2021875
0.20373546
0.20522177
0.20664662
0.20801041
0.20931379
0.21055759
0.21174282
0.21287068
0.21394246
0.2149596
0.21592361
0.2168361
0.21769894
0.13008526
0.13144148
0.13288726
0.13442082
0.13603978
0.13774122
0.1395217
0.14137728
0.14330355
0.1452956
0.14734813
0.14945544
0.1516115
0.15381
0.15604441
0.15830803
0.16059407
0.16289572
0.1652062
0.16751882
0.16982705
0.17212458
0.17440534
0.1766636
0.17889394
0.18109132
0.1832511
0.18536905
0.18744135
0.1894646
0.19143584
0.19335251
0.19521246
0.19701392
0.19875551
0.20043619
0.20205526
0.20361234
0.20510733
0.20654041
0.207912
0.20922274
0.21047348
0.21166525
0.21279923
0.21387676
0.21489926
0.21586829
0.21678544
0.21765261
0.12965295
0.13100888
0.13245516
0.13398991
0.13561078
0.13731488
0.1390988
0.14095861
0.14288989
0.14488774
0.14694684
0.14906147
0.15122557
0.1534328
0.15567656
0.15795013
0.16024665
0.16255924
0.16488105
0.16720533
0.16952549
0.17183513
0.17412814
0.17639869
0.17864132
0.18085092
0.1830228
0.18515267
0.18723667
0.18927137
0.19125375
0.19318125
0.19505166
0.19686322
0.19861452
0.2003045
0.20193248
0.20349804
0.20500111
0.20644185
0.20782069
0.20913828
0.21039548
0.21159332
0.21273301
0.21381588
0.21484338
0.21581707
0.21673855
0.21760975
0.12574881
0.1268172
0.12798852
0.12925216
0.13060793
0.13205461
0.13359041
0.135213
0.13691951
0.13870657
0.14057025
0.14250613
0.14450933
0.14657449
0.14869588
0.15086742
0.15308272
0.15533515
0.15761794
0.15992417
0.1622469
0.16457924
0.16691435
0.16924558
0.17156648
0.17387086
0.17615284
0.17840688
0.18062784
0.18281097
0.18495192
0.1870468
0.18909214
0.19108489
0.19302243
0.19490258
0.19672352
0.19848384
0.20018247
0.20181871
0.20339216
0.20490273
0.20635058
0.20773616
0.20906011
0.2103233
0.21152678
0.21267176
0.21375959
0.21479172
0.21576974
0.21669525
0.21757018
0.12442198
0.12538369
0.1264488
0.12761858
0.12888154
0.13023711
0.13168412
0.13322083
0.13484496
0.13655367
0.13834359
0.14021081
0.14215092
0.14415902
0.14622976
0.14835739
0.15053579
0.15275855
0.155019
0.1573103
0.15962552
0.16195765
0.16429972
0.16664487
0.16898637
0.1713177
0.17363262
0.17592519
0.17818983
0.18042132
0.18261487
0.1847661
0.18687107
0.18892627
0.19092863
0.1928755
0.19476467
0.19659431
0.19836299
0.20006964
0.20171354
0.2032943
0.20481181
0.20626625
0.20765806
0.20898791
0.21025665
0.21146536
0.21261523
0.21370765
0.21474408
0.21572611
0.21665535
0.21753374
0.12408681
0.12504692
0.12610886
0.12727737
0.12853961
0.12989493
0.1313422
0.13287971
0.13450522
0.13621591
0.13800844
0.1398789
0.14182288
0.14383549
0.14591136
0.14804472
0.15022944
0.15245907
0.15472691
0.15702608
0.1593496
0.1616904
0.16404148
0.1663959
0.16874689
0.17108787
0.17341254
0.1757149
0.17798934
0.18023057
0.18243377
0.18459451
0.18670881
0.18877314
0.19078438
0.19273988
0.19463739
0.19647508
0.19825149
0.19996555
0.20161654
0.20320405
0.20472798
0.20618851
0.20758609
0.20892138
0.21019525
0.21140878
0.21256319
0.21365985
0.21470025
0.21568597
0.21661866
0.21750026
0.12377838
0.12473717
0.12579601
0.12696339
0.1282249
0.12957994
0.1310274
0.13256562
0.13419236
0.13590485
0.13769974
0.13957316
0.14152068
0.14353742
0.14561799
0.14775662
0.14994715
0.1521831
0.15445774
0.15676415
0.15909531
0.16144411
0.16380348
0.16616645
0.16852619
0.17087606
0.17320973
0.17552114
0.17780461
0.18005484
0.18226694
0.18443645
0.18655937
0.18863211
0.19065155
0.19261501
0.19452022
0.19636533
0.19814887
0.19986977
0.20152729
0.20312102
0.20465088
0.20611703
0.20751992
0.20886022
0.21013882
0.2113568
0.21251538
0.21361595
0.21466001
0.21564916
0.21658503
0.21746958
0.12349519
0.12445303
0.12550888
0.12667518
0.12793598
0.12929071
0.13073831
0.13227714
0.13390499
0.1356191
0.13741615
0.13929225
0.14124301
0.14326352
0.1453484
0.14749185
0.1496877
0.15192945
0.15421033
0.1565234
0.15886157
0.16121772
0.16358472
0.16595556
0.16832334
0.1706814
0.17302334
0.17534307
0.17763485
0.17989336
0.18211365
0.18429124
0.18642208
0.18850257
0.19052956
0.19250034
0.19441263
0.19626457
0.19805467
0.19978186
0.20144539
0.20304485
0.20458015
0.20605146
0.20745924
0.20880415
0.2100871
0.21130916
0.21247158
0.21357575
0.21462317
0.21561546
0.21655427
0.21744155
0.12323572
0.12419316
0.12524615
0.12641134
0.12767144
0.12902586
0.13047355
0.13201291
0.13364175
0.13535733
0.13715633
0.13903488
0.14098858
0.14301253
0.14510134
0.1472492
0.14944992
0.15169698
0.15398357
0.15630273
0.15864734
0.16101022
0.16338422
0.16576226
0.16813742
0.17050299
0.17285252
0.17517988
0.1774793
0.1797454
0.18197321
0.18415821
0.18629632
0.18838392
0.19041784
0.19239534
0.19431413
0.19617232
0.19796845
0.1997014
0.20137044
0.20297516
0.20451545
0.20599149
0.20740375
0.20875289
0.21003982
0.21126563
0.21243156
0.21353903
0.21458955
0.21558473
0.21652623
0.21741602
0.12299843
0.12395638
0.12500658
0.1261705
0.12742993
0.12878403
0.13023179
0.13177161
0.13340134
0.13511823
0.136919
0.13879976
0.14075614
0.14278322
0.14487562
0.1470275
0.14923266
0.15148455
0.15377637
0.15610109
0.15845157
0.16082061
0.163201
0.16558564
0.16796755
0.17033999
0.17269646
0.1750308
0.1773372
0.17961024
0.18184493
0.18403671
0.18618148
0.18827558
0.19031583
0.19229948
0.19422421
0.19608813
0.19788976
0.19962799
0.20130207
0.20291159
0.20445644
0.20593681
0.20735316
0.20870617
0.20999674
0.21122597
0.21239512
0.2135056
0.21455894
0.21555676
0.21650075
0.21739284
0.12278165
0.12374169
0.12478891
0.12595136
0.12721014
0.12856393
0.13001172
0.13155195
0.13318247
0.13490055
0.13670291
0.13858569
0.14054449
0.14257441
0.14467006
0.14682559
0.14903479
0.15129109
0.15358765
0.15591744
0.15827328
0.16064792
0.16303413
0.16542478
0.16781284
0.17019154
0.17255434
0.17489505
0.17720781
0.17948719
0.18172815
0.18392611
0.18607694
0.18817698
0.190223
0.19221225
0.1941424
0.19601155
0.1978182
0.19956123
0.2012399
0.20285379
0.2044028
0.20588712
0.2073072
0.20866372
0.20995761
0.21118996
0.21236204
0.21347526
0.21453118
0.21553142
0.21647767
0.21737187
0.12258336
0.12354853
0.12459185
0.12575269
0.12701083
0.1283643
0.12981211
0.1313527
0.13298392
0.13470307
0.13650686
0.13839145
0.14035245
0.14238494
0.14448353
0.14664237
0.14885523
0.15111553
0.1534164
0.15575078
0.15811147
0.1604912
0.16288271
0.16527881
0.16767246
0.17005684
0.1724254
0.17477189
0.17709043
0.17937556
0.18162222
0.18382579
0.18598214
0.18808756
0.19013883
0.19213317
0.19406824
0.19594213
0.19775334
0.19950074
0.20118358
0.20280144
0.20435422
0.20584212
0.20726558
0.20862531
0.2099222
0.21115738
0.21233211
0.21344783
0.21450609
0.21550853
0.21645684
0.21735298
0.12240545
0.12337258
0.12441394
0.12557324
0.12683076
0.12818394
0.12963175
0.13117265
0.13280451
0.13452461
0.1363297
0.13821592
0.14017889
0.1422137
0.14431494
0.14647677
0.14869294
0.15095684
0.1532616
0.15560014
0.15796523
0.16034956
0.16274585
0.16514688
0.16754559
0.16993511
0.17230887
0.17466059
0.17698437
0.17927471
0.18152652
0.18373518
0.18589651
0.18800681
0.19006283
0.19206177
0.19400129
0.19587947
0.1976948
0.19944615
0.20113276
0.20275421
0.20431041
0.20580154
0.20722806
0.20859068
0.20989029
0.21112803
0.21230516
0.21342313
0.21448351
0.21548794
0.21643812
0.21733603
0.12224595
0.12321366
0.12425386
0.12541182
0.12666879
0.12802169
0.1294695
0.13101068
0.13264309
0.13436405
0.13617029
0.13805798
0.14002272
0.14205961
0.14416324
0.14632776
0.1485469
0.15081405
0.15312231
0.15546459
0.15783363
0.1602221
0.1626227
0.16502818
0.16743144
0.1698256
0.17220404
0.17456048
0.17688897
0.179184
0.18144045
0.18365369
0.18581952
0.18793421
0.1899945
0.19199759
0.19394112
0.19582317
0.1976422
0.1993971
0.20108711
0.2027118
0.20427107
0.20576511
0.20719439
0.2085596
0.20986167
0.2111017
0.212281
0.213401
0.21446327
0.21546949
0.21642138
0.2173209
0.12210342
0.1230711
0.12411049
0.1252673
0.12652379
0.12787644
0.12932425
0.13086567
0.13249858
0.13422031
0.13602758
0.13791657
0.1398829
0.14192165
0.14402742
0.14619434
0.14841614
0.15068619
0.1529976
0.15534323
0.15771581
0.160108
0.16251245
0.16492191
0.16732925
0.16972757
0.17211021
0.17447087
0.17680359
0.17910282
0.18136344
0.18358078
0.18575064
0.18786926
0.18993339
0.1919402
0.19388732
0.19577283
0.19759519
0.19935328
0.20104632
0.20267391
0.20423593
0.20573259
0.20716433
0.20853187
0.20983612
0.21107822
0.21225945
0.21338126
0.21444523
0.21545306
0.21640648
0.21730742
0.12197667
0.12294403
0.1239828
0.12513863
0.1263947
0.12774714
0.12919495
0.13073658
0.13236994
0.13409234
0.13590053
0.13779069
0.13975842
0.14179883
0.1439065
0.14607556
0.14829973
0.15057237
0.15288657
0.15523519
0.15761092
0.16000642
0.16241432
0.16482733
0.16723831
0.16964032
0.17202671
0.17439114
0.17672763
0.1790306
0.18129494
0.18351593
0.18568937
0.18781151
0.18987905
0.19188917
0.1938395
0.19572809
0.19755341
0.19931434