/*--------------------------------*- C++ -*----------------------------------*\
| =========                 |                                                 |
| \\      /  F ield         | OpenFOAM: The Open Source CFD Toolbox           |
|  \\    /   O peration     | Version:  2312                                  |
|   \\  /    A nd           | Website:  www.openfoam.com                      |
|    \\/     M anipulation  |                                                 |
\*---------------------------------------------------------------------------*/
FoamFile
{
    version     2.0;
    format      ascii;
    arch        "LSB;label=32;scalar=64";
    class       volVectorField;
    location    "0.04";
    object      U;
}
// * * * * * * * * * * * * * * * * * * * * * * * * * * * * * * * * * * * * * //

dimensions      [0 1 -1 0 0 0 0];

internalField   nonuniform List<vector> 
3250
(
(0.59906415 -1.1306031 0)
(0.58394712 -1.1150048 0)
(0.56896418 -1.0992089 0)
(0.55412483 -1.0832529 0)
(0.53943695 -1.0671731 0)
(0.5249074 -1.0510048 0)
(0.51054212 -1.0347823 0)
(0.49634606 -1.0185388 0)
(0.48232326 -1.0023061 0)
(0.46847684 -0.98611471 0)
(0.45480909 -0.96999354 0)
(0.44132147 -0.95397003 0)
(0.42801469 -0.93806998 0)
(0.41488874 -0.92231747 0)
(0.40194296 -0.90673484 0)
(0.3891761 -0.89134267 0)
(0.37658638 -0.8761597 0)
(0.36417155 -0.86120284 0)
(0.35192893 -0.84648718 0)
(0.33985553 -0.83202597 0)
(0.32794806 -0.81783063 0)
(0.31620301 -0.80391079 0)
(0.30461673 -0.7902743 0)
(0.29318545 -0.77692731 0)
(0.28190537 -0.76387427 0)
(0.2707727 -0.75111802 0)
(0.25978373 -0.73865984 0)
(0.24893483 -0.72649951 0)
(0.23822256 -0.71463542 0)
(0.22764366 -0.70306459 0)
(0.2171951 -0.69178282 0)
(0.20687413 -0.68078474 0)
(0.1966783 -0.6700639 0)
(0.18660546 -0.65961288 0)
(0.17665381 -0.64942337 0)
(0.1668219 -0.6394863 0)
(0.15710866 -0.62979189 0)
(0.14751336 -0.6203298 0)
(0.13803568 -0.61108918 0)
(0.12867564 -0.60205883 0)
(0.11943363 -0.59322725 0)
(0.11031037 -0.58458278 0)
(0.10130687 -0.57611376 0)
(0.092424872 -0.56780865 0)
(0.6034658 -1.0717768 0)
(0.58819374 -1.0563359 0)
(0.57305756 -1.04073 0)
(0.55806694 -1.0249953 0)
(0.54322987 -1.0091673 0)
(0.5285533 -0.99328023 0)
(0.5140432 -0.97736754 0)
(0.49970457 -0.96146131 0)
(0.48554147 -0.94559236 0)
(0.47155711 -0.92979005 0)
(0.45775378 -0.91408229 0)
(0.44413299 -0.8984954 0)
(0.43069546 -0.88305404 0)
(0.41744122 -0.8677812 0)
(0.4043696 -0.85269812 0)
(0.39147937 -0.83782425 0)
(0.37876873 -0.82317728 0)
(0.36623543 -0.80877305 0)
(0.3538768 -0.79462561 0)
(0.34168981 -0.78074718 0)
(0.32967117 -0.76714821 0)
(0.31781734 -0.75383737 0)
(0.30612465 -0.74082161 0)
(0.2945893 -0.72810619 0)
(0.28320748 -0.71569473 0)
(0.27197536 -0.70358927 0)
(0.2608892 -0.69179032 0)
(0.24994535 -0.68029696 0)
(0.23914033 -0.66910689 0)
(0.22847086 -0.6582165 0)
(0.21793388 -0.647621 0)
(0.20752661 -0.63731443 0)
(0.19724658 -0.62728985 0)
(0.1870916 -0.61753932 0)
(0.17705985 -0.60805408 0)
(0.16714987 -0.59882462 0)
(0.15736054 -0.58984077 0)
(0.14769113 -0.58109178 0)
(0.13814129 -0.57256648 0)
(0.12871101 -0.5642533 0)
(0.11940067 -0.55614044 0)
(0.11021094 -0.54821589 0)
(0.10114272 -0.54046761 0)
(0.092197623 -0.53288357 0)
(0.61185769 -1.0330137 0)
(0.59632172 -1.0176511 0)
(0.58092422 -1.0021449 0)
(0.56567501 -0.98653063 0)
(0.55058219 -0.97084324 0)
(0.5356528 -0.95511651 0)
(0.52089292 -0.93938314 0)
(0.50630764 -0.9236746 0)
(0.49190112 -0.90802103 0)
(0.47767661 -0.89245114 0)
(0.46363651 -0.87699213 0)
(0.44978237 -0.86166963 0)
(0.43611498 -0.84650762 0)
(0.42263439 -0.83152836 0)
(0.40934001 -0.81675241 0)
(0.3962306 -0.80219853 0)
(0.38330442 -0.78788371 0)
(0.37055922 -0.77382311 0)
(0.35799235 -0.76003011 0)
(0.3456008 -0.74651629 0)
(0.33338127 -0.73329147 0)
(0.32133024 -0.72036369 0)
(0.30944403 -0.70773932 0)
(0.29771884 -0.69542304 0)
(0.28615085 -0.68341792 0)
(0.27473624 -0.67172547 0)
(0.26347124 -0.66034571 0)
(0.2523522 -0.64927725 0)
(0.24137563 -0.63851732 0)
(0.23053823 -0.62806191 0)
(0.21983694 -0.6179058 0)
(0.20926896 -0.60804268 0)
(0.19883178 -0.59846523 0)
(0.18852323 -0.5891652 0)
(0.17834147 -0.58013351 0)
(0.168285 -0.57136035 0)
(0.1583527 -0.56283529 0)
(0.14854381 -0.55454732 0)
(0.13885795 -0.54648502 0)
(0.1292951 -0.53863659 0)
(0.11985561 -0.53099 0)
(0.11054011 -0.52353305 0)
(0.10134952 -0.51625344 0)
(0.092285387 -0.50913889 0)
(0.62358772 -0.99616379 0)
(0.60769237 -0.98087211 0)
(0.59193858 -0.96545703 0)
(0.57633637 -0.94995373 0)
(0.560894 -0.93439651 0)
(0.54561867 -0.9188186 0)
(0.5305166 -0.90325211 0)
(0.51559303 -0.88772791 0)
(0.50085223 -0.8722755 0)
(0.48629759 -0.85692297 0)
(0.47193159 -0.84169686 0)
(0.45775589 -0.82662215 0)
(0.44377136 -0.81172215 0)
(0.42997813 -0.79701848 0)
(0.41637567 -0.78253103 0)
(0.40296282 -0.76827791 0)
(0.38973786 -0.75427545 0)
(0.37669861 -0.74053819 0)
(0.36384245 -0.72707887 0)
(0.3511664 -0.71390846 0)
(0.33866719 -0.70103617 0)
(0.32634133 -0.68846948 0)
(0.31418515 -0.67621417 0)
(0.30219489 -0.66427439 0)
(0.29036671 -0.65265269 0)
(0.27869682 -0.64135007 0)
(0.26718145 -0.63036608 0)
(0.25581696 -0.61969887 0)
(0.24459986 -0.60934524 0)
(0.23352687 -0.59930076 0)
(0.2225949 -0.58955983 0)
(0.21180118 -0.58011579 0)
(0.20114319 -0.57096096 0)
(0.19061874 -0.56208677 0)
(0.18022599 -0.55348385 0)
(0.16996345 -0.5451421 0)
(0.15982997 -0.53705082 0)
(0.14982478 -0.52919876 0)
(0.1399475 -0.52157425 0)
(0.13019808 -0.51416527 0)
(0.12057685 -0.50695958 0)
(0.11108444 -0.49994476 0)
(0.10172171 -0.49310833 0)
(0.092490222 -0.48643781 0)
(0.63814002 -0.96105819 0)
(0.62180384 -0.9458309 0)
(0.60561274 -0.93049948 0)
(0.58957695 -0.91509861 0)
(0.57370493 -0.89966205 0)
(0.55800406 -0.8842225 0)
(0.54248078 -0.86881151 0)
(0.52714047 -0.85345937 0)
(0.51198758 -0.83819499 0)
(0.49702564 -0.82304584 0)
(0.48225727 -0.80803787 0)
(0.46768425 -0.79319543 0)
(0.45330757 -0.77854123 0)
(0.43912745 -0.76409626 0)
(0.42514346 -0.7498798 0)
(0.41135453 -0.73590932 0)
(0.39775902 -0.72220057 0)
(0.38435481 -0.70876748 0)
(0.37113934 -0.69562219 0)
(0.3581097 -0.6827751 0)
(0.34526266 -0.67023485 0)
(0.33259478 -0.65800836 0)
(0.32010242 -0.64610089 0)
(0.30778185 -0.63451607 0)
(0.29562929 -0.62325593 0)
(0.28364096 -0.61232102 0)
(0.27181311 -0.60171041 0)
(0.26014215 -0.59142182 0)
(0.24862459 -0.58145164 0)
(0.23725716 -0.57179504 0)
(0.22603682 -0.56244606 0)
(0.21496078 -0.55339766 0)
(0.20402655 -0.54464185 0)
(0.19323196 -0.53616975 0)
(0.18257516 -0.52797169 0)
(0.17205466 -0.5200373 0)
(0.16166932 -0.51235562 0)
(0.15141838 -0.50491516 0)
(0.14130144 -0.49770403 0)
(0.13131844 -0.49071001 0)
(0.1214697 -0.48392062 0)
(0.11175584 -0.47732328 0)
(0.10217772 -0.47090531 0)
(0.092736825 -0.46465408 0)
(0.6550446 -0.92784048 0)
(0.63819908 -0.91267527 0)
(0.62150247 -0.89742405 0)
(0.60496524 -0.88212102 0)
(0.58859607 -0.86679942 0)
(0.57240258 -0.85149141 0)
(0.5563914 -0.83622801 0)
(0.54056812 -0.82103895 0)
(0.52493738 -0.80595258 0)
(0.50950287 -0.7909958 0)
(0.49426737 -0.77619398 0)
(0.47923282 -0.7615709 0)
(0.46440034 -0.74714868 0)
(0.44977029 -0.73294773 0)
(0.43534234 -0.71898675 0)
(0.42111554 -0.70528265 0)
(0.40708835 -0.6918506 0)
(0.39325873 -0.67870395 0)
(0.37962423 -0.66585431 0)
(0.36618199 -0.65331153 0)
(0.35292887 -0.64108371 0)
(0.33986149 -0.62917726 0)
(0.32697627 -0.61759693 0)
(0.31426955 -0.60634585 0)
(0.30173758 -0.59542561 0)
(0.28937663 -0.58483627 0)
(0.27718303 -0.5745765 0)
(0.26515319 -0.56464358 0)
(0.25328368 -0.55503351 0)
(0.24157128 -0.5457411 0)
(0.23001295 -0.53676001 0)
(0.21860596 -0.52808289 0)
(0.20734784 -0.51970141 0)
(0.19623644 -0.51160641 0)
(0.18526994 -0.50378794 0)
(0.17444686 -0.49623537 0)
(0.16376609 -0.48893749 0)
(0.15322686 -0.4818826 0)
(0.14282877 -0.47505858 0)
(0.13257179 -0.46845301 0)
(0.12245622 -0.46205326 0)
(0.11248267 -0.45584654 0)
(0.10265198 -0.44982004 0)
(0.092965601 -0.44396096 0)
(0.67387549 -0.89635148 0)
(0.6564637 -0.88125003 0)
(0.63920495 -0.86607959 0)
(0.62210992 -0.85087386 0)
(0.60518751 -0.83566554 0)
(0.58844559 -0.82048631 0)
(0.571891 -0.80536663 0)
(0.55552956 -0.79033571 0)
(0.53936611 -0.77542135 0)
(0.52340452 -0.76064991 0)
(0.50764778 -0.74604621 0)
(0.49209798 -0.73163348 0)
(0.47675639 -0.71743329 0)
(0.46162353 -0.70346551 0)
(0.44669921 -0.68974828 0)
(0.43198261 -0.67629798 0)
(0.41747231 -0.66312923 0)
(0.40316639 -0.65025488 0)
(0.3890625 -0.63768599 0)
(0.37515788 -0.62543191 0)
(0.3614495 -0.61350025 0)
(0.34793403 -0.60189691 0)
(0.33460802 -0.59062618 0)
(0.32146784 -0.57969074 0)
(0.30850986 -0.5690917 0)
(0.29573039 -0.55882873 0)
(0.28312582 -0.54890006 0)
(0.27069265 -0.53930259 0)
(0.25842749 -0.53003195 0)
(0.24632718 -0.52108258 0)
(0.23438874 -0.51244782 0)
(0.22260948 -0.50411998 0)
(0.21098698 -0.49609045 0)
(0.19951913 -0.48834979 0)
(0.18820414 -0.48088777 0)
(0.17704058 -0.47369354 0)
(0.16602736 -0.46675565 0)
(0.15516373 -0.46006219 0)
(0.14444931 -0.45360085 0)
(0.13388406 -0.44735903 0)
(0.12346831 -0.44132392 0)
(0.11320265 -0.43548259 0)
(0.10308792 -0.42982208 0)
(0.093125522 -0.42432948 0)
(0.69424806 -0.8664168 0)
(0.67622342 -0.85138428 0)
(0.65835636 -0.83629873 0)
(0.64065754 -0.82119325 0)
(0.6231361 -0.80610012 0)
(0.60580014 -0.79105046 0)
(0.58865675 -0.77607422 0)
(0.57171197 -0.76120008 0)
(0.55497085 -0.74645532 0)
(0.53843748 -0.73186576 0)
(0.52211503 -0.71745571 0)
(0.50600577 -0.70324786 0)
(0.49011116 -0.68926326 0)
(0.4744319 -0.67552126 0)
(0.45896793 -0.66203949 0)
(0.4437186 -0.6488338 0)
(0.42868262 -0.63591833 0)
(0.41385822 -0.62330541 0)
(0.39924316 -0.61100563 0)
(0.38483481 -0.59902783 0)
(0.37063025 -0.58737917 0)
(0.35662628 -0.57606509 0)
(0.34281952 -0.56508943 0)
(0.32920647 -0.55445442 0)
(0.31578356 -0.54416079 0)
(0.30254723 -0.53420776 0)
(0.28949395 -0.5245932 0)
(0.27662027 -0.51531363 0)
(0.26392293 -0.50636432 0)
(0.25139879 -0.49773939 0)
(0.23904499 -0.48943184 0)
(0.22685888 -0.48143371 0)
(0.21483812 -0.47373609 0)
(0.20298064 -0.46632927 0)
(0.19128473 -0.4592028 0)
(0.17974898 -0.45234557 0)
(0.16837235 -0.44574596 0)
(0.15715413 -0.43939183 0)
(0.14609397 -0.43327072 0)
(0.13519185 -0.42736985 0)
(0.1244481 -0.42167628 0)
(0.11386331 -0.41617694 0)
(0.10343832 -0.41085873 0)
(0.093174495 -0.40570865 0)
(0.71581535 -0.83788787 0)
(0.69714056 -0.82293232 0)
(0.6786285 -0.80793854 0)
(0.66028937 -0.79293925 0)
(0.64213242 -0.77796615 0)
(0.62416608 -0.76304986 0)
(0.60639766 -0.74821978 0)
(0.58883343 -0.73350407 0)
(0.57147868 -0.71892949 0)
(0.55433769 -0.70452136 0)
(0.53741385 -0.69030345 0)
(0.52070962 -0.67629796 0)
(0.50422666 -0.66252543 0)
(0.48796583 -0.64900473 0)
(0.47192728 -0.63575297 0)
(0.45611048 -0.62278554 0)
(0.44051435 -0.61011609 0)
(0.42513725 -0.59775648 0)
(0.40997708 -0.58571683 0)
(0.39503137 -0.57400556 0)
(0.38029732 -0.56262933 0)
(0.36577186 -0.5515932 0)
(0.35145175 -0.54090055 0)
(0.33733361 -0.53055323 0)
(0.32341398 -0.52055154 0)
(0.3096894 -0.51089437 0)
(0.29615646 -0.50157918 0)
(0.28281183 -0.49260216 0)
(0.26965232 -0.48395825 0)
(0.25667491 -0.47564124 0)
(0.24387682 -0.46764386 0)
(0.23125549 -0.45995784 0)
(0.21880866 -0.45257402 0)
(0.20653434 -0.44548246 0)
(0.19443088 -0.43867246 0)
(0.18249696 -0.43213273 0)
(0.17073156 -0.42585142 0)
(0.15913403 -0.41981625 0)
(0.14770407 -0.41401458 0)
(0.13644167 -0.40843351 0)
(0.12534718 -0.40305995 0)
(0.11442123 -0.39788073 0)
(0.10366461 -0.39288265 0)
(0.093078668 -0.3880526 0)
(0.77741928 -0.84015888 0)
(0.75777122 -0.82543828 0)
(0.7382638 -0.81062755 0)
(0.7189116 -0.79575934 0)
(0.6997264 -0.78086679 0)
(0.68071869 -0.76598212 0)
(0.66189818 -0.75113644 0)
(0.64327345 -0.73635982 0)
(0.62485207 -0.72168115 0)
(0.60664052 -0.70712804 0)
(0.58864431 -0.69272675 0)
(0.57086795 -0.67850209 0)
(0.55331502 -0.66447733 0)
(0.5359882 -0.65067418 0)
(0.51888933 -0.63711269 0)
(0.50201948 -0.62381125 0)
(0.48537899 -0.61078651 0)
(0.46896751 -0.59805339 0)
(0.45278412 -0.58562509 0)
(0.43682736 -0.57351301 0)
(0.42109532 -0.56172685 0)
(0.40558566 -0.55027458 0)
(0.39029574 -0.53916248 0)
(0.37522266 -0.52839516 0)
(0.36036331 -0.51797562 0)
(0.34571445 -0.50790533 0)
(0.33127277 -0.49818423 0)
(0.31703495 -0.48881082 0)
(0.30299768 -0.47978226 0)
(0.28915778 -0.47109438 0)
(0.27551217 -0.46274182 0)
(0.26205796 -0.45471809 0)
(0.24879246 -0.44701562 0)
(0.23571324 -0.4396259 0)
(0.22281812 -0.43253953 0)
(0.21010522 -0.42574632 0)
(0.19757297 -0.41923539 0)
(0.1852201 -0.41299526 0)
(0.1730457 -0.4070139 0)
(0.16104917 -0.40127887 0)
(0.14923024 -0.39577741 0)
(0.13758896 -0.39049649 0)
(0.12612569 -0.3854229 0)
(0.11484107 -0.38054339 0)
(0.1037359 -0.37584468 0)
(0.092811499 -0.37131359 0)
(0.80187957 -0.81388104 0)
(0.78152434 -0.7992335 0)
(0.76131454 -0.78450906 0)
(0.74126419 -0.76974072 0)
(0.72138518 -0.754961 0)
(0.70168846 -0.74020145 0)
(0.68218393 -0.72549262 0)
(0.66288039 -0.71086405 0)
(0.64378562 -0.69634409 0)
(0.62490633 -0.68195984 0)
(0.60624823 -0.66773704 0)
(0.58781604 -0.65369998 0)
(0.56961355 -0.63987147 0)
(0.55164367 -0.62627272 0)
(0.53390842 -0.61292331 0)
(0.51640909 -0.59984116 0)
(0.49914619 -0.58704249 0)
(0.4821196 -0.57454177 0)
(0.46532858 -0.56235175 0)
(0.44877185 -0.55048342 0)
(0.43244767 -0.53894607 0)
(0.41635391 -0.52774725 0)
(0.4004881 -0.51689284 0)
(0.38484748 -0.50638709 0)
(0.36942913 -0.49623263 0)
(0.35422998 -0.48643055 0)
(0.33924686 -0.47698044 0)
(0.3244766 -0.46788049 0)
(0.30991608 -0.45912752 0)
(0.29556222 -0.45071708 0)
(0.28141211 -0.44264351 0)
(0.26746298 -0.43490004 0)
(0.25371229 -0.42747885 0)
(0.24015771 -0.4203712 0)
(0.2267972 -0.41356747 0)
(0.21362898 -0.40705727 0)
(0.20065157 -0.40082952 0)
(0.18786382 -0.39487258 0)
(0.17526489 -0.38917427 0)
(0.16285424 -0.38372203 0)
(0.15063166 -0.37850297 0)
(0.13859726 -0.37350395 0)
(0.12675143 -0.3687117 0)
(0.11509482 -0.36411288 0)
(0.10362825 -0.35969415 0)
(0.092352988 -0.35544229 0)
(0.8267196 -0.78859965 0)
(0.80564359 -0.77404026 0)
(0.78471746 -0.75941715 0)
(0.76395513 -0.7447628 0)
(0.74336874 -0.73010895 0)
(0.72296942 -0.71548654 0)
(0.70276727 -0.7009256 0)
(0.68277131 -0.68645507 0)
(0.66298948 -0.67210278 0)
(0.64342873 -0.65789529 0)
(0.62409495 -0.64385783 0)
(0.60499308 -0.63001421 0)
(0.58612711 -0.61638672 0)
(0.56750015 -0.60299612 0)
(0.54911446 -0.58986153 0)
(0.53097149 -0.57700041 0)
(0.513072 -0.56442855 0)
(0.49541605 -0.55215999 0)
(0.4780031 -0.54020706 0)
(0.46083209 -0.52858037 0)
(0.44390147 -0.51728878 0)
(0.4272093 -0.50633949 0)
(0.4107533 -0.495738 0)
(0.39453091 -0.48548818 0)
(0.3785394 -0.47559232 0)
(0.36277585 -0.46605118 0)
(0.34723731 -0.45686404 0)
(0.33192077 -0.44802876 0)
(0.31682326 -0.43954187 0)
(0.3019419 -0.43139864 0)
(0.28727391 -0.42359315 0)
(0.27281671 -0.41611838 0)
(0.25856787 -0.40896628 0)
(0.24452524 -0.40212789 0)
(0.23068688 -0.39559339 0)
(0.21705117 -0.38935221 0)
(0.20361673 -0.38339313 0)
(0.19038251 -0.37770433 0)
(0.17734778 -0.37227354 0)
(0.16451207 -0.36708806 0)
(0.15187526 -0.36213491 0)
(0.13943749 -0.35740088 0)
(0.1271992 -0.35287262 0)
(0.11516108 -0.34853676 0)
(0.10332392 -0.34437992 0)
(0.091688996 -0.34038885 0)
(0.85170543 -0.76420742 0)
(0.82990092 -0.74975316 0)
(0.80825076 -0.73524751 0)
(0.78676895 -0.72072222 0)
(0.76546772 -0.70620837 0)
(0.74435836 -0.69173631 0)
(0.72345112 -0.67733544 0)
(0.7027552 -0.66303416 0)
(0.68227872 -0.64885973 0)
(0.6620288 -0.63483818 0)
(0.64201153 -0.62099422 0)
(0.62223205 -0.60735116 0)
(0.60269454 -0.59393081 0)
(0.58340233 -0.58075345 0)
(0.56435786 -0.56783776 0)
(0.54556283 -0.55520077 0)
(0.52701818 -0.54285781 0)
(0.50872419 -0.53082255 0)
(0.49068054 -0.51910691 0)
(0.47288638 -0.50772109 0)
(0.45534036 -0.4966736 0)
(0.43804077 -0.48597127 0)
(0.42098551 -0.47561924 0)
(0.40417226 -0.46562106 0)
(0.38759847 -0.45597868 0)
(0.37126143 -0.44669256 0)
(0.35515838 -0.43776166 0)
(0.33928651 -0.42918356 0)
(0.32364304 -0.42095454 0)
(0.30822528 -0.41306958 0)
(0.29303063 -0.40552255 0)
(0.27805666 -0.39830618 0)
(0.26330115 -0.39141223 0)
(0.24876207 -0.38483154 0)
(0.23443766 -0.37855412 0)
(0.22032641 -0.37256924 0)
(0.20642711 -0.36686554 0)
(0.19273882 -0.36143108 0)
(0.1792609 -0.35625348 0)
(0.16599299 -0.35131997 0)
(0.15293503 -0.34661747 0)
(0.14008725 -0.34213274 0)
(0.12745012 -0.33785238 0)
(0.11502435 -0.33376298 0)
(0.10281077 -0.32985117 0)
(0.090810601 -0.32610368 0)
(0.87663076 -0.74060896 0)
(0.8540955 -0.72627751 0)
(0.83171921 -0.71190604 0)
(0.80951591 -0.69752562 0)
(0.78749787 -0.68316669 0)
(0.76567648 -0.66885895 0)
(0.74406212 -0.65463119 0)
(0.72266413 -0.64051122 0)
(0.70149078 -0.62652574 0)
(0.68054935 -0.61270022 0)
(0.65984611 -0.59905886 0)
(0.63938638 -0.58562445 0)
(0.61917454 -0.57241834 0)
(0.59921409 -0.55946033 0)
(0.5795077 -0.54676866 0)
(0.56005727 -0.53435993 0)
(0.54086396 -0.52224906 0)
(0.52192826 -0.51044931 0)
(0.50325009 -0.49897221 0)
(0.48482878 -0.4878276 0)
(0.46666325 -0.47702365 0)
(0.44875198 -0.46656681 0)
(0.43109311 -0.45646191 0)
(0.41368453 -0.44671218 0)
(0.39652391 -0.43731928 0)
(0.37960877 -0.42828334 0)
(0.36293656 -0.41960307 0)
(0.34650468 -0.4112758 0)
(0.33031056 -0.40329752 0)
(0.3143517 -0.39566303 0)
(0.29862571 -0.38836593 0)
(0.28313036 -0.38139879 0)
(0.2678636 -0.37475316 0)
(0.25282359 -0.36841973 0)
(0.23800872 -0.36238834 0)
(0.22341766 -0.35664815 0)
(0.20904932 -0.35118767 0)
(0.19490291 -0.34599487 0)
(0.18097789 -0.34105727 0)
(0.16727403 -0.33636205 0)
(0.15379135 -0.3318961 0)
(0.14053014 -0.32764611 0)
(0.12749093 -0.3235987 0)
(0.11467446 -0.31974043 0)
(0.10208158 -0.31605794 0)
(0.0897135 -0.312538 0)
(0.90131524 -0.71771956 0)
(0.87805192 -0.70352888 0)
(0.8549523 -0.68930869 0)
(0.83203035 -0.67508938 0)
(0.80929836 -0.66090071 0)
(0.78676777 -0.64677173 0)
(0.76444907 -0.63273061 0)
(0.74235169 -0.61880455 0)
(0.72048404 -0.60501966 0)
(0.69885351 -0.59140087 0)
(0.67746655 -0.57797183 0)
(0.65632863 -0.56475485 0)
(0.63544431 -0.55177077 0)
(0.61481728 -0.53903895 0)
(0.59445042 -0.52657717 0)
(0.57434582 -0.51440161 0)
(0.55450486 -0.50252678 0)
(0.53492825 -0.49096556 0)
(0.51561613 -0.47972911 0)
(0.49656808 -0.46882691 0)
(0.47778323 -0.45826677 0)
(0.45926029 -0.44805484 0)
(0.44099766 -0.43819563 0)
(0.42299344 -0.42869206 0)
(0.40524555 -0.41954551 0)
(0.38775173 -0.41075586 0)
(0.37050967 -0.40232155 0)
(0.353517 -0.39423965 0)
(0.33677137 -0.38650597 0)
(0.3202705 -0.37911505 0)
(0.30401222 -0.37206033 0)
(0.28799451 -0.3653342 0)
(0.2722155 -0.35892804 0)
(0.25667356 -0.3528324 0)
(0.24136726 -0.347037 0)
(0.22629543 -0.34153088 0)
(0.21145715 -0.33630246 0)
(0.19685177 -0.33133964 0)
(0.18247889 -0.3266299 0)
(0.16833837 -0.32216036 0)
(0.15443034 -0.31791788 0)
(0.14075517 -0.31388916 0)
(0.12731345 -0.31006081 0)
(0.11410596 -0.30641942 0)
(0.10113356 -0.30295166 0)
(0.088397449 -0.29964434 0)
(0.92560284 -0.69546463 0)
(0.90161843 -0.68143278 0)
(0.87780257 -0.66738104 0)
(0.85416907 -0.65333916 0)
(0.83073023 -0.63933624 0)
(0.80749753 -0.62540065 0)
(0.78448149 -0.61155991 0)
(0.76169161 -0.59784059 0)
(0.7391364 -0.58426822 0)
(0.71682338 -0.57086717 0)
(0.6947591 -0.55766055 0)
(0.67294918 -0.54467015 0)
(0.65139836 -0.53191633 0)
(0.6301105 -0.51941798 0)
(0.60908867 -0.50719245 0)
(0.58833515 -0.49525549 0)
(0.56785154 -0.48362122 0)
(0.54763878 -0.47230212 0)
(0.52769723 -0.46130902 0)
(0.5080267 -0.45065103 0)
(0.48862655 -0.44033565 0)
(0.46949576 -0.43036871 0)
(0.45063295 -0.42075443 0)
(0.43203649 -0.41149544 0)
(0.41370452 -0.40259287 0)
(0.39563504 -0.39404633 0)
(0.37782599 -0.38585404 0)
(0.36027523 -0.37801287 0)
(0.34298066 -0.37051838 0)
(0.32594024 -0.36336497 0)
(0.30915201 -0.3565459 0)
(0.29261418 -0.35005338 0)
(0.27632511 -0.34387868 0)
(0.26028335 -0.33801223 0)
(0.24448769 -0.33244363 0)
(0.22893713 -0.32716186 0)
(0.21363092 -0.32215526 0)
(0.19856856 -0.31741169 0)
(0.1837498 -0.31291859 0)
(0.16917462 -0.30866305 0)
(0.15484325 -0.30463195 0)
(0.14075614 -0.300812 0)
(0.12691396 -0.29718984 0)
(0.11331752 -0.2937521 0)
(0.099967721 -0.29048551 0)
(0.086865725 -0.28737694 0)
(0.9493601 -0.67377925 0)
(0.92466524 -0.65992405 0)
(0.90014398 -0.64605776 0)
(0.87580976 -0.63220949 0)
(0.85167486 -0.61840768 0)
(0.8277508 -0.60468001 0)
(0.80404809 -0.59105333 0)
(0.78057628 -0.57755359 0)
(0.75734393 -0.56420571 0)
(0.73435864 -0.55103348 0)
(0.71162707 -0.53805947 0)
(0.68915498 -0.52530496 0)
(0.66694723 -0.51278981 0)
(0.64500785 -0.50053245 0)
(0.6233401 -0.48854978 0)
(0.60194645 -0.47685715 0)
(0.58082871 -0.46546828 0)
(0.55998803 -0.45439529 0)
(0.539425 -0.44364862 0)
(0.51913967 -0.43323709 0)
(0.49913166 -0.42316786 0)
(0.47940016 -0.41344647 0)
(0.45994408 -0.40407686 0)
(0.44076201 -0.39506141 0)
(0.42185238 -0.38640099 0)
(0.40321344 -0.37809498 0)
(0.38484338 -0.3701414 0)
(0.36674032 -0.3625369 0)
(0.34890241 -0.35527689 0)
(0.33132785 -0.34835558 0)
(0.31401495 -0.34176609 0)
(0.29696212 -0.33550051 0)
(0.28016797 -0.32955 0)
(0.26363127 -0.32390487 0)
(0.247351 -0.31855469 0)
(0.23132637 -0.31348833 0)
(0.2155568 -0.30869412 0)
(0.20004195 -0.30415988 0)
(0.18478173 -0.29987304 0)
(0.16977626 -0.29582071 0)
(0.15502586 -0.2919898 0)
(0.14053108 -0.28836704 0)
(0.12629265 -0.28493913 0)
(0.11231145 -0.28169277 0)
(0.09858839 -0.27861476 0)
(0.085124629 -0.27569207 0)
(0.97247448 -0.65260797 0)
(0.94708298 -0.63894642 0)
(0.92187039 -0.62528205 0)
(0.89684945 -0.61164319 0)
(0.87203248 -0.5980575 0)
(0.84743097 -0.58455197 0)
(0.82305544 -0.57115277 0)
(0.79891541 -0.55788521 0)
(0.77501948 -0.54477358 0)
(0.7513753 -0.53184111 0)
(0.72798961 -0.51910981 0)
(0.70486826 -0.50660043 0)
(0.68201627 -0.49433234 0)
(0.6594378 -0.48232351 0)
(0.63713626 -0.4705904 0)
(0.61511434 -0.45914793 0)
(0.59337402 -0.44800945 0)
(0.57191668 -0.4371867 0)
(0.55074314 -0.42668979 0)
(0.52985367 -0.4165272 0)
(0.50924815 -0.40670581 0)
(0.48892602 -0.39723086 0)
(0.46888644 -0.38810603 0)
(0.44912829 -0.37933345 0)
(0.42965023 -0.37091375 0)
(0.41045081 -0.36284614 0)
(0.39152845 -0.3551284 0)
(0.37288157 -0.34775704 0)
(0.35450857 -0.34072729 0)
(0.33640792 -0.33403323 0)
(0.31857816 -0.32766784 0)
(0.30101797 -0.32162313 0)
(0.28372619 -0.31589015 0)
(0.26670181 -0.31045915 0)
(0.24994405 -0.30531964 0)
(0.23345229 -0.30046046 0)
(0.21722617 -0.29586993 0)
(0.20126552 -0.29153585 0)
(0.18557039 -0.28744569 0)
(0.17014105 -0.28358658 0)
(0.15497793 -0.27994547 0)
(0.14008168 -0.27650916 0)
(0.12545311 -0.27326443 0)
(0.11109314 -0.27019807 0)
(0.097002725 -0.26729697 0)
(0.08318301 -0.26454821 0)
(1.0210935 -0.64533128 0)
(0.99485278 -0.63190301 0)
(0.96878154 -0.61845161 0)
(0.94289405 -0.60500506 0)
(0.91720301 -0.59159081 0)
(0.89172064 -0.57823571 0)
(0.86645832 -0.56496603 0)
(0.84142649 -0.55180726 0)
(0.81663464 -0.53878405 0)
(0.79209137 -0.52592008 0)
(0.76780434 -0.51323797 0)
(0.74378037 -0.50075919 0)
(0.72002537 -0.48850394 0)
(0.69654447 -0.47649111 0)
(0.67334197 -0.4647382 0)
(0.65042144 -0.45326122 0)
(0.62778572 -0.44207469 0)
(0.605437 -0.43119157 0)
(0.58337687 -0.42062323 0)
(0.56160635 -0.41037946 0)
(0.54012598 -0.40046841 0)
(0.51893586 -0.39089667 0)
(0.4980357 -0.38166922 0)
(0.47742491 -0.37278948 0)
(0.45710264 -0.36425935 0)
(0.43706783 -0.35607926 0)
(0.4173193 -0.34824821 0)
(0.39785575 -0.34076381 0)
(0.37867587 -0.33362242 0)
(0.35977833 -0.32681913 0)
(0.34116187 -0.3203479 0)
(0.32282531 -0.31420162 0)
(0.30476757 -0.30837219 0)
(0.28698773 -0.30285062 0)
(0.26948503 -0.29762711 0)
(0.25225891 -0.29269113 0)
(0.23530898 -0.28803152 0)
(0.21863505 -0.2836366 0)
(0.20223715 -0.2794942 0)
(0.18611548 -0.27559182 0)
(0.17027046 -0.27191665 0)
(0.15470266 -0.26845571 0)
(0.13941281 -0.2651959 0)
(0.1244018 -0.26212408 0)
(0.10967062 -0.25922716 0)
(0.095220244 -0.25649215 0)
(0.081051828 -0.25390626 0)
(1.0433267 -0.62483363 0)
(1.0164196 -0.61162394 0)
(0.98968737 -0.59839873 0)
(0.96314388 -0.58518519 0)
(0.93680169 -0.57200999 0)
(0.91067285 -0.55889923 0)
(0.88476858 -0.54587845 0)
(0.85909922 -0.53297243 0)
(0.8336742 -0.52020518 0)
(0.80850207 -0.50759973 0)
(0.78359049 -0.49517811 0)
(0.75894631 -0.48296121 0)
(0.7345755 -0.47096871 0)
(0.71048328 -0.45921901 0)
(0.68667406 -0.44772911 0)
(0.66315154 -0.43651459 0)
(0.63991873 -0.42558957 0)
(0.61697801 -0.41496662 0)
(0.59433115 -0.40465675 0)
(0.57197941 -0.39466942 0)
(0.54992354 -0.38501248 0)
(0.5281639 -0.37569223 0)
(0.50670045 -0.36671339 0)
(0.48553286 -0.35807915 0)
(0.46466056 -0.34979119 0)
(0.44408277 -0.34184974 0)
(0.42379857 -0.33425363 0)
(0.40380696 -0.32700032 0)
(0.3841069 -0.32008601 0)
(0.36469735 -0.31350569 0)
(0.34557731 -0.30725323 0)
(0.32674588 -0.30132142 0)
(0.30820224 -0.29570212 0)
(0.28994574 -0.29038629 0)
(0.27197586 -0.2853641 0)
(0.25429227 -0.28062502 0)
(0.23689478 -0.2761579 0)
(0.21978344 -0.27195109 0)
(0.20295844 -0.26799248 0)
(0.18642017 -0.26426961 0)
(0.17016918 -0.26076977 0)
(0.15420618 -0.25748007 0)
(0.138532 -0.25438751 0)
(0.12314762 -0.25147907 0)
(0.10805408 -0.2487418 0)
(0.093252403 -0.24616284 0)
(0.078743743 -0.24372957 0)
(1.0646679 -0.60471305 0)
(1.0371152 -0.59173767 0)
(1.0097428 -0.57875359 0)
(0.98256417 -0.56578731 0)
(0.95559162 -0.55286475 0)
(0.92883707 -0.54001128 0)
(0.90231157 -0.52725166 0)
(0.8760253 -0.51461 0)
(0.84998759 -0.5021096 0)
(0.82420693 -0.48977289 0)
(0.79869095 -0.47762127 0)
(0.77344648 -0.46567507 0)
(0.74847956 -0.45395343 0)
(0.72379544 -0.44247424 0)
(0.69939865 -0.43125403 0)
(0.67529301 -0.42030794 0)
(0.65148168 -0.40964968 0)
(0.62796719 -0.39929143 0)
(0.60475153 -0.38924386 0)
(0.58183614 -0.37951609 0)
(0.55922202 -0.37011569 0)
(0.53690975 -0.36104867 0)
(0.51489956 -0.35231951 0)
(0.49319139 -0.34393117 0)
(0.47178492 -0.33588513 0)
(0.45067965 -0.32818143 0)
(0.42987496 -0.32081875 0)
(0.40937012 -0.31379441 0)
(0.38916439 -0.3071045 0)
(0.369257 -0.3007439 0)
(0.34964725 -0.2947064 0)
(0.33033449 -0.28898475 0)
(0.3113182 -0.28357075 0)
(0.29259797 -0.27845535 0)
(0.27417354 -0.27362872 0)
(0.2560448 -0.26908034 0)
(0.23821183 -0.26479912 0)
(0.22067484 -0.26077343 0)
(0.20343424 -0.25699124 0)
(0.18649059 -0.25344019 0)
(0.16984459 -0.25010766 0)
(0.15349708 -0.24698088 0)
(0.13744901 -0.24404697 0)
(0.12170145 -0.24129307 0)
(0.10625549 -0.23870637 0)
(0.0911122 -0.23627418 0)
(0.076272746 -0.23398403 0)
(1.0850709 -0.58494391 0)
(1.0568946 -0.572217 0)
(1.0289045 -0.55948789 0)
(1.001113 -0.54678218 0)
(0.97353236 -0.53412494 0)
(0.94617436 -0.52154077 0)
(0.91904983 -0.50905372 0)
(0.89216875 -0.49668716 0)
(0.86554032 -0.48446374 0)
(0.83917294 -0.47240522 0)
(0.81307418 -0.46053242 0)
(0.78725085 -0.44886507 0)
(0.761709 -0.43742179 0)
(0.73645392 -0.42621994 0)
(0.71149023 -0.41527558 0)
(0.68682183 -0.40460343 0)
(0.66245204 -0.39421675 0)
(0.63838353 -0.38412737 0)
(0.61461848 -0.37434561 0)
(0.59115852 -0.36488025 0)
(0.56800489 -0.35573859 0)
(0.54515838 -0.34692636 0)
(0.52261949 -0.33844781 0)
(0.50038841 -0.33030567 0)
(0.47846509 -0.32250125 0)
(0.45684931 -0.31503442 0)
(0.43554074 -0.3079037 0)
(0.41453894 -0.3011063 0)
(0.39384343 -0.29463821 0)
(0.37345376 -0.28849423 0)
(0.3533695 -0.28266809 0)
(0.33359028 -0.27715249 0)
(0.31411587 -0.27193924 0)
(0.2949461 -0.26701927 0)
(0.27608098 -0.26238278 0)
(0.25752065 -0.25801929 0)
(0.2392654 -0.25391776 0)
(0.22131568 -0.25006664 0)
(0.20367208 -0.246454 0)
(0.18633534 -0.24306758 0)
(0.16930632 -0.23989488 0)
(0.15258599 -0.23692326 0)
(0.13617542 -0.23414002 0)
(0.12007576 -0.23153243 0)
(0.10428819 -0.22908787 0)
(0.088813821 -0.22679383 0)
(0.073653817 -0.22463802 0)
(1.133457 -0.57794941 0)
(1.1045027 -0.56550536 0)
(1.0757265 -0.55304016 0)
(1.0471418 -0.54057879 0)
(1.0187608 -0.52814585 0)
(0.99059556 -0.51576556 0)
(0.96265755 -0.50346173 0)
(0.93495732 -0.49125768 0)
(0.90750468 -0.47917607 0)
(0.88030866 -0.46723887 0)
(0.85337753 -0.4554672 0)
(0.82671877 -0.44388125 0)
(0.80033916 -0.43250019 0)
(0.77424473 -0.42134207 0)
(0.7484408 -0.41042375 0)
(0.72293203 -0.39976083 0)
(0.69772244 -0.38936757 0)
(0.67281543 -0.37925682 0)
(0.64821385 -0.36944004 0)
(0.62392002 -0.35992719 0)
(0.59993578 -0.35072676 0)
(0.57626256 -0.34184574 0)
(0.55290141 -0.33328961 0)
(0.52985304 -0.32506238 0)
(0.5071179 -0.3171666 0)
(0.48469623 -0.30960338 0)
(0.46258809 -0.30237244 0)
(0.4407934 -0.29547218 0)
(0.41931202 -0.2888997 0)
(0.39814377 -0.2826509 0)
(0.37728848 -0.27672053 0)
(0.356746 -0.27110227 0)
(0.33651627 -0.26578882 0)
(0.3165993 -0.26077197 0)
(0.29699521 -0.25604268 0)
(0.27770427 -0.25159119 0)
(0.25872686 -0.24740709 0)
(0.24006351 -0.24347941 0)
(0.22171487 -0.23979671 0)
(0.20368175 -0.23634715 0)
(0.18596506 -0.23311861 0)
(0.16856581 -0.23009874 0)
(0.15148514 -0.22727506 0)
(0.13472422 -0.22463503 0)
(0.11828428 -0.22216611 0)
(0.1021666 -0.21985585 0)
(0.08637231 -0.21769196 0)
(0.070902618 -0.21566236 0)
(1.1524786 -0.55855711 0)
(1.1229425 -0.54638113 0)
(1.0935904 -0.53419004 0)
(1.0644354 -0.52200806 0)
(1.0354892 -0.50985897 0)
(1.0067637 -0.49776615 0)
(0.97826995 -0.48575266 0)
(0.95001823 -0.47384105 0)
(0.92201812 -0.46205329 0)
(0.89427848 -0.45041064 0)
(0.86680741 -0.43893359 0)
(0.8396123 -0.42764171 0)
(0.81269986 -0.41655357 0)
(0.78607607 -0.40568669 0)
(0.75974627 -0.39505743 0)
(0.73371516 -0.38468088 0)
(0.70798682 -0.37457087 0)
(0.68256475 -0.36473985 0)
(0.65745194 -0.35519889 0)
(0.63265086 -0.34595762 0)
(0.60816353 -0.33702421 0)
(0.58399158 -0.32840537 0)
(0.56013628 -0.32010634 0)
(0.53659858 -0.3121309 0)
(0.51337918 -0.3044814 0)
(0.49047857 -0.29715879 0)
(0.46789709 -0.29016266 0)
(0.44563494 -0.28349127 0)
(0.42369228 -0.27714164 0)
(0.4020692 -0.27110961 0)
(0.38076581 -0.26538988 0)
(0.35978228 -0.25997611 0)
(0.3391188 -0.254861 0)
(0.31877566 -0.25003636 0)
(0.29875328 -0.24549321 0)
(0.27905216 -0.24122182 0)
(0.25967293 -0.23721189 0)
(0.24061637 -0.23345252 0)
(0.22188334 -0.22993241 0)
(0.20347486 -0.22663985 0)