/*--------------------------------*- C++ -*----------------------------------*\
| =========                 |                                                 |
| \\      /  F ield         | OpenFOAM: The Open Source CFD Toolbox           |
|  \\    /   O peration     | Version:  2312                                  |
|   \\  /    A nd           | Website:  www.openfoam.com                      |
|    \\/     M anipulation  |                                                 |
\*---------------------------------------------------------------------------*/
FoamFile
{
    version     2.0;
    format      ascii;
    arch        "LSB;label=32;scalar=64";
    class       volScalarField;
    location    "0.01";
    object      CH4;
}
// * * * * * * * * * * * * * * * * * * * * * * * * * * * * * * * * * * * * * //

dimensions      [0 0 0 0 0 0 0];

internalField   nonuniform List<scalar> 
3251
(
1.8374526e-18
1.4187996e-18
1.0966277e-18
8.4783374e-19
6.553995e-19
5.0635082e-19
3.9084971e-19
3.0135209e-19
2.3203991e-19
1.7840782e-19
1.3695719e-19
1.049662e-19
8.0315007e-20
6.1352312e-20
4.6791887e-20
3.5632652e-20
2.7096332e-20
2.0578759e-20
1.5611728e-20
1.1833108e-20
8.9634021e-21
6.7873721e-21
5.1396502e-21
3.893485e-21
2.9519556e-21
2.2411272e-21
1.7047367e-21
1.3000364e-21
9.9466037e-22
7.6411257e-22
5.8989757e-22
4.5809111e-22
3.582159e-22
2.8239968e-22
2.247329e-22
1.8078345e-22
1.4723088e-22
1.215895e-22
1.0200242e-22
8.7084025e-23
7.5808073e-23
6.7420631e-23
6.1378301e-23
5.7303509e-23
5.4953714e-23
5.420103e-23
5.5017476e-23
5.7468514e-23
6.1707154e-23
6.7972e-23
7.6558063e-23
8.7705605e-23
1.019734e-22
1.1938344e-22
1.397662e-22
1.6270213e-22
1.8734646e-22
2.1240747e-22
2.2461903e-18
1.7350879e-18
1.34133e-18
1.037175e-18
8.0189825e-19
6.1961839e-19
4.7833164e-19
3.6883284e-19
2.8401815e-19
2.18383e-19
1.6765086e-19
1.2849354e-19
9.8318369e-20
7.5105206e-20
5.7280321e-20
4.3618704e-20
3.3167898e-20
2.5188449e-20
1.9107272e-20
1.4481084e-20
1.0967733e-20
8.3037141e-21
6.2865677e-21
4.7611028e-21
3.6086465e-21
2.7386658e-21
2.0822501e-21
1.5870888e-21
1.2135409e-21
9.3158306e-22
7.1856781e-22
5.5745397e-22
4.354096e-22
3.4279438e-22
2.7237156e-22
2.1871418e-22
1.7775608e-22
1.4645309e-22
1.2252909e-22
1.0428749e-22
9.0467026e-23
8.0139116e-23
7.2630654e-23
6.7468433e-23
6.4340043e-23
6.3067639e-23
6.3587736e-23
6.5942637e-23
7.0269336e-23
7.6793098e-23
8.5802227e-23
9.7560427e-23
1.1247714e-22
1.3061566e-22
1.5179693e-22
1.7552925e-22
2.0088296e-22
2.2652078e-22
3.1757516e-18
2.4542165e-18
1.897682e-18
1.4675532e-18
1.13474e-18
8.7682594e-19
6.7687626e-19
5.2189538e-19
4.0184563e-19
3.0894344e-19
2.3713851e-19
1.8172046e-19
1.3901896e-19
1.0617371e-19
8.0956243e-20
6.1631882e-20
4.6851905e-20
3.5569271e-20
2.6972575e-20
2.0434264e-20
1.547001e-20
1.1706871e-20
8.8583394e-21
6.7048399e-21
5.0784928e-21
3.85125e-21
2.9256707e-21
2.2277821e-21
1.7015272e-21
1.3045917e-21
1.0048595e-21
7.7829537e-22
6.0678321e-22
4.7671423e-22
3.7787471e-22
3.0260755e-22
2.4517671e-22
2.0128815e-22
1.677306e-22
1.4210748e-22
1.2263517e-22
1.079953e-22
9.7225067e-23
8.9637239e-23
8.4762768e-23
8.2311364e-23
8.2138819e-23
8.4233337e-23
8.8694356e-23
9.5716991e-23
1.0556759e-22
1.1850067e-22
1.3481028e-22
1.5452655e-22
1.7739925e-22
2.0281181e-22
2.2967322e-22
2.5651637e-22
4.8397687e-18
3.7416575e-18
2.8937435e-18
2.238035e-18
1.7305219e-18
1.3371381e-18
1.0321252e-18
7.9569844e-19
6.1256287e-19
4.7085077e-19
3.6133271e-19
2.7682088e-19
2.1171346e-19
1.6164434e-19
1.2321185e-19
9.376811e-20
7.1254567e-20
5.4073321e-20
4.0986278e-20
3.1036052e-20
2.3483919e-20
1.7761173e-20
1.3431023e-20
1.0158802e-20
7.6887058e-21
5.8256779e-21
4.4213318e-21
3.3630453e-21
2.5655178e-21
1.9642806e-21
1.5107222e-21
1.168073e-21
9.0887807e-22
7.1246423e-22
5.6332018e-22
4.4982213e-22
3.6326526e-22
2.9713418e-22
2.4655609e-22
2.0789175e-22
1.7842942e-22
1.561582e-22
1.3959997e-22
1.2768599e-22
1.1966679e-22
1.1504931e-22
1.1354172e-22
1.1503074e-22
1.195433e-22
1.2721916e-22
1.3827366e-22
1.5291472e-22
1.7132536e-22
1.9343763e-22
2.188623e-22
2.4678104e-22
2.7587462e-22
3.0446446e-22
7.6194834e-18
5.8925972e-18
4.5579587e-18
3.5253225e-18
2.7258415e-18
2.1060408e-18
1.6254343e-18
1.252895e-18
9.6434209e-19
7.4107984e-19
5.68563e-19
4.3546075e-19
3.32941e-19
2.5411946e-19
1.9363252e-19
1.4730541e-19
1.1189288e-19
8.4876294e-20
6.4304508e-20
4.8669078e-20
3.6806363e-20
2.7820762e-20
2.1024606e-20
1.5891156e-20
1.2017916e-20
9.0980716e-21
6.8982932e-21
5.2415451e-21
3.9937937e-21
3.0537736e-21
2.3451495e-21
1.810177e-21
1.4058206e-21
1.0996471e-21
8.6733777e-22
6.9067805e-22
5.5603217e-22
4.531965e-22
3.7454025e-22
3.1436225e-22
2.6841027e-22
2.335235e-22
2.0736719e-22
1.8823669e-22
1.7491301e-22
1.6656075e-22
1.6263534e-22
1.6284557e-22
1.6708711e-22
1.7539766e-22
1.8790014e-22
2.0471033e-22
2.2586228e-22
2.5112141e-22
2.7987643e-22
3.1102962e-22
3.4296047e-22
1.1889231e-17
9.1969666e-18
7.1147341e-18
5.5029755e-18
4.2548241e-18
3.2870638e-18
2.536604e-18
1.9548984e-18
1.5043655e-18
1.1558144e-18
8.8652674e-19
6.788011e-19
5.1883788e-19
3.9588031e-19
3.0154799e-19
2.2931851e-19
1.7412236e-19
1.3202572e-19
9.998172e-20
7.5635338e-20
5.7170286e-20
4.3189016e-20
3.2618743e-20
2.4637968e-20
1.8619152e-20
1.4084077e-20
1.066918e-20
8.0987031e-21
6.1639458e-21
4.707295e-21
3.6099768e-21
2.7820814e-21
2.1568129e-21
1.6837279e-21
1.3250452e-21
1.0524808e-21
8.4486845e-22
6.8637393e-22
5.6515727e-22
4.7237135e-22
4.0141337e-22
3.473672e-22
3.06589e-22
2.764e-22
2.5485879e-22
2.4059927e-22
2.3268e-22
2.3052504e-22
2.3381428e-22
2.4241489e-22
2.5629762e-22
2.7542427e-22
2.996283e-22
3.284328e-22
3.6092393e-22
3.9564525e-22
4.3066015e-22
1.8114908e-17
1.4015566e-17
1.0843305e-17
8.3869418e-18
6.4843316e-18
5.0089909e-18
3.8648894e-18
2.9780846e-18
2.2913034e-18
1.7600425e-18
1.3496562e-18
1.033145e-18
7.8945863e-19
6.0218817e-19
4.5855018e-19
3.4859627e-19
2.6459509e-19
2.0054824e-19
1.5181066e-19
1.1479277e-19
8.6726771e-20
6.5483513e-20
4.9429021e-20
3.7312398e-20
2.8178355e-20
2.1299122e-20
1.612158e-20
1.2226324e-20
9.2960397e-21
7.0911776e-21
5.4312986e-21
4.1797168e-21
3.2351463e-21
2.5209807e-21
1.979902e-21
1.5690191e-21
1.256245e-21
1.0175825e-21
8.3509182e-22
6.9536785e-22
5.8840236e-22
5.0673557e-22
4.4482495e-22
3.9857636e-22
3.6499524e-22
3.4193733e-22
3.2787383e-22
3.2180158e-22
3.2307145e-22
3.3128725e-22
3.4618783e-22
3.6750479e-22
3.9479993e-22
4.2727065e-22
4.6361638e-22
5.0194652e-22
5.3994399e-22
2.7970707e-17
2.1644599e-17
1.6746725e-17
1.2952958e-17
1.0013877e-17
7.7346418e-18
5.9671076e-18
4.597131e-18
3.5362546e-18
2.7157172e-18
2.0819748e-18
1.5932928e-18
1.2171308e-18
9.2812229e-19
7.0650686e-19
5.3690786e-19
4.0737708e-19
3.0864608e-19
2.3353896e-19
1.7651162e-19
1.3329023e-19
1.0058795e-19
7.588305e-20
5.7245538e-20
4.3201948e-20
3.2630083e-20
2.4677318e-20
1.8697347e-20
1.4201358e-20
1.0820456e-20
8.2770784e-21
6.3603162e-21
4.9149248e-21
3.8229059e-21
2.9961747e-21
2.3688412e-21
1.891629e-21
1.5276975e-21
1.2495128e-21
1.0365035e-21
8.7330767e-22
7.4846623e-22
6.5344946e-22
5.8193318e-22
5.2925885e-22
4.9204691e-22
4.6782933e-22
4.5491193e-22
4.5210854e-22
4.5858814e-22
4.7371228e-22
4.9684798e-22
5.2715402e-22
5.6335991e-22
6.0363725e-22
6.4554317e-22
6.8630178e-22
4.3704384e-17
3.3824557e-17
2.617184e-17
2.0242516e-17
1.5648178e-17
1.2085063e-17
9.3218862e-18
7.1803274e-18
5.5221264e-18
4.2397691e-18
3.2495139e-18
2.4860788e-18
1.8985599e-18
1.4472767e-18
1.1013197e-18
8.3663927e-19
6.3455121e-19
4.8056438e-19
3.6346176e-19
2.7457911e-19
2.072391e-19
1.5630779e-19
1.1784744e-19
8.8845245e-20
6.7001721e-20
5.0566138e-20
3.8208749e-20
2.8921923e-20
2.1943825e-20
1.6699692e-20
1.2756683e-20
9.7884885e-21
7.5514376e-21
5.8625811e-21
4.5850233e-21
3.6163723e-21
2.8800776e-21
2.3189301e-21
1.890187e-21
1.5619206e-21
1.3102878e-21
1.1174933e-21
9.7027309e-22
8.5876463e-22
7.7566355e-22
7.1561873e-22
6.7465493e-22
6.4995994e-22
6.3947302e-22
6.416514e-22
6.5524656e-22
6.7905354e-22
7.1163037e-22
7.5103643e-22
7.9472872e-22
8.3958732e-22
6.9058982e-17
5.34538e-17
4.1361372e-17
3.19897e-17
2.4726876e-17
1.9093938e-17
1.4725682e-17
1.1340368e-17
8.7194385e-18
6.69288e-18
5.1282391e-18
3.9222459e-18
2.9943716e-18
2.2818435e-18
1.7357683e-18
1.3181093e-18
9.9932007e-19
7.5648999e-19
5.7188881e-19
4.318248e-19
3.2574891e-19
2.4555272e-19
1.8501891e-19
1.3939198e-19
1.0504356e-19
7.9212048e-20
5.9800616e-20
4.5220923e-20
3.4272504e-20
2.6050002e-20
1.9872739e-20
1.522493e-20
1.17253e-20
9.0853907e-21
7.0900892e-21
5.5785384e-21
4.4305231e-21
3.5562399e-21
2.8886216e-21
2.3775854e-21
1.9857338e-21
1.6851474e-21
1.4549954e-21
1.2797562e-21
1.1478872e-21
1.0508706e-21
9.8230072e-22
9.3755382e-22
9.1314226e-22
9.063685e-22
9.1499836e-22
9.3693468e-22
9.6983831e-22
1.01081e-21
1.0563508e-21
1.1025863e-21
1.1032207e-16
8.5400975e-17
6.6082335e-17
5.1106832e-17
3.949946e-17
3.0496621e-17
2.3515265e-17
1.8105313e-17
1.3917455e-17
1.0679874e-17
8.1807566e-18
6.2549398e-18
4.7736266e-18
3.6364229e-18
2.7651402e-18
2.0989606e-18
1.5906503e-18
1.2035919e-18
9.0945435e-19
6.8636599e-19
5.1748006e-19
3.8985136e-19
2.9355703e-19
2.2100974e-19
1.664224e-19
1.2539193e-19
9.4576319e-20
7.1444944e-20
5.4085874e-20
4.1057615e-20
3.1274379e-20
2.3924537e-20
1.8392746e-20
1.422336e-20
1.1074888e-20
8.6919402e-21
6.8837324e-21
5.5078154e-21
4.4578542e-21
3.6544729e-21
3.0384141e-21
2.5654347e-21
2.2025044e-21
1.924974e-21
1.7144583e-21
1.5573178e-21
1.4432062e-21
1.3645543e-21
1.3155462e-21
1.2916081e-21
1.2889238e-21
1.3040021e-21
1.3331637e-21
1.3721394e-21
1.4161755e-21
1.7814994e-16
1.3791735e-16
1.0671833e-16
8.2528448e-17
6.3776634e-17
4.9232165e-17
3.7954018e-17
2.9215328e-17
2.2451707e-17
1.7223834e-17
1.3189297e-17
1.0081073e-17
7.6909283e-18
5.8565612e-18
4.4515828e-18
3.3776995e-18
2.5585888e-18
1.935096e-18
1.4614661e-18
1.1023854e-18
8.3066202e-19
6.2540816e-19
4.7061803e-19
3.5405734e-19
2.663979e-19
2.0054496e-19
1.5111555e-19
1.140351e-19
8.6226483e-20
6.5370698e-20
4.9723125e-20
3.7974986e-20
2.9141177e-20
2.2489109e-20
1.7470701e-20
1.3676216e-20
1.0799729e-20
8.61295e-21
6.9455537e-21
5.670458e-21
4.6928225e-21
3.9418447e-21
3.3646498e-21
2.9217397e-21
2.5835931e-21
2.3282258e-21
2.138864e-21
2.0031264e-21
1.9113971e-21
1.8560352e-21
1.8307018e-21
1.8297184e-21
1.8474013e-21
1.8775307e-21
1.913833e-21
2.9076416e-16
2.2511134e-16
1.7418287e-16
1.3468934e-16
1.0407074e-16
8.0321977e-17
6.1907812e-17
4.7641659e-17
3.6601753e-17
2.8070367e-17
2.1488e-17
1.6418297e-17
1.2520981e-17
9.5308527e-18
7.2414229e-18
5.4921348e-18
4.158348e-18
3.1434843e-18
2.3728634e-18
1.7888652e-18
1.3471361e-18
1.013617e-18
7.6221827e-19
5.7300536e-19
4.3078453e-19
3.2400425e-19
2.4390353e-19
1.8385357e-19
1.388503e-19
1.0512437e-19
7.9841818e-20
6.0875408e-20
4.6626422e-20
3.5907026e-20
2.7828462e-20
2.172658e-20
1.7105805e-20
1.3596558e-20
1.0923259e-20
8.8804067e-21
7.3147058e-21
6.1117471e-21
5.1860872e-21
4.4738643e-21
3.9272843e-21
3.5106668e-21
3.1966856e-21
2.9650594e-21
2.7999419e-21
2.6886887e-21
2.6208784e-21
2.5874506e-21
2.5796878e-21
2.5886154e-21
4.79595e-16
3.7131672e-16
2.8729624e-16
2.2213241e-16
1.7160729e-16
1.3241907e-16
1.0203625e-16
7.8500963e-17
6.0291641e-17
4.6223178e-17
3.5371588e-17
2.7016212e-17
2.0595092e-17
1.5670301e-17
1.190092e-17
9.0219225e-18
6.8276197e-18
5.1586785e-18
3.8919308e-18
2.9323773e-18
2.2069168e-18
1.6594354e-18
1.2469658e-18
9.3668967e-19
7.0360372e-19
5.28706e-19
3.9759087e-19
2.9936325e-19
2.2580216e-19
1.7071796e-19
1.2945977e-19
9.8537145e-20
7.5325863e-20
5.7882281e-20
4.4750423e-20
3.4842818e-20
2.7348611e-20
2.1663508e-20
1.7337205e-20
1.403411e-20
1.1504026e-20
9.5603064e-21
8.0635875e-21
6.9096901e-21
6.0205944e-21
5.3379693e-21
4.8170492e-21
4.4245083e-21
4.1342389e-21
3.9253936e-21
3.7809558e-21
3.6865413e-21
3.6289087e-21
3.5953656e-21
7.9931744e-16
6.1885948e-16
4.7878765e-16
3.7014274e-16
2.8589808e-16
2.2055894e-16
1.6990693e-16
1.3067737e-16
1.0033198e-16
7.6893284e-17
5.8819304e-17
4.4907356e-17
3.4219661e-17
2.602552e-17
1.9756207e-17
1.4969704e-17
1.1323058e-17
8.5506881e-18
6.4473644e-18
4.8548498e-18
3.6514284e-18
2.7437047e-18
2.0601928e-18
1.5463146e-18
1.1605061e-18
8.7119278e-19
6.5444837e-19
4.9218522e-19
3.7076141e-19
2.7991101e-19
2.119248e-19
1.6102045e-19
1.2284299e-19
9.4184109e-20
7.2634082e-20
5.6394576e-20
4.4125853e-20
3.483018e-20
2.7764581e-20
2.2375727e-20
1.8251366e-20
1.5084135e-20
1.2644631e-20
1.0761403e-20
9.3060289e-21
8.182438e-21
7.3168425e-21
6.6542489e-21
6.1515618e-21
5.7744091e-21
5.4950449e-21
5.2907225e-21
5.1414096e-21
1.3458189e-15
1.0419604e-15
8.0603561e-16
6.2303686e-16
4.8113014e-16
3.7107614e-16
2.8577251e-16
2.1971874e-16
1.6863654e-16
1.2919207e-16
9.878544e-17
7.5388866e-17
5.742135e-17
4.3651209e-17
3.3120005e-17
2.5083038e-17
1.8962686e-17
1.4311796e-17
1.0784956e-17
8.115945e-18
6.1000714e-18
4.5803343e-18
3.4366156e-18
2.5772473e-18
1.9324504e-18
1.449241e-18
1.0874876e-18
8.1686629e-19
6.1451748e-19
4.6324757e-19
3.5015333e-19
2.6556641e-19
2.0217906e-19
1.5465382e-19
1.1896086e-19
9.2097557e-20
7.1829222e-20
5.6492845e-20
4.4850946e-20
3.5982611e-20
2.9202237e-20
2.3999024e-20
1.9991977e-20
1.6896472e-20
1.4499388e-20
1.2641302e-20
1.1199796e-20
1.0083655e-20
9.2215034e-21
8.5565274e-21
8.0433943e-21
7.6461868e-21
7.3348903e-21
2.2885678e-15
1.7717746e-15
1.3704044e-15
1.0590805e-15
8.1765837e-16
6.3044399e-16
4.8535793e-16
3.7303842e-16
2.8620109e-16
2.1916858e-16
1.6751313e-16
1.2778143e-16
9.7281425e-17
7.3916274e-17
5.6054733e-17
4.2429727e-17
3.2058796e-17
2.4181678e-17
1.8211324e-17
1.369547e-17
1.0286528e-17
7.7180146e-18
5.7861406e-18
4.3354578e-18
3.2476923e-18
2.4330814e-18
1.8236688e-18
1.3681319e-18
1.0278008e-18
7.7360601e-19
5.8374634e-19
4.419154e-19
3.3570659e-19
2.5618513e-19
1.9653832e-19
1.5170659e-19
1.1792828e-19
9.2406036e-20
7.3059859e-20
5.8343122e-20
4.7105367e-20
3.8490175e-20
3.1859271e-20
2.6736177e-20
2.2764344e-20
1.9677239e-20
1.7270382e-20
1.5391632e-20
1.3922257e-20
1.276794e-20
1.1854265e-20
1.1124539e-20
3.9292493e-15
3.041738e-15
2.3522471e-15
1.8174805e-15
1.4027895e-15
1.081252e-15
8.3212128e-16
6.3930623e-16
4.9028221e-16
3.7528612e-16
2.8670363e-16
2.1859666e-16
1.6633692e-16
1.263203e-16
9.5743787e-17
7.2430909e-17
5.469471e-17
4.1230307e-17
3.103055e-17
2.3319884e-17
1.7502529e-17
1.3121944e-17
9.8291694e-18
7.3581509e-18
5.506563e-18
4.1209311e-18
3.0851254e-18
2.3114874e-18
1.7340047e-18
1.3030801e-18
9.8154086e-19
7.4167499e-19
5.6214534e-19
4.2794416e-19
3.2741573e-19
2.5196242e-19
1.9519691e-19
1.5237223e-19
1.1996162e-19
9.5345006e-20
7.657525e-20
6.2204259e-20
5.1153822e-20
4.2619794e-20
3.600101e-20
3.0848571e-20
2.6818607e-20
2.3655825e-20
2.1161749e-20
1.9178923e-20
1.7584344e-20
1.6288844e-20
6.8084932e-15
5.2700783e-15
4.074566e-15
3.1474483e-15
2.4285394e-15
1.8712142e-15
1.4394999e-15
1.1054765e-15
8.4740522e-16
6.4833884e-16
4.9506049e-16
3.7726426e-16
2.8691917e-16
2.1777314e-16
1.6496549e-16
1.2472341e-16
9.4123913e-17
7.0907049e-17
5.3329343e-17
4.0048895e-17
3.0035385e-17
2.2499693e-17
1.6838965e-17
1.2593822e-17
9.4151064e-18
7.0381076e-18
5.2626382e-18
3.9376746e-18
2.949551e-18
2.2129137e-18
1.6638127e-18
1.2544998e-18
9.4884097e-19
7.2053882e-19
5.4974039e-19
4.2173399e-19
3.2558373e-19
2.5316685e-19
1.9845384e-19
1.569696e-19
1.2539177e-19
1.0125212e-19
8.2714861e-20
6.8412386e-20
5.7323512e-20
4.8686791e-20
4.1920054e-20
3.6592304e-20
3.2370078e-20
2.8988832e-20
2.6243431e-20
2.3994684e-20
1.1900894e-14
9.2105154e-15
7.1192256e-15
5.4977113e-15
4.240473e-15
3.2660207e-15
2.511414e-15
1.9277685e-15
1.4770132e-15
1.1294671e-15
8.6198437e-16
6.5652027e-16
4.99017e-16
3.785342e-16
2.8656962e-16
2.1652679e-16
1.6329745e-16
1.2293406e-16
9.2392797e-17
6.9332184e-17
5.1955397e-17
3.8887019e-17
2.9076885e-17
2.1725215e-17
1.6224475e-17
1.2114337e-17
9.0468823e-18
6.7597923e-18
5.0557565e-18
3.786698e-18
2.8417129e-18
2.1377271e-18
1.6135007e-18
1.2221565e-18
9.2978291e-19
7.1100551e-19
5.4695013e-19
4.2360833e-19
3.3059195e-19
2.6019883e-19
2.0671706e-19
1.6590805e-19
1.346231e-19
1.1051952e-19
9.1850494e-20
7.7315645e-20
6.5922973e-20
5.6940434e-20
4.9805069e-20
4.4069471e-20
3.9387755e-20
3.5545032e-20
2.0972379e-14
1.6228238e-14
1.2539671e-14
9.6802385e-15
7.463526e-15
5.7458659e-15
4.4161838e-15
3.3881598e-15
2.5945563e-15
1.9829548e-15
1.5124839e-15
1.1512874e-15
8.7455559e-16
6.6298804e-16
5.0159208e-16
3.7874129e-16
2.8543698e-16
2.1472895e-16
1.6126115e-16
1.2091582e-16
9.053491e-17
6.7702467e-17
5.0574974e-17
3.774931e-17
2.8160285e-17
2.1001306e-17
1.5663123e-17
1.1686677e-17
8.7268934e-18
6.5249724e-18
4.8872324e-18
3.6689788e-18
2.7625606e-18
2.086967e-18
1.5830346e-18
1.2065871e-18
9.2480186e-19
7.1334631e-19
5.5419607e-19
4.3400188e-19
3.4287542e-19
2.7348799e-19
2.2040261e-19
1.7957977e-19
1.4801217e-19
1.2346506e-19
1.042378e-19
8.9079725e-20
7.70365e-20
6.7346799e-20
5.9420873e-20
3.7236163e-14
2.8805988e-14
2.2250819e-14
1.7170101e-14
1.3232257e-14
1.0181944e-14
7.8215678e-15
5.9975017e-15
4.5900713e-15
3.5059861e-15
2.6725216e-15
2.0330114e-15
1.5433403e-15
1.1692047e-15
8.8397066e-16
6.6699565e-16
5.0231171e-16
3.7759328e-16
2.8334781e-16
2.1228195e-16
1.5880579e-16
1.1864576e-16
8.8542988e-17
6.601873e-17
4.9192478e-17
3.6641198e-17
2.7290737e-17
2.0332283e-17
1.5158267e-17
1.1313345e-17
8.4570098e-18
6.3351775e-18
4.7586261e-18
3.5850485e-18
2.7111804e-18
2.0595465e-18
1.5726887e-18
1.2080731e-18
9.3422894e-19
7.2787478e-19
5.7178628e-19
4.5321457e-19
3.6271495e-19
2.9328113e-19
2.3970592e-19
1.9812719e-19
1.6561322e-19
1.4001532e-19
1.1971101e-19
1.0339814e-19
9.0067811e-20
6.6557127e-14
5.1471968e-14
3.9743578e-14
3.0654546e-14
2.3612083e-14
1.8159042e-14
1.3941345e-14
1.0683629e-14
8.1713897e-15
6.2374415e-15
4.7514905e-15
3.6120503e-15
2.7401483e-15
2.0744076e-15
1.5672012e-15
1.181638e-15
8.8919936e-16
6.6788643e-16
5.0076825e-16
3.7484531e-16
2.801612e-16
2.0910944e-16
1.5589367e-16
1.1610824e-16
8.6413114e-17
6.42826e-17
4.781158e-17
3.5566567e-17
2.6471532e-17
1.9720632e-17
1.4711734e-17
1.0995966e-17
8.2395767e-18
6.1899516e-18
4.666717e-18
3.5329696e-18
2.6875705e-18
2.055771e-18
1.5823261e-18
1.2264144e-18
9.5787377e-19
7.5441024e-19
5.9953294e-19
4.8102856e-19
3.8983641e-19
3.1924945e-19
2.6418907e-19
2.2094456e-19
1.867548e-19
1.1966044e-13
9.24983e-14
7.139165e-14
5.5036445e-14
4.2368373e-14
3.2563921e-14
2.4984584e-14
1.9133722e-14
1.4624497e-14
1.1155477e-14
8.4918305e-15
6.4507259e-15
4.8899658e-15
3.6991004e-15
2.7924777e-15
2.1037976e-15
1.5818433e-15
1.1871354e-15
8.893118e-16
6.6507823e-16
4.9660688e-16
3.7028802e-16
2.7575852e-16
2.051476e-16
1.524928e-16
1.1328875e-16
8.4139694e-17
6.2492458e-17
4.6432018e-17
3.4525323e-17
2.5702419e-17
1.9166392e-17
1.4326998e-17
1.0731472e-17
8.0653615e-18
6.0847171e-18
4.6108278e-18
3.5117726e-18
2.6901461e-18
2.0740592e-18
1.6104664e-18
1.2602173e-18
9.9439859e-19
7.9163357e-19
6.3609376e-19
5.1608605e-19
4.2277813e-19
3.4973007e-19
2.1617001e-13
1.6700122e-13
1.2883258e-13
9.9260931e-14
7.6365008e-14
5.8654044e-14
4.4970729e-14
3.4414698e-14
2.6284756e-14
2.0034693e-14
1.5239166e-14
1.1567195e-14
8.7615134e-15
6.6224272e-15
4.9951875e-15
3.7600987e-15
2.8247675e-15
2.1180315e-15
1.5852066e-15
1.1843724e-15
8.8347244e-16
6.580548e-16
4.8951581e-16
3.6373759e-16
2.7003388e-16
2.0033654e-16
1.4856935e-16
1.1016758e-16
8.1710186e-17
6.0639232e-17
4.5046428e-17
3.3511044e-17
2.4975372e-17
1.866023e-17
1.3980294e-17
1.0509821e-17
7.9327591e-18
6.0155547e-18
4.5858957e-18
3.5167696e-18
2.7145901e-18
2.1103928e-18
1.6533306e-18
1.3058785e-18
1.0403058e-18
8.3616985e-19
6.7806748e-19
5.5476679e-19
5.0720105e-13
3.9195916e-13
3.0259041e-13
2.3328912e-13
1.7962191e-13
1.3809186e-13
1.0598632e-13
8.1198632e-14
6.2089852e-14
4.7383933e-14
3.6087284e-14
2.7426581e-14
2.0800438e-14
1.5741733e-14
1.1888149e-14
8.9591423e-15
6.7378964e-15
5.0571942e-15
3.7883553e-15
2.832584e-15
2.1142115e-15
1.5754251e-15
1.1721662e-15
8.70943e-16
6.4636205e-16
4.792189e-16
3.5502678e-16
2.6288505e-16
1.9461172e-16
1.4408014e-16
1.0671341e-16
7.9099982e-17
5.8702069e-17
4.3634366e-17
3.2505909e-17
2.4274773e-17
1.8183116e-17
1.3669804e-17
1.0320316e-17
7.8291755e-18
5.9715347e-18
4.5819717e-18
3.538784e-18
2.7523959e-18
2.1568249e-18
1.7034104e-18
1.3563581e-18
1.0887737e-18
8.8107537e-19
9.2223139e-13
7.1221781e-13
5.4945193e-13
4.2331568e-13
3.2568985e-13
2.5019069e-13
1.9186596e-13
1.4686949e-13
1.1220965e-13
8.5558073e-14
6.510272e-14
4.9434163e-14
3.745713e-14
2.8321546e-14
2.1368625e-14
1.6088718e-14
1.2088312e-14
9.0641996e-15
6.7832725e-15
5.0667332e-15
3.7777702e-15
2.8119574e-15
2.0897881e-15
1.5508826e-15
1.1495035e-15
8.5109353e-16
6.2960893e-16
4.6547105e-16
3.4399781e-16
2.5420554e-16
1.8789655e-16
1.3896624e-16
1.0287834e-16
7.6268614e-17
5.6648733e-17
4.216372e-17
3.146735e-17
2.3561245e-17
1.7708791e-17
1.3368045e-17
1.0140753e-17
7.734392e-18
5.9341118e-18
4.5820608e-18
3.5621887e-18
2.7890909e-18
2.2000841e-18
1.7482161e-18
1.3993616e-18
1.6780974e-12
1.2950595e-12
9.9835101e-13
7.6855631e-13
5.9081633e-13
4.5346173e-13
3.4743753e-13
2.6571164e-13
2.0281609e-13
1.5449735e-13
1.1744726e-13
8.9094562e-14
6.744282e-14
5.0943912e-14
3.8399232e-14
2.8882431e-14
2.1678983e-14
1.6238903e-14
1.2139802e-14
9.0580403e-15
6.7462374e-15
5.0157678e-15
3.7231669e-15
2.7595952e-15
2.0426911e-15
1.5102884e-15
1.1155824e-15
8.2342233e-16
6.074746e-16
4.4805837e-16
3.3049934e-16
2.4388104e-16
1.8010035e-16
1.3315579e-16
9.861058e-17
7.3146817e-17
5.4388377e-17
4.0557806e-17
3.0346783e-17
2.2794816e-17
1.7197314e-17
1.3037611e-17
9.9368811e-18
7.6173097e-18
5.8750586e-18
4.5604399e-18
3.5638331e-18
2.8034071e-18
2.2197783e-18
3.0508908e-12
2.3526517e-12
1.8121228e-12
1.3937875e-12
1.0704582e-12
8.2080425e-13
6.2827062e-13
4.8000282e-13
3.6601009e-13
2.7852552e-13
2.1151305e-13
1.6028526e-13
1.2120606e-13
9.1458728e-14
6.8864799e-14
5.1742478e-14
3.8795983e-14
2.9029063e-14
2.1677469e-14
1.6156291e-14
1.2018947e-14
8.92531e-15
6.6169726e-15
4.8981117e-15
3.6207045e-15
2.673144e-15
1.9714918e-15
1.4527759e-15
1.0698694e-15
7.8758831e-16
5.7972637e-16
4.2680892e-16
3.1439619e-16
2.3180774e-16
1.7117289e-16
1.2652702e-16
9.3729397e-17
6.9609749e-17
5.1850332e-17
3.8753971e-17
2.9077824e-17
2.1912028e-17
1.6590622e-17
1.2626141e-17
9.6616489e-18
7.4356056e-18
5.7568872e-18
4.4833853e-18
3.5120675e-18
5.5319437e-12
4.2620554e-12
3.2797387e-12
2.5201122e-12
1.9335081e-12
1.4810019e-12
1.1323827e-12
8.6419994e-13
6.5823821e-13
5.0034762e-13
3.7954143e-13
2.872962e-13
2.1700728e-13
1.6356416e-13
1.23019e-13
9.232772e-14
6.9147829e-14
5.168054e-14
3.8547675e-14
2.8695767e-14
2.1321479e-14
1.5813709e-14
1.1708744e-14
8.655594e-15
6.3892546e-15
4.7101477e-15
3.4683434e-15
2.5514883e-15
1.8755933e-15
1.3780233e-15
1.0121775e-15
7.4346314e-16
5.4625919e-16
4.0163561e-16
2.9568421e-16
2.1781334e-16
1.6075934e-16
1.1890578e-16
8.8172356e-17
6.5575956e-17
4.8935128e-17
3.6655394e-17
2.7571734e-17
2.083302e-17
1.5817334e-17
1.2070006e-17
9.2593693e-18
7.1401132e-18
5.534259e-18
9.9838389e-12
7.6841854e-12
5.9068836e-12
4.533807e-12
3.4745314e-12
2.658284e-12
2.0301435e-12
1.5474995e-12
1.1772787e-12
8.938131e-13
6.7719317e-13
5.1199101e-13
3.8626616e-13
2.9079115e-13
2.1844707e-13
1.6375201e-13
1.2249317e-13
9.1439932e-14
6.812042e-14
5.0647685e-14
3.7584712e-14
2.7839793e-14
2.0585593e-14
1.5196682e-14
1.1201445e-14
8.2451376e-15
6.0615868e-15
4.4515684e-15
3.2663298e-15
2.3950683e-15
1.755442e-15
1.2863979e-15
9.4276596e-16
6.9118951e-16
5.0701112e-16
3.7241748e-16
2.7388042e-16
2.0175976e-16
1.4894483e-16
1.1023047e-16
8.1814274e-17
6.0921259e-17
4.552745e-17
3.415708e-17
2.5734124e-17
1.9473845e-17
1.480414e-17
1.1305544e-17
8.6722039e-18
1.7895254e-11
1.3757615e-11
1.0563113e-11
8.0978651e-12
6.1981629e-12
4.7360637e-12
3.6123205e-12
2.7499841e-12
2.0893823e-12
1.5842533e-12
1.1987572e-12
9.0515702e-13
6.8201449e-13
5.127856e-13
3.8472502e-13
2.880325e-13
2.151876e-13
1.6043164e-13
1.1936488e-13
8.8633499e-14
6.5687041e-14
4.8590626e-14
3.5879959e-14
2.6449602e-14
1.9467092e-14
1.4307078e-14
1.0500949e-14
7.6984049e-15
5.638218e-15
4.126046e-15
3.0176422e-15
2.2061845e-15
1.6127363e-15
1.1790837e-15
8.6237156e-16
6.3124685e-16
4.625334e-16
3.3937138e-16
2.4943024e-16
1.8370341e-16
1.3562192e-16
1.0039981e-16
7.4552722e-17
5.5545166e-17
4.1532443e-17
3.1172401e-17
2.3488287e-17
1.7767963e-17
1.3491734e-17
3.1782e-11
2.4402584e-11
1.8711946e-11
1.4325837e-11
1.0950211e-11
8.3556302e-12
6.3642319e-12
4.8382299e-12
3.6708905e-12
2.7795692e-12
2.1003258e-12
1.5837469e-12
1.1916976e-12
8.9479366e-13
6.7043354e-13
5.0126546e-13
3.7399524e-13
2.7845912e-13
2.0690388e-13
1.5342861e-13
1.135527e-13
8.3882098e-14
6.1851996e-14
4.5528951e-14
3.3459019e-14
2.4551507e-14
1.7990211e-14
1.3165811e-14
9.6245189e-15
7.0291757e-15
5.1298534e-15
3.7417038e-15
2.7283098e-15
1.9892058e-15
1.4505602e-15
1.0582743e-15
7.7263313e-16
5.6466214e-16
4.1321755e-16
3.0288622e-16
2.2244661e-16
1.6373756e-16
1.2082874e-16
8.9413466e-17
6.6365347e-17
4.941504e-17
3.6914991e-17
2.7668516e-17
2.0803712e-17
5.5789225e-11
4.2775763e-11
3.2753721e-11
2.5039869e-11
1.9111505e-11
1.4561507e-11
1.1074539e-11
8.406578e-12
6.3688319e-12
4.8153234e-12
3.6332838e-12
2.7357023e-12
2.0555378e-12
1.5412197e-12
1.153148e-12
8.609726e-13
6.4148027e-13
4.7695374e-13
3.5390037e-13
2.62068e-13
1.9368471e-13
1.4287268e-13
1.0519711e-13
7.7320005e-14
5.6734974e-14
4.1564565e-14
3.0405827e-14
2.2212892e-14
1.6207933e-14
1.1813816e-14
8.6033023e-15
6.2608251e-15
4.5538095e-15
3.3112103e-15
2.4075019e-15
1.7507647e-15
1.2737023e-15
9.2726834e-16
6.7570719e-16
4.930003e-16
3.602393e-16
2.6369785e-16
1.9342085e-16
1.4219366e-16
1.0479047e-16
7.7427054e-17
5.7363063e-17
4.261449e-17
3.1739198e-17
9.6543218e-11
7.3910479e-11
5.6506009e-11
4.313054e-11
3.2866936e-11
2.5002228e-11
1.8984804e-11
1.438833e-11
1.0883438e-11
8.215858e-12
6.1894912e-12
4.6532913e-12
3.4910861e-12
2.613672e-12
1.9526766e-12
1.4557939e-12
1.08309e-12
8.0414086e-13
5.9581791e-13
4.405782e-13
3.251457e-13
2.3949674e-13
1.7608101e-13
1.2922467e-13
9.4674112e-14
6.9248003e-14
5.0572635e-14
3.6881057e-14
2.6861053e-14
1.9540364e-14
1.4200252e-14
1.0310576e-14
7.4811595e-15
5.4254467e-15
3.9334341e-15
2.8515444e-15
2.0674189e-15
1.4994803e-15
1.0882241e-15
7.9043389e-16
5.7476155e-16
4.1849228e-16
3.0518387e-16
2.2294495e-16
1.6318118e-16
1.1968389e-16
8.7968661e-17
6.4798568e-17
4.7826978e-17
1.6426497e-10
1.2554864e-10
9.5824033e-11
7.3018718e-11
5.5548628e-11
4.2184858e-11
3.1977904e-11
2.419496e-11
1.8270812e-11
1.3769872e-11
1.0356813e-11
7.7738331e-12
5.8230314e-12
4.3527426e-12
3.2469443e-12
2.4170496e-12
1.7955554e-12
1.3311315e-12
9.8482985e-13
7.2716262e-13
5.3585461e-13
3.9411735e-13
2.8932679e-13
2.120123e-13
1.5508553e-13
1.1325352e-13
8.257318e-14
6.0113796e-14
4.3702156e-14
3.1730413e-14
2.3011687e-14
1.6671779e-14
1.2068195e-14
8.7297365e-15
6.3115793e-15
4.5620976e-15
3.2965717e-15
2.3824065e-15
1.7222431e-15
1.2456237e-15
9.0153968e-16
6.5309779e-16
4.7364376e-16
3.4393982e-16
2.5011251e-16
1.8216308e-16
1.3288801e-16
9.7102603e-17
7.1058906e-17
2.7407316e-10
2.091059e-10
1.5931424e-10
1.2118209e-10
9.2023691e-11
6.975998e-11
5.2787077e-11
3.9869171e-11
3.0054774e-11
2.2611991e-11
1.6978497e-11
1.2722839e-11
9.5144884e-12
7.1006556e-12
5.2883563e-12
3.9305415e-12
2.915386e-12
2.1580266e-12
1.5941972e-12
1.1753354e-12
8.6482577e-13
6.3512292e-13
4.6555115e-13
3.4062665e-13
2.4878018e-13
1.8138719e-13
1.3203302e-13
9.5957476e-14
6.9636141e-14
5.0465406e-14
3.6526162e-14
2.6406939e-14
1.9071855e-14
1.3762281e-14
9.9238039e-15
7.1523325e-15
5.1523008e-15
3.7109296e-15
2.6727259e-15
1.9252818e-15
1.3873379e-15
1.0002219e-15
7.2162291e-16
5.2106389e-16
3.7661295e-16
2.7249992e-16
1.9739159e-16
1.4315247e-16
1.039209e-16
4.4725992e-10
3.40603e-10
2.5901252e-10
1.9664788e-10
1.490513e-10
1.1277984e-10
8.5182097e-11
6.4218826e-11
4.8322976e-11
3.6291586e-11
2.7202332e-11
2.0349046e-11
1.5191904e-11
1.1318933e-11
8.4162991e-12
6.2453781e-12
4.6250862e-12
3.4182844e-12
2.5213302e-12
1.856062e-12
1.3636621e-12
9.9996601e-13
7.318852e-13
5.3468456e-13
3.8991481e-13
2.838459e-13
2.0628271e-13
1.4967185e-13
1.0842961e-13
7.8437373e-14
5.6663893e-14
4.0882997e-14
2.946325e-14
2.1211559e-14
1.5257128e-14
1.0965226e-14
7.8767686e-15
5.6552963e-15
4.059056e-15
2.9129228e-15
2.0904343e-15
1.500427e-15
1.0772773e-15
7.738059e-16
5.5613177e-16
3.999467e-16
2.8782438e-16
2.0727994e-16
1.4936146e-16
7.1213152e-10
5.4125486e-10
4.1079445e-10
3.112766e-10
2.3547755e-10
1.7783108e-10
1.3405888e-10
1.0087684e-10
7.5766466e-11
5.6798547e-11
4.2497155e-11
3.1734765e-11
2.3651366e-11
1.7592096e-11
1.305919e-11
9.6750016e-12
7.1535692e-12
5.2787854e-12
3.8876677e-12
2.8575542e-12
2.0963231e-12
1.5349371e-12
1.12177e-12
8.1829997e-13
5.9584529e-13
4.3309794e-13
3.1426234e-13
2.276549e-13
1.6465232e-13
1.1890381e-13
8.5742264e-14
6.174515e-14
4.4407913e-14
3.1901535e-14
2.2893033e-14
1.641284e-14
1.1757443e-14
8.4166542e-15
6.0217377e-15
4.3064443e-15
3.0788536e-15
2.2008451e-15
1.5731646e-15
1.1245849e-15
8.0405522e-16
5.7502589e-16
4.1135398e-16
2.9435336e-16
2.1066945e-16
1.1038258e-09
8.3727956e-10
6.3419214e-10
4.7959577e-10
3.6208981e-10
2.7291053e-10
2.0533571e-10
1.5421587e-10
1.1561051e-10
8.6507817e-11
6.4608823e-11
4.8161237e-11
3.5831559e-11
2.6606693e-11
1.9718316e-11
1.4584811e-11
1.0766728e-11
7.9326839e-12
5.8332842e-12
4.2812182e-12
3.1360945e-12
2.2929071e-12
1.6732817e-12
1.2188453e-12
8.8621394e-13
6.4321288e-13
4.6603113e-13
3.3708498e-13
2.4341699e-13
1.7549902e-13
1.2633944e-13
9.0818537e-14
6.5195126e-14
4.6740928e-14
3.3470343e-14
2.394115e-14
1.7107839e-14
1.2213968e-14
8.7132056e-15
6.2116575e-15
4.4258248e-15
3.1519975e-15
2.2440253e-15
1.5972073e-15
1.1366379e-15
8.0879346e-16
5.7547081e-16
4.0942541e-16
2.9123849e-16
1.6624585e-09
1.2584543e-09
9.5127355e-10
7.1793341e-10
5.4094932e-10
4.0691304e-10
3.0556157e-10
2.2904984e-10
1.713879e-10
1.2800781e-10