/*--------------------------------*- C++ -*----------------------------------*\
| =========                 |                                                 |
| \\      /  F ield         | OpenFOAM: The Open Source CFD Toolbox           |
|  \\    /   O peration     | Version:  2312                                  |
|   \\  /    A nd           | Website:  www.openfoam.com                      |
|    \\/     M anipulation  |                                                 |
\*---------------------------------------------------------------------------*/
FoamFile
{
    version     2.0;
    format      ascii;
    arch        "LSB;label=32;scalar=64";
    class       volScalarField;
    location    "0.01";
    object      H2O;
}
// * * * * * * * * * * * * * * * * * * * * * * * * * * * * * * * * * * * * * //

dimensions      [0 0 0 0 0 0 0];

internalField   nonuniform List<scalar> 
3251
(
0.00015959919
0.00013047218
0.00010643382
8.6632986e-05
7.0363027e-05
5.7025533e-05
4.6117202e-05
3.7216013e-05
2.9969133e-05
2.4082403e-05
1.931125e-05
1.5452877e-05
1.2339567e-05
9.8329832e-06
7.819312e-06
6.2051546e-06
4.9140591e-06
3.8836017e-06
3.0629385e-06
2.4107594e-06
1.8935822e-06
1.4843345e-06
1.1611795e-06
9.0654512e-07
7.0632497e-07
5.4922113e-07
4.2620634e-07
3.3008435e-07
2.5513182e-07
1.9680728e-07
1.5151533e-07
1.1641602e-07
8.9271204e-08
6.8320953e-08
5.2184491e-08
3.9780918e-08
3.0265954e-08
2.298159e-08
1.7416117e-08
1.3172466e-08
9.9431864e-09
7.4907375e-09
5.6319804e-09
4.226014e-09
3.16465e-09
2.3653677e-09
1.7641372e-09
1.3129389e-09
9.7503572e-10
7.2249088e-10
5.3414737e-10
3.938992e-10
2.897835e-10
2.1297291e-10
1.5611495e-10
1.1414093e-10
8.3240855e-11
6.0560521e-11
0.0001595799
0.00013045637
0.00010642128
8.6622584e-05
7.0354676e-05
5.7018922e-05
4.6111998e-05
3.7211933e-05
2.9965946e-05
2.4079921e-05
1.9309323e-05
1.5451385e-05
1.2338416e-05
9.8320982e-06
7.8186337e-06
6.2046366e-06
4.9136649e-06
3.8833028e-06
3.0627128e-06
2.4105898e-06
1.8934552e-06
1.4842399e-06
1.1611094e-06
9.0649345e-07
7.0628712e-07
5.4919361e-07
4.2618648e-07
3.3007015e-07
2.5512176e-07
1.9680024e-07
1.5151048e-07
1.1641275e-07
8.9269044e-08
6.8319573e-08
5.2183651e-08
3.9780445e-08
3.0265724e-08
2.2981517e-08
1.7416141e-08
1.3172545e-08
9.9432938e-09
7.4908564e-09
5.6321012e-09
4.2261323e-09
3.1647641e-09
2.3654737e-09
1.7642283e-09
1.3130261e-09
9.7512126e-10
7.2257851e-10
5.3424095e-10
3.9404473e-10
2.8995223e-10
2.1302513e-10
1.5613281e-10
1.1414544e-10
8.3235573e-11
6.0550493e-11
0.00015952674
0.00013041075
0.00010638444
8.6592668e-05
7.0330619e-05
5.6999706e-05
4.6096714e-05
3.7199816e-05
2.9956367e-05
2.4072369e-05
1.9303385e-05
1.5446729e-05
1.2334775e-05
9.8292579e-06
7.8164241e-06
6.2029223e-06
4.9123385e-06
3.8822793e-06
3.0619252e-06
2.4099854e-06
1.8929927e-06
1.4838871e-06
1.1608409e-06
9.0628988e-07
7.0613321e-07
5.490776e-07
4.2609933e-07
3.300049e-07
2.5507308e-07
1.9676405e-07
1.5148367e-07
1.1639297e-07
8.9254507e-08
6.8308936e-08
5.2175904e-08
3.9774829e-08
3.0261673e-08
2.2978611e-08
1.7414069e-08
1.3171077e-08
9.9422625e-09
7.4901383e-09
5.6316081e-09
4.2258014e-09
3.1645502e-09
2.3653417e-09
1.7641402e-09
1.3129853e-09
9.7511351e-10
7.22597e-10
5.3427834e-10
3.941188e-10
2.9004923e-10
2.1305807e-10
1.5613945e-10
1.1414141e-10
8.3224374e-11
6.0533637e-11
0.0001594335
0.00013033298
0.00010632143
8.6541664e-05
7.0289579e-05
5.696684e-05
4.6070488e-05
3.7178951e-05
2.9939813e-05
2.4059271e-05
1.9293047e-05
1.543859e-05
1.2328383e-05
9.8242514e-06
7.8125122e-06
6.1998733e-06
4.909968e-06
3.880441e-06
3.0605032e-06
2.4088882e-06
1.8921484e-06
1.4832389e-06
1.1603447e-06
9.0591095e-07
7.0584462e-07
5.488584e-07
4.2593327e-07
3.2987945e-07
2.5497856e-07
1.9669304e-07
1.5143047e-07
1.1635322e-07
8.92249e-08
6.8286947e-08
5.2159621e-08
3.9762808e-08
3.0252826e-08
2.2972121e-08
1.7409323e-08
1.3167619e-08
9.9397514e-09
7.4883224e-09
5.6303018e-09
4.2248693e-09
3.1638924e-09
2.36488e-09
1.7638101e-09
1.3127667e-09
9.7497446e-10
7.2251742e-10
5.3424088e-10
3.9412173e-10
2.9007989e-10
2.1305999e-10
1.5612622e-10
1.141225e-10
8.3202405e-11
6.0503706e-11
0.00015929848
0.00013022213
0.00010623168
8.6469101e-05
7.023118e-05
5.6920022e-05
4.6033075e-05
3.7149139e-05
2.991612e-05
2.4040489e-05
1.9278197e-05
1.5426877e-05
1.2319167e-05
9.8170175e-06
7.8068481e-06
6.1954491e-06
4.9065208e-06
3.8777615e-06
3.0584255e-06
2.4072811e-06
1.8909083e-06
1.4822844e-06
1.1596118e-06
9.0534963e-07
7.0541575e-07
5.4853153e-07
4.2568478e-07
3.29691e-07
2.5483601e-07
1.9658548e-07
1.5134951e-07
1.1629244e-07
8.9179387e-08
6.8252952e-08
5.2134294e-08
3.9743988e-08
3.0238877e-08
2.2961809e-08
1.740172e-08
1.3162028e-08
9.9356516e-09
7.485325e-09
5.6281184e-09
4.2232869e-09
3.1627533e-09
2.364061e-09
1.7632143e-09
1.3123542e-09
9.7469171e-10
7.2232998e-10
5.3412217e-10
3.9405621e-10
2.900505e-10
2.1302675e-10
1.5608934e-10
1.1408586e-10
8.3168565e-11
0.00015913147
0.0001300861
0.00010612164
8.6380239e-05
7.0159667e-05
5.6862661e-05
4.5987201e-05
3.7112552e-05
2.9887017e-05
2.4017396e-05
1.9259918e-05
1.5412444e-05
1.2307798e-05
9.8080841e-06
7.7998452e-06
6.1899726e-06
4.9022482e-06
3.8744362e-06
3.0558436e-06
2.4052812e-06
1.889363e-06
1.4810931e-06
1.1586957e-06
9.0464676e-07
7.0487779e-07
5.4812079e-07
4.2537191e-07
3.2945326e-07
2.5465578e-07
1.9644918e-07
1.5124667e-07
1.1621504e-07
8.9121269e-08
6.8209417e-08
5.210176e-08
3.9719732e-08
3.0220836e-08
2.2948422e-08
1.7391811e-08
1.315471e-08
9.9302602e-09
7.4813633e-09
5.6252159e-09
4.2211692e-09
3.161216e-09
2.3629454e-09
1.7623935e-09
1.3117788e-09
9.7428663e-10
7.2204901e-10
5.3393196e-10
3.9393203e-10
2.8997081e-10
2.1296118e-10
1.5603055e-10
1.140331e-10
8.3128154e-11
0.00015893875
0.00012992963
0.00010599505
8.6278103e-05
7.0077475e-05
5.6796714e-05
4.5934437e-05
3.7070446e-05
2.9853502e-05
2.3990785e-05
1.9238841e-05
1.539579e-05
1.2294671e-05
9.7977607e-06
7.7917464e-06
6.1836341e-06
4.8972991e-06
3.8705811e-06
3.0528478e-06
2.4029586e-06
1.8875665e-06
1.4797069e-06
1.1576285e-06
9.0382717e-07
7.0424981e-07
5.4764074e-07
4.2500581e-07
3.291747e-07
2.5444434e-07
1.9628904e-07
1.5112567e-07
1.1612383e-07
8.9052666e-08
6.8157937e-08
5.2063217e-08
3.969094e-08
3.0199377e-08
2.2932464e-08
1.737997e-08
1.3145944e-08
9.9237856e-09
7.4765921e-09
5.6217094e-09
4.2186011e-09
3.1593435e-09
2.3615813e-09
1.7613965e-09
1.3110509e-09
9.7377892e-10
7.2168939e-10
5.3368193e-10
3.9376031e-10
2.8985205e-10
2.1286869e-10
1.5595273e-10
1.1396554e-10
8.3076473e-11
0.00015870531
0.00012974037
0.00010584197
8.6154638e-05
6.9978128e-05
5.6716989e-05
4.5870628e-05
3.7019507e-05
2.9812938e-05
2.3958563e-05
1.9213307e-05
1.5375604e-05
1.2278751e-05
9.7852348e-06
7.7819142e-06
6.1759345e-06
4.8912837e-06
3.8658924e-06
3.0492018e-06
2.4001301e-06
1.8853773e-06
1.4780164e-06
1.1563262e-06
9.028262e-07
7.0348224e-07
5.4705351e-07
4.2455758e-07
3.2883335e-07
2.5418497e-07
1.9609241e-07
1.5097693e-07
1.1601159e-07
8.8968151e-08
6.809444e-08
5.2015616e-08
3.9655334e-08
3.0172801e-08
2.2912671e-08
1.7365261e-08
1.3135037e-08
9.9157147e-09
7.4706333e-09
5.6173208e-09
4.2153792e-09
3.1569876e-09
2.3598608e-09
1.7601439e-09
1.3101095e-09
9.7313101e-10
7.2122247e-10
5.3335258e-10
3.9352851e-10
2.8968653e-10
2.1274216e-10
1.5584924e-10
1.1387714e-10
8.3005277e-11
0.00015842794
0.00012951561
0.00010566021
8.6008077e-05
6.9860202e-05
5.6622341e-05
4.5794856e-05
3.6959e-05
2.9764738e-05
2.392026e-05
1.9182942e-05
1.5351589e-05
1.2259802e-05
9.7703197e-06
7.7702012e-06
6.1667577e-06
4.8841107e-06
3.8602987e-06
3.0448498e-06
2.396752e-06
1.8827612e-06
1.4759952e-06
1.1547681e-06
9.0162789e-07
7.0256275e-07
5.4634957e-07
4.2401988e-07
3.2842356e-07
2.5387337e-07
1.95856e-07
1.5079798e-07
1.158764e-07
8.8866267e-08
6.8017819e-08
5.1958119e-08
3.961228e-08
3.0140631e-08
2.2888685e-08
1.7347414e-08
1.3121785e-08
9.9058962e-09
7.4633739e-09
5.6119659e-09
4.2114406e-09
3.1541017e-09
2.3577491e-09
1.7586062e-09
1.3089679e-09
9.7230107e-10
7.2063715e-10
5.3293685e-10
3.9323172e-10
2.89471e-10
2.1257866e-10
1.5571726e-10
1.1376616e-10
0.00015810317
0.0001292525
0.00010544745
8.5836522e-05
6.9722163e-05
5.6511537e-05
4.5706133e-05
3.688813e-05
2.9708267e-05
2.387537e-05
1.9147342e-05
1.5323423e-05
1.2237571e-05
9.7528135e-06
7.7564479e-06
6.1559778e-06
4.875681e-06
3.8537221e-06
3.0397308e-06
2.3927767e-06
1.8796811e-06
1.4736142e-06
1.1529318e-06
9.0021483e-07
7.0147787e-07
5.4551853e-07
4.2338471e-07
3.2793919e-07
2.5350481e-07
1.9557619e-07
1.5058599e-07
1.1571618e-07
8.8745417e-08
6.7926863e-08
5.1889808e-08
3.9561085e-08
3.0102344e-08
2.286011e-08
1.7326132e-08
1.3105968e-08
9.8941642e-09
7.4546901e-09
5.6055523e-09
4.2067166e-09
3.1506345e-09
2.3552079e-09
1.7567516e-09
1.3076113e-09
9.7126942e-10
7.1992428e-10
5.3242742e-10
3.9286462e-10
2.8920152e-10
2.1237519e-10
1.555539e-10
1.136334e-10
0.00015772726
0.00012894794
0.00010520118
8.5637941e-05
6.9562369e-05
5.6383253e-05
4.5603393e-05
3.6806045e-05
2.9642841e-05
2.3823346e-05
1.9106072e-05
1.5290761e-05
1.2211782e-05
9.7324983e-06
7.7404819e-06
6.143459e-06
4.8658877e-06
3.8460786e-06
3.0337788e-06
2.3881525e-06
1.8760968e-06
1.4708422e-06
1.1507929e-06
8.9856815e-07
7.0021299e-07
5.4454911e-07
4.226434e-07
3.2737356e-07
2.5307419e-07
1.9524906e-07
1.5033809e-07
1.1552863e-07
8.8603861e-08
6.7820251e-08
5.1809683e-08
3.9500992e-08
3.0057368e-08
2.2826518e-08
1.7301094e-08
1.3087343e-08
9.8803378e-09
7.4444466e-09
5.5979793e-09
4.2011323e-09
3.1465305e-09
2.3521953e-09
1.754548e-09
1.3060063e-09
9.7007122e-10
7.1903176e-10
5.3181668e-10
3.9242142e-10
2.8887328e-10
2.1212879e-10
1.5535607e-10
0.00015729619
0.00012859865
0.00010491872
8.5410156e-05
6.9379057e-05
5.6236069e-05
4.5485493e-05
3.6711827e-05
2.9567726e-05
2.3763601e-05
1.9058663e-05
1.5253229e-05
1.2182138e-05
9.709139e-06
7.7221173e-06
6.1290544e-06
4.8546152e-06
3.8372773e-06
3.0269227e-06
2.3828238e-06
1.8719647e-06
1.4676452e-06
1.148325e-06
8.9666735e-07
6.9875225e-07
5.4342906e-07
4.2178647e-07
3.267194e-07
2.525759e-07
1.9487034e-07
1.5005084e-07
1.1531125e-07
8.84397e-08
6.769654e-08
5.171665e-08
3.9431175e-08
3.0005081e-08
2.2787439e-08
1.7271945e-08
1.3065646e-08
9.8642187e-09
7.4324954e-09
5.5891365e-09
4.1946054e-09
3.1417284e-09
2.3486659e-09
1.7519618e-09
1.3041176e-09
9.6869327e-10
7.1799535e-10
5.3105222e-10
3.9189583e-10
2.8848018e-10
2.1183703e-10
1.5512514e-10
0.00015680567
0.00012820112
0.0001045972
8.5150836e-05
6.917034e-05
5.6068459e-05
4.5351206e-05
3.660449e-05
2.948213e-05
2.3695502e-05
1.900461e-05
1.5210425e-05
1.214832e-05
9.6824818e-06
7.7011532e-06
6.1126053e-06
4.8417382e-06
3.8272197e-06
3.0190851e-06
2.3767301e-06
1.8672375e-06
1.4639864e-06
1.1454994e-06
8.9449016e-07
6.9707841e-07
5.4214503e-07
4.2080366e-07
3.2596878e-07
2.5200387e-07
1.9443535e-07
1.4972076e-07
1.1506133e-07
8.825086e-08
6.7554155e-08
5.1609515e-08
3.9350729e-08
2.9944799e-08
2.2742358e-08
1.72383e-08
1.3040585e-08
9.8455896e-09
7.4186743e-09
5.5789029e-09
4.1870458e-09
3.1361612e-09
2.34457e-09
1.7489562e-09
1.3019183e-09
9.6708899e-10
7.1682714e-10
5.3016884e-10
3.9123663e-10
2.8801362e-10
2.1149866e-10
0.00015625107
0.00012775157
0.00010423357
8.4857485e-05
6.8934194e-05
5.5878788e-05
4.5199214e-05
3.6482972e-05
2.9385203e-05
2.3618368e-05
1.8943369e-05
1.5161914e-05
1.2109982e-05
9.6522529e-06
7.6773726e-06
6.0939402e-06
4.8271216e-06
3.8157995e-06
3.0101825e-06
2.3698058e-06
1.861864e-06
1.4598257e-06
1.142285e-06
8.9201241e-07
6.9517269e-07
5.4068252e-07
4.1968374e-07
3.2511308e-07
2.5135146e-07
1.9393901e-07
1.4934395e-07
1.1477587e-07
8.8035071e-08
6.739137e-08
5.1486968e-08
3.9258663e-08
2.9875773e-08
2.269071e-08
1.7199733e-08
1.3011843e-08
9.8242118e-09
7.4028048e-09
5.5671454e-09
4.1783543e-09
3.1297553e-09
2.3398528e-09
1.7454907e-09
1.2993783e-09
9.6523244e-10
7.1547293e-10
5.2917761e-10
3.9049995e-10
2.8745935e-10
2.1108206e-10
0.00015562747
0.00012724599
0.00010382452
8.4527433e-05
6.8668453e-05
5.5665304e-05
4.5028103e-05
3.6346139e-05
2.9276031e-05
2.3531467e-05
1.8874356e-05
1.5107231e-05
1.2066753e-05
9.6181571e-06
7.6505417e-06
6.0728742e-06
4.8106194e-06
3.8029016e-06
3.0001245e-06
2.36198e-06
1.8557887e-06
1.4551199e-06
1.1386481e-06
8.8920782e-07
6.9301473e-07
5.3902575e-07
4.1841454e-07
3.2414289e-07
2.5061144e-07
1.9337576e-07
1.4891616e-07
1.1445164e-07
8.7789856e-08
6.7206299e-08
5.1347577e-08
3.9153892e-08
2.9797182e-08
2.2631878e-08
1.7155779e-08
1.297907e-08
9.7998234e-09
7.3846911e-09
5.553718e-09
4.1684221e-09
3.1224293e-09
2.334454e-09
1.7415205e-09
1.2964649e-09
9.6309951e-10
7.1391472e-10
5.2803752e-10
3.8965605e-10
2.8681784e-10
0.00015492961
0.00012668008
0.00010336657
8.4157829e-05
6.8370802e-05
5.5426134e-05
4.483636e-05
3.6192769e-05
2.9153637e-05
2.3434015e-05
1.879694e-05
1.5045874e-05
1.2018234e-05
9.5798768e-06
7.6204083e-06
6.0492077e-06
4.7920739e-06
3.7884018e-06
2.9888133e-06
2.353176e-06
1.8489515e-06
1.449822e-06
1.134552e-06
8.8604791e-07
6.905824e-07
5.3715758e-07
4.1698279e-07
3.2304799e-07
2.4977595e-07
1.9273956e-07
1.4843275e-07
1.1408508e-07
8.7512507e-08
6.6996881e-08
5.1189776e-08
3.9035228e-08
2.970813e-08
2.2565181e-08
1.7105926e-08
1.2941881e-08
9.7721365e-09
7.364118e-09
5.5384602e-09
4.1571297e-09
3.1140941e-09
2.3283071e-09
1.7369967e-09
1.2931416e-09
9.6066339e-10
7.1213344e-10
5.2673551e-10
3.8869569e-10
2.8608543e-10
0.00015415189
0.00012604927
0.00010285598
8.3745635e-05
6.8038774e-05
5.5159279e-05
4.462237e-05
3.6021562e-05
2.9016971e-05
2.332517e-05
1.8710451e-05
1.4977305e-05
1.1963995e-05
9.5370708e-06
7.5867016e-06
6.0227261e-06
4.7713155e-06
3.7721663e-06
2.9761437e-06
2.3433112e-06
1.8412876e-06
1.4438812e-06
1.1299571e-06
8.8250185e-07
6.8785176e-07
5.3505943e-07
4.1537414e-07
3.2181729e-07
2.4883642e-07
1.9202385e-07
1.4788867e-07
1.1367231e-07
8.7200075e-08
6.676087e-08
5.1011857e-08
3.8901375e-08
2.9607633e-08
2.2489881e-08
1.7049617e-08
1.2899858e-08
9.7408361e-09
7.3408499e-09
5.5211963e-09
4.1443461e-09
3.1046511e-09
2.3213393e-09
1.7318649e-09
1.2893681e-09
9.5789414e-10
7.1010757e-10
5.2525681e-10
3.876095e-10
0.00015328835
0.00012534872
0.00010228878
8.3287621e-05
6.7669744e-05
5.4862609e-05
4.4384411e-05
3.5831127e-05
2.8864915e-05
2.3204035e-05
1.8614167e-05
1.4900947e-05
1.1903577e-05
9.4893733e-06
7.5491312e-06
5.993199e-06
4.748162e-06
3.7540512e-06
2.9620023e-06
2.3322963e-06
1.8327272e-06
1.437243e-06
1.1248208e-06
8.7853636e-07
6.847969e-07
5.3271121e-07
4.13573e-07
3.2043876e-07
2.4778359e-07
1.9122147e-07
1.4727845e-07
1.1320911e-07
8.6849358e-08
6.649582e-08
5.0811958e-08
3.875092e-08
2.9494622e-08
2.2405165e-08
1.6986241e-08
1.285254e-08
9.7055772e-09
7.3146285e-09
5.5017337e-09
4.1299282e-09
3.0939925e-09
2.3134702e-09
1.7260658e-09
1.2851e-09
9.5475815e-10
7.0781268e-10
5.2358461e-10
3.8640474e-10
0.00015233269
0.0001245733
0.00010166078
8.2780363e-05
6.7260925e-05
5.4533865e-05
4.4120653e-05
3.5619988e-05
2.869628e-05
2.3069652e-05
1.8507322e-05
1.4816188e-05
1.183649e-05
9.4363937e-06
7.5073862e-06
5.9603801e-06
4.7224182e-06
3.7339024e-06
2.9462675e-06
2.3200359e-06
1.823195e-06
1.4298484e-06
1.119097e-06
8.7411556e-07
6.8138991e-07
5.3009123e-07
4.1156259e-07
3.188994e-07
2.4660742e-07
1.9032472e-07
1.4659619e-07
1.1269121e-07
8.6456897e-08
6.6199078e-08
5.0588056e-08
3.8582325e-08
2.9367929e-08
2.2310154e-08
1.6915131e-08
1.2799425e-08
9.6659833e-09
7.2851717e-09
5.4798617e-09
4.1137188e-09
3.0820006e-09
2.3046125e-09
1.7195345e-09
1.2802882e-09
9.5121731e-10
7.0522073e-10
5.2169545e-10
3.8504642e-10
0.00015127823
0.00012371764
0.00010096755
8.2220244e-05
6.6809375e-05
5.4170655e-05
4.3829159e-05
3.5386579e-05
2.8509803e-05
2.2921007e-05
1.83891e-05
1.4722374e-05
1.1762213e-05
9.3777158e-06
7.4611357e-06
5.9240063e-06
4.6938758e-06
3.711555e-06
2.9288093e-06
2.3064275e-06
1.8126108e-06
1.4216344e-06
1.1127365e-06
8.6920094e-07
6.7760079e-07
5.2717617e-07
4.093248e-07
3.1718521e-07
2.4529712e-07
1.8932526e-07
1.4583547e-07
1.1211363e-07
8.601892e-08
6.5867765e-08
5.0337959e-08
3.8393922e-08
2.9226292e-08
2.2203888e-08
1.6835565e-08
1.273997e-08
9.6216444e-09
7.2521721e-09
5.4553501e-09
4.0955461e-09
3.0685478e-09
2.2946713e-09
1.7122004e-09
1.2748787e-09
9.4722754e-10
7.0230005e-10
5.1956891e-10
3.8349496e-10
0.00015011795
0.00012277611
0.00010020443
8.160346e-05
6.6311994e-05
5.3770461e-05
4.3507888e-05
3.5129247e-05
2.830415e-05
2.2757025e-05
1.8258638e-05
1.4618814e-05
1.1680191e-05
9.3128982e-06
7.4100278e-06
5.8837981e-06
4.662313e-06
3.6868336e-06
2.9094893e-06
2.2913619e-06
1.8008887e-06
1.4125337e-06
1.1056864e-06
8.637513e-07
6.7339741e-07
5.2394105e-07
4.0684024e-07
3.1528116e-07
2.4384105e-07
1.8821413e-07
1.4498935e-07
1.1147057e-07
8.5531324e-08
6.5498774e-08
5.0059299e-08
3.8183911e-08
2.906834e-08
2.2085332e-08
1.6746758e-08
1.2673582e-08
9.5721157e-09
7.2152955e-09
5.4279483e-09
4.0752226e-09
3.0534957e-09
2.2835441e-09
1.7039872e-09
1.2688123e-09
9.4273574e-10
6.9901252e-10
5.1719126e-10
0.00014884443
0.0001217429
9.9366575e-05
8.0926027e-05
6.576553e-05
5.3330638e-05
4.3154693e-05
3.4846257e-05
2.807792e-05
2.2576576e-05
1.8115029e-05
1.4504779e-05
1.1589842e-05
9.2414744e-06
7.3536909e-06
5.8394599e-06
4.6274952e-06
3.6595524e-06
2.8881604e-06
2.2747233e-06
1.7879374e-06
1.4024746e-06
1.0978906e-06
8.5772273e-07
6.687455e-07
5.2035917e-07
4.0408817e-07
3.1317117e-07
2.4222678e-07
1.8698173e-07
1.4405045e-07
1.1075672e-07
8.4989749e-08
6.5088764e-08
4.9749527e-08
3.795035e-08
2.8892599e-08
2.1953367e-08
1.6647865e-08
1.2599623e-08
9.5169161e-09
7.1741804e-09
5.3973853e-09
4.0525454e-09
3.0366943e-09
2.2711199e-09
1.6948133e-09
1.2620256e-09
9.3767341e-10
6.9530577e-10
5.1458118e-10
0.00014744988
0.00012061189
9.8448953e-05
8.0183798e-05
6.5166596e-05
5.2848428e-05
4.2767335e-05
3.4535793e-05
2.7829645e-05
2.2378477e-05
1.7957319e-05
1.4379503e-05
1.1490551e-05
9.1629544e-06
7.2917338e-06
5.7906802e-06
4.5891749e-06
3.6295152e-06
2.8646675e-06
2.2563892e-06
1.7736605e-06
1.3913812e-06
1.0892897e-06
8.5106865e-07
6.636087e-07
5.164022e-07
4.0104656e-07
3.1083815e-07
2.4044106e-07
1.8561781e-07
1.4301088e-07
1.0996599e-07
8.4389507e-08
6.4634166e-08
4.9405918e-08
3.769116e-08
2.8697488e-08
2.1806791e-08
1.6537976e-08
1.2517406e-08
9.4555275e-09
7.1284371e-09
5.3633684e-09
4.0272958e-09
3.0179812e-09
2.2572788e-09
1.6845922e-09
1.2544542e-09
9.3194556e-10
0.00014592638
0.00011937652
9.7446334e-05
7.937248e-05
6.4511679e-05
5.232097e-05
4.2343488e-05
3.419597e-05
2.7557799e-05
2.2161496e-05
1.7784516e-05
1.424219e-05
1.1381681e-05
9.076826e-06
7.2237477e-06
5.737133e-06
4.5470931e-06
3.5965162e-06
2.8388477e-06
2.2362308e-06
1.7579564e-06
1.3791738e-06
1.0798209e-06
8.4373997e-07
6.5794862e-07
5.1204017e-07
3.9769208e-07
3.0826397e-07
2.3846986e-07
1.8411153e-07
1.4186226e-07
1.0909192e-07
8.3725583e-08
6.4131193e-08
4.9025569e-08
3.7404125e-08
2.8481317e-08
2.1644323e-08
1.6416119e-08
1.2426195e-08
9.3873951e-09
7.0776479e-09
5.325584e-09
3.9992388e-09
2.9971814e-09
2.2418919e-09
1.673233e-09
1.2460459e-09
0.0001442663
0.00011802915
9.6353111e-05
7.8487621e-05
6.3797162e-05
5.1745317e-05
4.1880757e-05
3.3824844e-05
2.7260808e-05
2.1924361e-05
1.7595594e-05
1.4092012e-05
1.1262566e-05
8.982558e-06
7.1493076e-06
5.6784797e-06
4.5009798e-06
3.5603413e-06
2.8105312e-06
2.2141138e-06
1.7407192e-06
1.3657688e-06
1.0694186e-06
8.3568521e-07
6.5172497e-07
5.0724165e-07
3.9400023e-07
3.054296e-07
2.3629841e-07
1.8245144e-07
1.4059579e-07
1.0812778e-07
8.2993518e-08
6.3575882e-08
4.8605408e-08
3.7086894e-08
2.8242296e-08
2.1464599e-08
1.6281259e-08
1.2325207e-08
9.3119275e-09
7.0213672e-09
5.2836969e-09
3.9681233e-09
2.9741074e-09
2.2248193e-09
1.6606364e-09
1.2367902e-09
0.00017375339
0.00014246297
0.00011656339
9.5163738e-05
7.7524696e-05
6.3019356e-05
5.1118462e-05
4.1376692e-05
3.3420424e-05
2.6937059e-05
2.1665766e-05
1.73895e-05
1.3928123e-05
1.1132526e-05
8.8796034e-06
7.067976e-06
5.6143704e-06
4.4505565e-06
3.5207689e-06
2.7795422e-06
2.1898991e-06
1.7218389e-06
1.3510796e-06
1.0580147e-06
8.2685082e-07
6.4489582e-07
5.0197384e-07
3.8994544e-07
3.0231512e-07
2.3391123e-07
1.8062558e-07
1.3920219e-07
1.0706636e-07
8.2186778e-08
6.2963949e-08
4.8142192e-08
3.673699e-08
2.7978533e-08
2.1266181e-08
1.6132304e-08
1.2213615e-08
9.2284987e-09
6.9591225e-09
5.2373518e-09
3.9336825e-09
2.9485595e-09
2.2059095e-09
1.6466746e-09
1.2265408e-09
0.00017135645
0.00014050777
0.00011497281
9.3872712e-05
7.6479162e-05
6.2174542e-05
5.0437369e-05
4.082882e-05
3.2980699e-05
2.6584917e-05
2.1384389e-05
1.7165163e-05
1.3749658e-05
1.0990866e-05
8.7674046e-06
6.9793059e-06
5.5444482e-06
4.3955383e-06
3.4775721e-06
2.7457004e-06
2.1634437e-06
1.7012024e-06
1.3350168e-06
1.0455388e-06
8.171816e-07
6.3741786e-07
4.9620287e-07
3.8550126e-07
2.9889993e-07
2.3129231e-07
1.786215e-07
1.3767182e-07
1.0590018e-07
8.12999e-08
6.2290942e-08
4.7632527e-08
3.6351822e-08
2.7688052e-08
2.1047562e-08
1.5968109e-08
1.2090549e-08
9.1364509e-09
6.8904172e-09
5.1861741e-09
3.8956352e-09
2.9203269e-09
2.1850048e-09
1.6312331e-09
1.215186e-09
0.00016876123
0.00013839178
0.00011325081
9.2474567e-05
7.5346508e-05
6.125902e-05
4.9699009e-05
4.0234669e-05
3.2503653e-05
2.6202746e-05
2.1078901e-05
1.692151e-05
1.3555751e-05
1.0836887e-05
8.6453995e-06
6.8828465e-06
5.4683518e-06
4.3356368e-06
3.4305211e-06
2.708823e-06
2.1346027e-06
1.6786949e-06
1.3174897e-06
1.0319194e-06
8.0662119e-07
6.2924685e-07
4.8989407e-07
3.8064057e-07
2.9516287e-07
2.2842519e-07
1.7642643e-07
1.3599478e-07
1.0462158e-07
8.032706e-08
6.1552282e-08
4.7072908e-08
3.5928709e-08
2.7368804e-08
2.0807179e-08
1.5787482e-08
1.1955106e-08
9.0350989e-09
6.8147331e-09
5.1297732e-09
3.8536877e-09
2.8891892e-09
2.1619394e-09
1.6141903e-09
1.2026349e-09
0.00016596047
0.0001361072
0.00011139095
9.0963964e-05
7.4122325e-05
6.0269164e-05
4.890041e-05
3.9591806e-05
3.1987305e-05
2.5788931e-05
2.074799e-05
1.6657477e-05
1.3345541e-05
1.0669895e-05
8.5130293e-06
6.7781487e-06
5.3857213e-06
4.2705639e-06
3.3793859e-06
2.668727e-06
2.1032303e-06
1.654201e-06
1.298407e-06
1.0170843e-06
7.9511277e-07
6.2033811e-07
4.8301238e-07
3.7533595e-07
2.9108252e-07
2.2529316e-07
1.7402736e-07
1.3416099e-07
1.0322278e-07
7.9262225e-08
6.0743213e-08
4.6459755e-08
3.5464907e-08
2.7018688e-08
2.0543427e-08
1.5589201e-08
1.1806354e-08
8.9237363e-09
6.7315353e-09
5.0677452e-09
3.8075362e-09
2.8549189e-09
2.13654e-09
1.5954172e-09
1.1887961e-09
0.00016294554
0.00013364666
0.00010938708
8.9335791e-05
7.2802384e-05
5.9201489e-05
4.803871e-05
3.8897887e-05
3.1429735e-05
2.5341908e-05
2.0390384e-05
1.637203e-05
1.3118191e-05
1.0489213e-05
8.3697479e-06
6.6647731e-06
5.2962039e-06
4.2000369e-06
3.3239405e-06
2.6252319e-06
2.0691831e-06
1.6276065e-06
1.2776783e-06
1.000962e-06
7.8259992e-07
6.1064722e-07
4.755229e-07
3.6956002e-07
2.8663747e-07
2.2187951e-07
1.7141128e-07
1.3216033e-07
1.0169593e-07
7.8099382e-08
5.9859284e-08
4.5789512e-08
3.4957656e-08
2.6635578e-08
2.0254677e-08
1.5372023e-08
1.1643347e-08
8.8016435e-09
6.6402785e-09
4.9996782e-09
3.7568714e-09
2.8172872e-09
2.1086248e-09
1.5747798e-09
1.1735733e-09
0.00015970794
0.00013100327
0.00010723344
8.7585277e-05
7.1382733e-05
5.8052731e-05
4.7111219e-05
3.8150704e-05
3.0829136e-05
2.4860197e-05
2.0004877e-05
1.6064188e-05
1.2872904e-05
1.0294195e-05
8.2150335e-06
6.5422988e-06
5.1994609e-06
4.1237838e-06
3.263967e-06
2.5781636e-06
2.0323221e-06
1.5988009e-06
1.2552158e-06
9.8348294e-07
7.6902763e-07
6.0013078e-07
4.6739148e-07
3.6328597e-07
2.818067e-07
2.1816781e-07
1.6856538e-07
1.2998282e-07
1.0003333e-07
7.6832676e-08
5.8897046e-08
4.5058723e-08
3.440421e-08
2.6217358e-08
1.9939306e-08
1.5134704e-08
1.1465135e-08
8.6680984e-09
6.5404143e-09
4.9251572e-09
3.7013821e-09
2.7760813e-09
2.0779919e-09
1.5521412e-09
1.1568679e-09
0.00015624007
0.00012817079
0.00010492489
8.570813e-05
6.9859807e-05
5.6819938e-05
4.6115501e-05
3.7348247e-05
3.0183854e-05
2.4342445e-05
1.959036e-05
1.5733046e-05
1.2608944e-05
1.0084243e-05
8.0484016e-06
6.4103341e-06
5.0951761e-06
4.0415504e-06
3.1992611e-06
2.5273584e-06
1.9925165e-06
1.5676799e-06
1.2309363e-06
9.645812e-07
7.5434363e-07
5.8874745e-07
4.585855e-07
3.5648811e-07
2.7657004e-07
2.1414225e-07
1.6547729e-07
1.2761883e-07
9.8227436e-08
7.545602e-08
5.7849525e-08
4.4263666e-08
3.3801857e-08
2.5761952e-08
1.959572e-08
1.4876024e-08
1.1270787e-08
8.5223895e-09
6.4314014e-09
4.8437712e-09
3.6407538e-09
2.7310223e-09
2.0445085e-09
1.5273705e-09
1.1385804e-09
0.00015253559
0.00012514396
0.00010245704
8.3700689e-05
6.8230557e-05
5.5500574e-05
4.5049449e-05
3.6488774e-05
2.9492454e-05
2.3787469e-05
1.9145862e-05
1.5377809e-05
1.232566e-05
9.8588274e-06
7.8694206e-06
6.2685286e-06
4.9830662e-06
3.9531074e-06
3.1296383e-06
2.4726679e-06
1.9496473e-06
1.5341482e-06
1.2047639e-06
9.4419616e-07
7.3849976e-07
5.7645907e-07
4.4907476e-07
3.4914261e-07
2.7090872e-07
2.0978808e-07
1.6213545e-07
1.2505931e-07
9.6271184e-08
7.3963958e-08
5.6713783e-08
4.3401073e-08
3.3148025e-08
2.5267381e-08
1.9222397e-08
1.4594814e-08
1.1059406e-08
8.3638315e-09
6.312717e-09
4.7551215e-09
3.5746806e-09
2.6818802e-09
2.0080032e-09
1.5003415e-09
1.1186142e-09
0.00014858971
0.00012191875
9.9826491e-05
8.1560106e-05
6.6492591e-05
5.4092635e-05
4.3911391e-05
3.5570892e-05
2.8753775e-05
2.3194307e-05
1.8670589e-05
1.4997822e-05
1.2022514e-05
9.617506e-06
7.6777292e-06
6.1165877e-06
4.862891e-06
3.8582603e-06
3.0549408e-06
2.4139647e-06
1.9036116e-06
1.4981232e-06
1.1766323e-06
9.2227485e-07
7.2145375e-07
5.6323196e-07
4.3883252e-07
3.4122828e-07
2.6480598e-07
2.0509208e-07
1.5852946e-07
1.2229609e-07
9.4158167e-08
7.2351497e-08
5.5485816e-08
4.2467916e-08
3.2440355e-08
2.4731819e-08
1.8817929e-08
1.4289989e-08
1.0830158e-08
8.1917846e-09
6.1838712e-09
4.658834e-09
3.5028774e-09
2.6284458e-09
1.9683049e-09
1.4709309e-09
1.0968765e-09
0.00014439953
0.00011849265
9.7031099e-05
7.9284541e-05
6.4644337e-05
5.2594782e-05
4.270019e-05
3.4593637e-05
2.7967006e-05
2.2562278e-05
1.8163969e-05
1.4592609e-05
1.169911e-05
9.3599506e-06
7.4730561e-06
5.9542876e-06
4.734467e-06
3.7568583e-06
2.9750456e-06
2.3511485e-06
1.8543283e-06
1.459539e-06
1.1464883e-06
8.9877433e-07
7.0317108e-07
5.4903846e-07
4.2783666e-07
3.3272747e-07
2.5824779e-07
2.0004312e-07
1.546505e-07
1.193222e-07
9.1882901e-08
7.0614337e-08
5.4162228e-08
4.1461544e-08
3.1676787e-08
2.4153664e-08
1.8381073e-08
1.3960587e-08
1.05823e-08
8.0056764e-09
6.0444241e-09
4.5545707e-09
3.4250861e-09
2.5705251e-09
1.9252611e-09
1.4390252e-09
1.0732818e-09
0.00013996439
0.000114865
9.4070204e-05
7.6873367e-05
6.268521e-05
5.1006479e-05
4.1415358e-05
3.3556574e-05
2.7131762e-05
2.1891041e-05
1.7625708e-05
1.4161913e-05
1.1355226e-05
9.0859725e-06
7.2552409e-06
5.7814929e-06
4.5976799e-06
3.6488061e-06
2.8898731e-06
2.2841534e-06
1.8017426e-06
1.4183506e-06
1.1142949e-06
8.7366441e-07
6.8362715e-07
5.3385858e-07
4.16071e-07
3.2362714e-07
2.5122365e-07
1.9463278e-07
1.5049183e-07
1.1613227e-07
8.9441115e-08
6.8749093e-08
5.2740328e-08
4.0379758e-08
3.0855656e-08
2.3531614e-08
1.7910809e-08
1.3605813e-08
1.0315214e-08
7.8050274e-09
5.8940044e-09
4.4420451e-09
3.3410865e-09
2.5079505e-09
1.8787411e-09
1.404525e-09
1.0477547e-09
0.00013528625
0.00011103726
9.0944909e-05
7.4327395e-05
6.0615797e-05
4.932814e-05
4.0057182e-05
3.2459892e-05
2.624816e-05
2.1180666e-05
1.7055835e-05
1.370574e-05
1.0990854e-05
8.7955512e-06
7.0242572e-06
5.5981745e-06
4.4525004e-06
3.534075e-06
2.7993966e-06
2.2129548e-06
1.7458325e-06
1.3745386e-06
1.0800352e-06
8.4693056e-07
6.6280957e-07
5.1768183e-07
4.0352673e-07
3.1391991e-07
2.4372744e-07
1.88856e-07
1.4604932e-07
1.1272292e-07
8.6830063e-08
6.6753548e-08
5.1218357e-08
3.9221438e-08
2.9975847e-08
2.2864754e-08
1.7406409e-08
1.3225091e-08
1.0028445e-08
7.5894796e-09
5.7323313e-09
4.321038e-09
3.2507085e-09
2.4405911e-09
1.8286435e-09
1.3673486e-09
1.0202336e-09
0.00013037009
0.00010701339
8.7658342e-05
7.1649095e-05
5.843804e-05
4.7561284e-05
3.8626844e-05
3.1304509e-05
2.5316907e-05
2.0431693e-05
1.6454764e-05
1.3224403e-05
1.0606229e-05
8.4888633e-06
6.7802363e-06
5.4044289e-06
4.2989987e-06
3.4127155e-06
2.7036518e-06
2.1375777e-06
1.6866152e-06
1.3281142e-06
1.0437164e-06
8.1857702e-07
6.4072057e-07
5.0050913e-07
3.9020387e-07
3.036053e-07
2.3575839e-07
1.8271186e-07
1.4132199e-07
1.090932e-07
8.4048863e-08
6.4626906e-08
4.9595615e-08
3.798606e-08
2.9036836e-08
2.215264e-08
1.6867503e-08
1.2818112e-08
9.7217395e-09
7.3588265e-09
5.5592377e-09
4.1914148e-09
3.1538448e-09
2.3683629e-09
1.7749084e-09
1.3274328e-09
9.9067474e-10
0.00012522428
0.00010280013
8.4215931e-05
6.8842818e-05
5.6155416e-05
4.5708686e-05
3.7126549e-05
3.009217e-05
2.4339384e-05
1.9645209e-05
1.5823348e-05
1.2718571e-05
1.020187e-05
8.1663129e-06
6.5234908e-06
5.2004973e-06
4.1373601e-06
3.2848696e-06
2.6027471e-06
2.0581043e-06
1.6241527e-06
1.2791244e-06
1.0053737e-06
7.8862995e-07
6.1737956e-07
4.8235475e-07
3.7611291e-07
2.926909e-07
2.2732195e-07
1.7620427e-07
1.3631261e-07
1.0524505e-07
8.1098842e-08
6.2370055e-08
4.78726e-08
3.6673147e-08
2.8038767e-08
2.1395392e-08
1.6294149e-08
1.2384896e-08
9.3950912e-09
7.1130468e-09
5.3746948e-09
4.0531443e-09
3.0504646e-09
2.291235e-09
1.7174914e-09
1.2847728e-09
9.5906115e-10
0.00011986096
9.840735e-05
8.0625656e-05
6.5915012e-05
5.3773122e-05
4.3774518e-05
3.5559643e-05
2.882555e-05
2.3317721e-05
1.8822908e-05
1.5162932e-05
1.2189306e-05
9.7786174e-06
7.8285594e-06
6.2545382e-06
4.9867845e-06
3.9679005e-06
3.1507831e-06
2.4968731e-06
1.9746822e-06
1.5585589e-06
1.2276566e-06
9.6507392e-07
7.5714058e-07
5.9282555e-07
4.6324833e-07
3.6127624e-07
2.8119362e-07
2.1843083e-07
1.6934273e-07
1.3102826e-07
1.0118372e-07
7.7983893e-08
5.9985866e-08
4.6051483e-08
3.528496e-08
2.6982816e-08
2.059381e-08
1.5686917e-08
1.1925845e-08
9.0487826e-09
6.8523368e-09
5.1788376e-09
3.9063179e-09
2.9406286e-09
2.2092462e-09
1.6564212e-09
1.2393798e-09
9.2540229e-10
0.00011429636
9.3848269e-05
7.6898279e-05
6.2874406e-05
5.1298221e-05
4.1764484e-05
3.3930717e-05
2.7508339e-05
2.2254875e-05