/*--------------------------------*- C++ -*----------------------------------*\
| =========                 |                                                 |
| \\      /  F ield         | OpenFOAM: The Open Source CFD Toolbox           |
|  \\    /   O peration     | Version:  2312                                  |
|   \\  /    A nd           | Website:  www.openfoam.com                      |
|    \\/     M anipulation  |                                                 |
\*---------------------------------------------------------------------------*/
FoamFile
{
    version     2.0;
    format      ascii;
    arch        "LSB;label=32;scalar=64";
    class       volScalarField;
    location    "0.01";
    object      k;
}
// * * * * * * * * * * * * * * * * * * * * * * * * * * * * * * * * * * * * * //

dimensions      [0 2 -2 0 0 0 0];

internalField   nonuniform List<scalar> 
3251
(
8.8751189
8.870103
8.8657879
8.8621012
8.8589815
8.8563795
8.854257
8.8525855
8.8513458
8.8505273
8.850128
8.8501533
8.8506137
8.8515364
8.8529471
8.8548818
8.8573843
8.8605058
8.8643052
8.8688489
8.8742114
8.8804743
8.8877272
8.8960666
8.9055963
8.9164264
8.9286728
8.9424564
8.9579021
8.9751374
8.9942905
9.015489
9.0388573
9.0645144
9.0925708
9.1231254
9.1562625
9.1920478
9.2305246
9.2717098
9.31559
9.3621176
9.4112068
9.46273
9.5165137
9.5723362
9.6299289
9.6889741
9.7491027
9.8098966
9.8708922
9.9315824
9.9914277
10.049864
10.10629
10.160108
10.210719
10.257535
8.8758444
8.8708314
8.8665194
8.8628356
8.8597188
8.8571197
8.855
8.8533313
8.8520943
8.8512787
8.8508821
8.8509102
8.8513734
8.8522988
8.8537122
8.8556497
8.8581548
8.8612788
8.8650806
8.8696267
8.8749913
8.8812563
8.888511
8.8968521
8.9063832
8.9172143
8.9294614
8.9432453
8.9586909
8.9759254
8.9950773
9.0162739
9.0396397
9.0652934
9.0933456
9.1238952
9.1570263
9.1928045
9.2312731
9.272449
9.3163189
9.3628349
9.4119113
9.4634206
9.5171892
9.5729954
9.6305706
9.6895975
9.7497068
9.8104808
9.8714558
9.9321255
9.9919493
10.050361
10.106764
10.16056
10.21115
10.257943
8.8773254
8.8723184
8.8680118
8.8643334
8.8612216
8.8586274
8.8565125
8.8548485
8.8536161
8.8528049
8.8524127
8.852445
8.8529123
8.8538418
8.855259
8.8572001
8.8597087
8.862836
8.8666408
8.8711896
8.8765567
8.8828237
8.8900801
8.8984223
8.907954
8.9187852
8.9310317
8.9448143
8.9602577
8.9774893
8.9966372
9.0178288
9.0411883
9.0668346
9.0948779
9.1254172
9.1585365
9.1943013
9.2327549
9.273914
9.3177652
9.3642607
9.4133147
9.4647997
9.5185423
9.5743204
9.6318657
9.6908611
9.7509373
9.8116767
9.8726158
9.9332486
9.9930343
10.051405
10.107768
10.161523
10.212073
10.258826
8.8795603
8.8745617
8.8702631
8.8665923
8.8634878
8.8609006
8.8587924
8.8571349
8.8559089
8.8551038
8.8547175
8.8547554
8.8552283
8.8561629
8.8575851
8.8595309
8.8620438
8.865175
8.8689833
8.8735353
8.8789049
8.8851739
8.8924316
8.9007745
8.9103061
8.9211363
8.9333808
8.9471605
8.9625997
8.9798258
8.998967
9.0201502
9.0434998
9.0691344
9.0971642
9.127688
9.1607897
9.1965347
9.2349662
9.2761009
9.3199251
9.3663912
9.4154132
9.4668637
9.5205692
9.5763075
9.6338104
9.6927612
9.7527904
9.8134808
9.8743686
9.9349486
9.9946798
10.052994
10.109299
10.162996
10.213488
10.260181
8.8825456
8.8775581
8.8732698
8.8696088
8.8665137
8.8639355
8.861836
8.8601869
8.8589689
8.8581716
8.8577927
8.8578377
8.8583173
8.8592584
8.8606866
8.8626379
8.8651559
8.8682918
8.8721041
8.8766594
8.8820317
8.8883027
8.8955615
8.9039045
8.9134352
8.9242633
8.9365045
8.9502794
8.9657124
8.9829307
9.0020621
9.0232337
9.0465696
9.0721883
9.1001999
9.1307029
9.1637812
9.1995
9.2379024
9.2790049
9.322794
9.3692217
9.4182021
9.4696077
9.5232652
9.5789519
9.6364
9.6952931
9.7552616
9.8158884
9.87671
9.9372214
9.9968818
10.055123
10.111354
10.164975
10.21539
8.886063
8.8810881
8.8768117
8.8731621
8.8700778
8.86751
8.8654205
8.8637809
8.8625721
8.8617836
8.8614131
8.861466
8.8619532
8.8629015
8.8643363
8.8662937
8.8688173
8.871958
8.8757746
8.8803334
8.8857083
8.891981
8.8992405
8.9075831
8.917112
8.9279371
8.9401738
8.9539426
8.9693678
8.9865763
9.0056959
9.0268534
9.0501729
9.0757726
9.1037624
9.1342409
9.1672916
9.2029796
9.241348
9.282413
9.3261611
9.3725442
9.4214763
9.4728299
9.5264317
9.5820589
9.6394438
9.69827
9.7581684
9.8187218
9.879467
9.9398991
9.9994776
10.057634
10.113779
10.167313
10.217637
8.8900007
8.8850396
8.8807764
8.8771393
8.874067
8.8715107
8.8694321
8.867803
8.8666042
8.8658252
8.8654639
8.8655253
8.8660209
8.8669768
8.8684187
8.8703827
8.8729121
8.8760579
8.8798789
8.8844411
8.8898186
8.8960928
8.9033526
8.9116943
8.921221
8.9320423
8.9442735
8.958035
8.973451
8.9906482
9.0097542
9.0308957
9.0541965
9.0797747
9.10774
9.1381908
9.1712106
9.2068642
9.2451945
9.2862179
9.3299203
9.3762538
9.4251323
9.4764283
9.5299684
9.5855297
9.6428447
9.701597
9.7614178
9.82189
9.8825506
9.942895
10.002383
10.060446
10.116497
10.169934
10.220157
8.8946631
8.8897183
8.8854705
8.8818481
8.8787898
8.8762467
8.8741809
8.872564
8.8713768
8.8706089
8.8702581
8.8703295
8.8708345
8.8717992
8.8732492
8.8752205
8.8777565
8.8809081
8.8847338
8.8892998
8.8946799
8.9009555
8.9082153
8.9165555
8.926079
8.9368954
8.9491198
8.9628723
8.978277
8.9954604
9.0145499
9.0356721
9.0589505
9.084503
9.1124391
9.1428571
9.1758401
9.2114529
9.2497382
9.2907122
9.3343609
9.3806359
9.4294512
9.4806795
9.5341471
9.589631
9.6468639
9.7055295
9.7652593
9.8256363
9.8861977
9.9464392
10.005821
10.063775
10.119715
10.173039
10.223143
8.9000983
8.8951722
8.8909421
8.8873366
8.8842944
8.8817667
8.8797155
8.8781125
8.8769386
8.8761835
8.8758447
8.8759273
8.876443
8.8774176
8.8788767
8.8808563
8.8833996
8.8865575
8.8903884
8.8949584
8.9003411
8.9066179
8.9138773
8.9222153
8.9317348
8.942545
8.9547609
8.9685025
8.9838936
9.0010605
9.0201303
9.0412297
9.0644817
9.0900039
9.1179058
9.1482852
9.1812252
9.2167904
9.2550233
9.2959397
9.3395257
9.3857329
9.4344749
9.4856244
9.539008
9.5944022
9.6515401
9.7101054
9.7697299
9.8299967
9.8904433
9.9505661
10.009825
10.067653
10.123464
10.176657
8.9063554
8.9014507
8.8972408
8.8936546
8.8906306
8.8881203
8.8860857
8.8844985
8.8833397
8.8825988
8.8822735
8.8823688
8.8828965
8.8838822
8.8853515
8.8873402
8.8898915
8.8930563
8.8968928
8.9014669
8.9068523
8.9131299
8.9203884
8.9287235
8.9382378
8.9490405
8.9612462
8.9749748
8.9903498
9.0074972
9.026544
9.0476167
9.0708378
9.0963249
9.1241869
9.1545217
9.187412
9.2229222
9.2610945
9.3019447
9.3454586
9.3915877
9.4402455
9.4913047
9.5445919
9.5998833
9.6569124
9.7153629
9.7748668
9.8350076
9.8953231
9.95531
10.014429
10.072112
10.127777
10.180817
8.9134849
8.9086043
8.9044172
8.9008526
8.8978491
8.8953584
8.8933424
8.8917729
8.8906309
8.889906
8.8895958
8.8897052
8.8902462
8.8912441
8.8927245
8.8947232
8.8972833
8.9004555
8.9042979
8.9088764
8.9142642
8.9205425
8.9277994
8.9361307
8.9456387
8.9564322
8.9686258
8.9823391
8.9976952
9.0148199
9.0338401
9.0548818
9.0780674
9.1035139
9.1313302
9.1616137
9.194447
9.2298942
9.2679973
9.3087719
9.3522036
9.3982437
9.4468057
9.4977621
9.5509397
9.6061144
9.6630199
9.7213402
9.7807076
9.8407056
9.9008725
9.9607057
10.019666
10.077186
10.132685
8.9215382
8.9166845
8.9125228
8.9089823
8.9060017
8.9035327
8.9015373
8.8999875
8.8988642
8.8981569
8.8978634
8.8979882
8.8985439
8.8995552
8.9010478
8.9030574
8.9056269
8.908807
8.9126556
8.9172384
8.9226286
8.928907
8.9361617
8.9444881
8.9539883
8.9647709
8.9769503
8.9906457
9.0059799
9.0230786
9.0420681
9.0630742
9.086219
9.1116191
9.1393833
9.1696084
9.2023769
9.2377527
9.2757773
9.3164662
9.3598049
9.4057443
9.454198
9.5050384
9.5580924
9.6131355
9.6699019
9.7280758
9.7872896
9.847127
9.9071271
9.9667877
10.02557
10.082906
10.138217
8.930567
8.9257432
8.9216097
8.9180958
8.9151405
8.9126954
8.9107228
8.9091946
8.9080918
8.9074039
8.9071286
8.9072703
8.907842
8.9088678
8.9103735
8.9123948
8.9149744
8.9181627
8.9220178
8.9266049
8.9319972
8.9382751
8.9455267
8.953847
8.9633379
8.9741077
8.9862705
8.9999451
9.0152541
9.0323229
9.0512775
9.072243
9.0953413
9.1206889
9.1483939
9.1785531
9.2112484
9.2465434
9.2844796
9.3250721
9.3683061
9.4141325
9.4624646
9.5131749
9.5660904
9.6209863
9.6775971
9.7356072
9.7946494
9.8543078
9.9141217
9.9735898
10.032174
10.089305
8.9406236
8.9358326
8.9317301
8.9282454
8.9253178
8.9228989
8.9209512
8.9194466
8.918366
8.9176991
8.9174436
8.9176037
8.9181926
8.919234
8.9207539
8.9227875
8.9253777
8.9285747
8.9324363
8.9370276
8.9424215
8.9486983
8.9559457
8.9642585
8.9737383
8.9844931
8.9966366
9.0102873
9.0255676
9.0426023
9.0615171
9.0824368
9.1054825
9.1307707
9.1584091
9.188494
9.2211071
9.2563117
9.2941487
9.3346333
9.3777502
9.4234504
9.4716468
9.522212
9.5749732
9.6297052
9.6861429
9.7439712
9.8028229
9.8622827
9.9218903
9.9811449
10.039509
10.096413
8.95176
8.9470049
8.9429361
8.9394832
8.9365856
8.9341953
8.9322745
8.9307953
8.9297389
8.9290947
8.9288604
8.9290402
8.9296475
8.9307056
8.9322404
8.9342871
8.9368883
8.9400942
8.9439622
8.9485575
8.9539524
8.9602272
8.9674692
8.9757728
8.9852395
8.9959768
9.0080981
9.0217215
9.036969
9.053965
9.0728349
9.0937028
9.1166895
9.141911
9.1694747
9.1994765
9.2319977
9.2671012
9.3048277
9.345192
9.3881788
9.4337385
9.4817842
9.5321884
9.5847786
9.6393292
9.6955756
9.7532028
9.8118442
9.8710849
9.9304652
9.9894847
10.047606
8.9640274
8.9593112
8.9552789
8.9518603
8.9489952
8.9466355
8.9447437
8.9432919
8.9422613
8.9416414
8.9414298
8.9416305
8.9422573
8.943333
8.9448834
8.9469438
8.9495564
8.9527712
8.9566456
8.9612442
8.9666394
8.9729111
8.9801461
8.9884388
8.99789
9.008607
9.0207028
9.0342951
9.0495054
9.0664578
9.085277
9.1060869
9.1290073
9.1541543
9.1816346
9.2115438
9.2439627
9.2789538
9.3165576
9.3567885
9.399631
9.4450353
9.4929144
9.5431408
9.5955424
9.649893
9.7059287
9.7633348
9.8217453
9.8807456
9.9398767
9.9986386
10.056493
8.9774758
8.9728015
8.9688084
8.9654267
8.9625963
8.9602693
8.9584084
8.9569858
8.9559826
8.9553885
8.9552009
8.9554235
8.9560709
8.957165
8.9587316
8.9608059
8.9634301
8.9666538
8.970534
8.9751354
8.9805299
8.986797
8.9940234
9.0023029
9.011736
9.0224297
9.0344964
9.0480533
9.0632216
9.0801247
9.0988871
9.119632
9.1424785
9.1675424
9.19493
9.2247363
9.2570418
9.2919084
9.3293765
9.36946
9.4121433
9.4573764
9.505072
9.5551029
9.6072971
9.6614283
9.7172331
9.7743972
9.832555
9.8912927
9.9501521
10.008633
8.9921531
8.9875236
8.9835722
8.9802297
8.9774362
8.975144
8.9733158
8.971924
8.9709497
8.9703826
8.9702201
8.9704658
8.9711345
8.9722475
8.9738308
8.9759192
8.9785548
8.981787
8.9856725
8.9902757
8.9956683
9.0019292
9.0091448
9.0174086
9.0268207
9.0374875
9.049521
9.0630379
9.0781587
9.0950065
9.1137051
9.1343774
9.1571418
9.1821137
9.2093986
9.2390911
9.2712711
9.3060005
9.3433189
9.3832401
9.4257483
9.4707932
9.5182877
9.5681044
9.6200715
9.673963
9.7295157
9.786416
9.8442986
9.9027508
9.9613149
10.019492
9.0081042
9.0035222
8.999615
8.996314
8.9935593
8.9913036
8.9895098
8.9881502
8.987206
8.986667
8.9865306
8.9868
8.9874906
8.9886229
8.990223
8.9923255
8.9949722
8.9982123
9.0021022
9.006706
9.0120949
9.0183476
9.0255502
9.0337954
9.0431831
9.053819
9.0658147
9.0792863
9.0943539
9.1111398
9.1297668
9.150357
9.1730318
9.197902
9.2250734
9.2546402
9.2866821
9.3212603
9.3584143
9.3981575
9.4404737
9.4853127
9.5325873
9.58217
9.6338895
9.68752
9.7427986
9.7994122
9.8569964
9.9151393
9.9733842
10.031232
9.0253703
9.0208381
9.0169775
9.0137197
9.0110057
9.008788
9.0070298
9.0057036
9.0047907
9.0042806
9.0041709
9.0044645
9.0051772
9.0063289
9.0079457
9.0100619
9.0127191
9.0159661
9.0198592
9.0244619
9.0298452
9.0360874
9.0432739
9.0514973
9.0608566
9.0714572
9.0834101
9.0968308
9.1118387
9.1285553
9.147103
9.167603
9.1901777
9.2149354
9.2419816
9.2714102
9.3033002
9.3377126
9.3746864
9.4142347
9.4563412
9.5009556
9.5479904
9.5973187
9.6487688
9.7021161
9.7570977
9.8134012
9.8706629
9.9284721
9.986373
10.043866
9.0439874
9.0395071
9.0356949
9.0324821
9.0298101
9.0276317
9.0259101
9.0246181
9.023737
9.0232564
9.0231737
9.0234916
9.0242265
9.0253973
9.0270302
9.0291593
9.0318259
9.0350786
9.0389731
9.0435728
9.0489482
9.0551769
9.0623442
9.0705418
9.0798684
9.0904287
9.1023331
9.1156965
9.1306376
9.1472773
9.1657375
9.1861395
9.2086018
9.2332349
9.2601433
9.2894199
9.3211435
9.3553745
9.3921514
9.4314871
9.4733651
9.517735
9.5645095
9.6135616
9.66472
9.7177609
9.7724219
9.8283909
9.8853054
9.9427557
10.000288
9.0639852
9.0595583
9.055796
9.0526295
9.0500005
9.0478621
9.0461779
9.0449205
9.0440714
9.0436203
9.0435645
9.0439065
9.0446629
9.0458522
9.0475003
9.0496411
9.0523157
9.0555722
9.0594662
9.0640603
9.0694247
9.0756367
9.0827808
9.0909483
9.1002372
9.1107517
9.1226013
9.1359004
9.1507669
9.1673211
9.1856844
9.2059775
9.2283167
9.2528126
9.2795695
9.3086799
9.3402215
9.3742544
9.4108167
9.4499211
9.4915508
9.5356554
9.5821478
9.6309013
9.6817446
9.7344553
9.7887711
9.8443808
9.9009223
9.9579879
10.015124
9.0853856
9.0810129
9.0773017
9.0741822
9.0715966
9.0694985
9.0678517
9.0666289
9.0658116
9.0653896
9.0653601
9.0657253
9.0665024
9.0677088
9.0693707
9.0715215
9.0742021
9.0774601
9.0813508
9.0859363
9.0912864
9.0974777
9.1045941
9.1127265
9.1219721
9.1324344
9.1442223
9.1574493
9.1722326
9.1886919
9.2069478
9.2271201
9.2493244
9.2736698
9.3002612
9.3291898
9.360533
9.3943501
9.4306791
9.4695324
9.5108929
9.5547106
9.6008983
9.6493296
9.6998337
9.7521894
9.806135
9.8613598
9.9175021
9.1082009
9.1038826
9.1002228
9.0971503
9.0946081
9.0925501
9.0909401
9.0897512
9.0889649
9.0885709
9.0885665
9.0889536
9.0897497
9.0909715
9.0926451
9.0948037
9.0974876
9.1007442
9.1046283
9.1092016
9.1145331
9.1206991
9.1277828
9.1358743
9.1450703
9.1554734
9.1671917
9.1803381
9.1950289
9.211383
9.2295199
9.2495584
9.2716137
9.2957955
9.3222066
9.3509372
9.3820643
9.4156471
9.451723
9.4903044
9.531374
9.5748819
9.6207414
9.6688262
9.718966
9.7709414
9.8244911
9.8793053
9.1324314
9.1281676
9.1245584
9.1215324
9.1190327
9.1170137
9.1154394
9.1142829
9.113526
9.1131584
9.1131771
9.1135841
9.1143969
9.1156316
9.1173142
9.1194775
9.1221614
9.1254131
9.1292866
9.1338432
9.1391514
9.1452867
9.1523318
9.160376
9.1695151
9.1798511
9.1914913
9.2045477
9.2191356
9.2353731
9.2533787
9.2732692
9.2951567
9.3191645
9.3453797
9.373895
9.4047875
9.4381161
9.4739182
9.5122058
9.5529617
9.5961362
9.6416429
9.6893561
9.739106
9.790675
9.8438026
9.89818
9.1629914
9.1580602
9.153853
9.1502936
9.1473127
9.1448539
9.142872
9.1413313
9.1402051
9.1394752
9.1391313
9.1391704
9.1395946
9.1404209
9.1416653
9.1433533
9.1455175
9.1481975
9.1514398
9.1552979
9.1598327
9.1651118
9.1712103
9.17821
9.1861994
9.1952738
9.205534
9.2170865
9.2300424
9.2445163
9.260625
9.2784862
9.2982163
9.3199305
9.3437384
9.3697385
9.3980195
9.4286576
9.4617114
9.4972177
9.5351886
9.5756071
9.6184235
9.6635521
9.7108677
9.7602014
9.8113375
9.8640164
9.9179306
9.1899302
9.1850617
9.1809088
9.1773972
9.174459
9.1720385
9.1700909
9.1685807
9.1674816
9.1667754
9.1664519
9.1665077
9.1669453
9.1677811
9.1690309
9.17072
9.1728805
9.1755515
9.1787791
9.1826162
9.187123
9.1923666
9.1984211
9.2053677
9.2132942
9.2222947
9.2324694
9.2439238
9.2567679
9.2711154
9.2870822
9.304785
9.32434
9.3458617
9.3694558
9.3952213
9.4232478
9.4536106
9.4863675
9.5215552
9.5591856
9.5992419
9.6416748
9.6863992
9.7332907
9.7821813
9.8328574
9.8850609
9.9384854
9.2181994
9.2133885
9.2092863
9.2058192
9.2029201
9.2005341
9.1986167
9.197133
9.1960568
9.1953699
9.1950621
9.19513
9.1955762
9.1964166
9.1976666
9.1993514
9.2015025
9.2041586
9.2073651
9.2111746
9.2156463
9.2208467
9.2268493
9.2337342
9.2415884
9.2505051
9.2605835
9.2719282
9.2846481
9.2988558
9.3146664
9.3321958
9.3515594
9.3728704
9.3962332
9.4217439
9.4494948
9.4795602
9.5119972
9.5468424
9.5841075
9.623776
9.6657991
9.7100925
9.7565327
9.8049531
9.8551421
9.9068433
9.9597519
9.2477289
9.242971
9.2389148
9.2354874
9.2326226
9.230266
9.2283737
9.2269111
9.2258522
9.225179
9.2248813
9.2249556
9.2254044
9.2262431
9.2274872
9.229161
9.231296
9.2339302
9.2371083
9.2408823
9.2453108
9.2504595
9.2564009
9.2632143
9.2709858
9.2798076
9.2897779
9.3010001
9.3135822
9.3276358
9.3432748
9.3606141
9.3797683
9.400849
9.423961
9.4491962
9.47665
9.5063954
9.5384887
9.5729665
9.6098405
9.6490947
9.6906811
9.7345161
9.7804773
9.8283999
9.8780748
9.929247
9.9816139
9.2784256
9.2737152
9.269699
9.2663051
9.2634682
9.2611345
9.2592607
9.2578125
9.2567641
9.2560977
9.255803
9.2558765
9.2563206
9.2571504
9.2583809
9.2600362
9.262147
9.264751
9.2678923
9.2716219
9.2759979
9.281085
9.2869548
9.2936859
9.3013631
9.3100777
9.3199268
9.3310127
9.3434423
9.357326
9.3727766
9.3899079
9.4088329
9.4296608
9.4524951
9.4774391
9.5045753
9.5339774
9.5657023
9.5997869
9.6362433
9.675056
9.7161779
9.7595265
9.8049808
9.852378
9.9015119
9.9521287
10.003929
9.310169
9.305499
9.3015153
9.2981472
9.2953302
9.2930114
9.2911479
9.2897058
9.2886595
9.2879915
9.2876915
9.2877558
9.2881866
9.2889987
9.2902067
9.2918343
9.2939119
9.2964761
9.2995706
9.3032458
9.3075586
9.3125731
9.3183598
9.3249964
9.3325665
9.3411605
9.3508741
9.3618086
9.3740697
9.3877666
9.4030109
9.4199149
9.4385897
9.459142
9.481673
9.5063063
9.5331027
9.5621371
9.5934679
9.6271326
9.663144
9.7014874
9.7421166
9.7849504
9.8298697
9.8767137
9.9252803
9.9753158
10.026525
9.3428079
9.3381695
9.3342089
9.3308571
9.3280504
9.3257367
9.3238737
9.3224278
9.3213738
9.3206943
9.3203789
9.320424
9.3208313
9.3216155
9.3227908
9.3243803
9.3264139
9.3289275
9.3319642
9.3355733
9.3398111
9.3447405
9.3504314
9.3569599
9.3644089
9.3728674
9.3824301
9.3931968
9.4052722
9.4187641
9.4337828
9.4504394
9.4688439
9.4891036
9.511325
9.5356067
9.5620328
9.5906723
9.6215821
9.6547994
9.6903378
9.7281833
9.7682911
9.8105817
9.8549378
9.9012016
9.9491732
9.998603
10.049198
9.3761567
9.371539
9.3675904
9.3642435
9.3614357
9.3591155
9.3572413
9.35578
9.3547067
9.354004
9.3536616
9.353676
9.3540482
9.3547927
9.3559235
9.357463
9.3594404
9.3618912
9.3648574
9.3683876
9.3725371
9.3773678
9.3829485
9.3893543
9.3966668
9.4049737
9.4143686
9.42495
9.4368211
9.4500887
9.4648615
9.4812496
9.4993622
9.5193067
9.5411884
9.5650991
9.5911279
9.6193449
9.6498055
9.6825471
9.7175836
9.7549023
9.7944598
9.8361784
9.8799434
9.9255997
9.9729502
10.02175
10.071709
9.4099921
9.4053822
9.4014325
9.3980772
9.3952547
9.3929146
9.3910158
9.3895258
9.3884197
9.3876805
9.3872978
9.3872681
9.3875921
9.3882835
9.3893564
9.3908325
9.3927402
9.3951143
9.397996
9.4014329
9.4054794
9.4101964
9.4156514
9.4219183
9.4290776
9.4372156
9.4464245
9.4568017
9.4684489
9.4814714
9.4959769
9.5120743
9.5298719
9.5494767
9.5709914
9.594507
9.6201116
9.6478775
9.6778603
9.7100969
9.7446024
9.7813649
9.8203428
9.8614608
9.9046067
9.9496287
9.9963329
10.044479
10.093781
9.4440499
9.4394329
9.4354669
9.4320878
9.4292354
9.42686
9.4249213
9.4233871
9.4222332
9.4214424
9.4210043
9.4209155
9.4211766
9.4217998
9.4227998
9.4241975
9.4260204
9.4283026
9.4310842
9.4344122
9.4383397
9.4429265
9.4482388
9.4543495
9.4613375
9.4692879
9.4782916
9.4884443
9.4998466
9.5126024
9.526818
9.5426012
9.5600594
9.5792985
9.6004196
9.6235143
9.6486665
9.6759526
9.705428
9.7371302
9.7710747
9.8072514
9.8456205
9.8861092
9.9286085
9.9729699
10.019003
10.066474
10.1151
9.4780228
9.4733816
9.4693819
9.4659618
9.4630621
9.4606342
9.4586383
9.457043
9.4558242
9.4549648
9.4544547
9.4542901
9.4544719
9.4550103
9.455921
9.4572237
9.4589452
9.4611187
9.4637835
9.4669854
9.4707764
9.4752152
9.4803667
9.4863023
9.4930998
9.5008428
9.5096207
9.5195278
9.5306631
9.5431293
9.5570313
9.5724757
9.5895688
9.6084154
9.6291158
9.6517637
9.6764336
9.7032104
9.7321488
9.7632865
9.79664
9.832201
9.869932
9.909763
9.9515882
9.9952633
10.040603
10.087377
10.135308
9.5115578
9.5068734
9.502821
9.4993405
9.4963743
9.4938747
9.4918027
9.4901274
9.4888249
9.4878786
9.4872781
9.4870193
9.4871039
9.4875394
9.4883428
9.4895326
9.4911347
9.4931814
9.4957112
9.4987685
9.5024044
9.5066761
9.5116473
9.5173882
9.5239748
9.5314894
9.5400197
9.5496589
9.5605042
9.5726569
9.5862207
9.6013007
9.6180022
9.6364285
9.6566787
9.6788462
9.70301
9.7292496
9.7576212
9.788164
9.8208963
9.8558117
9.8928752
9.9320201
9.9731445
10.016108
10.060731
10.106789
10.15401
9.544256
9.5395074
9.5353813
9.5318195
9.5287659
9.5261738
9.524005
9.5222292
9.520823
9.5197696
9.5190588
9.5186863
9.5186539
9.5189677
9.5196442
9.5207017
9.5221652
9.5240659
9.5264412
9.5293344
9.5327953
9.5368799
9.5416504
9.5471755
9.5535298
9.5607941
9.5690545
9.5784024
9.5889339
9.6007485
9.6139485
9.6286378
9.6449204
9.6628983
9.6826687
9.7043205
9.7279548
9.7536285
9.7814031
9.8113206
9.8434013
9.877641
9.9140079
9.9524388
9.9928359
10.035064
10.078948
10.124272
10.170767
9.5756726
9.5708373
9.5666149
9.5629494
9.559786
9.5570792
9.5547917
9.5528936
9.551362
9.5501803
9.5493381
9.5488311
9.5486606
9.5488328
9.5493616
9.5502667
9.5515713
9.5533057
9.555506
9.5582146
9.5614798
9.5653563
9.5699048
9.5751924
9.5812924
9.5882836
9.5962508
9.6052838
9.6154768
9.626928
9.6397382
9.6540101
9.6698463
9.6873479
9.7066125
9.7277314
9.7507939
9.7758686
9.8030152
9.8322766
9.8636752
9.8972095
9.9328507
9.9705397
10.010183
10.051652
10.094776
10.139347
10.185103
9.605319
9.6003735
9.5960311
9.5922383
9.5889417
9.586097
9.5836678
9.5816247
9.5799453
9.578613
9.5776175
9.5769541
9.576624
9.5766335
9.5769935
9.5777249
9.5788495
9.5803965
9.5824009
9.5849037
9.5879519
9.5915986
9.5959033
9.6009313
9.6067542
9.6134493
9.6210996
9.6297933
9.639623
9.6506852
9.6630794
9.6769067
9.6922687
9.7092658
9.7279954
9.7485494
9.7710124
9.7954576
9.8219454
9.8505201
9.8812062
9.914005
9.9488915
9.985811
10.024676
10.065361
10.107705
10.151505
10.196509
9.6326678
9.6275877
9.6231012
9.6191569
9.6157032
9.6126969
9.6101024
9.6078912
9.606041
9.6045355
9.6033642
9.6025224
9.6020107
9.601835
9.602006
9.6025415
9.6034649
9.6048032
9.6065903
9.6088658
9.6116754
9.6150706
9.6191093
9.6238553
9.6293783
9.6357541
9.6430639
9.651394
9.6608354
9.6714831
9.6834349
9.6967906
9.7116508
9.7281151
9.746281
9.7662402
9.7880737
9.8118587
9.837657
9.8655142
9.8954572
9.9274905
9.9615933
9.9977157
10.035775
10.075654
10.117197
10.160209
10.204447
9.6571592
9.6519206
9.6472659
9.6431462
9.6395115
9.63632
9.633537
9.6311345
9.6290907
9.6273894
9.6260202
9.624978
9.6242628
9.6238802
9.6238409
9.6241596
9.6248601
9.6259685
9.627517
9.629544
9.6320936
9.6352158
9.6389667
9.6434085
9.6486092
9.6546427
9.6615884
9.669531
9.6785596
9.6887675
9.7002511
9.7131088
9.72744
9.7433443
9.7609197
9.7802588
9.8014284
9.8245208
9.8495982
9.8767071
9.9058765
9.9371144
9.970403
10.005697
10.042921
10.081965
10.122683
10.164888
10.208346
9.6782122
9.6727918
9.6679458
9.6636277
9.6597893
9.65639
9.6533961
9.6507802
9.6485209
9.6466023
9.6450137
9.6437497
9.6428102
9.6421999
9.6419287
9.6420114
9.642468
9.643326
9.6446155
9.6463734
9.6486423
9.6514705
9.6549126
9.6590288
9.6638854
9.6695544
9.6761134
9.6836453
9.6922374
9.7019811
9.7129714
9.7253054
9.7390815
9.7543993
9.77136
9.7900646
9.8105222
9.832884
9.8572053
9.8835309
9.9118921
9.9423008
9.9747463
10.00919
10.045559
10.083752
10.123629
10.165012
10.207678
9.6952378
9.6896144
9.6845561
9.6800187
9.6759558
9.672328
9.6691026
9.666253
9.6637581
9.6616021
9.6597744
9.6582692
9.6570858
9.6562284
9.6557061
9.6555331
9.6557279
9.6563157
9.6573271
9.6587967
9.6607655
9.6632804
9.6663938
9.6701644
9.6746564
9.6799399
9.6860893
9.6931861
9.7013162
9.7105696
9.7210397
9.7328221
9.7460143
9.7607146
9.7770221
9.7950354
9.8147831
9.8363999
9.8599447
9.8854654
9.9129963
9.942553
9.9741279
10.007688
10.04317
10.08048
10.119487
10.160024
10.201878
9.7076569
9.7018127
9.6965243
9.6917497
9.6874444
9.6835704
9.680096
9.676995
9.6742463
9.6718346
9.6697491
9.667984
9.6665382
9.6654152
9.6646233
9.6641756
9.6640903
9.6643896
9.6651034
9.6662656
9.667915
9.6700967
9.6728614
9.6762658
9.6803724
9.6852495
9.6909718
9.6976175
9.7052701
9.7140175
9.7239513
9.7351658
9.7477566
9.7618189
9.7774399
9.7946834
9.8137488
9.8346025
9.8573392
9.88202
9.9086847
9.9373534
9.9680241
10.00067
10.035234
10.071632
10.109742
10.149407
10.190425
9.7149074
9.7088276
9.703294
9.6982672
9.6937043
9.6895687
9.6858298
9.6824626
9.6794469
9.676767
9.674412
9.6723755
9.670656
9.6692562
9.6681835
9.6674502
9.6670732
9.6670744
9.6674796
9.6683236
9.669643
9.6714809
9.6738862
9.6769137
9.6806236
9.685082
9.6903602
9.6965354
9.7036894
9.7119083
9.721282
9.7319031
9.7438656
9.7572634
9.772187
9.788725
9.8069889
9.8270335
9.8489312
9.8727419
9.8985092
9.9262577
9.9559912
9.987689
10.021303
10.056756
10.093937
10.132699
10.172853
9.7165201
9.7101995
9.7044156
9.6991313
9.6943057
9.6899034
9.6858947
9.682255
9.6789642
9.6760072
9.673373
9.6710552
9.6690515
9.6673643
9.666
9.6649698
9.6642896
9.66398
9.6640662
9.6645785
9.6655549
9.6670355
9.6690675
9.6717034
9.6750015
9.6790256
9.6838453
9.6895352
9.6961749
9.7038487
9.7126444
9.7226528
9.7339663
9.746677
9.7608763
9.7766631
9.7941219
9.8133347
9.8343653
9.8572757
9.8821136
9.9089087
9.9376705
9.9683853
10.001013
10.035485
10.071699
10.109522
10.148772
9.7120899
9.7055276
9.6994921
9.6939486
9.6888578
9.6841861
9.6799045
9.675989
9.6724203
9.669183
9.6662663
9.6636633
9.6613715
9.6593922
9.6577314
9.6563993
9.6554104
9.6547841
9.6545445
9.6547202
9.6553457
9.6564618
9.6581126
9.6603486
9.6632259
9.6668062
9.6711567
9.6763499
9.6824631
9.6895783
9.6977814
9.7071612
9.7178087
9.7298161
9.7432763
9.7582825
9.7749191
9.7932681
9.8134005
9.8353793
9.859255
9.8850622
9.912816
9.9425099
9.9741119
10.007562
10.04277
10.079608
9.7013195
9.6945238
9.6882445
9.682449
9.6770999
9.6721647
9.6676155
9.6634292
9.6595865
9.6560725
9.6528762
9.6499905
9.6474122
9.6451424
9.6431859
9.6415521
9.6402543
9.6393107
9.6387438
9.6385814
9.6388549
9.6396032
9.6408696
9.6427018
9.6451538
9.6482849
9.6521599
9.656849
9.6624272
9.6689742
9.6765737
9.6853125
9.6952802
9.7065691
9.7192757
9.7334973
9.7492722
9.7667286
9.7859342
9.8069509
9.8298316
9.8546152
9.8813229
9.9099552
9.940489
9.9728741
10.007028
9.6840632
9.6770519
9.6705459
9.6645146
9.6589225
9.6537383
9.6489352
9.6444906
9.6403858
9.6366059
9.6331401
9.6299809
9.6271248
9.6245721
9.622327
9.6203978
9.6187969
9.6175411
9.6166515
9.6161541
9.6160797
9.6164629
9.6173464
9.6187759
9.6208028
9.6234839
9.6268817
9.6310638
9.6361029
9.6420762
9.6490651
9.6571545
9.6664322
9.6769896
9.6889264
9.7023554
9.7172369
9.7337779
9.7520311
9.772056
9.7939086
9.8176321
9.8432536
9.870781
9.9002001
9.9314723
9.6603486
9.6531492
9.6464432
9.6402019
9.6343913
9.6289814
9.6239465
9.6192646
9.6149175
9.6108906
9.6071729
9.6037568
9.6006385
9.5978176
9.5952976
9.5930859
9.5911938
9.5896369
9.588435
9.5876124
9.587198
9.5872255
9.5877327
9.5887658
9.5903728
9.5926082
9.5955319
9.5992089
9.6037092
9.6091078
9.6154836
9.6229191
9.6314994
9.6413101
9.6524303
9.6649225
9.6790225
9.6946616
9.7119432
9.7309485
9.7517403
9.7743669
9.7988609
9.8252371
9.8534891
9.8835831
9.6303992
9.6230495
9.6161799
9.6097636
9.6037681
9.5981648
9.5929288
9.588039
9.5834776
9.5792303
9.575286
9.5716371
9.5682792
9.5652116
9.5624371
9.5599622
9.5577972
9.5559565
9.5544586
9.5533262
9.5525864
9.552271
9.5524161
9.5530633
9.5542608
9.5560597
9.5585173
9.5616958
9.5656627
9.5704901
9.5762545
9.5830359
9.5909171
9.5999827
9.6103183
9.6220106
9.6351675
9.6498461
9.6661271
9.6840857
9.7037861
9.7252802
9.7486057
9.7737841
9.8008172
9.8296782
9.5946508
9.5871977
9.58021
9.5736625
9.5675243
9.561768
9.5563698
9.5513093
9.5465693
9.5421356
9.5379972
9.5341464
9.5305786
9.5272924
9.52429
9.5215773
9.5191636
9.5170624
9.5152907
9.5138696
9.5128243
9.5121844
9.5119846
9.5122633
9.5130659
9.5144424
9.5164467
9.5191385
9.522582
9.5268467
9.5320062
9.5381379
9.5453219
9.5536407
9.5631799
9.5740277
9.5862692
9.5999822
9.6152462
9.632136
9.6507176
9.6710461
9.6931641
9.7170994
9.7428616
9.7704326
9.553757
9.5462551
9.5392025
9.5325751
9.5263436
9.5204819
9.5149673
9.5097803
9.5049039
9.5003244
9.4960309
9.4920153
9.4882729
9.4848019
9.481604
9.4786843
9.4760516
9.4737181
9.4716997
9.4700159
9.4686898
9.4677488
9.4672253
9.4671567
9.4675843
9.4685567
9.4701253
9.4723465
9.4752817
9.4789972
9.4835636
9.4890554
9.4955496
9.5031257
9.5118677
9.5218632
9.533192
9.5459339
9.5601693
9.5759735
9.5934139
9.6125488
9.6334249
9.6560757
9.6805184
9.7067438
9.5085829
9.5010925
9.4940335
9.487383
9.4811129
9.4751989
9.4696194
9.4643552
9.4593901
9.4547105
9.4503055
9.4461672
9.4422903
9.4386727
9.4353158
9.4322241
9.4294058
9.4268725
9.4246389
9.4227224
9.4211435
9.4199278
9.4191061
9.4187138
9.418791
9.4193817
9.4205365
9.4223081
9.4247548
9.4279397
9.4319301
9.4367973
9.4426153
9.4494602
9.457413
9.4665612
9.4769806
9.488751
9.5019531
9.5166624
9.5329472
9.550868
9.5704752
9.5918075
9.6148889
9.6397191
9.4601873
9.4527713
9.445767
9.4391529
9.4329022
9.4269922
9.4214019
9.4161131
9.4111099
9.406379
9.4019094
9.397693
9.3937243
9.390001
9.386524
9.3832976
9.3803298
9.3776316
9.3752169
9.3731003
9.3712985
9.3698366
9.3687443
9.3680559
9.3678098
9.3680466
9.3688129
9.3701603
9.3721433
9.3748214
9.3782584
9.3825223
9.3876843
9.3938174
9.4009979
9.4093118
9.4188323
9.4296398
9.4418143
9.4554301
9.4705554
9.4872524
9.5055749
9.5255659
9.5472552
9.5706504
9.4097805
9.4025012
9.3956128
9.3890962
9.3829258
9.3770791
9.3715354
9.3662767
9.3612876
9.3565548
9.3520677
9.347818
9.3438004
9.3400124
9.3364548
9.3331316
9.3300505
9.3272229
9.3246621
9.3223788
9.3203833
9.3187044
9.3173722
9.3164182
9.3158774
9.3157897
9.316198
9.3171511
9.3187003
9.320901
9.3238135
9.3275025
9.3320373
9.3374904
9.3439299
9.3514269
9.3600649
9.369928
9.3810927
9.3936293
9.4076048
9.4230827
9.4401194
9.4587621
9.4790449
9.5009788
9.3586772
9.3515911
9.344874
9.3385098
9.3324754
9.3267461
9.3213016
9.316124
9.3111979
9.3065102
9.3020504
9.2978107
9.2937859
9.2899736
9.2863742
9.2829914
9.2798327
9.27691
9.2742386
9.2718286
9.2696712
9.2678093
9.2662736
9.2650922
9.2642965
9.2639228
9.2640114
9.2646062
9.2657572
9.2675159
9.2699388
9.2730872
9.2770281
9.2818309
9.2875612
9.294278
9.3020716
9.3110257
9.3212138
9.3327
9.3455506
9.3598304
9.3755993
9.3929083
9.4117983
9.3083213
9.3014784
9.2949828
9.288817
9.2829588
9.2773868
9.2720809