/*--------------------------------*- C++ -*----------------------------------*\
| =========                 |                                                 |
| \\      /  F ield         | OpenFOAM: The Open Source CFD Toolbox           |
|  \\    /   O peration     | Version:  2312                                  |
|   \\  /    A nd           | Website:  www.openfoam.com                      |
|    \\/     M anipulation  |                                                 |
\*---------------------------------------------------------------------------*/
FoamFile
{
    version     2.0;
    format      ascii;
    arch        "LSB;label=32;scalar=64";
    class       volScalarField;
    location    "0.01";
    object      O2;
}
// * * * * * * * * * * * * * * * * * * * * * * * * * * * * * * * * * * * * * //

dimensions      [0 0 0 0 0 0 0];

internalField   nonuniform List<scalar> 
3251
(
0.22970037
0.22975506
0.22980019
0.22983736
0.2298679
0.22989294
0.22991342
0.22993013
0.22994373
0.22995478
0.22996373
0.22997098
0.22997682
0.22998152
0.2299853
0.22998833
0.22999076
0.22999269
0.22999423
0.22999545
0.22999642
0.22999719
0.2299978
0.22999828
0.22999865
0.22999895
0.22999918
0.22999936
0.2299995
0.22999961
0.22999969
0.22999976
0.22999981
0.22999985
0.22999988
0.2299999
0.22999992
0.22999993
0.22999995
0.22999995
0.22999996
0.22999996
0.22999997
0.22999997
0.22999997
0.22999998
0.22999998
0.22999998
0.22999998
0.22999998
0.22999998
0.22999998
0.22999998
0.22999998
0.22999998
0.22999998
0.22999998
0.22999998
0.22970041
0.22975509
0.22980021
0.22983738
0.22986792
0.22989295
0.22991343
0.22993013
0.22994373
0.22995478
0.22996374
0.22997098
0.22997682
0.22998153
0.22998531
0.22998833
0.22999076
0.22999269
0.22999423
0.22999545
0.22999642
0.22999719
0.2299978
0.22999828
0.22999865
0.22999895
0.22999918
0.22999936
0.2299995
0.22999961
0.22999969
0.22999976
0.22999981
0.22999985
0.22999988
0.2299999
0.22999992
0.22999993
0.22999995
0.22999995
0.22999996
0.22999996
0.22999997
0.22999997
0.22999997
0.22999998
0.22999998
0.22999998
0.22999998
0.22999998
0.22999998
0.22999998
0.22999998
0.22999998
0.22999998
0.22999998
0.22999998
0.22999998
0.22970051
0.22975517
0.22980028
0.22983743
0.22986796
0.22989299
0.22991345
0.22993016
0.22994375
0.2299548
0.22996375
0.22997099
0.22997683
0.22998153
0.22998531
0.22998834
0.22999076
0.22999269
0.22999423
0.22999546
0.22999643
0.22999719
0.2299978
0.22999828
0.22999865
0.22999895
0.22999918
0.22999936
0.2299995
0.22999961
0.22999969
0.22999976
0.22999981
0.22999985
0.22999988
0.2299999
0.22999992
0.22999993
0.22999995
0.22999995
0.22999996
0.22999996
0.22999997
0.22999997
0.22999997
0.22999998
0.22999998
0.22999998
0.22999998
0.22999998
0.22999998
0.22999998
0.22999998
0.22999998
0.22999998
0.22999998
0.22999998
0.22999998
0.22970068
0.22975532
0.22980039
0.22983753
0.22986804
0.22989305
0.2299135
0.22993019
0.22994378
0.22995482
0.22996377
0.229971
0.22997684
0.22998154
0.22998532
0.22998834
0.22999076
0.2299927
0.22999423
0.22999546
0.22999643
0.22999719
0.2299978
0.22999828
0.22999865
0.22999895
0.22999918
0.22999936
0.2299995
0.22999961
0.22999969
0.22999976
0.22999981
0.22999985
0.22999988
0.2299999
0.22999992
0.22999993
0.22999995
0.22999995
0.22999996
0.22999996
0.22999997
0.22999997
0.22999997
0.22999998
0.22999998
0.22999998
0.22999998
0.22999998
0.22999998
0.22999998
0.22999998
0.22999998
0.22999998
0.22999998
0.22999998
0.22999998
0.22970093
0.22975552
0.22980056
0.22983766
0.22986815
0.22989314
0.22991357
0.22993025
0.22994383
0.22995486
0.2299638
0.22997102
0.22997686
0.22998155
0.22998533
0.22998835
0.22999077
0.2299927
0.22999424
0.22999546
0.22999643
0.2299972
0.2299978
0.22999828
0.22999865
0.22999895
0.22999918
0.22999936
0.2299995
0.22999961
0.22999969
0.22999976
0.22999981
0.22999985
0.22999988
0.2299999
0.22999992
0.22999994
0.22999995
0.22999995
0.22999996
0.22999996
0.22999997
0.22999997
0.22999997
0.22999998
0.22999998
0.22999998
0.22999998
0.22999998
0.22999998
0.22999998
0.22999998
0.22999998
0.22999998
0.22999998
0.22999998
0.22970125
0.22975578
0.22980077
0.22983783
0.22986828
0.22989324
0.22991366
0.22993032
0.22994388
0.2299549
0.22996383
0.22997105
0.22997688
0.22998157
0.22998534
0.22998836
0.22999078
0.22999271
0.22999424
0.22999546
0.22999643
0.2299972
0.2299978
0.22999828
0.22999866
0.22999895
0.22999918
0.22999936
0.2299995
0.22999961
0.22999969
0.22999976
0.22999981
0.22999985
0.22999988
0.2299999
0.22999992
0.22999994
0.22999995
0.22999995
0.22999996
0.22999997
0.22999997
0.22999997
0.22999997
0.22999998
0.22999998
0.22999998
0.22999998
0.22999998
0.22999998
0.22999998
0.22999998
0.22999998
0.22999998
0.22999998
0.22999998
0.22970161
0.22975607
0.22980101
0.22983802
0.22986843
0.22989337
0.22991376
0.2299304
0.22994394
0.22995495
0.22996387
0.22997108
0.2299769
0.22998159
0.22998536
0.22998837
0.22999079
0.22999271
0.22999425
0.22999547
0.22999644
0.2299972
0.22999781
0.22999828
0.22999866
0.22999895
0.22999918
0.22999936
0.2299995
0.22999961
0.22999969
0.22999976
0.22999981
0.22999985
0.22999988
0.2299999
0.22999992
0.22999994
0.22999995
0.22999995
0.22999996
0.22999997
0.22999997
0.22999997
0.22999997
0.22999998
0.22999998
0.22999998
0.22999998
0.22999998
0.22999998
0.22999998
0.22999998
0.22999998
0.22999998
0.22999998
0.22999998
0.22970204
0.22975642
0.22980129
0.22983825
0.22986862
0.22989352
0.22991388
0.22993049
0.22994402
0.22995501
0.22996392
0.22997112
0.22997693
0.22998161
0.22998537
0.22998839
0.2299908
0.22999272
0.22999426
0.22999547
0.22999644
0.2299972
0.22999781
0.22999828
0.22999866
0.22999895
0.22999918
0.22999936
0.2299995
0.22999961
0.22999969
0.22999976
0.22999981
0.22999985
0.22999988
0.2299999
0.22999992
0.22999994
0.22999995
0.22999995
0.22999996
0.22999997
0.22999997
0.22999997
0.22999997
0.22999998
0.22999998
0.22999998
0.22999998
0.22999998
0.22999998
0.22999998
0.22999998
0.22999998
0.22999998
0.22999998
0.22999998
0.22970256
0.22975685
0.22980163
0.22983853
0.22986884
0.22989369
0.22991402
0.22993061
0.22994411
0.22995508
0.22996397
0.22997117
0.22997697
0.22998164
0.2299854
0.22998841
0.22999081
0.22999273
0.22999426
0.22999548
0.22999645
0.22999721
0.22999781
0.22999829
0.22999866
0.22999895
0.22999918
0.22999936
0.2299995
0.22999961
0.22999969
0.22999976
0.22999981
0.22999985
0.22999988
0.2299999
0.22999992
0.22999994
0.22999995
0.22999995
0.22999996
0.22999997
0.22999997
0.22999997
0.22999997
0.22999998
0.22999998
0.22999998
0.22999998
0.22999998
0.22999998
0.22999998
0.22999998
0.22999998
0.22999998
0.22999998
0.22970317
0.22975734
0.22980203
0.22983885
0.2298691
0.2298939
0.22991419
0.22993074
0.22994422
0.22995517
0.22996404
0.22997122
0.22997701
0.22998167
0.22998542
0.22998843
0.22999083
0.22999275
0.22999427
0.22999549
0.22999645
0.22999721
0.22999781
0.22999829
0.22999866
0.22999895
0.22999918
0.22999936
0.2299995
0.22999961
0.2299997
0.22999976
0.22999981
0.22999985
0.22999988
0.2299999
0.22999992
0.22999994
0.22999995
0.22999995
0.22999996
0.22999997
0.22999997
0.22999997
0.22999997
0.22999998
0.22999998
0.22999998
0.22999998
0.22999998
0.22999998
0.22999998
0.22999998
0.22999998
0.22999998
0.22999998
0.22970388
0.22975791
0.22980249
0.22983922
0.2298694
0.22989414
0.22991438
0.22993089
0.22994434
0.22995526
0.22996412
0.22997128
0.22997706
0.22998171
0.22998545
0.22998845
0.22999085
0.22999276
0.22999429
0.2299955
0.22999646
0.22999722
0.22999782
0.22999829
0.22999866
0.22999896
0.22999918
0.22999936
0.2299995
0.22999961
0.2299997
0.22999976
0.22999981
0.22999985
0.22999988
0.2299999
0.22999992
0.22999994
0.22999995
0.22999995
0.22999996
0.22999997
0.22999997
0.22999997
0.22999997
0.22999998
0.22999998
0.22999998
0.22999998
0.22999998
0.22999998
0.22999998
0.22999998
0.22999998
0.22999998
0.22970468
0.22975856
0.22980302
0.22983965
0.22986974
0.22989442
0.2299146
0.22993107
0.22994448
0.22995538
0.22996421
0.22997135
0.22997711
0.22998176
0.22998549
0.22998848
0.22999087
0.22999278
0.2299943
0.22999551
0.22999647
0.22999722
0.22999782
0.2299983
0.22999867
0.22999896
0.22999919
0.22999936
0.2299995
0.22999961
0.2299997
0.22999976
0.22999981
0.22999985
0.22999988
0.2299999
0.22999992
0.22999994
0.22999995
0.22999995
0.22999996
0.22999997
0.22999997
0.22999997
0.22999997
0.22999998
0.22999998
0.22999998
0.22999998
0.22999998
0.22999998
0.22999998
0.22999998
0.22999998
0.22999998
0.2297056
0.22975931
0.22980362
0.22984013
0.22987013
0.22989473
0.22991485
0.22993127
0.22994464
0.2299555
0.22996431
0.22997143
0.22997718
0.22998181
0.22998553
0.22998851
0.22999089
0.2299928
0.22999431
0.22999552
0.22999647
0.22999723
0.22999783
0.2299983
0.22999867
0.22999896
0.22999919
0.22999937
0.22999951
0.22999961
0.2299997
0.22999976
0.22999981
0.22999985
0.22999988
0.2299999
0.22999992
0.22999994
0.22999995
0.22999995
0.22999996
0.22999997
0.22999997
0.22999997
0.22999997
0.22999998
0.22999998
0.22999998
0.22999998
0.22999998
0.22999998
0.22999998
0.22999998
0.22999998
0.22970664
0.22976015
0.22980431
0.22984068
0.22987058
0.22989509
0.22991514
0.2299315
0.22994482
0.22995565
0.22996442
0.22997152
0.22997725
0.22998186
0.22998557
0.22998854
0.22999092
0.22999282
0.22999433
0.22999553
0.22999648
0.22999724
0.22999783
0.2299983
0.22999867
0.22999896
0.22999919
0.22999937
0.22999951
0.22999961
0.2299997
0.22999976
0.22999981
0.22999985
0.22999988
0.2299999
0.22999992
0.22999994
0.22999995
0.22999995
0.22999996
0.22999997
0.22999997
0.22999997
0.22999997
0.22999998
0.22999998
0.22999998
0.22999998
0.22999998
0.22999998
0.22999998
0.22999998
0.22999998
0.22970781
0.2297611
0.22980507
0.2298413
0.22987108
0.22989549
0.22991546
0.22993175
0.22994503
0.22995581
0.22996455
0.22997162
0.22997733
0.22998193
0.22998562
0.22998858
0.22999095
0.22999284
0.22999435
0.22999555
0.2299965
0.22999725
0.22999784
0.22999831
0.22999868
0.22999897
0.22999919
0.22999937
0.22999951
0.22999962
0.2299997
0.22999976
0.22999981
0.22999985
0.22999988
0.22999991
0.22999992
0.22999994
0.22999995
0.22999996
0.22999996
0.22999997
0.22999997
0.22999997
0.22999998
0.22999998
0.22999998
0.22999998
0.22999998
0.22999998
0.22999998
0.22999998
0.22999998
0.22970912
0.22976216
0.22980593
0.22984199
0.22987163
0.22989593
0.22991582
0.22993204
0.22994526
0.22995599
0.2299647
0.22997174
0.22997742
0.229982
0.22998568
0.22998863
0.22999099
0.22999287
0.22999437
0.22999556
0.22999651
0.22999726
0.22999785
0.22999832
0.22999868
0.22999897
0.2299992
0.22999937
0.22999951
0.22999962
0.2299997
0.22999976
0.22999981
0.22999985
0.22999988
0.22999991
0.22999992
0.22999994
0.22999995
0.22999996
0.22999996
0.22999997
0.22999997
0.22999997
0.22999998
0.22999998
0.22999998
0.22999998
0.22999998
0.22999998
0.22999998
0.22999998
0.22999998
0.22971058
0.22976334
0.22980689
0.22984277
0.22987226
0.22989644
0.22991622
0.22993236
0.22994551
0.2299562
0.22996486
0.22997187
0.22997752
0.22998208
0.22998574
0.22998868
0.22999102
0.2299929
0.22999439
0.22999558
0.22999652
0.22999727
0.22999786
0.22999832
0.22999869
0.22999897
0.2299992
0.22999937
0.22999951
0.22999962
0.2299997
0.22999977
0.22999982
0.22999985
0.22999988
0.22999991
0.22999992
0.22999994
0.22999995
0.22999996
0.22999996
0.22999997
0.22999997
0.22999997
0.22999998
0.22999998
0.22999998
0.22999998
0.22999998
0.22999998
0.22999998
0.22999998
0.2297122
0.22976466
0.22980795
0.22984363
0.22987295
0.22989699
0.22991666
0.22993272
0.2299458
0.22995642
0.22996504
0.22997201
0.22997764
0.22998217
0.22998581
0.22998873
0.22999107
0.22999293
0.22999442
0.2299956
0.22999654
0.22999728
0.22999787
0.22999833
0.22999869
0.22999898
0.2299992
0.22999938
0.22999951
0.22999962
0.2299997
0.22999977
0.22999982
0.22999985
0.22999988
0.22999991
0.22999992
0.22999994
0.22999995
0.22999996
0.22999996
0.22999997
0.22999997
0.22999997
0.22999998
0.22999998
0.22999998
0.22999998
0.22999998
0.22999998
0.22999998
0.22999998
0.22971399
0.22976611
0.22980913
0.22984458
0.22987371
0.22989761
0.22991716
0.22993312
0.22994611
0.22995668
0.22996524
0.22997217
0.22997776
0.22998227
0.22998589
0.22998879
0.22999112
0.22999297
0.22999445
0.22999563
0.22999656
0.2299973
0.22999788
0.22999834
0.2299987
0.22999898
0.22999921
0.22999938
0.22999952
0.22999962
0.2299997
0.22999977
0.22999982
0.22999985
0.22999988
0.22999991
0.22999992
0.22999994
0.22999995
0.22999996
0.22999996
0.22999997
0.22999997
0.22999997
0.22999998
0.22999998
0.22999998
0.22999998
0.22999998
0.22999998
0.22999998
0.22999998
0.22971597
0.22976772
0.22981043
0.22984563
0.22987456
0.22989829
0.2299177
0.22993355
0.22994646
0.22995696
0.22996546
0.22997235
0.2299779
0.22998238
0.22998598
0.22998886
0.22999117
0.22999301
0.22999448
0.22999565
0.22999658
0.22999731
0.22999789
0.22999835
0.22999871
0.22999899
0.22999921
0.22999938
0.22999952
0.22999962
0.22999971
0.22999977
0.22999982
0.22999986
0.22999988
0.22999991
0.22999992
0.22999994
0.22999995
0.22999996
0.22999996
0.22999997
0.22999997
0.22999997
0.22999998
0.22999998
0.22999998
0.22999998
0.22999998
0.22999998
0.22999998
0.22999998
0.22971815
0.22976948
0.22981186
0.22984679
0.22987549
0.22989904
0.22991831
0.22993404
0.22994685
0.22995726
0.22996571
0.22997254
0.22997806
0.2299825
0.22998607
0.22998894
0.22999123
0.22999306
0.22999452
0.22999568
0.2299966
0.22999733
0.2299979
0.22999836
0.22999872
0.229999
0.22999922
0.22999939
0.22999952
0.22999963
0.22999971
0.22999977
0.22999982
0.22999986
0.22999989
0.22999991
0.22999993
0.22999994
0.22999995
0.22999996
0.22999996
0.22999997
0.22999997
0.22999997
0.22999998
0.22999998
0.22999998
0.22999998
0.22999998
0.22999998
0.22999998
0.22972054
0.22977142
0.22981343
0.22984806
0.22987652
0.22989987
0.22991897
0.22993457
0.22994727
0.2299576
0.22996598
0.22997275
0.22997823
0.22998263
0.22998618
0.22998902
0.2299913
0.22999311
0.22999456
0.22999571
0.22999662
0.22999735
0.22999792
0.22999837
0.22999872
0.229999
0.22999922
0.22999939
0.22999953
0.22999963
0.22999971
0.22999977
0.22999982
0.22999986
0.22999989
0.22999991
0.22999993
0.22999994
0.22999995
0.22999996
0.22999996
0.22999997
0.22999997
0.22999997
0.22999998
0.22999998
0.22999998
0.22999998
0.22999998
0.22999998
0.22999998
0.22972315
0.22977354
0.22981516
0.22984945
0.22987764
0.22990077
0.2299197
0.22993515
0.22994774
0.22995797
0.22996627
0.22997299
0.22997841
0.22998278
0.22998629
0.22998911
0.22999137
0.22999317
0.2299946
0.22999575
0.22999665
0.22999737
0.22999794
0.22999838
0.22999873
0.22999901
0.22999923
0.2299994
0.22999953
0.22999963
0.22999971
0.22999977
0.22999982
0.22999986
0.22999989
0.22999991
0.22999993
0.22999994
0.22999995
0.22999996
0.22999996
0.22999997
0.22999997
0.22999997
0.22999998
0.22999998
0.22999998
0.22999998
0.22999998
0.22972601
0.22977586
0.22981704
0.22985097
0.22987887
0.22990176
0.22992049
0.22993579
0.22994825
0.22995838
0.2299666
0.22997325
0.22997862
0.22998294
0.22998642
0.22998921
0.22999145
0.22999323
0.22999465
0.22999578
0.22999668
0.22999739
0.22999795
0.2299984
0.22999875
0.22999902
0.22999923
0.2299994
0.22999953
0.22999963
0.22999971
0.22999978
0.22999982
0.22999986
0.22999989
0.22999991
0.22999993
0.22999994
0.22999995
0.22999996
0.22999996
0.22999997
0.22999997
0.22999997
0.22999998
0.22999998
0.22999998
0.22999998
0.22972913
0.22977839
0.22981909
0.22985263
0.22988021
0.22990284
0.22992136
0.22993648
0.22994881
0.22995883
0.22996695
0.22997353
0.22997884
0.22998312
0.22998656
0.22998932
0.22999153
0.2299933
0.22999471
0.22999583
0.22999671
0.22999742
0.22999797
0.22999841
0.22999876
0.22999903
0.22999924
0.22999941
0.22999954
0.22999964
0.22999972
0.22999978
0.22999982
0.22999986
0.22999989
0.22999991
0.22999993
0.22999994
0.22999995
0.22999996
0.22999996
0.22999997
0.22999997
0.22999997
0.22999998
0.22999998
0.22999998
0.22999998
0.22967376
0.22973251
0.22978114
0.22982132
0.22985444
0.22988167
0.22990402
0.22992231
0.22993724
0.22994941
0.22995931
0.22996734
0.22997384
0.22997908
0.22998331
0.22998671
0.22998944
0.22999163
0.22999337
0.22999476
0.22999587
0.22999675
0.22999745
0.229998
0.22999843
0.22999877
0.22999904
0.22999925
0.22999941
0.22999954
0.22999964
0.22999972
0.22999978
0.22999983
0.22999986
0.22999989
0.22999991
0.22999993
0.22999994
0.22999995
0.22999996
0.22999996
0.22999997
0.22999997
0.22999998
0.22999998
0.22999998
0.22999998
0.22999998
0.22967825
0.22973618
0.22978412
0.22982374
0.2298564
0.22988326
0.22990529
0.22992333
0.22993807
0.22995008
0.22995984
0.22996776
0.22997417
0.22997935
0.22998352
0.22998688
0.22998957
0.22999173
0.22999345
0.22999483
0.22999592
0.22999679
0.22999748
0.22999802
0.22999845
0.22999878
0.22999905
0.22999926
0.22999942
0.22999955
0.22999965
0.22999972
0.22999978
0.22999983
0.22999986
0.22999989
0.22999991
0.22999993
0.22999994
0.22999995
0.22999996
0.22999996
0.22999997
0.22999997
0.22999998
0.22999998
0.22999998
0.22999998
0.22999998
0.22968312
0.22974015
0.22978735
0.22982636
0.22985852
0.22988497
0.22990668
0.22992445
0.22993896
0.22995079
0.22996041
0.22996822
0.22997454
0.22997964
0.22998375
0.22998706
0.22998972
0.22999184
0.22999354
0.2299949
0.22999598
0.22999683
0.22999751
0.22999804
0.22999847
0.2299988
0.22999906
0.22999927
0.22999943
0.22999955
0.22999965
0.22999973
0.22999978
0.22999983
0.22999987
0.22999989
0.22999991
0.22999993
0.22999994
0.22999995
0.22999996
0.22999997
0.22999997
0.22999997
0.22999998
0.22999998
0.22999998
0.22999998
0.22999998
0.22968838
0.22974444
0.22979084
0.2298292
0.22986082
0.22988683
0.22990818
0.22992565
0.22993993
0.22995157
0.22996103
0.22996871
0.22997493
0.22997995
0.229984
0.22998726
0.22998987
0.22999197
0.22999364
0.22999497
0.22999603
0.22999688
0.22999754
0.22999807
0.22999849
0.22999882
0.22999908
0.22999928
0.22999944
0.22999956
0.22999965
0.22999973
0.22999979
0.22999983
0.22999987
0.22999989
0.22999992
0.22999993
0.22999994
0.22999995
0.22999996
0.22999997
0.22999997
0.22999997
0.22999998
0.22999998
0.22999998
0.22999998
0.22999998
0.22969404
0.22974905
0.22979461
0.22983225
0.2298633
0.22988884
0.22990979
0.22992696
0.22994098
0.22995241
0.2299617
0.22996925
0.22997536
0.22998029
0.22998427
0.22998747
0.22999004
0.2299921
0.22999374
0.22999505
0.2299961
0.22999693
0.22999758
0.2299981
0.22999851
0.22999884
0.22999909
0.22999929
0.22999944
0.22999957
0.22999966
0.22999973
0.22999979
0.22999984
0.22999987
0.2299999
0.22999992
0.22999993
0.22999994
0.22999995
0.22999996
0.22999997
0.22999997
0.22999997
0.22999998
0.22999998
0.22999998
0.22999998
0.22999998
0.22970011
0.22975401
0.22979865
0.22983554
0.22986596
0.22989099
0.22991153
0.22992836
0.22994211
0.22995331
0.22996243
0.22996983
0.22997582
0.22998066
0.22998456
0.2299877
0.22999022
0.22999224
0.22999386
0.22999514
0.22999617
0.22999698
0.22999763
0.22999814
0.22999854
0.22999886
0.22999911
0.2299993
0.22999945
0.22999957
0.22999967
0.22999974
0.22999979
0.22999984
0.22999987
0.2299999
0.22999992
0.22999993
0.22999995
0.22999995
0.22999996
0.22999997
0.22999997
0.22999997
0.22999998
0.22999998
0.22999998
0.22999998
0.22999998
0.22970662
0.22975933
0.22980298
0.22983906
0.22986882
0.2298933
0.2299134
0.22992986
0.22994332
0.22995428
0.22996321
0.22997045
0.22997631
0.22998105
0.22998487
0.22998795
0.22999042
0.2299924
0.22999398
0.22999524
0.22999624
0.22999704
0.22999767
0.22999817
0.22999857
0.22999888
0.22999912
0.22999931
0.22999946
0.22999958
0.22999967
0.22999974
0.2299998
0.22999984
0.22999987
0.2299999
0.22999992
0.22999993
0.22999995
0.22999996
0.22999996
0.22999997
0.22999997
0.22999997
0.22999998
0.22999998
0.22999998
0.22999998
0.22999998
0.22971358
0.22976501
0.22980761
0.22984283
0.22987188
0.22989578
0.2299154
0.22993148
0.22994461
0.22995532
0.22996404
0.22997111
0.22997684
0.22998148
0.22998521
0.22998822
0.22999063
0.22999256
0.22999411
0.22999534
0.22999632
0.2299971
0.22999772
0.22999821
0.2299986
0.2299989
0.22999914
0.22999933
0.22999947
0.22999959
0.22999968
0.22999975
0.2299998
0.22999984
0.22999988
0.2299999
0.22999992
0.22999994
0.22999995
0.22999996
0.22999996
0.22999997
0.22999997
0.22999997
0.22999998
0.22999998
0.22999998
0.22999998
0.22999998
0.22972098
0.22977106
0.22981255
0.22984685
0.22987514
0.22989842
0.22991754
0.2299332
0.229946
0.22995644
0.22996493
0.22997183
0.22997741
0.22998193
0.22998557
0.2299885
0.22999085
0.22999274
0.22999425
0.22999545
0.22999641
0.22999717
0.22999777
0.22999825
0.22999863
0.22999893
0.22999916
0.22999934
0.22999949
0.2299996
0.22999969
0.22999975
0.22999981
0.22999985
0.22999988
0.2299999
0.22999992
0.22999994
0.22999995
0.22999996
0.22999996
0.22999997
0.22999997
0.22999998
0.22999998
0.22999998
0.22999998
0.22999998
0.22999998
0.22972885
0.22977749
0.22981779
0.22985112
0.22987861
0.22990123
0.22991981
0.22993503
0.22994748
0.22995762
0.22996588
0.22997259
0.22997802
0.22998241
0.22998595
0.22998881
0.2299911
0.22999293
0.2299944
0.22999557
0.2299965
0.22999724
0.22999783
0.2299983
0.22999866
0.22999895
0.22999918
0.22999936
0.2299995
0.22999961
0.22999969
0.22999976
0.22999981
0.22999985
0.22999988
0.22999991
0.22999992
0.22999994
0.22999995
0.22999996
0.22999996
0.22999997
0.22999997
0.22999998
0.22999998
0.22999998
0.22999998
0.22999998
0.22999998
0.22973717
0.2297843
0.22982335
0.22985564
0.22988229
0.22990422
0.22992222
0.22993698
0.22994904
0.22995888
0.22996689
0.2299734
0.22997867
0.22998293
0.22998636
0.22998913
0.22999135
0.22999313
0.22999456
0.2299957
0.2299966
0.22999732
0.22999789
0.22999834
0.2299987
0.22999898
0.2299992
0.22999938
0.22999951
0.22999962
0.2299997
0.22999977
0.22999982
0.22999986
0.22999989
0.22999991
0.22999993
0.22999994
0.22999995
0.22999996
0.22999997
0.22999997
0.22999997
0.22999998
0.22999998
0.22999998
0.22999998
0.22999998
0.22999998
0.22974595
0.22979149
0.22982922
0.22986042
0.22988617
0.22990737
0.22992477
0.22993904
0.2299507
0.22996022
0.22996796
0.22997425
0.22997935
0.22998347
0.2299868
0.22998948
0.22999163
0.22999335
0.22999473
0.22999583
0.22999671
0.2299974
0.22999796
0.22999839
0.22999874
0.22999901
0.22999923
0.2299994
0.22999953
0.22999963
0.22999971
0.22999977
0.22999982
0.22999986
0.22999989
0.22999991
0.22999993
0.22999994
0.22999995
0.22999996
0.22999997
0.22999997
0.22999997
0.22999998
0.22999998
0.22999998
0.22999998
0.22999998
0.22999998
0.22975518
0.22979904
0.22983539
0.22986545
0.22989026
0.22991068
0.22992746
0.22994121
0.22995245
0.22996162
0.22996909
0.22997516
0.22998007
0.22998405
0.22998726
0.22998984
0.22999191
0.22999358
0.22999491
0.22999597
0.22999682
0.22999749
0.22999803
0.22999845
0.22999878
0.22999905
0.22999925
0.22999942
0.22999954
0.22999964
0.22999972
0.22999978
0.22999983
0.22999986
0.22999989
0.22999991
0.22999993
0.22999994
0.22999995
0.22999996
0.22999997
0.22999997
0.22999997
0.22999998
0.22999998
0.22999998
0.22999998
0.22999998
0.22999998
0.22976484
0.22980695
0.22984185
0.22987072
0.22989454
0.22991416
0.22993027
0.22994348
0.22995429
0.2299631
0.22997028
0.22997611
0.22998083
0.22998465
0.22998774
0.22999022
0.22999222
0.22999382
0.2299951
0.22999612
0.22999694
0.22999758
0.2299981
0.2299985
0.22999883
0.22999908
0.22999928
0.22999944
0.22999956
0.22999965
0.22999973
0.22999979
0.22999983
0.22999987
0.2299999
0.22999992
0.22999993
0.22999995
0.22999995
0.22999996
0.22999997
0.22999997
0.22999998
0.22999998
0.22999998
0.22999998
0.22999998
0.22999998
0.22999998
0.22977491
0.2298152
0.22984859
0.22987621
0.22989901
0.22991779
0.22993322
0.22994586
0.2299562
0.22996464
0.22997152
0.2299771
0.22998163
0.22998529
0.22998824
0.22999062
0.22999254
0.22999407
0.2299953
0.22999628
0.22999706
0.22999768
0.22999817
0.22999856
0.22999887
0.22999912
0.22999931
0.22999946
0.22999958
0.22999967
0.22999974
0.2299998
0.22999984
0.22999987
0.2299999
0.22999992
0.22999994
0.22999995
0.22999996
0.22999996
0.22999997
0.22999997
0.22999998
0.22999998
0.22999998
0.22999998
0.22999998
0.22999998
0.22999998
0.22978535
0.22982376
0.22985559
0.22988192
0.22990366
0.22992156
0.22993627
0.22994833
0.2299582
0.22996625
0.22997281
0.22997813
0.22998245
0.22998595
0.22998877
0.22999104
0.22999287
0.22999433
0.22999551
0.22999644
0.22999719
0.22999778
0.22999825
0.22999863
0.22999892
0.22999915
0.22999934
0.22999948
0.22999959
0.22999968
0.22999975
0.2299998
0.22999985
0.22999988
0.2299999
0.22999992
0.22999994
0.22999995
0.22999996
0.22999996
0.22999997
0.22999997
0.22999998
0.22999998
0.22999998
0.22999998
0.22999998
0.22999998
0.22999999
0.22979614
0.22983259
0.22986281
0.22988782
0.22990846
0.22992547
0.22993944
0.22995089
0.22996026
0.22996791
0.22997414
0.22997921
0.22998331
0.22998663
0.22998932
0.22999148
0.22999321
0.22999461
0.22999572
0.22999661
0.22999732
0.22999789
0.22999834
0.22999869
0.22999897
0.22999919
0.22999937
0.22999951
0.22999961
0.2299997
0.22999976
0.22999981
0.22999985
0.22999988
0.22999991
0.22999993
0.22999994
0.22999995
0.22999996
0.22999997
0.22999997
0.22999998
0.22999998
0.22999998
0.22999998
0.22999998
0.22999998
0.22999999
0.22999999
0.22980722
0.22984168
0.22987024
0.22989388
0.2299134
0.22992948
0.22994269
0.22995353
0.22996239
0.22996963
0.22997552
0.22998031
0.2299842
0.22998734
0.22998988
0.22999193
0.22999357
0.22999489
0.22999595
0.22999679
0.22999746
0.229998
0.22999842
0.22999876
0.22999903
0.22999923
0.2299994
0.22999953
0.22999963
0.22999971
0.22999977
0.22999982
0.22999986
0.22999989
0.22999991
0.22999993
0.22999994
0.22999995
0.22999996
0.22999997
0.22999997
0.22999998
0.22999998
0.22999998
0.22999998
0.22999998
0.22999998
0.22999999
0.22999999
0.22981853
0.22985095
0.22987784
0.22990008
0.22991845
0.22993358
0.22994602
0.22995622
0.22996457
0.22997138
0.22997693
0.22998145
0.2299851
0.22998807
0.22999046
0.22999239
0.22999394
0.22999518
0.22999618
0.22999697
0.2299976
0.22999811
0.22999851
0.22999883
0.22999908
0.22999928
0.22999943
0.22999956
0.22999965
0.22999973
0.22999979
0.22999983
0.22999987
0.2299999
0.22999992
0.22999993
0.22999995
0.22999996
0.22999996
0.22999997
0.22999997
0.22999998
0.22999998
0.22999998
0.22999998
0.22999998
0.22999999
0.22999999
0.22999999
0.22983002
0.22986038
0.22988555
0.22990638
0.22992358
0.22993776
0.22994941
0.22995896
0.22996678
0.22997317
0.22997837
0.2299826
0.22998603
0.22998881
0.22999105
0.22999286
0.22999431
0.22999548
0.22999641
0.22999716
0.22999775
0.22999822
0.2299986
0.2299989
0.22999913
0.22999932
0.22999947
0.22999958
0.22999967
0.22999974
0.2299998
0.22999984
0.22999988
0.2299999
0.22999992
0.22999994
0.22999995
0.22999996
0.22999997
0.22999997
0.22999998
0.22999998
0.22999998
0.22999998
0.22999998
0.22999999
0.22999999
0.22999999
0.22999999
0.22984161
0.22986988
0.22989333
0.22991274
0.22992877
0.22994197
0.22995283
0.22996173
0.22996902
0.22997497
0.22997982
0.22998377
0.22998696
0.22998955
0.22999164
0.22999333
0.22999469
0.22999577
0.22999665
0.22999734
0.2299979
0.22999834
0.22999869
0.22999897
0.22999919
0.22999936
0.2299995
0.22999961
0.22999969
0.22999976
0.22999981
0.22999985
0.22999988
0.22999991
0.22999993
0.22999994
0.22999995
0.22999996
0.22999997
0.22999997
0.22999998
0.22999998
0.22999998
0.22999998
0.22999999
0.22999999
0.22999999
0.22999999
0.22999999
0.22985321
0.22987941
0.22990113
0.22991911
0.22993396
0.2299462
0.22995626
0.22996451
0.22997127
0.22997679
0.22998128
0.22998494
0.2299879
0.22999031
0.22999225
0.22999381
0.22999507
0.22999608
0.22999689
0.22999753
0.22999805
0.22999846
0.22999878
0.22999904
0.22999925
0.22999941
0.22999954
0.22999964
0.22999971
0.22999978
0.22999982
0.22999986
0.22999989
0.22999991
0.22999993
0.22999994
0.22999996
0.22999996
0.22999997
0.22999997
0.22999998
0.22999998
0.22999998
0.22999998
0.22999999
0.22999999
0.22999999
0.22999999
0.22999999
0.22986476
0.22988888
0.22990889
0.22992545
0.22993913
0.22995041
0.22995968
0.22996728
0.22997351
0.22997859
0.22998274
0.22998611
0.22998884
0.22999106
0.22999284
0.22999429
0.22999545
0.22999638
0.22999712
0.22999772
0.2299982
0.22999858
0.22999888
0.22999912
0.2299993
0.22999945
0.22999957
0.22999966
0.22999974
0.22999979
0.22999984
0.22999987
0.2299999
0.22999992
0.22999994
0.22999995
0.22999996
0.22999997
0.22999997
0.22999998
0.22999998
0.22999998
0.22999998
0.22999999
0.22999999
0.22999999
0.22999999
0.22999999
0.22987614
0.22989823
0.22991655
0.22993171
0.22994424
0.22995456
0.22996305
0.22997002
0.22997572
0.22998038
0.22998418
0.22998726
0.22998977
0.2299918
0.22999344
0.22999476
0.22999582
0.22999668
0.22999736
0.22999791
0.22999834
0.22999869
0.22999897
0.22999919
0.22999936
0.2299995
0.22999961
0.22999969
0.22999976
0.22999981
0.22999985
0.22999988
0.22999991
0.22999993
0.22999994
0.22999995
0.22999996
0.22999997
0.22999997
0.22999998
0.22999998
0.22999998
0.22999999
0.22999999
0.22999999
0.22999999
0.22999999
0.22988729
0.22990738
0.22992404
0.22993784
0.22994924
0.22995864
0.22996636
0.2299727
0.22997789
0.22998213
0.22998559
0.2299884
0.22999068
0.22999252
0.22999402
0.22999522
0.22999619
0.22999697
0.22999759
0.22999809
0.22999849
0.22999881
0.22999906
0.22999926
0.22999942
0.22999954
0.22999964
0.22999972
0.22999978
0.22999983
0.22999986
0.22999989
0.22999991
0.22999993
0.22999995
0.22999996
0.22999996
0.22999997
0.22999998
0.22999998
0.22999998
0.22999998
0.22999999
0.22999999
0.22999999
0.22999999
0.2298981
0.22991626
0.22993132
0.22994379
0.22995409
0.22996259
0.22996957
0.2299753
0.22998
0.22998383
0.22998695
0.2299895
0.22999156
0.22999323
0.22999458
0.22999567
0.22999655
0.22999725
0.22999782
0.22999827
0.22999863
0.22999892
0.22999915
0.22999933
0.22999947
0.22999958
0.22999967
0.22999974
0.2299998
0.22999984
0.22999988
0.2299999
0.22999992
0.22999994
0.22999995
0.22999996
0.22999997
0.22999997
0.22999998
0.22999998
0.22999998
0.22999999
0.22999999
0.22999999
0.22999999
0.22999999
0.22990849
0.22992479
0.22993831
0.22994951
0.22995876
0.22996639
0.22997266
0.22997781
0.22998202
0.22998546
0.22998827
0.22999056
0.22999241
0.22999391
0.22999513
0.22999611
0.2299969
0.22999753
0.22999804
0.22999844
0.22999877
0.22999903
0.22999923
0.22999939
0.22999952
0.22999962
0.2299997
0.22999977
0.22999982
0.22999986
0.22999989
0.22999991
0.22999993
0.22999994
0.22999996
0.22999996
0.22999997
0.22999998
0.22999998
0.22999998
0.22999999
0.22999999
0.22999999
0.22999999
0.22999999
0.22999999
0.22991837
0.2299329