/*--------------------------------*- C++ -*----------------------------------*\
| =========                 |                                                 |
| \\      /  F ield         | OpenFOAM: The Open Source CFD Toolbox           |
|  \\    /   O peration     | Version:  2312                                  |
|   \\  /    A nd           | Website:  www.openfoam.com                      |
|    \\/     M anipulation  |                                                 |
\*---------------------------------------------------------------------------*/
FoamFile
{
    version     2.0;
    format      ascii;
    arch        "LSB;label=32;scalar=64";
    class       volScalarField;
    location    "0.01";
    object      omega;
}
// * * * * * * * * * * * * * * * * * * * * * * * * * * * * * * * * * * * * * //

dimensions      [0 0 -1 0 0 0 0];

internalField   nonuniform List<scalar> 
3251
(
346.60561
346.53954
346.48484
346.44017
346.40415
346.37574
346.35415
346.33877
346.32922
346.32525
346.32679
346.33391
346.34683
346.36592
346.39168
346.42476
346.46596
346.51624
346.57672
346.64869
346.7336
346.83311
346.94905
347.08343
347.23849
347.41662
347.62042
347.85265
348.11624
348.41424
348.74982
349.12619
349.54661
350.01427
350.53227
351.10353
351.7307
352.41608
353.16152
353.96831
354.83711
355.76781
356.75948
357.81027
358.9173
360.07664
361.28332
362.53042
363.81037
365.11481
366.43434
367.75922
369.07749
370.37727
371.648
372.87727
374.05249
375.16087
346.6234
346.55739
346.50279
346.45821
346.42228
346.39396
346.37245
346.35716
346.34769
346.34381
346.34543
346.35263
346.36563
346.3848
346.41064
346.44379
346.48507
346.53543
346.59598
346.66801
346.75299
346.85256
346.96855
347.10299
347.25809
347.43626
347.64009
347.87234
348.13594
348.43394
348.7695
349.14584
349.5662
350.0338
350.55171
351.12286
351.7499
352.43512
353.18037
353.98696
354.85552
355.78596
356.77734
357.82781
358.93449
360.09346
361.29974
362.54642
363.82592
365.12988
366.44892
367.77307
369.09088
370.39054
371.66093
372.8898
374.06472
375.17274
346.65998
346.59419
346.53975
346.49534
346.45956
346.43138
346.41001
346.39485
346.38551
346.38175
346.3835
346.39082
346.40394
346.42322
346.44917
346.48243
346.52381
346.57426
346.6349
346.70701
346.79206
346.8917
347.00774
347.14222
347.29735
347.47554
347.67936
347.9116
348.17515
348.47309
348.80856
349.18479
349.60502
350.07244
350.59015
351.16106
351.78782
352.47272
353.21762
354.0238
354.89192
355.82187
356.81272
357.86262
358.96869
360.127
361.33258
362.57851
363.85723
365.16039
366.47859
367.80179
369.11875
370.4178
371.68746
372.91555
374.08973
375.19699
346.71543
346.64992
346.59572
346.55153
346.51596
346.48798
346.4668
346.45182
346.44266
346.43907
346.44098
346.44846
346.46174
346.48116
346.50725
346.54064
346.58214
346.63271
346.69345
346.76566
346.85079
346.95049
347.06658
347.2011
347.35624
347.53441
347.73821
347.97038
348.23385
348.53167
348.86699
349.24302
349.66302
350.13016
350.64754
351.21808
351.84442
352.52884
353.27321
354.0788
354.94626
355.8755
356.86558
357.91465
359.01984
360.1772
361.38178
362.62666
363.90428
365.20629
366.52333
367.84527
369.16105
370.45904
371.72759
372.95453
374.12756
375.23365
346.78967
346.7245
346.6706
346.62669
346.59139
346.56366
346.54272
346.52798
346.51904
346.51566
346.51778
346.52546
346.53892
346.55852
346.58478
346.61833
346.65997
346.71067
346.77153
346.84384
346.92906
347.02882
347.14496
347.2795
347.43464
347.61278
347.81651
348.04858
348.31191
348.60955
348.94465
349.32041
349.74008
350.20684
350.72379
351.29382
351.91959
352.60337
353.34703
354.15183
355.01844
355.94675
356.93582
357.9838
359.08784
360.24397
361.44725
362.69077
363.96696
365.26749
366.58303
367.90341
369.21765
370.51419
371.78125
373.00667
374.17814
346.87726
346.81246
346.7589
346.71532
346.68032
346.65288
346.63221
346.61773
346.60904
346.60591
346.60825
346.61615
346.62982
346.64962
346.67606
346.70978
346.75159
346.80242
346.86341
346.93583
347.02113
347.12096
347.23714
347.37168
347.5268
347.70488
347.90852
348.14046
348.40362
348.70104
349.03585
349.41129
349.83056
350.29686
350.81328
351.38272
352.00781
352.69085
353.43366
354.23755
355.10316
356.03037
357.01827
358.065
359.16769
360.3224
361.52418
362.76612
364.04068
365.33951
366.6533
367.97191
369.28437
370.57918
371.8445
373.06816
374.23764
346.97539
346.911
346.8578
346.81458
346.77991
346.75278
346.73242
346.71823
346.70981
346.70693
346.70953
346.71766
346.73156
346.75157
346.7782
346.81211
346.85408
346.90506
346.96618
347.0387
347.12409
347.22397
347.34018
347.47473
347.62981
347.80782
348.01135
348.24313
348.50608
348.80323
349.13774
349.51279
349.93161
350.3974
350.91322
351.48199
352.10632
352.78851
353.5304
354.33326
355.19775
356.12376
357.11035
358.15568
359.25689
360.41002
361.61014
362.85034
364.12308
365.42004
366.73192
368.04856
369.35906
370.65193
371.91533
373.13704
374.30431
347.09165
347.02772
346.97496
346.93214
346.89785
346.87109
346.85107
346.83721
346.82911
346.82654
346.82942
346.83782
346.85197
346.87223
346.89908
346.93319
346.97535
347.0265
347.08776
347.1604
347.24587
347.34582
347.46205
347.59658
347.75161
347.92953
348.13291
348.3645
348.62719
348.92403
349.25814
349.63273
350.05102
350.51619
351.0313
351.59926
352.2227
352.90389
353.64467
354.44633
355.3095
356.23408
357.21914
358.26282
359.36229
360.51357
361.71175
362.94991
364.22053
365.51529
366.82492
368.13928
369.44749
370.73807
371.99919
373.2186
374.38327
347.22724
347.16384
347.11157
347.06921
347.03537
347.00902
346.9894
346.97591
346.96817
346.96594
346.96914
346.97785
346.99229
347.01281
347.03992
347.07426
347.11662
347.16796
347.22937
347.30213
347.3877
347.4877
347.60396
347.73846
347.89342
348.07122
348.27442
348.50576
348.76815
349.0646
349.39825
349.77231
350.18996
350.6544
351.16869
351.73571
352.35809
353.03812
353.77761
354.57786
355.4395
356.36242
357.3457
358.38748
359.48493
360.63407
361.83
363.0658
364.33397
365.62621
366.93325
368.24497
369.55052
370.83844
372.09692
373.31364
347.3834
347.32058
347.26887
347.22704
347.19369
347.16781
347.14863
347.13557
347.12823
347.12638
347.12995
347.139
347.15376
347.17459
347.20197
347.23656
347.27915
347.33068
347.39226
347.46516
347.55083
347.65088
347.76714
347.90161
348.05648
348.23412
348.4371
348.66816
348.93018
349.22618
349.5593
349.93272
350.34964
350.81323
351.32655
351.89249
352.51366
353.19234
353.93036
354.72899
355.58887
356.50989
357.49112
358.53073
359.62586
360.77255
361.96592
363.19902
364.4644
365.75375
367.05784
368.36656
369.66907
370.95395
372.2094
373.42291
347.56138
347.49923
347.44814
347.40689
347.37409
347.34874
347.33005
347.31746
347.31057
347.30914
347.31311
347.32254
347.33766
347.35882
347.38651
347.42138
347.46421
347.51596
347.57771
347.65075
347.73651
347.83662
347.95288
348.08729
348.24204
348.41949
348.62221
348.85293
349.11452
349.41001
349.7425
350.11519
350.53126
350.99388
351.5061
352.0708
352.69059
353.36773
354.10406
354.90085
355.75873
356.67759
357.65651
358.69364
359.78614
360.93007
362.12052
363.35059
364.6128
365.8989
367.19964
368.50497
369.80406
371.08548
372.33747
347.76247
347.70106
347.65066
347.61005
347.57786
347.55309
347.53495
347.52288
347.51648
347.51552
347.51993
347.52978
347.54528
347.5668
347.59482
347.62999
347.67309
347.72506
347.787
347.86019
347.94604
348.04619
348.16244
348.29677
348.45137
348.62861
348.83102
349.06134
349.32244
349.61732
349.9491
350.32096
350.73606
351.19758
351.70854
352.27183
352.89005
353.56547
354.29989
355.0946
355.95022
356.86665
357.84295
358.8773
359.96686
361.10767
362.29486
363.52151
364.78019
366.06263
367.35964
368.66117
369.95641
371.23393
372.48187
347.98799
347.92739
347.87774
347.83784
347.80632
347.78218
347.76464
347.75313
347.74727
347.74682
347.7517
347.762
347.77793
347.79983
347.82821
347.86369
347.90708
347.95929
348.02143
348.09476
348.18071
348.28089
348.39711
348.53134
348.68576
348.86273
349.06479
349.29465
349.55518
349.84938
350.18035
350.55125
350.96527
351.42553
351.93508
352.49679
353.11325
353.78671
354.519
355.31137
356.16447
357.07817
358.05156
359.0828
360.16907
361.30641
362.48997
363.71281
364.96755
366.24594
367.53879
368.83609
370.12707
371.40021
348.23925
348.17952
348.1307
348.09157
348.06077
348.03731
348.02042
348.00953
348.00424
348.00434
348.00974
348.02052
348.03689
348.05921
348.08797
348.1238
348.16748
348.21994
348.28228
348.35576
348.44179
348.542
348.65816
348.79226
348.94647
349.12313
349.32477
349.55411
349.814
350.10742
350.43747
350.80731
351.22009
351.67895
352.18692
352.74685
353.36134
354.03263
354.76253
355.55231
356.4026
357.31328
358.28342
359.31122
360.39384
361.52734
362.70686
363.92551
365.17589
366.44979
367.73805
369.03069
370.31692
371.5851
348.51755
348.45878
348.41084
348.37254
348.34253
348.3198
348.3036
348.29337
348.2887
348.28938
348.29533
348.30663
348.32348
348.34624
348.37539
348.41157
348.45556
348.50828
348.57083
348.64444
348.73056
348.83077
348.94686
349.08079
349.23474
349.41104
349.61221
349.84095
350.1001
350.39265
350.72168
351.09031
351.50172
351.95901
352.46522
353.02318
353.63548
354.30436
355.03162
355.81852
356.6657
357.57303
358.5396
359.56359
360.64219
361.77145
362.94655
364.16057
365.40617
366.67514
367.95836
369.24588
370.52691
348.8242
348.76646
348.71947
348.68206
348.65287
348.63093
348.61547
348.60593
348.60192
348.60322
348.60975
348.62159
348.63894
348.66216
348.69173
348.72828
348.77258
348.82556
348.88831
348.96206
349.04823
349.14843
349.26441
349.39815
349.55179
349.72767
349.92829
350.15635
350.41468
350.70625
351.03412
351.40143
351.8113
352.26685
352.7711
353.32688
353.93676
354.60298
355.32733
356.11107
356.95482
357.85847
358.82111
359.84092
360.91511
362.03974
363.20998
364.41895
365.65932
366.92292
368.20064
369.48257
370.75784
349.16049
349.10383
349.05785
349.02137
348.99307
348.97195
348.95727
348.94846
348.94514
348.94709
348.95422
348.96662
348.9845
349.00819
349.03819
349.07511
349.11974
349.17298
349.23592
349.30979
349.396
349.49615
349.61199
349.74549
349.89877
350.07416
350.27417
350.50147
350.75887
351.04934
351.37593
351.74175
352.14992
352.60356
353.10565
353.65903
354.26625
354.92954
355.65069
356.43095
357.27095
358.17058
359.12892
360.14417
361.21355
362.33312
363.49808
364.70156
365.93625
367.194
368.46575
369.74161
349.52763
349.47212
349.42721
349.39171
349.36432
349.34407
349.3302
349.32215
349.31955
349.32216
349.32993
349.34291
349.36131
349.38549
349.41592
349.45322
349.49816
349.55166
349.61477
349.68875
349.77498
349.87505
349.99071
350.1239
350.27677
350.45161
350.65091
350.87734
351.13371
351.42295
351.74811
352.1123
352.5186
352.97012
353.46985
354.02058
354.62489
355.28498
356.00263
356.7791
357.61501
358.51026
359.46392
360.47421
361.53836
362.65244
363.81169
365.00922
366.23777
367.4892
368.75449
370.02371
349.92681
349.8725
349.82869
349.79421
349.76778
349.74842
349.73538
349.72812
349.72625
349.72955
349.73795
349.75152
349.77047
349.79513
349.82599
349.86366
349.90891
349.96264
350.02591
350.09996
350.18617
350.28612
350.40155
350.53439
350.68677
350.86097
351.05948
351.28495
351.54016
351.82804
352.15161
352.51396
352.91823
353.36745
353.86458
354.41243
355.01355
355.67015
356.384
357.15635
357.98782
358.8783
359.8269
360.83182
361.89032
362.99848
364.15156
365.34268
366.56463
367.80927
369.06762
370.32965
350.35911
350.30603
350.26336
350.22994
350.20448
350.18603
350.17385
350.16738
350.16625
350.17024
350.17928
350.19344
350.21292
350.23807
350.26935
350.30737
350.35291
350.40685
350.47025
350.54434
350.63049
350.73026
350.8454
350.97782
351.12963
351.30311
351.50073
351.72511
351.97903
352.26541
352.58724
352.94759
353.34963
353.79631
354.29061
354.83533
355.43298
356.08579
356.79551
357.5634
358.39006
359.2754
360.21853
361.21767
362.27007
363.37187
364.51833
365.70259
366.91747
368.15485
369.40577
370.66011
350.82552
350.77369
350.73219
350.69984
350.67537
350.65783
350.6465
350.64082
350.64043
350.64511
350.65478
350.66952
350.68952
350.71512
350.7468
350.78516
350.83095
350.88507
350.94856
351.02264
351.10868
351.20822
351.323
351.45492
351.60607
351.77873
351.97534
352.19851
352.45101
352.73573
353.05566
353.41386
353.81341
354.25733
354.74855
355.28985
355.88376
356.53246
357.23773
358.00079
358.82227
359.70209
360.63933
361.63226
362.67814
363.77312
364.9125
366.08945
367.29681
368.52645
369.76941
351.3269
351.27631
351.23599
351.2047
351.18121
351.16458
351.15409
351.14919
351.14952
351.15486
351.16514
351.18043
351.20093
351.22696
351.259
351.29766
351.34366
351.39791
351.46144
351.53545
351.62131
351.72055
351.83489
351.96622
352.11662
352.28834
352.48382
352.70565
352.95657
353.23947
353.55731
353.91315
354.31002
354.75092
355.2388
355.77642
356.36627
357.01055
357.71101
358.4689
359.28482
360.1587
361.08966
362.07594
363.11485
364.20257
365.33442
366.5036
367.70301
368.92443
370.15873
351.86394
351.81455
351.7754
351.74516
351.72262
351.70688
351.69719
351.69304
351.69406
351.70002
351.71087
351.72667
351.74761
351.77403
351.80639
351.84529
351.89145
351.94577
352.00927
352.08314
352.16875
352.2676
352.38141
352.51205
352.66158
352.83224
353.02645
353.24679
353.49598
353.77687
354.09243
354.44568
354.83965
355.27729
355.76156
356.2952
356.88069
357.52022
358.21553
358.96786
359.77784
360.64538
361.56963
362.54884
363.58033
364.66035
365.78421
366.9452
368.13625
352.43713
352.38887
352.35085
352.32161
352.3
352.28508
352.27615
352.2727
352.27434
352.28088
352.29224
352.30848
352.32981
352.35655
352.38916
352.42822
352.47448
352.52879
352.59218
352.66583
352.75108
352.84945
352.96262
353.09245
353.24099
353.41046
353.60326
353.82194
354.06921
354.34792
354.66098
355.01141
355.40221
355.83635
356.31675
356.84611
357.42693
358.06136
358.75117
359.49757
360.30121
361.16202
362.07913
363.05084
364.07448
365.14635
366.26179
367.41414
353.04671
352.99951
352.96254
352.93424
352.91346
352.8993
352.89106
352.88821
352.89041
352.89744
352.90922
352.92584
352.94747
352.97445
353.00722
353.04637
353.09261
353.14682
353.21
353.28333
353.36812
353.46589
353.57829
353.70719
353.8546
354.02272
354.21394
354.4308
354.67597
354.95227
355.26262
355.60997
355.99726
356.42773
356.90398
357.42877
358.00458
358.63358
359.31752
360.05762
360.85453
361.70819
362.61775
363.58154
364.59691
365.66019
366.76678
367.91
353.74968
353.69238
353.64636
353.61035
353.58289
353.56285
353.54935
353.54168
353.53934
353.54199
353.5494
353.56151
353.57838
353.60022
353.62732
353.66014
353.69926
353.74539
353.79938
353.86224
353.93511
354.01932
354.11635
354.22786
354.35566
354.50178
354.6684
354.85786
355.0727
355.31557
355.58926
355.89666
356.24071
356.62442
357.05076
357.52253
358.04242
358.6129
359.23613
359.91383
360.64726
361.43705
362.28316
363.18477
364.14022
365.1469
366.20118
367.29853
368.4322
354.42998
354.37399
354.32901
354.29384
354.26709
354.24766
354.23467
354.22744
354.22548
354.22843
354.23609
354.24839
354.26539
354.28728
354.31438
354.34712
354.38608
354.43195
354.48559
354.54798
354.62026
354.70374
354.79988
354.91032
355.03688
355.18153
355.34645
355.53397
355.74659
355.98693
356.25778
356.562
356.90252
357.28232
357.7043
358.17128
358.68594
359.25075
359.86784
360.53896
361.26533
362.04762
362.88579
363.77905
364.72577
365.72336
366.76827
367.85598
368.97978
355.14583
355.09083
355.04667
355.01217
354.98596
354.96696
354.95431
354.94735
354.94559
354.94868
354.95641
354.96873
354.9857
355.00749
355.03442
355.06692
355.10555
355.15101
355.20412
355.26588
355.3374
355.41998
355.51505
355.62425
355.74937
355.89237
356.0554
356.24076
356.45093
356.68853
356.9563
357.25708
357.5938
357.9694
358.38675
358.84861
359.35772
359.91652
360.52714
361.1913
361.91025
362.68467
363.51452
364.39906
365.33667
366.32481
367.35997
368.43771
369.55134
355.89593
355.84168
355.79812
355.76406
355.73817
355.71938
355.70686
355.69996
355.69818
355.70119
355.7088
355.72094
355.73766
355.75915
355.78572
355.81778
355.85589
355.90074
355.95315
356.01408
356.08465
356.16613
356.25994
356.3677
356.49117
356.6323
356.79322
356.9762
357.1837
357.4183
357.68273
357.97982
358.31245
358.68355
359.09598
359.55241
360.05565
360.60811
361.2119
361.86876
362.57995
363.34612
364.16731
365.04276
365.97091
366.94926
367.97438
369.04184
370.14505
356.67861
356.62485
356.58162
356.54773
356.52189
356.50305
356.49039
356.48327
356.48123
356.48392
356.49115
356.50286
356.5191
356.54006
356.56602
356.59742
356.63479
356.6788
356.73028
356.79017
356.85956
356.93972
357.03205
357.13814
357.25974
357.39877
357.55733
357.73769
357.94226
358.17361
358.43444
358.72755
359.05579
359.42204
359.82913
360.27994
360.77703
361.32284
361.91948
362.56871
363.27177
364.02937
364.84155
365.70759
366.62597
367.59424
368.60904
369.66598
370.75857
357.49167
357.4381
357.39487
357.36082
357.3347
357.31548
357.30237
357.29474
357.29212
357.29418
357.30074
357.31173
357.32721
357.34736
357.37245
357.40292
357.43928
357.48221
357.5325
357.59109
357.65906
357.73764
357.82824
357.93241
358.05189
358.18857
358.34452
358.52199
358.72337
358.9512
359.20815
359.49698
359.82052
360.18158
360.58295
361.0279
361.51858
362.05742
362.6466
363.28786
363.98249
364.7312
365.53406
366.3904
367.29873
368.25667
369.26093
370.30717
371.389
358.33234
358.27857
358.23494
358.20035
358.17357
358.1536
358.13966
358.13114
358.12758
358.12867
358.13421
358.14415
358.15854
358.17755
358.20147
358.23069
358.26575
358.30729
358.35611
358.41311
358.47938
358.55611
358.6447
358.74668
358.86376
358.99781
359.15088
359.32518
359.52308
359.7471
359.99988
360.28414
360.6027
360.95837
361.35403
361.79251
362.27635
362.80791
363.3893
364.0223
364.7082
365.44774
366.24101
367.08739
367.98545
368.93286
369.92642
370.96184
372.03287
359.19713
359.1427
359.09822
359.06264
359.03474
359.01358
358.99838
358.98855
358.98364
358.98334
358.98748
358.99598
359.0089
359.02641
359.04878
359.07641
359.10982
359.14965
359.19666
359.25177
359.31601
359.39059
359.47686
359.57634
359.69072
359.82184
359.97173
360.14257
360.3367
360.55662
360.80492
361.08433
361.39761
361.7476
362.13716
362.56895
363.04565
363.56961
364.14293
364.76739
365.44428
366.17439
366.95785
367.79407
368.68167
369.61843
370.60118
371.62575
372.68599
360.08184
360.02622
359.98036
359.94326
359.91374
359.89087
359.87391
359.86228
359.85554
359.8534
359.85567
359.86229
359.87331
359.8889
359.90932
359.93497
359.96635
360.00408
360.04893
360.10177
360.16364
360.23572
360.31934
360.416
360.52735
360.65523
360.80162
360.96869
361.15874
361.37424
361.61777
361.89201
362.19973
362.54374
362.92685
363.35172
363.82099
364.33707
364.90205
365.5177
366.18536
366.90583
367.67928
368.50518
369.38223
370.30825
371.28017
372.29392
373.34349
360.98148
360.92406
360.87621
360.83698
360.80524
360.78009
360.7608
360.74682
360.73772
360.7332
360.73309
360.73733
360.74597
360.75917
360.77719
360.80041
360.82933
360.86455
360.90682
360.95701
361.01612
361.08533
361.16594
361.25941
361.3674
361.49168
361.63424
361.7972
361.98285
362.19362
362.43206
362.70084
363.0027
363.34043
363.71681
364.13449
364.59607
365.10399
365.66039
366.26702
366.92525
367.6359
368.39921
369.2147
370.08114
370.99642
371.95757
372.96063
373.99974
361.89021
361.83029
361.77976
361.73773
361.7031
361.67501
361.65276
361.6358
361.62372
361.61623
361.61317
361.61448
361.6202
361.63048
361.64559
361.6659
361.69187
361.72412
361.76337
361.81047
361.86642
361.93235
362.00954
362.09946
362.2037
362.32403
362.46241
362.62093
362.80184
363.00755
363.24059
363.5036
363.7993
364.13045
364.49982
364.9101
365.36371
365.86326
366.41086
367.00829
367.65693
368.35766
369.11074
369.91579
370.77162
371.67625
372.62677
373.61936
374.6483
362.8013
362.73809
362.68411
362.63852
362.60026
362.56851
362.54258
362.52195
362.50621
362.49511
362.48846
362.48622
362.48841
362.49521
362.50685
362.52369
362.54621
362.57498
362.61073
362.65427
362.70659
362.7688
362.84217
362.92811
363.02821
363.14422
363.27805
363.43177
363.6076
363.80793
364.03526
364.29219
364.58144
364.90573
365.2678
365.67035
366.11587
366.60688
367.14552
367.7336
368.37255
369.06327
369.80611
370.60074
371.44606
372.34018
373.2803
374.26273
375.28193
363.70713
363.63976
363.58147
363.53147
363.48876
363.45254
363.42215
363.39708
363.37696
363.36151
363.35058
363.34411
363.34213
363.3448
363.35236
363.36516
363.38365
363.4084
363.44011
363.4796
363.5278
363.58583
363.65492
363.73646
363.83202
363.9433
364.0722
364.22075
364.39116
364.58578
364.80708
365.05764
365.34014
365.65731
366.01182
366.40632
366.84367
367.326
367.85555
368.43419
369.06338
369.74409
370.47673
371.26103
372.096
372.97985
373.90989
374.88257
375.89252
364.59916
364.52667
364.46313
364.40781
364.35975
364.31818
364.28247
364.25214
364.22681
364.20624
364.19027
364.17883
364.17197
364.16984
364.17266
364.18077
364.19462
364.21477
364.24189
364.27677
364.32035
364.3737
364.43804
364.51473
364.60531
364.71146
364.83504
364.97806
365.1427
365.33127
365.54623
365.79014
366.06564
366.37544
366.72224
367.1087
367.5375
368.01098
368.53135
369.10049
369.71992
370.39066
371.11318
371.88732
372.71218
373.58606
374.50644
375.46985
376.47119
365.46796
365.38932
365.31951
365.25787
365.20348
365.15562
365.11367
365.07718
365.04578
365.01924
364.99741
364.98022
364.96772
364.96005
364.95742
364.96018
364.96875
364.98367
365.00559
365.03531
365.07372
365.12188
365.18097
365.25234
365.3375
365.4381
365.55597
365.69309
365.85161
366.03382
366.24214
366.47911
366.74736
367.04957
367.38846
367.76669
368.18687
368.65141
369.16253
369.72217
370.33188
370.99274
371.70532
372.46952
373.28457
374.14889
375.06007
376.01481
377.00823
366.3033
366.21738
366.14022
366.07119
366.00944
365.95427
365.9051
365.86149
365.8231
365.7897
365.76113
365.73736
365.71841
365.70442
365.69561
365.6923
365.69489
365.70393
365.72005
365.744
365.77668
365.8191
365.87245
365.93802
366.01731
366.11193
366.22369
366.35455
366.50661
366.68214
366.88354
367.11332
367.37409
367.66853
367.99935
368.36921
368.78067
369.23621
369.73809
370.28826
370.88834
371.53949
372.24233
372.99689
373.80249
374.6577
375.56024
376.50698
377.49326
367.09419
366.99983
366.91416
366.83662
366.76641
366.70286
366.64543
366.5937
366.54734
366.50613
366.46994
366.4387
366.41246
366.39135
366.37557
366.36544
366.36135
366.36383
366.37349
366.39107
366.41743
366.45358
366.50066
366.55996
366.63292
366.72115
366.82641
366.95064
367.09591
367.26447
367.45868
367.68103
367.93413
368.22064
368.54328
368.90476
369.30736
369.75385
370.2465
370.7873
371.37788
372.0195
372.71287
373.45813
374.25472
375.10133
375.99586
376.93531
377.91532
367.82909
367.72505
367.62968
367.54246
367.46266
367.38963
367.32286
367.26197
367.20663
367.15664
367.11186
367.07226
367.03785
367.00878
366.98523
366.96752
366.95603
366.95125
366.95379
366.96437
366.98383
367.01316
367.05345
367.10599
367.17218
367.2536
367.35198
367.46924
367.60741
367.76871
367.95549
368.17022
368.41547
368.69393
369.00837
369.36167
369.7551
370.1925
370.67598
371.2075
371.78877
372.42111
373.10532
373.84165
374.62968
375.46826
376.35543
377.28838
378.26301
368.49609
368.38112
368.27481
368.17672
368.08615
368.0025
367.92531
367.85418
367.78883
367.72906
367.67475
367.62585
367.5824
367.54451
367.51239
367.48631
367.46667
367.45394
367.44871
367.45167
367.46365
367.48559
367.5186
367.5639
367.62288
367.69709
367.78824
367.89819
368.02898
368.18278
368.36191
368.56883
368.8061
369.07638
369.38242
369.72703
370.11177
370.54024
371.01467
371.53708
372.10924
372.73256
373.40794
374.13576
374.91573
375.74686
376.62735
377.5546
378.52473
369.08319
368.95601
368.83752
368.72736
368.62485
368.52945
368.44072
368.35829
368.2819
368.21135
368.14654
368.08742
368.03403
367.98648
367.94497
367.90977
367.88125
367.85988
367.84622
367.84095
367.84487
367.85891
367.88413
367.92174
367.9731
368.03973
368.1233
368.22566
368.34879
368.49485
368.66615
368.86511
369.09428
369.35626
369.6536
369.9885
370.3656
370.78549
371.25104
371.76451
372.3278
372.94238
373.60929
374.32902
375.10142
375.92567
376.80016
377.72248
378.68898
369.57861
369.43797
369.3061
369.18267
369.06708
368.95881
368.85745
368.76267
368.67422
368.59192
368.51566
368.44542
368.38122
368.32319
368.2715
368.22642
368.18831
368.15762
368.13491
368.12082
368.11614
368.12176
368.13874
368.16824
368.2116
368.2703
368.34599
368.44048
368.55573
368.69387
368.85717
369.04805
369.26901
369.52265
369.81159
370.13846
370.50637
370.91747
371.37426
371.87899
372.43363
373.03977
373.69855
374.41058
375.1759
375.99382
376.86295
377.78104
378.74469
369.97126
369.81596
369.66953
369.5317
369.40192
369.2797
369.16468
369.05654
368.95506
368.86007
368.77147
368.68923
368.61341
368.54409
368.48147
368.4258
368.37743
368.3368
368.30444
368.28099
368.2672
368.26395
368.27225
368.29326
368.32828
368.37875
368.44629
368.53269
368.63987
368.76993
368.92511
369.10781
369.3205
369.56577
369.84624
370.16473
370.52394
370.92647
371.37466
371.87084
372.41706
373.01502
373.66598
374.37071
375.12937
375.94147
376.80578
377.72026
378.68161
370.25116
370.08009
369.91801
369.76472
369.61972
369.48257
369.35292
369.23049
369.11507
369.00652
368.90474
368.80972
368.72149
368.64017
368.56592
368.49902
368.43978
368.38863
368.34609
368.31278
368.28943
368.27689
368.27616
368.28835
368.31473
368.35672
368.41591
368.49403
368.593
368.71487
368.86186
369.03633
369.24074
369.47769
369.74984
370.05993
370.41064
370.80459
371.24428
371.73206
372.27006
372.86007
373.50349
374.20121
374.95358
375.76029
376.62028
377.53163
370.40999
370.22215
370.04347
369.87379
369.71265
369.55968
369.41455
369.277
369.14685
369.02396
368.90826
368.79974
368.69844
368.60446
368.51799
368.43927
368.36863
368.30646
368.25329
368.2097
368.17641
368.15425
368.14418
368.14728
368.1648
368.19812
368.2488
368.31853
368.40919
368.52281
368.66157
368.8278
369.02397
369.25265
369.5166
369.81865
370.16064
370.54607
370.97736
371.45688
371.98681
372.56904
373.2051
373.89605
374.64241
375.44405
376.30005
370.44167
370.23623
370.04013
369.85328
369.67526
369.50573
369.34439
369.19104
369.04548
368.90762
368.77738
368.65477
368.53983
368.43267
368.33347
368.24247
368.15998
368.08641
368.02223
367.96804
367.92452
367.89248
367.87284
367.86668
367.87518
367.89971
367.94178
368.00305
368.08537
368.19073
368.32128
368.47932
368.66729
368.88777
369.14357
369.43784
369.771
370.14799
370.57099
371.04233
371.56428
372.13883
372.76762
373.45189
374.19234
374.98912
370.34291
370.11924
369.90512
369.7005
369.50502
369.31837
369.1403
368.97061
368.80915
368.65582
368.51058
368.37344
368.24444
368.1237
368.0114
367.90777
367.81313
367.72786
367.65243
367.58741
367.53347
367.49139
367.46206
367.44652
367.44594
367.46163
367.49507
367.5479
367.6219
367.71904
367.84144
367.99136
368.17121
368.38347
368.6306
368.91482
369.24155
369.61077
370.02562
370.48883
371.0028
371.56965
372.19115
372.86867
373.60306
374.39443
370.11377
369.87148
369.63896
369.41622
369.20292
368.99881
368.80367
368.61731
368.43963
368.27054
368.11001
367.95806
367.81475
367.6802
367.55458
367.43813
367.33115
367.23403
367.14723
367.07128
367.00684
366.95467
366.91562
366.8907
366.88105
366.88795
366.91282
366.95727
367.02304
367.11206
367.22641
367.36832
367.54016
367.74441
367.98365
368.26057
368.57827
368.93904
369.34562
369.80066
370.3066
370.86564
371.47969
372.15025
372.87837
373.66425
369.7581
369.49707
369.24605
369.00507
368.77385
368.55217
368.33985
368.13674
367.94274
367.7578
367.5819
367.41506
367.25737
367.10894
366.96996
366.84065
366.72133
366.61236
366.51419
366.42735
366.35246
366.29026
366.24157
366.20737
366.18876
366.18698
366.20342
366.23963
366.29733
366.37838
366.48484
366.61888
366.78284
366.97917
367.21046
367.47945
367.78885
368.14133
368.53963
368.9864
369.48416
370.0352
370.64153
371.30479
372.02621
372.80621
369.28389
369.0043
368.73494
368.47589
368.22692
367.98783
367.75848
367.53876
367.32859
367.12794
366.93681
366.75523
366.58329
366.42113
366.26892
366.1269
365.99537
365.87471
365.76534
365.66778
365.58263
365.51058
365.45244
365.40915
365.38178
365.37153
365.37975
365.40794
365.45778
365.53108
365.62984
365.7562
365.91244
366.10098
366.32439
366.5854
366.88665
367.23087
367.62081
368.05919
368.54856
369.0913
369.68951
370.34501
371.05917
371.83262
368.70339
368.40572
368.11851
367.84185
367.57557
367.31951
367.07356
366.83765
366.61171
366.39574
366.18975
365.99379
365.80796
365.6324
365.46729
365.31288
365.16947
365.03743
364.91719
364.80924
364.71412
364.63252
364.56522
364.51313
364.47729
364.45886
364.45916
364.47963
364.52189
364.58771
364.67902
364.79793
364.94667
365.1276
365.34324
365.59634
365.88949
366.22542
366.60693
367.03674
367.51747
368.05154
368.64118
369.28833
369.99453
370.7606
368.03308
367.71812
367.41382
367.12032
366.83746
366.56516
366.30332
366.05189
365.81085
365.5802
365.35997
365.15022
364.95107
364.76265
364.58517
364.41887
364.26406
364.12113
363.99049
363.87259
363.76794
363.67718
363.60111
363.54061
363.4967
363.47048
363.46323
363.47634
363.51137
363.57005
363.65423
363.76598
363.90746
364.08101
364.28906
364.53436
364.81945
365.1471
365.5201
365.94119
366.413
366.93803
367.5186
368.15676
368.8542
369.61194
367.2931
366.96194
366.64165
366.33238
366.03404
365.74656
365.46985
365.2039
364.94869
364.70425
364.47062
364.24789
364.03618
363.83564
363.64649
363.46897
363.30342
363.15022
363.0098
362.88255
362.76884
362.66943
362.58509
362.51668
362.46516
362.43161
362.41727
362.42347
362.45172
362.50366
362.5811
362.68603
362.82061
362.98715
363.18797
363.42552
363.70256
364.02195
364.38643
364.79869
365.26135
365.77699
366.348
366.97654
367.66443
368.41274
366.50651
366.16055
365.82562
365.5019
365.18939
364.88801
364.5977
364.31845
364.05025
363.79313
363.54717
363.31247
363.08917
362.87745
362.67752
362.48965
362.31416
362.15146
362.00203
361.86627
361.74416
361.63675
361.54484
361.46924
361.41083
361.37065
361.34985
361.34973
361.37173
361.41743
361.48859
361.58713
361.71515
361.87493
362.06876
362.29885
362.56812
362.87943
363.23547
363.63885
364.09221
364.59816
365.15921
365.77765
366.45546
365.70112
365.34154
364.99324
364.65648
364.33118
364.01727