/*--------------------------------*- C++ -*----------------------------------*\
| =========                 |                                                 |
| \\      /  F ield         | OpenFOAM: The Open Source CFD Toolbox           |
|  \\    /   O peration     | Version:  2312                                  |
|   \\  /    A nd           | Website:  www.openfoam.com                      |
|    \\/     M anipulation  |                                                 |
\*---------------------------------------------------------------------------*/
FoamFile
{
    version     2.0;
    format      ascii;
    arch        "LSB;label=32;scalar=64";
    class       volScalarField;
    location    "0.01";
    object      T;
}
// * * * * * * * * * * * * * * * * * * * * * * * * * * * * * * * * * * * * * //

dimensions      [0 0 0 1 0 0 0];

internalField   nonuniform List<scalar> 
3251
(
953.10294
952.97081
952.83948
952.7078
952.57588
952.44371
952.31123
952.17821
952.04432
951.90904
951.77169
951.63142
951.48715
951.33761
951.18127
951.01634
950.84072
950.652
950.44739
950.2237
949.9773
949.70405
949.39928
949.05771
948.67343
948.23979
947.74939
947.194
946.56451
945.85087
945.04203
944.12586
943.08919
941.91771
940.59595
939.10731
937.43405
935.5573
933.45709
931.11249
928.50161
925.60178
922.38967
918.84142
914.93283
910.64165
905.94023
900.80639
895.21749
889.15144
882.58729
875.50091
867.8674
859.68074
850.93677
841.62878
831.75246
821.30848
953.004
952.87215
952.74075
952.60862
952.47616
952.34346
952.21043
952.07686
951.94242
951.80659
951.66869
951.52787
951.38306
951.23299
951.07611
950.91065
950.73451
950.54527
950.34015
950.11597
949.86908
949.59535
949.29011
948.94809
948.56337
948.12931
947.63852
947.08275
946.4529
945.73892
944.92978
944.01335
942.97646
941.80479
940.48289
938.99417
937.32089
935.44417
933.34407
930.99965
928.38902
925.48953
922.27784
918.73009
914.82208
910.53149
905.83062
900.69741
895.10908
889.04349
882.47947
875.39375
867.76502
859.58453
850.84578
841.54211
831.66889
821.22668
952.81235
952.6802
952.54833
952.41539
952.28206
952.14847
952.01454
951.88009
951.74478
951.60808
951.46934
951.3277
951.18208
951.0312
950.87356
950.70734
950.53047
950.34052
950.13472
949.90987
949.66235
949.38802
949.08221
948.73965
948.35443
947.91991
947.42869
946.87256
946.24241
945.52816
944.71882
943.80227
942.76533
941.5937
940.27194
938.78346
937.11052
935.23426
933.13476
930.79107
928.18133
925.28287
922.07237
918.52599
914.61949
910.33054
905.63133
900.50007
894.91375
888.85022
882.28821
875.20557
867.58302
859.40992
850.6783
841.38115
831.51339
821.077
952.52786
952.39488
952.26206
952.12796
951.99338
951.85854
951.72338
951.58771
951.45119
951.31333
951.17345
951.03069
950.88399
950.73207
950.57341
950.40621
950.2284
950.03754
949.83087
949.60521
949.3569
949.08184
948.77535
948.43217
948.04638
947.61136
947.11972
946.56323
945.9328
945.21838
944.40894
943.49241
942.45561
941.28424
939.96288
938.47496
936.80273
934.92737
932.82896
930.48655
927.87831
924.98158
921.77306
918.22889
914.32485
910.03858
905.34219
900.21416
894.63129
888.57144
882.01337
874.93599
867.32108
859.15681
850.43418
841.14572
831.28605
820.8608
952.15063
952.01627
951.88203
951.74636
951.61018
951.47372
951.33698
951.19975
951.06172
950.92238
950.78106
950.63691
950.48886
950.33564
950.17572
950.00732
949.82835
949.6364
949.42868
949.20203
948.95281
948.67689
948.36962
948.02573
947.63932
947.20375
946.71166
946.15483
945.52417
944.80965
944.00021
943.08386
942.04738
940.87652
939.55584
938.06879
936.39767
934.52364
932.4268
930.08625
927.48014
924.58586
921.38009
917.83902
913.9384
909.65585
904.96343
899.83997
894.262
888.20745
881.65525
874.58507
866.97936
858.82552
850.11376
840.83608
830.98668
951.70758
951.57142
951.4354
951.29788
951.15983
951.02152
950.88295
950.74395
950.60418
950.46316
950.3202
950.17447
950.02489
949.8702
949.70888
949.53913
949.35888
949.16571
948.95685
948.72912
948.47889
948.20206
947.89395
947.54932
947.16225
946.72615
946.23363
945.6765
945.04566
944.3311
943.52179
942.60575
941.56977
940.39959
939.07982
937.59392
935.9242
934.05184
931.95698
929.61871
927.01523
924.12392
920.92151
917.38418
913.48772
909.20969
904.52206
899.4042
893.83223
887.7842
881.2393
874.17767
866.58219
858.43976
849.74006
840.4744
830.63533
951.21188
951.07359
950.9355
950.79589
950.65576
950.51539
950.37481
950.23384
950.09217
949.94929
949.80455
949.65708
949.50585
949.34956
949.1867
949.01549
948.83385
948.63937
948.42928
948.2004
947.94911
947.6713
947.36232
947.01691
946.62919
946.19254
945.69961
945.1422
944.51124
943.79671
942.9876
942.07199
941.03663
939.8673
938.54863
937.06409
935.39601
933.52561
931.43303
929.0974
926.49693
923.60903
920.41045
916.87741
912.98568
908.71283
904.03079
898.91901
893.35411
887.31354
880.77702
873.72499
866.14058
858.01042
849.3237
840.07116
830.24522
950.62445
950.48354
950.34293
950.20084
950.05824
949.91546
949.77251
949.62925
949.48534
949.3403
949.19347
949.044
948.89083
948.73269
948.56806
948.39516
948.21192
948.01593
947.80442
947.57423
947.32173
947.04282
946.73285
946.38659
945.99814
945.56091
945.06755
944.50988
943.87883
943.16442
942.35558
941.44057
940.40603
939.23778
937.92048
936.43762
934.77156
932.90356
930.81376
928.48133
925.88451
923.00073
919.80678
916.27889
912.39287
908.12627
903.45107
898.34628
892.79015
886.75852
880.2321
873.19144
865.61984
857.50378
848.83201
839.59515
829.78731
949.9382
949.79416
949.65057
949.50556
949.36009
949.2145
949.06881
948.92289
948.7764
948.62887
948.47963
948.32784
948.17245
948.01218
947.84552
947.6707
947.48563
947.28792
947.07481
946.84312
946.58926
946.30911
945.99805
945.65084
945.2616
944.82374
944.32994
943.77202
943.14094
942.42672
941.61841
940.70404
939.6705
938.50358
937.18794
935.70712
934.04351
932.17836
930.09189
927.76327
925.17079
922.2919
919.10343
915.58165
911.70239
907.4432
902.77615
897.67989
892.13334
886.11268
879.59819
872.57077
865.01387
856.9139
848.25915
839.04078
949.14554
948.99786
948.85078
948.70238
948.5536
948.40478
948.25595
948.10697
947.95753
947.80715
947.65517
947.50074
947.34281
947.18012
947.01115
946.83414
946.647
946.44735
946.23243
945.99907
945.74367
945.46215
945.14987
944.80161
944.4115
943.97298
943.47872
942.92057
942.28951
941.57558
940.76776
939.85436
938.82205
937.65673
936.34309
934.8647
933.20396
931.3422
929.25963
926.9355
924.34809
921.47493
918.29286
914.77821
910.90685
906.65631
901.99878
896.91283
891.37659
885.36915
878.86852
871.85631
864.3161
856.23437
847.59867
838.40117
948.23835
948.08648
947.93538
947.7831
947.63054
947.47803
947.32562
947.17318
947.02038
946.86677
946.71167
946.55425
946.39346
946.22803
946.05646
945.87698
945.68751
945.48568
945.26872
945.03349
944.77639
944.49333
944.1797
943.8303
943.43925
943.00003
942.5053
941.94695
941.31597
940.60243
939.79554
938.88301
937.85216
936.68873
935.37744
933.90189
932.24453
930.3867
928.30868
925.98973
923.40822
920.54168
917.36701
913.8606
909.99835
905.75782
901.11127
896.03736
890.51356
884.51953
878.03584
871.04092
863.51947
855.45834
846.84375
947.20796
947.05132
946.89565
946.73894
946.58209
946.42541
946.26895
946.11259
945.95602
945.79876
945.64015
945.47937
945.31536
945.14686
944.97237
944.79012
944.59805
944.39377
944.17455
943.93724
943.67824
943.39349
943.07838
942.72772
942.33567
941.89568
941.40048
940.84195
940.21112
939.49809
938.69202
937.78083
936.75171
935.5905
934.28195
932.80969
931.15622
929.30293
927.23014
924.91717
922.34241
919.48346
916.31728
912.8203
908.96848
904.73938
900.1054
895.04523
889.53639
883.55757
877.09083
870.11698
862.61638
854.57861
845.98681
946.0451
945.88306
945.72223
945.56053
945.39883
945.23746
945.07646
944.9157
944.75489
944.59354
944.43101
944.26646
944.09885
943.92692
943.74917
943.56384
943.36887
943.16189
942.94015
942.70053
942.43944
942.15283
941.8361
941.48407
941.09092
940.65014
940.15446
939.59578
938.96518
938.25276
937.44771
936.53806
935.51097
934.35232
933.04693
931.57846
929.92945
928.08136
926.01454
923.70838
921.14132
918.29102
915.13448
911.64821
907.80825
903.59214
898.9724
893.92781
888.43596
882.47562
876.02742
869.07405
861.59854
853.58784
944.73985
944.57177
944.40513
944.23783
944.07071
943.90408
943.738
943.57234
943.40679
943.24089
943.07399
942.90525
942.73363
942.55788
942.37651
942.18776
941.98958
941.77959
941.55508
941.31291
941.04952
940.76087
940.44236
940.08885
939.69454
939.25291
938.75674
938.19797
937.56767
936.85601
936.05218
935.14429
934.11954
932.96386
931.66208
930.19792
928.554
926.71181
924.65178
922.35334
919.79499
916.95446
913.80883
910.33466
906.50807
902.30662
897.70295
892.67589
887.2031
881.26341
874.83739
867.90759
860.45786
852.47435
943.28162
943.1068
942.93367
942.76013
942.58696
942.41449
942.24275
942.07163
941.90083
941.72987
941.55811
941.38472
941.20867
941.0287
940.84332
940.65079
940.44906
940.23577
940.0082
939.76323
939.49732
939.20643
938.886
938.53089
938.13531
937.69281
937.19615
936.63732
936.00743
935.29668
934.49427
933.5884
932.56636
931.41405
930.11638
928.65713
927.01896
925.18344
923.13106
920.84132
918.29279
915.46326
912.32987
908.8693
905.05772
900.87272
896.28706
891.27964
885.82815
879.91141
873.5099
866.60613
859.18485
941.65908
941.47677
941.29645
941.11597
940.93609
940.75712
940.57913
940.40196
940.22534
940.04879
939.87167
939.69315
939.5122
939.32757
939.13778
938.94109
938.73545
938.51853
938.2876
938.03957
937.77091
937.47758
937.15506
936.79823
936.40131
935.95788
935.46075
934.90192
934.27255
933.56286
932.7621
931.8585
930.83958
929.69112
928.3981
926.94438
925.3127
923.48468
921.44089
919.1609
916.62337
913.80616
910.68649
907.24111
903.44631
899.27968
894.71413
889.7286
884.30081
878.4095
872.03499
865.15971
857.76978
939.86013
939.66956
939.48127
939.29311
939.10581
938.91968
938.73476
938.55093
938.3679
938.18519
938.00216
937.81799
937.63165
937.4419
937.24726
937.046
936.83609
936.61519
936.38059
936.12922
935.85755
935.56159
935.23681
934.87812
934.47978
934.03539
933.53779
932.97903
932.3503
931.64187
930.843
929.94187
928.9266
927.7825
926.49472
925.04721
923.4228
921.60318
919.569
917.29992
914.77467
911.9712
908.86681
905.43836
901.66223
897.51604
892.97285
888.01164
882.61014
876.74695
870.40206
863.55781
937.87185
937.67218
937.47511
937.27848
937.083
936.88898
936.69646
936.5053
936.31522
936.12574
935.93622
935.74586
935.55361
935.35825
935.15831
934.95205
934.73746
934.51221
934.27362
934.01861
933.74368
933.44486
933.11765
932.75697
932.35712
931.91174
931.4137
930.85509
930.22714
929.52017
928.72348
927.8249
926.814
925.67479
924.39289
922.95234
921.33604
919.5258
917.50234
915.2454
912.73381
909.94561
906.85821
903.44854
899.6931
895.56958
891.05116
886.1169
880.74451
874.91236
868.59992
861.78938
935.68045
935.47079
935.26407
935.05814
934.85368
934.651
934.45013
934.25094
934.05313
933.85624
933.65963
933.46248
933.26377
933.06228
932.85654
932.64483
932.42515
932.19517
931.95224
931.69328
931.41483
931.11292
930.78309
930.42029
930.01886
929.57245
929.074
928.51563
927.88863
927.18338
926.38927
925.49458
924.48758
923.35376
922.0784
920.64561
919.03837
917.23855
915.22699
912.98353
910.4871
907.71583
904.64724
901.25835
897.52577
893.42729
888.93625
884.03176
878.69154
872.89367
866.61687
859.84471
933.27119
933.05062
932.83331
932.61719
932.4029
932.19074
931.98075
931.77277
931.56653
931.36154
931.15718
930.95264
930.74689
930.53872
930.32667
930.10903
929.88381
929.6487
929.40105
929.13783
928.85556
928.55034
928.2177
927.85265
927.44955
927.00211
926.50328
925.94527
925.3194
924.61613
923.82502
922.9352
921.93208
920.80421
919.53615
918.11199
916.5148
914.72655
912.72818
910.49964
908.01997
905.26742
902.21959
898.85363
895.14624
891.07536
886.61446
881.74277
876.43809
870.67816
864.44083
857.71214
930.62837
930.39593
930.16705
929.93979
929.71477
929.49227
929.27232
929.05477
928.83933
928.62552
928.41273
928.20014
927.98673
927.7713
927.5524
927.32832
927.09709
926.85643
926.60368
926.33585
926.04949
925.74071
925.40508
925.03764
924.6328
924.1843
923.68516
923.12762
922.5031
921.80211
921.01427
920.12837
919.13108
918.00997
916.75005
915.33547
913.74941
911.97396
909.99018
907.77812
905.31695
902.58502
899.56007
896.21934
892.53965
888.49908
884.07128
879.23562
873.97015
868.25235
862.05871
927.73525
927.48998
927.24845
927.00904
926.77234
926.53859
926.30781
926.07985
925.85441
925.63103
925.40907
925.18774
924.96602
924.74272
924.51639
924.28535
924.04763
923.80096
923.54273
923.26993
922.97918
922.66658
922.32777
921.95781
921.55115
921.1016
920.60222
920.04532
919.42236
918.72396
917.93978
917.05852
916.06736
914.9539
913.70303
912.29907
910.72532
908.96401
906.99631
904.80241
902.3616
899.65236
896.65255
893.33953
889.69022
885.68286
881.29126
876.49501
871.27276
865.60222
859.45726
924.57394
924.31492
924.05961
923.80701
923.55762
923.31165
923.06912
922.82986
922.59358
922.35982
922.12794
921.89714
921.66643
921.43462
921.20026
920.9617
920.71698
920.46384
920.1997
919.92158
919.62611
919.30945
918.96727
918.59466
918.18613
917.73553
917.23599
916.67989
916.05877
915.36331
914.58322
913.7072
912.72255
911.61781
910.37701
908.98479
907.42463
905.67889
903.72888
901.55495
899.13651
896.45218
893.47995
890.19729
886.58123
882.61016
878.25802
873.50467
868.32999
921.12543
920.85176
920.58151
920.31462
920.0515
919.7923
919.53704
919.28556
919.03756
918.79256
918.54995
918.30893
918.06852
917.82751
917.5845
917.33784
917.08558
916.82549
916.55501
916.2712
915.9707
915.64972
915.30396
914.92858
914.51813
914.06651
913.56693
913.01183
912.39284
911.7007
910.92523
910.0551
909.07704
907.98255
906.75287
905.37358
903.82837
902.09976
900.1692
898.01718
895.62327
892.96624
890.0242
886.77474
883.19501
879.26352
874.95425
870.24733
917.36965
917.08023
916.794
916.5117
916.23373
915.96026
915.69126
915.42658
915.16591
914.9088
914.65462
914.40258
914.1517
913.9008
913.64849
913.39311
913.13276
912.86523
912.58797
912.29807
911.99222
911.66666
911.31714
910.93887
910.52645
910.07386
909.57437
909.02051
908.40397
907.71561
906.94535
906.08214
905.11471
904.02821
902.81045
901.44535
899.91656
898.20674
896.29751
894.1695
891.80244
889.17526
886.26622
883.05303
879.51293
875.62453
871.36174
866.70522
913.60052
913.28675
912.9793
912.67581
912.37691
912.08295
911.79408
911.51027
911.23138
910.95708
910.68692
910.42029
910.1564
909.89428
909.63276
909.37045
909.10574
908.83673
908.56122
908.27672
907.98034
907.66882
907.33842
906.98496
906.60368
906.18928
905.73578
905.23654
904.68417
904.07047
903.38638
902.62198
901.76644
900.8084
899.73301
898.52842
897.17889
895.66813
893.9789
892.09301
889.99125
887.65353
885.05896
882.18593
879.01228
875.51537
871.67386
867.46151
862.86004
909.18762
908.85338
908.52656
908.20453
907.88777
907.57662
907.27119
906.97147
906.67729
906.38834
906.10418
905.82418
905.54757
905.27339
905.00049
904.72749
904.45279
904.17452
903.89052
903.59832
903.29506
902.97752
902.64204
902.28445
901.90008
901.48368
901.02937
900.53057
899.97999
899.36954
898.69028
897.9324
897.08521
896.13711
895.07423
893.88435
892.55196
891.06094
889.39424
887.53385
885.46076
883.15506
880.59602
877.76222
874.63164
871.18177
867.39133
863.23409
858.69265
904.40132
904.04591
903.69848
903.35658
903.02067
902.69106
902.36787
902.05108
901.74051
901.43587
901.13669
900.84238
900.55216
900.26508
899.98001
899.69559
899.41024
899.12211
898.82908
898.52869
898.21815
897.89428
897.55344
897.19157
896.80403
896.38565
895.93064
895.43251
894.88406
894.27732
893.60348
892.85284
892.01481
891.07767
890.02818
888.85477
887.54126
886.07185
884.42976
882.59719
880.55534
878.2845
875.76415
872.97304
869.88931
866.49059
862.75575
858.65872
854.18263
899.21791
898.83989
898.47045
898.1073
897.75089
897.40153
897.05934
896.72427
896.39618
896.07474
895.75952
895.44991
895.14516
894.84432
894.54627
894.24968
893.95299
893.65439
893.35177
893.04273
892.72451
892.39397
892.04756
891.68124
891.29047
890.87016
890.41459
889.91739
889.37147
888.76896
888.10118
887.35857
886.53061
885.60552
884.56967
883.41527
882.12254
880.67674
879.06148
877.2592
875.25134
873.01842
870.5401
867.79536
864.76251
861.41937
857.74494
853.71351
849.30844
893.61208
893.20977
892.81683
892.43098
892.05269
891.68224
891.31975
890.96519
890.61839
890.27904
889.94671
889.6208
889.30057
888.98508
888.67323
888.36372
888.05501
887.7453
887.43255
887.11437
886.78807
886.45056
886.09834
885.72744
885.33341
884.91124
884.4553
883.95934
883.41637
882.81866
882.15767
881.42397
880.60715
879.69555
878.67493
877.54098
876.27075
874.85063
873.26455
871.4952
869.52426
867.33247
864.89976
862.20529
859.22761
855.94476
852.33579
848.37559
844.04753
887.55733
887.12907
886.71105
886.30102
885.8994
885.50649
885.12239
884.74706
884.38036
884.02196
883.67143
883.3282
882.99152
882.66048
882.33401
882.0108
881.68936
881.36794
881.04449
880.71672
880.38195
880.03716
879.67892
879.30334
878.90605
878.48212
878.02604
877.53166
876.99213
876.39986
875.74645
875.02263
874.21826
873.32246
872.32577
871.20689
869.96015
868.56778
867.01335
865.27972
863.34879
861.20158
858.81824
856.17819
853.26024
850.04275
846.5043
842.62132
838.37654
881.02634
880.57044
880.12574
879.69
879.26359
878.84681
878.43976
878.0424
877.65456
877.27595
876.90613
876.54453
876.19044
875.84295
875.501
875.16334
874.82848
874.4947
874.16004
873.8222
873.47859
873.12625
872.76181
872.38147
871.98094
871.5554
871.09944
870.60705
870.07151
869.48537
868.84041
868.12755
867.33687
866.45776
865.47905
864.38466
863.1641
861.80183
860.28168
858.58671
856.69908
854.60005
852.27007
849.6888
846.83535
843.68834
840.22618
836.42644
832.27148
873.99113
873.50591
873.03292
872.56992
872.11725
871.67519
871.24383
870.82313
870.41294
870.01294
869.62273
869.24174
868.86925
868.50441
868.14616
867.79327
867.4443
867.09758
866.75116
866.40282
866.05003
865.68988
865.31909
864.93394
864.53024
864.10327
863.64777
863.15782
862.62688
862.04764
861.41206
860.71128
859.93561
859.07455
858.11658
857.0476
855.85564
854.52601
853.04293
851.38973
849.54884
847.5018
845.22934
842.71143
839.92745
836.85629
833.47645
829.76624
825.70789
866.42338
865.90716
865.40427
864.91246
864.43206
863.9633
863.50628
863.06096
862.62718
862.20465
861.79295
861.39152
860.99969
860.61659
860.24122
859.87237
859.50863
859.14837
858.7897
858.43045
858.06815
857.69998
857.32272
856.93276
856.526
856.09786
855.64318
855.1562
854.63051
854.05901
853.43383
852.74632
851.98701
851.14555
850.21046
849.16866
848.00775
846.71346
845.2704
843.66223
841.87168
839.8806
837.67003
835.22025
832.51092
829.52122
826.22989
822.61576
818.66106
858.29471
857.74585
857.21147
856.68933
856.17972
855.68287
855.19887
854.72766
854.26909
853.82288
853.38861
852.96575
852.55363
852.15143
851.75814
851.37261
850.99346
850.61911
850.24772
849.87719
849.50511
849.12873
848.74494
848.35022
847.94057
847.51154
847.05811
846.57467
846.05499
845.49213
844.87843
844.20546
843.46396
842.64376
841.73358
840.72089
839.5937
838.33758
836.93764
835.37791
833.64145
831.71046
829.56629
827.18957
824.56028
821.65788
818.4614
814.95013
811.10634
849.5771
848.99402
848.42659
847.87264
847.33242
846.80612
846.29384
845.79551
845.31099
844.84
844.38213
843.93688
843.50358
843.08143
842.66948
842.2666
841.87145
841.48251
841.09799
840.71585
840.33376
839.94905
839.55871
839.15932
838.74702
838.31746
837.86578
837.38653
836.87365
836.32041
835.71934
835.06224
834.34009
833.54292
832.65968
831.67748
830.58746
829.37249
828.01888
826.51112
824.83265
822.96601
820.89291
818.59433
816.0506
813.24149
810.14637
806.74492
803.01951
840.24344
839.6246
839.02267
838.43549
837.8633
837.30627
836.76448
836.23787
835.7263
835.22948
834.74705
834.27849
833.82317
833.38032
832.94902
832.52817
832.1165
831.71251
831.3145
830.92048
830.52822
830.13513
829.73829
829.33441
828.91973
828.49007
828.04071
827.56636
827.06116
826.51858
825.93137
825.29157
824.59038
823.81815
822.96419
822.01631
820.96464
819.79363
818.48963
817.03747
815.42096
813.62302
811.62577
809.41053
806.95799
804.24831
801.26117
797.97661
794.37719
830.26807
829.61207
828.97426
828.35256
827.74714
827.15818
826.58574
826.02978
825.49014
824.96656
824.45867
823.96598
823.48789
823.02365
822.57239
822.13304
821.70438
821.28498
820.87319
820.46712
820.06459
819.66313
819.25992
818.85178
818.4351
818.00584
817.55943
817.09078
816.59421
816.0634
815.49135
814.87033
814.19183
813.44649
812.62423
811.71535
810.70255
809.57829
808.32724
806.93437
805.38387
803.65908
801.74249
799.61584
797.26023
794.65617
791.78375
788.6231
785.1574
819.6276
818.93317
818.25826
817.60085
816.96109
816.33914
815.73505
815.14878
814.58018
814.02899
813.49486
812.97733
812.47582
811.98962
811.51788
811.05959
810.61359
810.17851
809.75276
809.33453
808.92173
808.512
808.10263
807.69056
807.27233
806.84403
806.40129
805.9392
805.45228
804.93444
804.37891
803.77824
803.12418
802.40769
801.61893
800.74728
799.78036
798.70639
797.51171
796.18185
794.70144
793.05423
791.22316
789.19038
786.93741
784.44515
781.69409
778.66461
775.34028
808.3017
807.56778
806.85473
806.16062
805.48557
804.82973
804.19315
803.57577
802.97746
802.39797
801.83697
801.29403
800.76858
800.25996
799.76737
799.28984
798.82626
798.37533
797.93554
797.50516
797.0822
796.6644
796.24917
795.83359
795.41433
794.98767
794.54939
794.0948
793.61862
793.11499
792.57742
791.99871
791.37092
790.68534
789.93244
789.10185
788.18225
787.16153
786.0266
784.76344
783.35715
781.79193
780.05117
778.11747
775.97278
773.59843
770.97531
768.08414
764.90876
796.27421
795.49997
794.74796
794.01638
793.30532
792.6149
791.94518
791.2961
790.66752
790.05923
789.47091
788.90214
788.35241
787.82108
787.3074
786.81045
786.3292
785.8624
785.40862
784.96623
784.53334
784.10778
783.68711
783.26853
782.84889
782.4246
781.99167
781.54558
781.08129
780.5932
780.07506
779.51997
778.9203
778.26768
777.55291
776.76599
775.89632
774.93186
773.85998
772.66715
771.33892
769.85998
768.2142
766.38466
764.35374
762.10324
759.61446
756.86852
753.84948
783.5342
782.7191
781.92763
781.15809
780.41055
779.68512
778.98186
778.30071
777.64155
777.00416
776.38827
775.79349
775.21932
774.66518
774.13036
773.61402
773.11516
772.63262
772.16507
771.71095
771.26848
770.83561
770.41003
769.98909
769.56978
769.14871
768.72207
768.28557
767.83439
767.36319
766.86599
766.3362
765.76651
765.14886
764.47431
763.7329
762.91643
762.01127
761.00564
759.8866
758.64021
757.25167
755.70533
753.98477
752.07287
749.95189
747.60356
745.00945
742.15383
770.07736
769.22123
768.39011
767.58243
766.79827
766.03771
765.30081
764.58751
763.89771
763.23122
762.58777
761.96701
761.36849
760.79166
760.23588
759.70035
759.18415
758.6862
758.20525
757.73984
757.2883
756.84871
756.41888
755.99631
755.57818
755.16126
754.74195
754.31616
753.87936
753.42643
752.9517
752.44889
751.91099
751.33025
750.69751
749.99917
749.24316
748.40064
747.46431
746.42232
745.26131
743.967
742.52426
740.91719
739.12917
737.14297
734.9408
732.50465
729.81905
755.90738
755.01044
754.13989
753.29431
752.47374
751.67829
750.90799
750.1628
749.44263
748.74732
748.07661
747.4302
746.80768
746.20855
745.63221
745.07794
744.54489
744.03206
743.53828
743.06221
742.60228
742.15671
741.72343
741.30011
740.88409
740.47233
740.06145
739.64758
739.22642
738.79316
738.34241
737.86819
737.36387
736.82201
736.23384
735.58585
734.88747
734.10944
733.24509
732.28309
731.21066
730.01405
728.67866
727.18913
725.52939
723.68271
721.63181
719.35917
716.84959
741.03752
740.10049
739.19118
738.30836
737.45204
736.62234
735.81927
735.04283
734.29293
733.56943
732.87211
732.20069
731.55483
730.93406
730.33785
729.76555
729.21638
728.68942
728.1836
727.69769
727.23023
726.77957
726.34379
725.92071
725.50784
725.10236
724.70106
724.30033
723.89612
723.48389
723.05856
722.61449
722.1454
721.64438
721.10435
720.52365
719.87018
719.15709
718.36689
717.48746
716.50639
715.41047
714.18565
712.81715
711.28944
709.58634
707.69112
705.58673
703.25836
725.49223
724.51635
723.56948
722.65057
721.75964
720.89678
720.06203
719.2554
718.4768
717.72613
717.00321
716.30779
715.63958
714.99817
714.38308
713.79374
713.22944
712.68937
712.17254
711.67782
711.20388
710.74921
710.31202
709.8903
709.48174
709.08369
708.69319
708.30684
707.92087
707.53099
707.13244
706.71992
706.28752
705.82873
705.33649
704.80344
704.21808
703.57381
702.85991
702.06519
701.17774
700.18492
699.07326
697.82855
696.43584
694.87955
693.14351
691.21122
689.06829
709.30885
708.29594
707.31326
706.35996
705.43606
704.54166
703.6768
702.84148
702.03567
701.25929
700.51218
699.79416
699.10496
698.44424
697.8116
697.20652
696.62839
696.07647
695.54989
695.04763
694.56847
694.11102
693.67367
693.25456
692.85154
692.46219
692.08372
691.71301
691.34651
690.98023
690.60972
690.22999
689.83554
689.42034
688.97815
688.50285
687.97825
687.40339
686.76725
686.05879
685.2666
684.37858
683.38188
682.26289
681.00726
679.6
678.02555
676.26804
674.31378
692.53916
691.49168
690.47556
689.49015
688.5355
687.6117
686.7188
685.85682
685.02576
684.22557
683.45612
682.71729
682.00885
681.33054
680.68201
680.06282
679.47244
678.91023
678.37541
677.86708
677.38414
676.92535
676.48922
676.07406
675.67792
675.29855
674.93339
674.57953
674.2337
673.89217
673.5508
673.20493
672.84939
672.4785
672.08598
671.66481
671.20653
670.70337
670.14617
669.52492
668.82888
668.04658
667.16576
666.17344
665.05589
663.79874
662.38706
660.80566
675.25096
674.17199
673.12542
672.1108
671.12819
670.17768
669.25936
668.37326
667.5194
666.69775
665.90827
665.15085
664.42532
663.7315
663.06909
662.43773
661.83699
661.26631
660.72502
660.21232
659.72725
659.26868
658.83529
658.42554
658.03766
657.66959
657.31898
656.98316
656.6591
656.34336
656.03207
655.72092
655.40508
655.07916
654.73691
654.36976
653.97881
653.54763
653.06959
652.53568
651.93584
651.25923
650.49422
649.62845
648.64883
647.54163
646.29282
657.52923
656.42255
655.34914
654.30879
653.30159
652.32765
651.38705
650.47986
649.60613
648.76588
647.95909
647.18571
646.44565
645.73876
645.06482
644.42357
643.81464
643.23758
642.69181
642.17664
641.69124
641.23462
640.80559
640.40279
640.02459
639.66914
639.3343
639.01763
638.71632
638.42723
638.14677
637.87095
637.59528
637.31471
637.02274
636.70528
636.38563
636.02623
635.62677
635.17948
634.67498
634.10304
633.45269
632.71219
631.86909
630.91035
639.47716
638.34713
637.2511
636.18911
635.16125
634.16766
633.20844
632.2837
631.3935
630.53792
629.71698
628.93069
628.179
627.46183
626.77906
626.13047
625.51579
624.93466
624.38661
623.87105
623.38728
622.93443
622.51146
622.11716
621.75008
621.40855
621.09062
620.79408
620.51638
620.2546
620.00546
619.76528
619.52996
619.2951
619.05684
618.81842
618.53938
618.24679
617.92405
617.56172
617.15071
616.68138
616.14338
615.52565
614.8165
614.0042
621.21659
620.06816
618.95428
617.87523
616.83114
615.82217
614.84846
613.91013
613.0073
612.14006
611.3085
610.51268
609.7526
609.02826
608.3396
607.68648
607.06871
606.48602
605.93805
605.42431
604.94422
604.49703
604.08186
603.69762
603.34306
603.01667
602.7167
602.44115
602.18767
601.95364
601.73603
601.53143
601.33607
601.14576
600.95605
600.76222
600.55559
600.33226
600.08464
599.80485
599.48452
599.11463
598.68548
598.18667
597.60717
596.93594
602.88803
601.7266
600.60008
599.50898
598.45351
597.43383
596.45013
595.50256
594.59125
593.71637
592.87803
592.07634
591.31138
590.5832
589.89181
589.23714
588.61911
588.03751
587.49207
586.98242
586.50809
586.06847
585.6628
585.29017
584.94944
584.63931
584.3582
584.10429
583.87548
583.66935
583.48315
583.31374
583.15761
583.0109
582.86939
582.72833
582.58196
582.4243
582.24875
582.04812
581.81467
581.53997
581.21496
580.82988
580.37437
579.83785
584.65003
583.48134
582.3477
581.24986
580.18811
579.16269
578.1738
577.22157
576.30621
575.42789
574.58681
573.78312
573.01695
572.28842
571.59758
570.94447
570.32905
569.75122
569.21079
568.70749
568.24096
567.81075
567.41623
567.05663
566.73097
566.43806
566.17652
565.94471
565.74074
565.56241
565.40719
565.27219
565.15417
565.04956
564.95453
564.86476
564.77502
564.67957
564.5723
564.44661
564.29529
564.11051
563.88382
563.60609
563.26758
562.85816
566.67806
565.508
564.37289
563.2737
562.21087
561.18486
560.19578
559.24359
558.32866
557.45125
556.61155
555.80979
555.04613
554.32074
553.63377
552.98529
552.37535
551.80391
551.27085
550.77602
550.31921
549.90014
549.51831
549.17306
548.86352
548.58863
548.34716
548.13767
547.95844
547.8075
547.68254
547.58088
547.49947
547.43504
547.38411
547.34282
547.30623
547.26902
547.22557
547.16979
547.09502
546.99397
546.85876
546.68089
546.45121
546.16005
549.17285
548.00587
546.87329
545.77619
544.71551
543.69232
542.70672
541.75894
540.84888
539.97663
539.1424
538.34641
537.58889
536.87006
536.19012
535.54924
534.94748
534.38486
533.86129
533.37673
532.93134
532.52499
532.15729
531.82765
531.53513
531.27878
531.05762
530.87037
530.7155
530.59125
530.49553
530.4259
530.37923
530.35277
530.34319
530.34696
530.35948
530.37594
530.39121
530.39966
530.39511
530.37082
530.31942
530.23299
530.103
529.92008
532.34951
531.19738
530.07887
528.99407
527.94003
526.92474
525.94694
525.00646
524.10343
523.2381
522.41074
521.62169
520.87124
520.1597
519.48735
518.85441
518.26099
517.70704
517.19232
516.7169
516.28233
515.88824
515.53417
515.21953
514.94374
514.70596
514.50503
514.33969
514.20851
514.10987
514.04206
514.00338
513.98874
513.9978
514.02665
514.07156
514.1286
514.19365
514.262
514.32842
514.38721
514.43209
514.45619
514.45214
514.41209
514.32617
516.36314
515.22715
514.12549
513.05998
512.03364
511.04
510.08134
509.15872
508.27278
507.424
506.61281
505.83962
505.10484
504.40884
503.75198
503.13456
502.55671
502.01821
501.5176
501.04978
500.6262
500.24444
499.90361
499.60305
499.34212
499.1201
498.93607
498.78897
498.67749
498.6001
498.55489
498.53944
498.55393
498.59316
498.65439
498.7345
498.82982
498.93656
499.05025
499.16633
499.27972
499.38448
499.4742
499.54195
499.58017
501.47542
500.35766
499.27355
498.22521
497.21284