/*--------------------------------*- C++ -*----------------------------------*\
| =========                 |                                                 |
| \\      /  F ield         | OpenFOAM: The Open Source CFD Toolbox           |
|  \\    /   O peration     | Version:  2312                                  |
|   \\  /    A nd           | Website:  www.openfoam.com                      |
|    \\/     M anipulation  |                                                 |
\*---------------------------------------------------------------------------*/
FoamFile
{
    version     2.0;
    format      ascii;
    arch        "LSB;label=32;scalar=64";
    class       volScalarField;
    location    "0.04";
    object      CO2;
}
// * * * * * * * * * * * * * * * * * * * * * * * * * * * * * * * * * * * * * //

dimensions      [0 0 0 0 0 0 0];

internalField   nonuniform List<scalar> 
3275
(
0.0023181895
0.01409613
0.028934765
0.042427218
0.053315132
0.06139233
0.067171825
0.071063469
0.073422797
0.074571355
0.074807974
0.074475754
0.07367533
0.072575306
0.071316368
0.06998413
0.068634562
0.067301878
0.066006854
0.064762045
0.06357485
0.062449151
0.061386308
0.060386351
0.059448375
0.058570898
0.057752106
0.05699001
0.05628256
0.055627716
0.055023495
0.054468003
0.053959448
0.053496154
0.053076559
0.052699216
0.052362791
0.05206605
0.051807861
0.05158718
0.051403043
0.051254565
0.051140926
0.051061326
0.051014861
0.051000925
0.051017864
0.051066281
0.051145918
0.051255351
0.051393843
0.051560563
0.0033364145
0.016826321
0.031096816
0.043827724
0.054085741
0.061690016
0.067200963
0.070942826
0.073224501
0.074339642
0.074569697
0.074244021
0.073459738
0.072379153
0.071140094
0.069826768
0.068494473
0.06717721
0.065895779
0.064662874
0.063486071
0.062369438
0.061314516
0.06032149
0.059389594
0.058517468
0.057703398
0.056945482
0.056241743
0.055590205
0.054988938
0.054436092
0.053929915
0.053468763
0.053051102
0.052675511
0.052340673
0.052045377
0.051788502
0.051569019
0.051385976
0.051238495
0.051125761
0.051046969
0.051001284
0.050988077
0.051005654
0.051054714
0.051134911
0.051244861
0.051383821
0.051550941
0.0061691099
0.021915983
0.03493142
0.046266771
0.055401283
0.062140054
0.067181264
0.070660114
0.072806486
0.073865891
0.074088895
0.073779145
0.073028952
0.071987863
0.070788779
0.06951328
0.06821544
0.066928892
0.065674519
0.064465304
0.063309185
0.062210604
0.061171454
0.060192237
0.059272462
0.058411005
0.057606355
0.056856781
0.056160455
0.055515523
0.05492016
0.054372608
0.05387119
0.053414328
0.053000544
0.052628466
0.052296818
0.052004424
0.051750195
0.051533127
0.051352293
0.051206831
0.051095939
0.05101883
0.05097472
0.050962973
0.05098184
0.051032202
0.051113536
0.051224539
0.051364484
0.051532517
0.011414131
0.02853045
0.039246823
0.048985584
0.056823546
0.062464452
0.066974234
0.070142043
0.072132614
0.073134043
0.073360167
0.073080557
0.072385187
0.071404467
0.070265594
0.069046639
0.067800101
0.066559198
0.065345003
0.064170962
0.063045558
0.061973793
0.060958085
0.059999403
0.059097663
0.05825209
0.057461471
0.056724332
0.056039058
0.05540398
0.05481743
0.054277782
0.053783474
0.053333024
0.052925039
0.052558215
0.052231341
0.051943293
0.051693028
0.051479582
0.051302061
0.051159633
0.051051518
0.050976956
0.050935209
0.050925645
0.050946453
0.05099877
0.05108181
0.051194399
0.05133585
0.051505438
0.01777275
0.033132177
0.043150241
0.051024003
0.057479071
0.062595866
0.066443733
0.069299346
0.071159315
0.072125182
0.072377777
0.072148752
0.071532067
0.070633593
0.069575253
0.068431209
0.067252309
0.066071441
0.064910042
0.063782212
0.062697175
0.061660673
0.060675813
0.059744173
0.0588662
0.058041575
0.057269474
0.056548755
0.055878087
0.055256039
0.054681149
0.054151964
0.053667073
0.053225119
0.05282482
0.052464967
0.052144427
0.051862148
0.051617148
0.051408515
0.051235399
0.051097009
0.050992596
0.050921436
0.050882832
0.05087616
0.050899569
0.050954481
0.051039788
0.051154484
0.051297945
0.051469987
0.014678525
0.033647074
0.044062093
0.051372247
0.057144717
0.061904573
0.065571909
0.068135027
0.069922028
0.070898086
0.071209735
0.07105391
0.070535917
0.06973645
0.068773005
0.067716308
0.066615859
0.065504451
0.064404076
0.063329661
0.062291307
0.061295616
0.060346491
0.059446208
0.05859582
0.05779553
0.057044961
0.056343352
0.055689693
0.055082833
0.054521542
0.05400457
0.053530676
0.053098651
0.052707338
0.052355638
0.052042513
0.051766989
0.051528157
0.051325164
0.051157216
0.051023563
0.050923499
0.050856341
0.050821427
0.050818129
0.05084463
0.05090257
0.050990538
0.051107697
0.05125345
0.051427715
0.008224247
0.029587234
0.041949985
0.050129777
0.055983451
0.06053876
0.064180283
0.06671101
0.068454074
0.069491612
0.069895327
0.069835526
0.069431813
0.068745281
0.067887679
0.066927518
0.065913383
0.064878233
0.063844815
0.062829019
0.061841932
0.060891101
0.059981295
0.05911555
0.058295577
0.057522147
0.056795367
0.056114888
0.055480055
0.054890015
0.054343798
0.053840372
0.053378682
0.052957684
0.052576357
0.052233721
0.051928842
0.051660837
0.051428871
0.051232161
0.05106997
0.050941601
0.050846391
0.050783699
0.050752907
0.050753335
0.050783353
0.050844638
0.050935575
0.051055477
0.05120374
0.051380248
0.0054105704
0.023784109
0.037622118
0.047046151
0.053695485
0.058495745
0.062147244
0.064862098
0.066668159
0.067799109
0.06833781
0.068409344
0.06814094
0.067590805
0.066857273
0.066009388
0.065095228
0.06414825
0.063192224
0.062244217
0.061316476
0.060417635
0.059553456
0.058727842
0.057943256
0.057201114
0.056502075
0.055846265
0.055233431
0.054663068
0.054134498
0.053646943
0.053199565
0.052791504
0.052421902
0.052089917
0.051794733
0.05153557
0.051311685
0.051122373
0.050966965
0.050844823
0.050755337
0.050697917
0.050671998
0.050676756
0.050711038
0.0507762
0.050870653
0.05099379
0.051144983
0.051323999
0.0041436239
0.018912812
0.032510422
0.042819566
0.050272833
0.055708028
0.059617657
0.062517145
0.064547727
0.065823769
0.066533559
0.066774931
0.066662371
0.066272308
0.065680681
0.064960508
0.064159685
0.06331255
0.062444176
0.061573016
0.060712643
0.059872909
0.059060687
0.058280844
0.057536679
0.056830326
0.056163065
0.055535548
0.054947977
0.054400232
0.05389197
0.053422696
0.052991817
0.052598684
0.052242621
0.051922941
0.051638967
0.051390035
0.051175506
0.050994763
0.050847215
0.050732294
0.050649451
0.05059815
0.050577887
0.050587654
0.050626945
0.050696568
0.050795113
0.050922014
0.051076604
0.051258397
0.003456102
0.015359371
0.027712496
0.038161075
0.046203032
0.05219796
0.056622555
0.059786891
0.062054446
0.063586119
0.06449103
0.064934755
0.065003938
0.064790287
0.064359182
0.063781323
0.063106495
0.062370326
0.061599452
0.060813902
0.060028722
0.059255084
0.058501075
0.057772614
0.057073907
0.056407874
0.055776469
0.055180925
0.05462194
0.054099823
0.053614597
0.053166083
0.05275396
0.052377813
0.052037168
0.051731515
0.051460326
0.051223073
0.051019229
0.05084828
0.050709722
0.050603065
0.050527826
0.050483534
0.050469738
0.050485264
0.050530318
0.050605034
0.050708278
0.050839511
0.050998031
0.051182776
0.0030133298
0.012798279
0.023665552
0.033650591
0.041892768
0.048309124
0.053161908
0.056766514
0.059268981
0.061071801
0.062241352
0.062899023
0.063176488
0.063150143
0.062897006
0.062474399
0.061937042
0.061322071
0.060657876
0.059966201
0.059263676
0.058562867
0.057873155
0.057201574
0.056553298
0.055932084
0.055340611
0.054780734
0.05425369
0.05376025
0.053300837
0.052875615
0.052484559
0.052127513
0.051804222
0.051514372
0.051257601
0.051033526
0.05084175
0.050681869
0.050553478
0.050456172
0.050389545
0.050353191
0.050346692
0.050368813
0.050420384
0.050500866
0.050609447
0.050745622
0.050908729
0.051096327
0.0026893508
0.010909805
0.020382527
0.029600967
0.037683979
0.044296461
0.049479842
0.053455432
0.056289083
0.058341849
0.059784188
0.060698693
0.061190601
0.061367776
0.061298564
0.061044583
0.060654512
0.060169712
0.059620422
0.059030172
0.058417232
0.05779559
0.057175972
0.056566565
0.055973552
0.055401566
0.054854045
0.054333505
0.053841752
0.053380051
0.05294925
0.052549883
0.052182245
0.051846455
0.0515425
0.051270274
0.0510296
0.050820251
0.050641971
0.050494477
0.050377474
0.050290648
0.05023368
0.050206239
0.050207853
0.050237536
0.050296351
0.050383315
0.050497905
0.050639662
0.050808272
0.050997981
0.0024319216
0.009474663
0.017736876
0.026101975
0.033788987
0.04037412
0.045740955
0.049970735
0.053163409
0.055487849
0.057170098
0.058340813
0.059072675
0.05945529
0.059577827
0.059497652
0.05926398
0.058916703
0.058489308
0.058007094
0.057489957
0.056953283
0.056409146
0.055866907
0.055333767
0.054815258
0.054315601
0.053837994
0.053384838
0.052957915
0.052558523
0.052187583
0.05184573
0.051533377
0.051250771
0.050998026
0.050775163
0.050582127
0.050418809
0.050285062
0.050180705
0.050105529
0.050059303
0.050041788
0.050052321
0.050090674
0.050157403
0.050251619
0.050372916
0.05052088
0.050694787
0.050888372
0.002216991
0.0083506607
0.015591199
0.023125386
0.030298293
0.03668579
0.042088209
0.04648214
0.049921359
0.052547311
0.054467663
0.055866796
0.056832078
0.057434812
0.057748228
0.057844927
0.057771501
0.05756806
0.057268044
0.056899318
0.056483316
0.056036726
0.055572931
0.05510245
0.054633487
0.054172474
0.05372442
0.053293219
0.052881879
0.052492716
0.052127493
0.051787536
0.051473832
0.051187106
0.050927874
0.050696489
0.050493178
0.050318068
0.050171211
0.050052601
0.049962182
0.049899856
0.049865487
0.049858897
0.04987933
0.049927339
0.050002756
0.050105008
0.050233735
0.050388644
0.050567652
0.050766896
0.0020321449
0.0074457368
0.013831356
0.020601455
0.027222152
0.033305195
0.038621123
0.043081496
0.046690476
0.049533296
0.051716472
0.053325087
0.054502241
0.055315811
0.05582855
0.056099296
0.05618683
0.056129601
0.05596144
0.055710291
0.055399713
0.055047497
0.054668252
0.054273616
0.053872743
0.053472939
0.053079995
0.052698496
0.052332058
0.051983539
0.051655178
0.051348714
0.051065496
0.050806571
0.050572738
0.050364597
0.050182592
0.05002704
0.049898163
0.049796104
0.049720941
0.049672693
0.049651329
0.049656598
0.049688144
0.049746656
0.049831608
0.049942705
0.050079595
0.050242504
0.05042584
0.050633111
0.0018701683
0.0066994082
0.012369239
0.018455392
0.024530565
0.030253996
0.035396254
0.039835671
0.043537215
0.046539719
0.048916948
0.050755385
0.052119837
0.053125644
0.053827276
0.054277
0.054521503
0.054610211
0.05457483
0.054444541
0.054242506
0.053987997
0.053696741
0.05338144
0.053052087
0.05271683
0.052382205
0.052053471
0.051734841
0.051429714
0.051140805
0.050870266
0.050619817
0.050390831
0.050184399
0.050001375
0.049842427
0.049708071
0.049598701
0.049514623
0.04945605
0.049423126
0.049415906
0.049434041
0.049477961
0.049547768
0.04964316
0.049763937
0.049909636
0.050080412
0.050269972
0.050486561
0.0017263877
0.0060710474
0.011138358
0.016620246
0.022178862
0.027522503
0.032436122
0.036785718
0.040510559
0.043614321
0.04614045
0.048152511
0.049719797
0.050893471
0.051767124
0.052385142
0.052789862
0.053019772
0.053116658
0.053106779
0.053015992
0.052861444
0.052660738
0.052427588
0.052172626
0.051904805
0.051631344
0.051358152
0.051090005
0.050830835
0.050583828
0.050351541
0.050136059
0.049939091
0.049762018
0.049605955
0.049471797
0.049360264
0.04927193
0.049207264
0.049166624
0.049150288
0.049158235
0.04919059
0.049247848
0.049329877
0.049436622
0.04956796
0.049723114
0.049901736
0.050099788
0.05032594
0.001597512
0.0055326374
0.010088753
0.01503982
0.02012055
0.025085584
0.029740443
0.033950946
0.037642125
0.040793169
0.043422357
0.045571824
0.047294961
0.0486483
0.04967227
0.050442912
0.050997599
0.051371079
0.051595162
0.05170525
0.051724402
0.051671854
0.051563284
0.051414372
0.051236025
0.051038019
0.050828146
0.050612933
0.050397665
0.050186794
0.049983964
0.049792113
0.049613685
0.049450723
0.049304903
0.049177595
0.049069925
0.048982821
0.048917031
0.048873202
0.048851835
0.048853284
0.048877569
0.048925474
0.048996952
0.049092189
0.049211216
0.049354091
0.049519427
0.049705326
0.049915181
0.050150206
0.0014811379
0.0050644365
0.009182696
0.013668155
0.018312642
0.022912451
0.027295772
0.031334849
0.034948656
0.038100673
0.040789942
0.043040139
0.044889399
0.046382569
0.047565938
0.048471174
0.049161325
0.049668527
0.050021743
0.050246827
0.050375528
0.050423411
0.050408002
0.050344754
0.050244512
0.050118141
0.049973795
0.049818613
0.049658293
0.049497796
0.049341206
0.0491918
0.04905237
0.048925291
0.048812526
0.048715698
0.048636159
0.048575051
0.048533281
0.048511694
0.048510916
0.048531209
0.048573429
0.048637778
0.048724503
0.048833942
0.048966168
0.049121742
0.049296021
0.049493101
0.049714492
0.049958693
0.0013754326
0.0046523636
0.0083917764
0.012468067
0.016717375
0.020971834
0.025082262
0.028930736
0.032435538
0.035551001
0.038262413
0.04057856
0.042523985
0.04413225
0.045440841
0.046488049
0.047299931
0.047926705
0.048399693
0.048740711
0.048976783
0.049122459
0.049199632
0.049221824
0.049200839
0.049147364
0.049069928
0.048976416
0.048872729
0.048764375
0.048655846
0.048550688
0.048452023
0.048362563
0.048284544
0.048219827
0.048169986
0.048136392
0.048120064
0.04812209
0.048142961
0.048183795
0.048244908
0.048326789
0.048429768
0.048554417
0.048700657
0.048868587
0.049054241
0.049264457
0.049496623
0.0012789545
0.0042861233
0.007694606
0.011409747
0.015302385
0.019234386
0.023077799
0.026726115
0.030100293
0.033150155
0.035851754
0.038202484
0.040215454
0.041913974
0.043327153
0.04448699
0.045425997
0.046164329
0.046742282
0.047193105
0.047531674
0.047776851
0.047942882
0.048050517
0.048108204
0.048128211
0.048118613
0.048087998
0.048042191
0.047987405
0.047928494
0.047869148
0.047812801
0.04776253
0.047720817
0.047689725
0.047671049
0.047666428
0.047676842
0.047703695
0.047747814
0.047810216
0.047891362
0.047991869
0.048112053
0.048252975
0.048414173
0.048593683
0.048794782
0.049017398
0.049260954
0.0011905455
0.0039580013
0.0070749966
0.010469657
0.014040343
0.017673616
0.0212603
0.024705689
0.027935477
0.03089814
0.033563989
0.035922108
0.037976405
0.039741427
0.041238741
0.042494078
0.043534802
0.044387806
0.045068066
0.045613144
0.04604957
0.046388394
0.046644569
0.04683621
0.046970421
0.04706427
0.047122391
0.047155274
0.047168262
0.047168098
0.047160089
0.047147848
0.04713512
0.047125421
0.047121424
0.047125328
0.047139145
0.047164753
0.047203361
0.047256356
0.047324779
0.04740996
0.047512262
0.047632487
0.047770678
0.047929061
0.048103992
0.048300025
0.048515573
0.048751147
0.049006821
0.0011092595
0.0036620882
0.0065204729
0.0096293907
0.012908866
0.016266265
0.019608876
0.022853236
0.025930827
0.028790881
0.031400563
0.033743237
0.035815754
0.037625499
0.039187376
0.040521194
0.041649309
0.042594698
0.043379726
0.044017009
0.044539144
0.044966524
0.045308552
0.045580981
0.045793267
0.04595956
0.046084018
0.046180985
0.046252909
0.046308121
0.046351786
0.046387781
0.046419655
0.04645171
0.046486606
0.04652676
0.046574374
0.046631399
0.046699371
0.046779723
0.046873453
0.046982608
0.047107197
0.047248284
0.047404897
0.047580047
0.04777359
0.047985399
0.04821579
0.048465107
0.0487336
0.0010343139
0.0033937683
0.0060212647
0.0088743249
0.011889942
0.014992801
0.01810476
0.02115286
0.024074764
0.026821777
0.029359776
0.031668432
0.033739465
0.035574511
0.037182748
0.038578634
0.039779822
0.040805418
0.041674784
0.042407091
0.043011532
0.043522034
0.043941078
0.044292187
0.044579364
0.044815778
0.045008395
0.045168513
0.045298329
0.045409222
0.045505309
0.045590324
0.045667307
0.045742143
0.045816962
0.045894416
0.045976875
0.046066414
0.046164831
0.046273743
0.046393481
0.046527769
0.046675951
0.046836537
0.047014972
0.047209364
0.047420558
0.047648954
0.047894923
0.048158737
0.00096505371
0.0031493719
0.0055696073
0.0081926862
0.010968861
0.013837086
0.016731954
0.019590253
0.022355953
0.024983304
0.027438202
0.029698148
0.03175122
0.033594574
0.035232611
0.03667511
0.037935439
0.039029007
0.039972077
0.040780815
0.04146887
0.042060808
0.042555238
0.042975662
0.043333831
0.043639015
0.043897335
0.044118638
0.044308238
0.044474689
0.044622584
0.044757312
0.044879101
0.04499776
0.045113291
0.045228893
0.045347078
0.045470032
0.045599817
0.045738718
0.045884446
0.046044754
0.046216761
0.04640117
0.046600523
0.046814747
0.047044443
0.047290213
0.047552506
0.047831597
0.00090092493
0.0029259356
0.0051592451
0.0075748847
0.010133459
0.012785588
0.015476852
0.018152963
0.020764126
0.02326808
0.025631702
0.027831461
0.029852971
0.031689979
0.033343007
0.034817842
0.036124047
0.037273615
0.038279867
0.039156577
0.039917267
0.040578966
0.041151645
0.041639437
0.042066265
0.042433757
0.042755137
0.04303677
0.043284406
0.043506204
0.043705451
0.043888767
0.044058399
0.044220028
0.044376654
0.044531029
0.044685639
0.044842686
0.045004418
0.045172799
0.045348306
0.045534589
0.045731424
0.045939754
0.046161087
0.046395939
0.046644889
0.04690877
0.047188127
0.047483226
0.00084145419
0.0027210308
0.0047850735
0.0070130237
0.0093735758
0.011826826
0.014327722
0.016830021
0.019289945
0.021669012
0.023935769
0.02606653
0.028045377
0.029863558
0.031518512
0.033012696
0.034352364
0.03554643
0.036605487
0.037541038
0.038365047
0.039090616
0.039727827
0.040285187
0.040779872
0.041208809
0.041588655
0.041926432
0.042229988
0.042507024
0.042756304
0.042988623
0.043205359
0.043410214
0.043608299
0.043801909
0.043993474
0.044185076
0.044379332
0.044578415
0.04478359
0.044997062
0.04521963
0.045452389
0.045696545
0.045952801
0.04622163
0.046504291
0.04680147
0.047113348
0.00078623322
0.002532641
0.0044428769
0.0065005355
0.0086806427
0.010950959
0.013274339
0.015611676
0.01792487
0.02017933
0.022345725
0.024400901
0.026328156
0.028116996
0.029762481
0.031264346
0.032626026
0.033853712
0.034955501
0.035940709
0.036819409
0.037602218
0.038298601
0.038917613
0.039470887
0.039965089
0.040400487
0.040795226
0.041150857
0.041481359
0.041777208
0.042059098
0.042322614
0.042569838
0.042809737
0.043042871
0.043271791
0.043498105
0.043725258
0.043955832
0.044190991
0.044432453
0.044681451
0.044939219
0.045206934
0.045485369
0.045774476
0.046076489
0.046392281
0.046721934
0.00073490656
0.0023590708
0.004129134
0.0060319047
0.0080473769
0.010149491
0.012307714
0.014489186
0.016661047
0.018792577
0.020856839
0.022831712
0.024700327
0.026451082
0.028077268
0.029576447
0.030949698
0.032200846
0.033335742
0.034361652
0.035286772
0.03611982
0.036869236
0.037543392
0.038151286
0.038699702
0.039193756
0.039646293
0.040053082
0.040427629
0.040775739
0.041103141
0.041413435
0.041700187
0.041982814
0.042255499
0.04252218
0.042782815
0.043042933
0.043305696
0.043571225
0.043841226
0.044117189
0.044400489
0.044692417
0.044993969
0.04530326
0.045625068
0.045960302
0.046309542
0.00068716205
0.0021988786
0.003840872
0.0056024575
0.0074675398
0.0094150323
0.011419894
0.013454658
0.015491219
0.01750259
0.019464375
0.021355824
0.023160392
0.024865901
0.026464406
0.027951785
0.029327188
0.030592422
0.031751355
0.032809377
0.033772933
0.034649112
0.03544516
0.036168426
0.036826379
0.037425555
0.03797204
0.03847414
0.038936561
0.039357003
0.039754216
0.040122212
0.040475857
0.040807989
0.041130123
0.041441518
0.041746892
0.042040245
0.042333033
0.042629017
0.042925167
0.043224035
0.04352733
0.043836548
0.044153188
0.044479562
0.044807676
0.045149622
0.045504943
0.04587068
0.0006427232
0.0020508252
0.003575555
0.0052081985
0.0069357493
0.0087411184
0.010603799
0.012500934
0.014408657
0.016303492
0.018163625
0.019969899
0.021706449
0.023360976
0.02492475
0.026392405
0.027761551
0.02903231
0.03020683
0.031288821
0.032283141
0.033195408
0.034031652
0.034798133
0.035501195
0.036146831
0.036740889
0.037289705
0.037797987
0.0382689
0.038713556
0.039123124
0.039521105
0.039890705
0.040253444
0.04060211
0.04094248
0.041273392
0.041600653
0.041927448
0.042253883
0.042581711
0.042912534
0.04324786
0.043589037
0.043937133
0.044290403
0.044653563
0.045027335
0.0454109
0.00060134325
0.0019138352
0.003331
0.0048456845
0.0064473317
0.0081220652
0.0098531044
0.011621498
0.013407101
0.015189673
0.016949931
0.018670444
0.02033628
0.021935366
0.023458589
0.024899719
0.026255184
0.02752373
0.028706045
0.029804368
0.030822133
0.031763631
0.032633712
0.033437576
0.034180591
0.034868062
0.035505255
0.036097475
0.036649332
0.037165049
0.037650752
0.038107434
0.038546376
0.038954667
0.039359448
0.039739648
0.040116116
0.040482416
0.040843498
0.04120182
0.04155845
0.04191524
0.04227365
0.042635217
0.043001183
0.043372511
0.043749403
0.044134068
0.044527399
0.044929552
0.00056280041
0.0017869667
0.0031053105
0.0045119247
0.0059982021
0.00755285
0.0091621394
0.010810399
0.012480718
0.014155778
0.015818707
0.017453854
0.019047397
0.020587745
0.022065727
0.023474589
0.024809898
0.026069315
0.027252312
0.02835987
0.029394168
0.030358299
0.031256014
0.032091507
0.032869244
0.03359379
0.03426975
0.034901714
0.035493987
0.036050736
0.036576505
0.037074478
0.03755009
0.038002798
0.038444255
0.038859463
0.039273593
0.039669322
0.04006363
0.040453584
0.040840107
0.041225792
0.041611689
0.04199955
0.042390489
0.042785581
0.043185604
0.043591906
0.04400536
0.044426548
0.00052689402
0.0016693881
0.002896826
0.0042043027
0.0055847702
0.0070290151
0.0085258019
0.010062198
0.011624067
0.013196695
0.014765453
0.016316453
0.017837089
0.019316445
0.020745538
0.022117387
0.02342698
0.024671158
0.025848418
0.026958679
0.028003039
0.028983527
0.029902886
0.030764379
0.031571623
0.032328442
0.033038779
0.033706605
0.034335804
0.0349302
0.035493646
0.03602958
0.036541841
0.03703278
0.03750767
0.03796662
0.038406929
0.03883869
0.039268565
0.039684671
0.040100187
0.040514777
0.04092778
0.041341926
0.041757838
0.042176837
0.042599816
0.0430278
0.04346164
0.043902108
0.00049344154
0.0015603594
0.0027040815
0.0039205142
0.0052038621
0.0065465884
0.0079394908
0.0093719106
0.010832076
0.012307553
0.013785766
0.015254517
0.016702465
0.018119504
0.019497022
0.020828044
0.022107236
0.023330859
0.024496653
0.025603673
0.026652097
0.027643028
0.028578307
0.029460343
0.03029196
0.031076271
0.031816571
0.032516253
0.033178727
0.033807397
0.034405648
0.034976708
0.035523805
0.036049748
0.03655786
0.037049706
0.037526633
0.037995623
0.038448023
0.038899019
0.039346994
0.039784077
0.040223039
0.04066362
0.041104223
0.041547098
0.041992914
0.042442527
0.042896813
0.043356651
0.00046227603
0.0014592184
0.0025257761
0.0036585177
0.0048526589
0.0061020172
0.0073990472
0.0087349713
0.010100013
0.01148372
0.012875354
0.014264308
0.015640496
0.016994702
0.018318833
0.01960609
0.02085103
0.022049551
0.023198841
0.024297271
0.025344262
0.026340123
0.027285902
0.02818324
0.029034234
0.029841323
0.030607187
0.031334662
0.032026672
0.03268618
0.033316156
0.033919507
0.034499081
0.035057558
0.035597605
0.036121276
0.036630649
0.037128997
0.037616215
0.038099956
0.038567921
0.039036816
0.039506359
0.039966404
0.040430668
0.040897414
0.041365917
0.041836971
0.042311592
0.042790747
0.00043324421
0.0013653683
0.0023607474
0.0034164943
0.0045286446
0.0056921131
0.0069007041
0.0081471912
0.009423472
0.010720796
0.012030053
0.013342092
0.014648041
0.015939609
0.017209318
0.018450682
0.019658312
0.020827932
0.021956359
0.023041454
0.024082029
0.025077735
0.026028937
0.026936596
0.027802152
0.028627421
0.029414505
0.030165707
0.03088347
0.031570322
0.03222883
0.032861554
0.033471017
0.034059647
0.034629793
0.03518357
0.035723084
0.036250672
0.036767964
0.037278295
0.037782045
0.038272214
0.038763889
0.039253823
0.03974597
0.040229128
0.040720062
0.041212151
0.041706806
0.04220509
0.0004062048
0.0012782692
0.0022079516
0.0031928153
0.0042295647
0.0053140058
0.0064410434
0.0076047271
0.0087983525
0.010014619
0.011245836
0.012484168
0.013721887
0.01495162
0.01616656
0.017360641
0.018528649
0.019666283
0.020770157
0.021837773
0.022867481
0.023858398
0.024810318
0.025723611
0.026599137
0.027438144
0.0282422
0.029013105
0.029752842
0.030463511
0.03114729
0.03180639
0.032443016
0.033059334
0.033657443
0.034239346
0.034807015
0.03536244
0.03590742
0.03644398
0.036973008
0.037494416
0.0380155
0.038522869
0.039035808
0.039547304
0.040063201
0.040569189
0.041083379
0.041600451
0.00038102715
0.00119743
0.0020664468
0.0029860163
0.0039533914
0.0049651044
0.0060169586
0.0071040521
0.0082208425
0.0093612543
0.010518827
0.011686892
0.012858774
0.014027987
0.015188417
0.016334482
0.017461246
0.018564494
0.019640771
0.020687365
0.021702292
0.022684256
0.023632584
0.024547154
0.025428313
0.026276812
0.027093727
0.027880396
0.028638364
0.029369324
0.03007508
0.030757499
0.031418476
0.032059905
0.032683654
0.033291543
0.033885362
0.034466875
0.03503776
0.035599635
0.036153727
0.036701234
0.037245007
0.037785206
0.038313775
0.038846725
0.039381944
0.039917491
0.040445253
0.040977562
0.00035759027
0.0011224028
0.00193538
0.0027947755
0.0036982946
0.0046430646
0.0056256228
0.0066419286
0.007687403
0.0087570008
0.0098453131
0.010946698
0.012055431
0.013165859
0.014272557
0.015370461
0.016454981
0.017522084
0.018568346
0.01959096
0.02058773
0.021557058
0.022497907
0.023409746
0.024292496
0.025146468
0.025972303
0.026770917
0.027543449
0.028291211
0.029015648
0.029718296
0.03040075
0.031064632
0.031711569
0.032343178
0.032961054
0.033566763
0.034161814
0.034747643
0.035325536
0.03589678
0.036462916
0.037024493
0.037581095
0.038139773
0.038685724
0.039239844
0.039791859
0.040348351
0.00033578278
0.0010527784
0.0018139754
0.0026178955
0.0034626185
0.0043457603
0.0052644603
0.0062153853
0.0071947533
0.008198381
0.009221754
0.010260121
0.011308603
0.012362316
0.013416494
0.014466603
0.015508444
0.016538231
0.017552652
0.018548899
0.019524671
0.020478167
0.02140808
0.02231356
0.023194175
0.024049863
0.024880886
0.025687782
0.026471323
0.027232465
0.027972319
0.028692105
0.029393127
0.030076742
0.030744337
0.031397309
0.032037055
0.032664953
0.033282343
0.033890512
0.034490676
0.035084021
0.035671714
0.036254623
0.036833629
0.03741115
0.037986858
0.038550614
0.039120976
0.039693909
0.00031550082
0.00098818246
0.001701527
0.002454289
0.0032448607
0.0040712605
0.0049311226
0.0058216955
0.006739856
0.0076821392
0.0086447866
0.0096238117
0.01061508
0.011614403
0.012617631
0.013620752
0.014619974
0.015611805
0.016593111
0.017561151
0.018513603
0.019448558
0.020364523
0.021260409
0.022135505
0.022989441
0.023822158
0.024633863
0.025424999
0.026196203
0.026948272
0.027682134
0.028398815
0.029099414
0.02978508
0.030456992
0.031116345
0.031764332
0.032402125
0.033030863
0.033651646
0.034265533
0.034873544
0.035476602
0.03607567
0.036671983
0.037266059
0.037858505
0.038438782
0.039025064
0.00029664557
0.00092826839
0.0015973923
0.0023029682
0.0030436564
0.0038178089
0.0046234668
0.0054583579
0.0063199032
0.0072052354
0.0081112313
0.009034557
0.0099717258
0.010919166
0.011873296
0.012830598
0.013787693
0.014741407
0.015688824
0.016627331
0.017554648
0.018468832
0.019368282
0.020251745
0.021118298
0.021967328
0.022798509
0.023611769
0.024407263
0.025185341
0.025946521
0.026691456
0.027420914
0.028135746
0.028836874
0.02952526
0.030201901
0.030867803
0.031523971
0.032171395
0.032811041
0.033443841
0.034070696
0.034692465
0.035310007
0.035924185
0.036535642
0.037144953
0.037752655
0.038347928
0.00027912684
0.00087271587
0.0015009794
0.0021630342
0.0028577644
0.0035838063
0.0043395371
0.0051230794
0.0059323036
0.0067648391
0.0076180946
0.0084892893
0.0093754941
0.010273681
0.011180778
0.012093729
0.013009555
0.013925406
0.014838615
0.015746736
0.016647579
0.017539227
0.018420038
0.019288658
0.020144016
0.020985318
0.021812023
0.022623829
0.023420647
0.024202578
0.024969888
0.025722985
0.026462396
0.027188742
0.027902725
0.028605102
0.029296674
0.029978266
0.030650715
0.031314859
0.031971521
0.032621509
0.033265601
0.033904553
0.034539095
0.035169922
0.035797628
0.036422727
0.037045664
0.037666893
0.0002628606
0.00082123192
0.0014117448
0.0020336628
0.0026860561
0.0033677971
0.0040775486
0.004813759
0.00557467
0.0063583227
0.0071625702
0.0079850983
0.0088234544
0.0096750824
0.010537364
0.011407666
0.012283382
0.013161986
0.014041068
0.014918377
0.015791851
0.016659641
0.017520118
0.018371884
0.019213777
0.020044873
0.02086447
0.021672084
0.022467423
0.023250376
0.024020991
0.024779458
0.025526086
0.026261285
0.026985551
0.027699445
0.02840358
0.029098606
0.029785197
0.030464033
0.0311358
0.03180117
0.032460802
0.033115333
0.033765371
0.034411489
0.035054192
0.035693919
0.036331035
0.036965918
0.00024776862
0.00077354647
0.0013291929
0.0019140995
0.0025274986
0.0031684569
0.0038358738
0.0045284743
0.005244807
0.0059832539
0.0067420384
0.0075192385
0.0083128059
0.0091205915
0.0099403755
0.010769901
0.01160691
0.012449181
0.013294566
0.01414102
0.014986636
0.015829662
0.016668523
0.017501823
0.018328359
0.019147123
0.019957303
0.020758273
0.021549581
0.022330944
0.023102223
0.023863418
0.024614644
0.025356122
0.026088157
0.02681113
0.027525476
0.028231677
0.028930245
0.029621713
0.030306622
0.030985514
0.031658921
0.03232736
0.032991327
0.033651281
0.034307632
0.034960734
0.035610883
0.036258389
0.00023377825
0.00072941077
0.0012528694
0.0018036583
0.0023811487
0.0029845751
0.0036130311
0.00426547
0.004940701
0.0056373889
0.0063540647
0.0070891344
0.0078408919
0.0086075359
0.0093871919
0.010177937
0.010977827
0.011784928
0.01259734
0.013413232
0.01423086
0.015048598
0.015864949
0.016678557
0.017488215
0.018292877
0.019091659
0.019883835
0.020668834
0.021446232
0.02221574
0.022977195
0.023730547
0.024475846
0.025213228
0.025942905
0.026665151
0.027380287
0.028088673
0.028790695
0.029486758
0.030177271
0.030862642
0.03154327
0.032219536
0.032891794
0.033560358
0.034225498
0.034887436
0.03554642
0.00022082215
0.000688596
0.0011823587
0.0017017131
0.0022461508
0.0028150488
0.0034076671
0.0040231466
0.0046605109
0.005318665
0.0059963964
0.0066923845
0.0074052107
0.0081333694
0.0088752834
0.0096293219
0.010393821
0.011167106
0.011947516
0.012733422
0.013523255
0.014315524
0.015108829
0.015901881
0.016693501
0.017482639
0.018268373
0.019049916
0.019826611
0.020597928
0.021363458
0.022122906