/*--------------------------------*- C++ -*----------------------------------*\
| =========                 |                                                 |
| \\      /  F ield         | OpenFOAM: The Open Source CFD Toolbox           |
|  \\    /   O peration     | Version:  2312                                  |
|   \\  /    A nd           | Website:  www.openfoam.com                      |
|    \\/     M anipulation  |                                                 |
\*---------------------------------------------------------------------------*/
FoamFile
{
    version     2.0;
    format      ascii;
    arch        "LSB;label=32;scalar=64";
    class       volScalarField;
    location    "0.04";
    object      f_Bilger;
}
// * * * * * * * * * * * * * * * * * * * * * * * * * * * * * * * * * * * * * //

dimensions      [0 0 0 0 0 0 0];

internalField   nonuniform List<scalar> 
3275
(
0.96942644
0.86455483
0.75177167
0.65458994
0.57484258
0.5114185
0.45982847
0.41728154
0.38161607
0.35137458
0.32540192
0.30656186
0.28863882
0.27293927
0.2594031
0.24764681
0.23735226
0.22825853
0.22015996
0.21289547
0.20633804
0.20038519
0.19495271
0.18997207
0.18538647
0.18114838
0.17721772
0.17356039
0.17014717
0.16695286
0.16395558
0.16113621
0.15847797
0.15596599
0.1535871
0.15132951
0.14918267
0.14713705
0.14518404
0.14331581
0.14152521
0.1398057
0.13815129
0.13655646
0.13501587
0.13352318
0.1321493
0.13075946
0.12938612
0.12804649
0.12673746
0.12545745
0.95253783
0.83236808
0.72604027
0.63624528
0.56216781
0.50298558
0.45400483
0.41317363
0.37862749
0.34915649
0.32373407
0.30521282
0.2875782
0.2720914
0.25871346
0.24707733
0.23687554
0.22785456
0.21981389
0.21259609
0.20607678
0.20015539
0.19474915
0.1897906
0.18522376
0.18100174
0.17708493
0.17343961
0.17003689
0.16685179
0.16386266
0.16105051
0.1583987
0.15589248
0.15351876
0.15126584
0.14912322
0.14708144
0.14513192
0.14326688
0.14147919
0.13976234
0.13811036
0.13651777
0.13497943
0.13348944
0.13211728
0.13072804
0.12935637
0.12801822
0.12671039
0.12543129
0.90464967
0.76655351
0.67581365
0.60088843
0.53770113
0.48675179
0.44279249
0.40516821
0.37276857
0.34479235
0.32044316
0.30254173
0.28547972
0.27041026
0.25734422
0.2459455
0.23592728
0.22705044
0.21912461
0.21199953
0.20555596
0.19969713
0.1943431
0.18942853
0.18489906
0.18070904
0.17681983
0.17319848
0.16981669
0.16664999
0.16367709
0.16087935
0.15824038
0.15574566
0.15338226
0.15113866
0.14900446
0.14697032
0.14502776
0.14316907
0.14138718
0.13967563
0.13802849
0.13644033
0.13490642
0.13342209
0.13205315
0.13066511
0.1292967
0.12796145
0.12665599
0.12537856
0.79778421
0.66331713
0.60543304
0.55197489
0.50352843
0.46415062
0.42693103
0.39368566
0.36429374
0.33844059
0.31562963
0.2986099
0.28239255
0.26792801
0.25531772
0.24426728
0.23451912
0.22585484
0.21809868
0.21111082
0.20477951
0.19901352
0.19373704
0.18888787
0.18441401
0.18027164
0.17642355
0.17283793
0.16948737
0.16634811
0.16339945
0.16062323
0.15800344
0.15552589
0.15317792
0.15094823
0.14882662
0.14680391
0.14487176
0.14302256
0.14124935
0.13954572
0.1379058
0.13632422
0.13479672
0.13332154
0.13195689
0.13057073
0.12920717
0.12787628
0.12657438
0.12529878
0.57942707
0.53141847
0.51777989
0.49414057
0.46464575
0.43513895
0.40697574
0.37929253
0.3535467
0.33031745
0.30943487
0.29350288
0.27838334
0.26468959
0.25266564
0.24206544
0.23266774
0.22428018
0.21674554
0.20993722
0.2037531
0.19810904
0.19293457
0.18817152
0.18377097
0.17969149
0.17589773
0.17235934
0.16905008
0.16594714
0.16303059
0.16028287
0.15768851
0.15523372
0.15290622
0.15069498
0.14859008
0.14658254
0.14466419
0.1428276
0.14106591
0.13937282
0.13774248
0.13616953
0.13465
0.13318861
0.13182843
0.13044503
0.12908793
0.12776288
0.12646584
0.12519079
0.23168889
0.39314288
0.43335448
0.43668145
0.42563825
0.4067681
0.38481597
0.36343544
0.34165164
0.3212342
0.30246191
0.28768168
0.27380806
0.26097676
0.24961364
0.23952354
0.23052479
0.22245351
0.21517294
0.20857119
0.20255682
0.19705368
0.19199734
0.18733418
0.18301879
0.17901245
0.17528194
0.17179858
0.1685375
0.16547696
0.1625979
0.1598835
0.15731887
0.15489071
0.15258717
0.15039755
0.14831221
0.14632244
0.14442027
0.14259846
0.14085029
0.13916956
0.13755047
0.13598754
0.13447604
0.13303423
0.13167667
0.13029716
0.12894766
0.12762954
0.12633871
0.12506879
0.10980579
0.29242365
0.36212732
0.38532064
0.38698603
0.37798746
0.36295155
0.34658805
0.32917209
0.31159549
0.29502709
0.28138546
0.26883734
0.25693396
0.24627771
0.2367359
0.22816812
0.22044002
0.21343614
0.20706005
0.20123162
0.1958832
0.1909568
0.18640372
0.18218232
0.17825681
0.17459628
0.17117389
0.16796622
0.16495271
0.16211529
0.15943791
0.15690632
0.15450779
0.1522309
0.15006534
0.1480018
0.14603182
0.14414769
0.14234235
0.14060926
0.13894233
0.13733582
0.13578408
0.13427901
0.13286495
0.13150563
0.13013174
0.12879075
0.12748042
0.12619688
0.12493436
0.062712422
0.21546513
0.29731927
0.33501545
0.34822573
0.34795793
0.34017087
0.32846103
0.3151389
0.30085948
0.28673155
0.27423808
0.26311572
0.25229923
0.24243521
0.23351228
0.225434
0.21809769
0.21141109
0.20529473
0.19968098
0.19451168
0.18973608
0.185311
0.18119908
0.17736788
0.17378912
0.17043805
0.16729292
0.16433456
0.16154598
0.15891206
0.1564193
0.1540556
0.15181006
0.14967282
0.14763494
0.14568827
0.1438254
0.14203948
0.14032418
0.13867355
0.13708195
0.13554386
0.13405147
0.13266027
0.13130077
0.1299361
0.12860502
0.12730393
0.12602925
0.12477638
0.041914969
0.16140063
0.2430822
0.28880062
0.31078698
0.31808547
0.31647618
0.3097645
0.30002779
0.28905571
0.27747756
0.26651937
0.25664853
0.24709718
0.23809471
0.22985435
0.22231988
0.21542148
0.20909135
0.20326804
0.1978974
0.19293155
0.18832771
0.18404878
0.18006214
0.17633905
0.17285417
0.1695851
0.16651197
0.16361716
0.16088494
0.15830121
0.15585333
0.15352991
0.15132065
0.1492162
0.14720804
0.1452884
0.14345017
0.1416868
0.13999216
0.13836047
0.13678623
0.1352644
0.13378975
0.13241845
0.13106071
0.12970809
0.12838849
0.12709811
0.12583383
0.12459303
0.031190522
0.1239334
0.1991215
0.24787134
0.27567728
0.28898429
0.29270766
0.29047718
0.28448555
0.27633227
0.26739966
0.25825988
0.24952949
0.24131636
0.23327137
0.22576927
0.21882742
0.21240958
0.2064729
0.20097465
0.19587476
0.19113632
0.18672506
0.18261045
0.17876501
0.17516402
0.17178538
0.16860925
0.16561785
0.16279527
0.16012717
0.1576006
0.15520389
0.15292643
0.15075861
0.14869163
0.14671745
0.14482873
0.14301871
0.14128115
0.1396102
0.13800025
0.13644593
0.13494276
0.13349106
0.13213728
0.13078379
0.12944553
0.12813908
0.12686092
0.1256084
0.12438286
0.024801491
0.097747502
0.16414349
0.21246622
0.24352953
0.26123102
0.26937499
0.27104471
0.26849916
0.26323757
0.25652973
0.24938751
0.2420064
0.23494408
0.22799204
0.22126991
0.21496268
0.20906358
0.2035544
0.1984113
0.1936086
0.18912074
0.18492246
0.18099015
0.17730178
0.17383696
0.17057702
0.16750494
0.1646052
0.16186374
0.15926774
0.15680554
0.15446649
0.15224089
0.15011985
0.14809521
0.14615947
0.14430571
0.14252763
0.14081934
0.13917525
0.13758998
0.13605821
0.13457543
0.13315368
0.13181398
0.13046806
0.12914621
0.12785467
0.12659025
0.12535033
0.12414506
0.020527935
0.07905104
0.13653242
0.18233956
0.2146432
0.23526128
0.24684178
0.25187204
0.25231156
0.24977644
0.24532224
0.23989557
0.23410916
0.22811576
0.22221364
0.21637408
0.21073611
0.20538865
0.20033739
0.19557707
0.19109621
0.18688098
0.18291535
0.17918289
0.17566723
0.17235253
0.1692238
0.16626696
0.16346891
0.16081759
0.15830187
0.15591141
0.1536367
0.15146901
0.14940029
0.14742305
0.14553034
0.14371578
0.14197352
0.14029807
0.13868418
0.1371267
0.13562025
0.13415784
0.1327776
0.13144479
0.13011143
0.12880789
0.12753305
0.12628396
0.12505614
0.12388014
0.017420933
0.065336369
0.11473653
0.15697101
0.18905778
0.2113371
0.22542345
0.23318023
0.23626653
0.23609488
0.23378744
0.23011677
0.22570408
0.22098699
0.21600825
0.2110721
0.20616261
0.20139363
0.19682638
0.19247344
0.18833688
0.18441478
0.18070043
0.17718467
0.17385695
0.17070607
0.16772091
0.16489046
0.16220417
0.15965211
0.15722492
0.1549137
0.15271016
0.15060661
0.14859588
0.14667124
0.14482634
0.14305534
0.14135292
0.13971404
0.1381338
0.13660741
0.13512963
0.13369688
0.13235089
0.13102557
0.12971188
0.12842829
0.12717201
0.12594019
0.12473125
0.12357795
0.015030961
0.054990927
0.097435413
0.13572566
0.16663141
0.18957232
0.20533606
0.21520857
0.22051226
0.22245
0.22203616
0.22005305
0.2170472
0.21344321
0.20953578
0.205385
0.20124185
0.19709098
0.19302894
0.18910454
0.18533194
0.18172159
0.1782758
0.17499265
0.17186745
0.16889366
0.16606417
0.16337112
0.16080656
0.15836287
0.15603253
0.15380813
0.15168268
0.14964959
0.14770266
0.14583595
0.14404374
0.14232078
0.14066236
0.13906391
0.1375209
0.13602906
0.13458287
0.13318883
0.13186956
0.13055666
0.12926658
0.12800499
0.12676922
0.12555615
0.12437285
0.1232364
0.013121984
0.046979119
0.083577492
0.1179598
0.14711149
0.16996456
0.18670501
0.19812698
0.20521989
0.20896928
0.21025137
0.20979319
0.20813938
0.2056801
0.20270508
0.19945524
0.19597875
0.19248123
0.18895567
0.1854772
0.1820849
0.17880267
0.17564106
0.17260524
0.16969628
0.16691221
0.16425009
0.16170515
0.15927215
0.15694581
0.15472062
0.15259064
0.15055023
0.14859399
0.14671674
0.14491343
0.1431789
0.14150855
0.13989837
0.13834434
0.13684217
0.13538858
0.1339752
0.13263303
0.13132881
0.13003692
0.12877298
0.12753554
0.12632241
0.12512786
0.12398044
0.12285236
0.011557303
0.040626829
0.072355497
0.10308032
0.13019078
0.15242797
0.16957942
0.18204957
0.19052626
0.19578027
0.19854708
0.19946408
0.1990511
0.19769453
0.19567317
0.19320904
0.19049373
0.18756813
0.18460435
0.18160115
0.17860136
0.17566119
0.17279743
0.17002218
0.16734217
0.1647596
0.16227598
0.15988948
0.15759752
0.15539735
0.15328551
0.15125749
0.14930904
0.14743605
0.14563442
0.14390003
0.14222826
0.14061514
0.13905757
0.13755207
0.13609423
0.13468337
0.13331501
0.13201303
0.13072695
0.12946422
0.12822851
0.12701743
0.12582984
0.1246613
0.12354307
0.12242271
0.010250614
0.035485722
0.063160992
0.090571095
0.11554763
0.13682281
0.15394849
0.16704052
0.17653163
0.18299386
0.18702149
0.18916091
0.18987559
0.18954092
0.18843711
0.18677458
0.18472629
0.18244997
0.17998613
0.17746941
0.17488887
0.17230228
0.16974776
0.16724465
0.16480509
0.1624347
0.16014006
0.15792179
0.15577989
0.15371437
0.15172396
0.14980529
0.14795566
0.14617226
0.14445216
0.14279232
0.14118841
0.13963712
0.1381366
0.13668403
0.13527337
0.13390926
0.13260016
0.13132243
0.13006544
0.12883562
0.12763056
0.12644796
0.12528897
0.12415295
0.12305644
0.12194861
0.0091435377
0.031249928
0.055538239
0.079998608
0.10287173
0.12297955
0.1397574
0.1531219
0.16330221
0.17069627
0.17576478
0.17896086
0.18068967
0.18129098
0.18104018
0.1801495
0.17878214
0.17708004
0.17517449
0.17311299
0.17092602
0.16873319
0.16649665
0.1642753
0.16208648
0.15993743
0.15784157
0.15580061
0.15381718
0.15189433
0.15003327
0.14823112
0.14648698
0.14479938
0.14316664
0.14158707
0.14005614
0.13857117
0.13713224
0.13573763
0.13437539
0.13307697
0.13180985
0.13056174
0.12934262
0.12814837
0.12697648
0.12582411
0.12469668
0.12360221
0.12251545
0.12142948
0.0081948263
0.027706062
0.04914511
0.071006517
0.091878581
0.11071724
0.12692173
0.14028223
0.15087409
0.15894996
0.16485012
0.1689373
0.17155505
0.17300533
0.17354074
0.17336885
0.17265932
0.17154322
0.1701366
0.16854775
0.1667869
0.16493418
0.16304903
0.1611182
0.15918939
0.15726868
0.15538086
0.15352548
0.15170804
0.14993529
0.1482114
0.14653256
0.14490032
0.14331455
0.14177478
0.14028139
0.13882854
0.13741403
0.1360412
0.13471158
0.13340978
0.13216822
0.13093717
0.12973344
0.12855564
0.12739978
0.12626378
0.12514228
0.12406124
0.12299145
0.12192307
0.12086275
0.0073741886
0.024702629
0.043725015
0.06330561
0.082315984
0.099856133
0.11533941
0.12848483
0.13925803
0.14779561
0.15433383
0.15915179
0.16253168
0.16473418
0.1659867
0.16648272
0.16638656
0.16583858
0.16494087
0.1637938
0.16243599
0.16097408
0.15940513
0.15776123
0.15611902
0.15442996
0.15275967
0.15109704
0.14945192
0.14783579
0.14625718
0.14470773
0.14319349
0.1417153
0.14027366
0.13887284
0.13750313
0.13616245
0.13485964
0.13360408
0.13237295
0.13116969
0.12999036
0.12883473
0.12770177
0.12658713
0.12549047
0.12440998
0.12336666
0.12231871
0.12127892
0.0066587015
0.022129364
0.039085039
0.056663497
0.073965404
0.090225896
0.10490008
0.11767546
0.12844439
0.13725474
0.14425633
0.14965383
0.15367114
0.15652674
0.15842043
0.15952974
0.16000903
0.15998938
0.15958627
0.15887726
0.15792974
0.15681446
0.15558933
0.15425135
0.15286564
0.15141561
0.14998169
0.14851721
0.14704904
0.1455947
0.14417064
0.14275532
0.14136487
0.1399997
0.1386603
0.13735968
0.13607816
0.1348131
0.13360195
0.13240694
0.13123718
0.13009147
0.12896719
0.12786284
0.12677851
0.12570757
0.12465291
0.12362515
0.12260406
0.12158877
0.12058059
0.0060306259
0.019904135
0.035078936
0.050895749
0.06664052
0.081670083
0.095492013
0.1077888
0.11840799
0.12733273
0.13464355
0.14048123
0.14501638
0.14842686
0.15088422
0.15254701
0.15355701
0.15403798
0.15409402
0.15381612
0.15326523
0.15251108
0.15160405
0.15056135
0.14945698
0.14825808
0.14703977
0.14577895
0.14450039
0.14321044
0.14195407
0.14067429
0.13941344
0.13816667
0.13693105
0.13574131
0.1345532
0.13337756
0.13223748
0.13111597
0.13001465
0.12893072
0.12786501
0.12681493
0.12578381
0.12475816
0.12376056
0.1227646
0.1217791
0.12079982
0.11982551
0.0054759948
0.017964514
0.031594103
0.045856885
0.060186723
0.074048866
0.087006885
0.098753598
0.10911256
0.1180219
0.12550869
0.1316609
0.13660227
0.14047323
0.14341705
0.14557156
0.14706391
0.14800786
0.14850256
0.14862868
0.14846052
0.1480596
0.14747173
0.14673096
0.14588604
0.14493724
0.14395275
0.14289493
0.14181111
0.14070249
0.13959094
0.13846287
0.137339
0.13621681
0.13510104
0.13400678
0.13291734
0.13183722
0.13077735
0.12973257
0.12870388
0.12768506
0.12668119
0.1256877
0.12471664
0.12374823
0.12278769
0.12183565
0.12089049
0.1199495
0.11901127
0.0049836548
0.016262191
0.028542622
0.041430758
0.054477624
0.067242224
0.079344672
0.090497492
0.10051464
0.10930473
0.116855
0.12321105
0.12845706
0.13269947
0.13605429
0.13863821
0.14056261
0.14192988
0.14283132
0.14334597
0.14353771
0.14347496
0.14320409
0.14275585
0.14217624
0.1414823
0.14071367
0.13986465
0.13898437
0.13805672
0.13710004
0.1361229
0.13514253
0.13414859
0.13315319
0.13216426
0.13117664
0.13019302
0.12921912
0.12825414
0.12730384
0.12635287
0.12541277
0.12449326
0.12356951
0.12265339
0.12174308
0.12083765
0.11993573
0.11903548
0.0045445907
0.014759192
0.025854964
0.037523709
0.049408834
0.06114874
0.072417427
0.082952791
0.092569521
0.10115882
0.10867941
0.1151438
0.12060324
0.12513433
0.12882767
0.13177932
0.13408453
0.13583353
0.13710884
0.13798375
0.1385216
0.13878257
0.13881189
0.13865021
0.13833552
0.13788886
0.13734346
0.1367106
0.13601885
0.13527125
0.13448111
0.13365475
0.1328269
0.13196196
0.13108928
0.13021197
0.12932974
0.12844515
0.12756161
0.12667742
0.125815
0.12493606
0.12406601
0.12320427
0.12234186
0.12148213
0.12062467
0.11976854
0.11891257
0.11805564
0.0041514381
0.013425246
0.023475498
0.034059529
0.044893452
0.055681897
0.066148201
0.076058319
0.08523477
0.093560577
0.10097528
0.10746633
0.11305826
0.11780199
0.12176522
0.12502452
0.12765928
0.12974727
0.13136165
0.13256919
0.13342963
0.13399764
0.13431901
0.13442999
0.13437155
0.1341691
0.13384767
0.13342605
0.13292691
0.13235969
0.13173893
0.13107353
0.13038202
0.12965676
0.12891065
0.12814954
0.12737615
0.12659371
0.12580533
0.12501321
0.12422456
0.12342661
0.12262909
0.12183222
0.121033
0.12023244
0.11943056
0.11862636
0.1178189
0.11700765
0.0037981225
0.012235919
0.021359229
0.030975696
0.040858655
0.050767382
0.060469108
0.069758281
0.07846985
0.086485428
0.093732923
0.10018162
0.10583496
0.11072237
0.11489137
0.11840065
0.12131447
0.12369826
0.12561557
0.12712599
0.12828424
0.12914023
0.12973747
0.13011321
0.13030338
0.13033418
0.13023247
0.13002057
0.12971491
0.1293271
0.12887704
0.12837054
0.12782264
0.12723659
0.12661928
0.1259776
0.12531603
0.1246387
0.12394868
0.12324873
0.12254206
0.1218253
0.12110267
0.12037493
0.11964137
0.11890258
0.11815903
0.11740938
0.11665279
0.11588937
0.0034795891
0.011171267
0.019469393
0.02822052
0.037243063
0.046341055
0.055319935
0.064001567
0.072235935
0.079908082
0.086940109
0.093289019
0.098942156
0.10391141
0.108227
0.11193164
0.1150755
0.11771217
0.11989556
0.12167774
0.12310768
0.12423062
0.12508714
0.12571323
0.1261419
0.12640098
0.12651242
0.12650291
0.12638823
0.12617885
0.12590132
0.12555193
0.1251504
0.12470491
0.12421768
0.12369765
0.12315016
0.12258063
0.1219916
0.12138553
0.12076547
0.12013163
0.11948646
0.11883104
0.11816563
0.11749097
0.1168087
0.11611617
0.11541259
0.11469857
0.003191597
0.010214844
0.017775676
0.025750948
0.033994669
0.04234733
0.050647106
0.058741248
0.066495867
0.073802729
0.080582506
0.086784683
0.092384952
0.097381346
0.10178961
0.10563851
0.10896547
0.11181294
0.11422546
0.11624749
0.11792194
0.11928921
0.12038643
0.12124729
0.12190242
0.12237864
0.12269909
0.12288685
0.12295715
0.12292696
0.12281402
0.12262334
0.12236842
0.12206624
0.12170893
0.12131192
0.12087991
0.12042074
0.11993508
0.11942466
0.11889426
0.11834545
0.11778018
0.11719975
0.11660481
0.11599607
0.11537858
0.11474574
0.11409704
0.11343229
0.0029305609
0.0093529568
0.016252856
0.023530869
0.031069183
0.038737887
0.046402855
0.05393421
0.061214193
0.068143304
0.074644028
0.080662043
0.086165187
0.09114098
0.095593435
0.099539413
0.10300507
0.10602264
0.10862779
0.1108575
0.11274854
0.11433633
0.11565419
0.11673294
0.11760087
0.11828334
0.11880301
0.11918083
0.11943441
0.11957606
0.11962623
0.1195924
0.11948696
0.11932033
0.11909637
0.11882356
0.11850689
0.11816121
0.11778117
0.11736722
0.11692878
0.11646705
0.11598389
0.11548078
0.11495849
0.11441586
0.11386846
0.11329778
0.11270598
0.11209935
0.002693428
0.008574113
0.014879784
0.021529795
0.028428708
0.035470597
0.042544549
0.049540868
0.056357202
0.0629038
0.069107215
0.074912188
0.080281771
0.085195969
0.089649589
0.093649648
0.097212542
0.10036138
0.10312359
0.10552902
0.10760837
0.10939206
0.11090937
0.11218798
0.11325361
0.11412984
0.11483808
0.11539787
0.1158262
0.11613762
0.11634842
0.11646613
0.1165068
0.11647734
0.11638545
0.1162373
0.1160405
0.11580331
0.1155272
0.11521427
0.11487004
0.11449722
0.1140981
0.11367445
0.11322763
0.1127589
0.11227369
0.11176612
0.11123664
0.11068831
0.0024775819
0.0078685859
0.013638588
0.019721821
0.026040673
0.03250863
0.039034107
0.045524919
0.051892959
0.058058501
0.063953593
0.069524203
0.074731026
0.079549065
0.083966268
0.087981742
0.091603678
0.094847178
0.097732251
0.10028206
0.1025215
0.10447603
0.10617084
0.10763027
0.10887733
0.10993353
0.11081868
0.11155096
0.11214664
0.11262029
0.11298592
0.11325427
0.11343798
0.11354279
0.11358112
0.11355709
0.11347868
0.11335179
0.11318087
0.11296878
0.11271993
0.11243739
0.1121238
0.11178126
0.11141155
0.11101637
0.11059818
0.11015555
0.10968888
0.10919987
0.0022807659
0.0072280853
0.012514062
0.018084804
0.023876954
0.029819711
0.035837491
0.041853121
0.047791337
0.0535822
0.059164028
0.064485532
0.069506976
0.074200387
0.078548901
0.082545543
0.086191792
0.089495928
0.092471387
0.095135255
0.097506964
0.099607216
0.10145714
0.10307763
0.10448892
0.10571023
0.10675957
0.10765366
0.10840778
0.10903588
0.10955083
0.10996387
0.11028584
0.11052509
0.11069139
0.11078844
0.11082642
0.11081041
0.11074527
0.11063387
0.11048101
0.11028955
0.11006257
0.10980234
0.1095109
0.10919007
0.10884154
0.10846553
0.10806271
0.10763427
0.0021010227
0.0066454981
0.011493181
0.016599711
0.02191317
0.027375483
0.032924263
0.03849508
0.044024033
0.049450389
0.054719021
0.059782356
0.064601673
0.069147669
0.073400351
0.077348323
0.080987772
0.084321322
0.087356746
0.090105711
0.092582648
0.094803768
0.096786259
0.098547638
0.10010527
0.10147598
0.10267586
0.10372002
0.10462255
0.10539646
0.10605377
0.10660533
0.1070612
0.10743016
0.10772068
0.10793966
0.10809059
0.10818443
0.10822381
0.10821313
0.10815655
0.10805634
0.10791663
0.10773943
0.10752713
0.10728156
0.10700431
0.10669631
0.10635844
0.1059918
0.0019366455
0.0061146834
0.010564724
0.015250097
0.020128099
0.025150972
0.030267188
0.03542305
0.040564559
0.045639415
0.050598966
0.055399903
0.06000553
0.064386516
0.068521115
0.072394908
0.076000129
0.079334864
0.082402133
0.085208896
0.087765101
0.090082822
0.092175522
0.094057437
0.095743085
0.097246882
0.098582863
0.099764471
0.10080443
0.10171465
0.10250623
0.10318939
0.10377353
0.10426718
0.10467821
0.1050134
0.10527845
0.10548117
0.1056222
0.10571159
0.10574976
0.10574092
0.1056889
0.10559491
0.10546231
0.10529266
0.10508774
0.10484877
0.10457683
0.10427305
0.0017861385
0.00563031
0.0097189694
0.014021683
0.018503198
0.023124134
0.027841884
0.032611737
0.037388225
0.042126605
0.046784387
0.051322735
0.055707631
0.059910677
0.063909509
0.067687827
0.071235077
0.07454587
0.077619366
0.080458542
0.083069423
0.085460357
0.087641366
0.089623575
0.091418745
0.09303889
0.094495974
0.095801692
0.096967297
0.098003495
0.098920377
0.099727362
0.10043318
0.10104587
0.10157282
0.10202065
0.10239535
0.10270294
0.10294746
0.10313536
0.10326603
0.10334783
0.10338226
0.10337171
0.10331919
0.10322566
0.10309369
0.10292442
0.10271914
0.10247905
0.0016481851
0.0051877256
0.0089474527
0.012902014
0.017022206
0.021275466
0.025626507
0.030038112
0.034472089
0.038890361
0.043256132
0.047535011
0.051696015
0.05571235
0.059561904
0.063227458
0.066696622
0.069961505
0.073018253
0.075866573
0.07850915
0.080951057
0.083199205
0.085261839
0.087148105
0.088867685
0.090430495
0.091846454
0.093125295
0.094276432
0.095308868
0.096231121
0.097051186
0.097776493
0.098413924
0.098969793
0.099449894
0.099859652
0.10020372
0.10048696
0.10071286
0.10088165
0.10100187
0.10107404
0.10110042
0.10108337
0.10102468
0.10092537
0.10078717
0.10061133
0.0015216215
0.0047828516
0.0082427695
0.011880184
0.01567082
0.019587676
0.023601476
0.027681227
0.031794903
0.035910227
0.039995549
0.044020724
0.047957945
0.051782439
0.055472985
0.059012213
0.062386699
0.065586848
0.068606596
0.071443062
0.074096169
0.076568187
0.078863282
0.080987092
0.082946339
0.084748491
0.086401483
0.087913474
0.089292659
0.090547122
0.091684721
0.092713004
0.093639146
0.094469908
0.095211607
0.095870114
0.096450877
0.096958945
0.097398882
0.097774958
0.098090701
0.098348897
0.098554678
0.09870612
0.098810926
0.098869547
0.098883249
0.098854326
0.098783315
0.098671986
0.0014054152
0.0044120969
0.0075984159
0.010946604
0.014436417
0.018045404
0.021749225
0.025522051
0.029337044
0.033166926
0.036984617
0.040763915
0.044480155
0.048110815
0.051635992
0.055038749
0.058305289
0.061424979
0.064390224
0.06719621
0.069840654
0.072323496
0.074646546
0.076813134
0.078827786
0.080695921
0.08242359
0.084017254
0.08548359
0.086829343
0.088061198
0.089185687
0.090209113
0.091137497
0.091976538
0.092731592
0.093407667
0.094009426
0.09454117
0.095006843
0.095409945
0.095753655
0.096041468
0.096275733
0.096455354
0.096588467
0.096674266
0.096714446
0.096710158
0.096663737
0.0012986471
0.0040722877
0.0070086567
0.010092813
0.013307827
0.016634978
0.020053987
0.023543302
0.027080436
0.030642379
0.034206058
0.037748846
0.041249081
0.044686559
0.048042962
0.051302195
0.054450602
0.057477078
0.060373051
0.063132355
0.065751029
0.068227143
0.07056054
0.072752568
0.074805806
0.076723815
0.078510906
0.080171928
0.081712098
0.08313684
0.084451668
0.085662077
0.086773467
0.087791072
0.088719919
0.089564793
0.090330211
0.091020412
0.091639343
0.092190663
0.092677704
0.093103538
0.093471084
0.093782687
0.094040058
0.094247362
0.09440161
0.094510303
0.094572283
0.094589132
0.0012005001
0.003760613
0.006468417
0.0093113259
0.012275141
0.015344211
0.018501602
0.021729304
0.025008469
0.028319707
0.031643416
0.03496016
0.038251062
0.041498199
0.044684964
0.04779637
0.050819286
0.053742578
0.056557167
0.059256009
0.061833958
0.064287643
0.066615324
0.068816689
0.070892643
0.072845105
0.074676805
0.076391108
0.077991846
0.079483179
0.080869472
0.082155189
0.083344812
0.084442765
0.085453368
0.086380788
0.087229009
0.088001814
0.088702752
0.089335149
0.089902086
0.090406417
0.09085078
0.091237505
0.091568715
0.091846907
0.092073507
0.092246632
0.092373497
0.092453382
0.0011102417
0.0034745754
0.0059731976
0.0085955004
0.011329548
0.01416222
0.017079345
0.020065844
0.02310591
0.026183207
0.029281116
0.032383006
0.035472528
0.038533927
0.041552328
0.04451401
0.047406618
0.05021933
0.052942949
0.055569935
0.058094371
0.060511851
0.062819412
0.0650154
0.067099321
0.069071678
0.070933808
0.072687731
0.074336006
0.075881602
0.077327782
0.078678009
0.079935853
0.081104923
0.082188813
0.083191046
0.084115042
0.084964088
0.085741313
0.086449668
0.087091926
0.087670674
0.088188317
0.08864705
0.089048921
0.089395922
0.089689668
0.089931655
0.090119515
0.090260539
0.0010272068
0.00321194
0.0055190025
0.0079394338
0.0104632
0.013079277
0.015775774
0.018540048
0.021358821
0.02421833
0.0271045
0.030003138
0.032900154
0.035781795
0.038634871
0.041446985
0.04420672
0.0469038
0.049529206
0.052075233
0.054535515
0.056904971
0.059179744
0.061357144
0.063435545
0.065414268
0.067293451
0.06907393
0.070757115
0.07234488
0.073839461
0.075243359
0.076559266
0.077789986
0.078938385
0.080007332
0.080999665
0.081918152
0.082765466
0.083544166
0.084256677
0.084905286
0.085492137
0.086019225
0.086488415
0.086901446
0.087259863
0.08756507
0.087818338
0.088017069
0.00095080391
0.0029707037
0.0051022555
0.0073378717
0.0096690984
0.012086676
0.014580605
0.017140259
0.019754471
0.022411637
0.025099841
0.027806993
0.030520991
0.033229893
0.035922098
0.038586523
0.041212769
0.04379126
0.046313366
0.048771475
0.051159045
0.053470601
0.055701694
0.057848876
0.059909644
0.061882365
0.063766177
0.065560901
0.067266938
0.06888518
0.070416918
0.071863763
0.073227567
0.074510363
0.075714302
0.076841606
0.077894521
0.078875287
0.079786105
0.080629111
0.081406362
0.082119822
0.082771346
0.083362685
0.083895481
0.084371266
0.084791441
0.085157282
0.085469958
0.085730675
0.00088049991
0.0027490803
0.004719756
0.006786109
0.0089409961
0.011176622
0.013484585
0.015855932
0.018281255
0.02075076
0.023254354
0.025781749
0.028322574
0.030866502
0.033403391
0.035923417
0.038417214
0.040875994
0.043291657
0.045656871
0.047965135
0.05021081
0.052389106
0.054496062
0.056528535
0.058484154
0.060361252
0.062158806
0.063876356
0.065513932
0.067071984
0.068551308
0.069952982
0.071278308
0.072528754
0.073705909
0.074811439
0.075847055
0.076814474
0.077715403
0.078551509
0.079324411
0.08003566
0.080686735
0.081279034
0.081813872
0.08229247
0.082715956
0.083085371
0.08340182
0.00081581424
0.0025454676
0.0043686492
0.0062799335
0.0082732907
0.010342138
0.012479398
0.01467754
0.016928616
0.019224348
0.021556182
0.023915362
0.026293011
0.028680227
0.031068179
0.033448219
0.035811986
0.038151509
0.040459301
0.042728441
0.044952632
0.047126252
0.049244366
0.051302716
0.053297726
0.055226483
0.057086705
0.058876689
0.060595261
0.062241722
0.063815786
0.065317527
0.066747321
0.068105793
0.069393774
0.07061225
0.071762327
0.072845195
0.073862095
0.074814297
0.075703074
0.076529685
0.077295359
0.078001289
0.078648615
0.079238421
0.079771725
0.080249482
0.080672585
0.081042018
0.00075631339
0.0023584272
0.0040463786
0.0058155867
0.007660963
0.0095769533
0.011557579
0.013596485
0.01568697
0.017822022
0.019994379
0.022196587
0.024421051
0.026660105
0.028906089
0.031151422
0.033388693
0.035610738
0.037810723
0.039982212
0.042119228
0.044216304
0.046268513
0.048271472
0.05022135
0.052114872
0.053949304
0.055722425
0.057432492
0.059078203
0.060658652
0.062173286
0.06362186
0.065004393
0.066321129
0.067572494
0.068759063
0.069881529
0.070940668
0.071937321
0.072872365
0.073746697
0.074561218
0.07531682
0.076014374
0.076654721
0.077238666
0.077766968
0.078240357
0.078659674
0.0007016064
0.0021866675
0.0037506537
0.0053897048
0.007099531
0.0088754462
0.010712403
0.012605023
0.014547639
0.016534317
0.018558888
0.02061499
0.022696125
0.024795696
0.026907067
0.029023617
0.031138808
0.033246249
0.035339755
0.037413417
0.039461648
0.041479235
0.043461373
0.04540369
0.047302244
0.049153549
0.050954569
0.052702707
0.054395789
0.056032034
0.057610029
0.059128694
0.06058725
0.061985183
0.063322213
0.064598255
0.065813396
0.066967859
0.068061981
0.069096187
0.070070968
0.070986863
0.071844443
0.072644297
0.07338702
0.074073202
0.07470342
0.075278233
0.075798187
0.076263976
0.00065134092
0.0020290295
0.0034794232
0.0049992789
0.0065849857
0.0082325928
0.0099378376
0.011696172
0.013502787
0.015352647
0.01724051
0.019160949
0.021108389
0.023077152
0.025061492
0.027055639
0.029053842
0.031050427
0.03303984
0.035016701
0.036975852
0.038912395
0.040821733
0.042699598
0.044542058
0.046345535
0.048106819
0.049823066
0.051491791
0.053110852
0.054678437
0.056193039
0.057653433
0.05905865
0.060407952
0.061700803
0.062936846
0.064115877
0.065237821
0.066302711
0.067310669
0.068261888
0.069156615
0.06999514
0.07077778
0.071504871
0.072176759
0.072793794
0.073356342
0.00060519997
0.001884474
0.0032308524
0.0046416206
0.0061137466
0.0076439037
0.0092284932
0.010863666
0.012545344
0.014269241
0.016030884
0.017825643
0.019648739
0.021495271
0.023360263
0.025238685
0.027125491
0.029015659
0.030904223
0.032786322
0.034657233
0.03651241
0.038347517
0.040158459
0.041941395
0.043692757
0.045409263
0.047087929
0.048726066
0.050321279
0.051871456
0.053374757
0.054829598
0.056234634
0.05758874
0.058890988
0.060140632
0.061337082
0.062479892
0.063568732
0.06460338
0.065583699
0.066509627
0.067381162
0.068198349
0.068961275
0.069670055
0.07032484
0.070925938
0.00056289919
0.0017520723
0.0030033041
0.0043143337
0.0056826233
0.007105377
0.008579559
0.010101911
0.011668971
0.013277088
0.014922441
0.016601054
0.018308829
0.020041542
0.021794866
0.023564419
0.025345773
0.027134487
0.028926138
0.030716352
0.032500832
0.034275394
0.036035994
0.037778754
0.039499985
0.041196197
0.04286412
0.044500717