/*--------------------------------*- C++ -*----------------------------------*\
| =========                 |                                                 |
| \\      /  F ield         | OpenFOAM: The Open Source CFD Toolbox           |
|  \\    /   O peration     | Version:  2312                                  |
|   \\  /    A nd           | Website:  www.openfoam.com                      |
|    \\/     M anipulation  |                                                 |
\*---------------------------------------------------------------------------*/
FoamFile
{
    version     2.0;
    format      ascii;
    arch        "LSB;label=32;scalar=64";
    class       volScalarField;
    location    "0.04";
    object      H2O;
}
// * * * * * * * * * * * * * * * * * * * * * * * * * * * * * * * * * * * * * //

dimensions      [0 0 0 0 0 0 0];

internalField   nonuniform List<scalar> 
3275
(
0.0018978813
0.011540377
0.023688638
0.03473479
0.04364863
0.050261361
0.054992983
0.058179037
0.060110598
0.061050913
0.06124463
0.060972645
0.060317345
0.059416765
0.058386084
0.057295392
0.056190513
0.055099456
0.054039231
0.053020117
0.052048171
0.051126571
0.050256431
0.049437775
0.048669862
0.047951479
0.047281141
0.04665722
0.046078037
0.045541922
0.045047252
0.044592475
0.044176126
0.043796831
0.043453312
0.043144385
0.042868956
0.042626017
0.04241464
0.04223397
0.042083219
0.041961661
0.041868626
0.041803459
0.041765418
0.041754009
0.041767877
0.041807515
0.041872714
0.041962306
0.042075687
0.042212179
0.0027314932
0.013775561
0.02545869
0.035881372
0.04427952
0.050505073
0.055016838
0.058080268
0.059948255
0.060861211
0.061049555
0.060782927
0.060140842
0.059256176
0.058241769
0.057166561
0.056075823
0.054997391
0.053948295
0.052938926
0.051975488
0.051061311
0.050197655
0.049384673
0.048621739
0.047907737
0.047241264
0.046620765
0.046044621
0.045511212
0.04501896
0.04456635
0.044151947
0.043774406
0.043432471
0.043124977
0.042850849
0.042609092
0.042398792
0.042219103
0.042069247
0.041948506
0.041856211
0.041791704
0.041754302
0.04174349
0.041757881
0.041798045
0.041863702
0.041953717
0.042067482
0.042204302
0.0050505961
0.017942422
0.028598046
0.037878199
0.045356543
0.050873516
0.05500071
0.057848814
0.05960603
0.060473356
0.060655927
0.060402337
0.059788161
0.05893583
0.057954151
0.056909911
0.055847381
0.054794095
0.053767151
0.052777178
0.051830673
0.050931274
0.050080531
0.049278855
0.048525843
0.047820576
0.047161816
0.046548147
0.045978071
0.04545007
0.044962652
0.044514376
0.044103869
0.04372984
0.04339108
0.043086462
0.042814945
0.042575564
0.042367429
0.042189718
0.042041671
0.041922582
0.041831796
0.041768667
0.041732555
0.041722938
0.041738384
0.041779615
0.041846203
0.04193708
0.042051651
0.042189219
0.009344649
0.023357628
0.032131029
0.040104067
0.046520938
0.051139098
0.054831217
0.057424674
0.059054337
0.059874198
0.060059323
0.059830409
0.059261116
0.058458209
0.057525824
0.056527876
0.055507347
0.05449143
0.05349738
0.052536202
0.051614844
0.050737399
0.049905848
0.049120984
0.048382737
0.047690474
0.047043201
0.046439712
0.045878684
0.045358751
0.044878548
0.044436743
0.044032057
0.043663278
0.043329264
0.043028948
0.04276134
0.042525517
0.042320627
0.042145881
0.042000546
0.041883942
0.041795429
0.041734386
0.041700208
0.041692378
0.041709413
0.041752245
0.041820229
0.041912404
0.042028209
0.042167049
0.014550394
0.027125022
0.035326723
0.041772903
0.04705761
0.051246685
0.0543969
0.056734765
0.058257506
0.059048252
0.05925505
0.059067549
0.058562674
0.057827102
0.056960648
0.056024029
0.055058874
0.054092108
0.053141281
0.052217936
0.051329626
0.05048105
0.049674754
0.048912029
0.048193241
0.047518127
0.046886015
0.046295969
0.045746898
0.045237633
0.044766976
0.044333737
0.04393676
0.043574937
0.043247216
0.042952607
0.042690184
0.042459085
0.042258505
0.042087699
0.041945971
0.041832672
0.04174719
0.041688932
0.041657327
0.041651865
0.04167103
0.041715985
0.041785826
0.041879726
0.041997177
0.042138026
0.012017179
0.027546564
0.036073248
0.042058007
0.046783877
0.050680729
0.053683146
0.055781547
0.057244549
0.05804364
0.058298784
0.058171212
0.057747135
0.057092618
0.056303855
0.055438746
0.054537818
0.053627918
0.052727051
0.051847436
0.050997345
0.050182182
0.049405142
0.048668088
0.047971883
0.047316692
0.046702208
0.046127807
0.045592662
0.045095831
0.044636307
0.044213067
0.043825093
0.043471399
0.043151034
0.042863101
0.042606748
0.042381179
0.042185649
0.042019461
0.041881963
0.041772542
0.041690621
0.041635639
0.041607055
0.041604355
0.041626051
0.041673487
0.041745505
0.041841422
0.041960749
0.042103418
0.0067331187
0.024222808
0.034344084
0.041040808
0.045833159
0.049562551
0.052543834
0.054615717
0.056042748
0.056892172
0.05722269
0.057173731
0.056843214
0.056281157
0.055579046
0.054792971
0.053962707
0.053115239
0.052269189
0.051437565
0.050629446
0.049851009
0.049106159
0.048397381
0.047726076
0.047092876
0.046497867
0.045940765
0.045421033
0.044937973
0.04449079
0.044078639
0.043700658
0.04335599
0.043043801
0.042763288
0.042513687
0.042294273
0.042104364
0.04194332
0.041810536
0.041705441
0.041627493
0.041576168
0.041550958
0.041551309
0.041575884
0.041626058
0.041700507
0.04179867
0.041920052
0.042064558
0.0044295864
0.019471841
0.030800897
0.03851627
0.043960021
0.047889952
0.050879402
0.053102029
0.054580635
0.055506534
0.055947564
0.056006128
0.055786389
0.055335998
0.054735462
0.054041306
0.053292891
0.052517608
0.051734918
0.050958793
0.05019926
0.049463386
0.048755891
0.048079968
0.047437634
0.046830049
0.046257752
0.045720846
0.045219125
0.044752173
0.044319438
0.04392028
0.043554016
0.04321994
0.042917351
0.042645557
0.042403892
0.042191718
0.042008425
0.041853437
0.041726206
0.041626209
0.041552948
0.041505939
0.041484719
0.041488615
0.041516681
0.041570028
0.041647356
0.041748167
0.041871948
0.042018507
0.0033923484
0.015483753
0.026615997
0.035056002
0.041157927
0.045607672
0.048808452
0.051182237
0.052844657
0.053889341
0.054470439
0.054668048
0.054575897
0.054256556
0.053772196
0.053182596
0.05252697
0.051833428
0.051122498
0.050409287
0.049704907
0.049017424
0.048352465
0.047714014
0.047104773
0.046526488
0.045980208
0.045466465
0.044985426
0.044536992
0.044120882
0.043736691
0.043383935
0.04306208
0.042770574
0.042508856
0.042276368
0.04207257
0.041896936
0.041748964
0.041628168
0.041534083
0.04146626
0.041424261
0.041407671
0.041415668
0.041447835
0.041504835
0.041585512
0.041689405
0.041815967
0.041964799
0.0028294803
0.012574582
0.022687977
0.031242137
0.037826016
0.042734011
0.046356388
0.048947002
0.05080343
0.052057397
0.052798239
0.053161513
0.053218153
0.053043238
0.052690296
0.052217208
0.051664732
0.051062038
0.05043093
0.049787807
0.049144987
0.048511616
0.047894316
0.047297931
0.046725906
0.046180631
0.045663705
0.045176138
0.044718502
0.044291049
0.043893799
0.043526604
0.043189203
0.042881255
0.042602372
0.042352136
0.042130117
0.041935879
0.041768994
0.041629039
0.041515604
0.041428284
0.041366687
0.041330425
0.041319131
0.041331842
0.041368727
0.041429896
0.041514421
0.04162186
0.04175164
0.041902888
0.0024669866
0.010477839
0.019374779
0.027549443
0.034297241
0.039550255
0.043523186
0.046474246
0.048522994
0.049998947
0.050956447
0.051494877
0.051722035
0.051700467
0.051493225
0.051147241
0.050707312
0.05020384
0.04966007
0.049093801
0.04851865
0.047944904
0.047380243
0.046830425
0.046299687
0.045791106
0.045306871
0.044848505
0.044417019
0.044013044
0.043636927
0.043288801
0.042968647
0.042676336
0.042411661
0.042174363
0.041964147
0.041780699
0.041623694
0.041492801
0.041387688
0.041308024
0.041253477
0.041223715
0.041218394
0.041236504
0.041278725
0.041344615
0.04143351
0.041544995
0.041678529
0.041832114
0.0022017479
0.0089317613
0.016686996
0.024234052
0.030851543
0.036265123
0.040508712
0.043763492
0.046083377
0.047763959
0.048944789
0.049693487
0.050096207
0.050241258
0.050184596
0.049976663
0.049657315
0.049260414
0.048810715
0.048327483
0.047825674
0.047316742
0.046809465
0.046310549
0.045825055
0.045356775
0.044908525
0.044482363
0.044079769
0.043701778
0.043349086
0.043022127
0.042721145
0.042446236
0.042197392
0.041974523
0.041777484
0.041606093
0.041460136
0.041339385
0.041243595
0.041172512
0.041125872
0.041103406
0.041104728
0.041129029
0.04117718
0.041248377
0.041342191
0.041458246
0.041596285
0.041751599
0.0019909928
0.0077568233
0.014521024
0.021369457
0.027662746
0.033053937
0.037447718
0.040910602
0.043524416
0.045427414
0.046804657
0.047763111
0.04836228
0.048675523
0.048775843
0.048710205
0.048518899
0.048234586
0.047884682
0.047489898
0.047066522
0.046627152
0.046181672
0.045737746
0.045301269
0.04487677
0.044467705
0.044076693
0.043705698
0.043356179
0.0430292
0.042725516
0.042445643
0.042189923
0.041958555
0.041751636
0.041569179
0.041411142
0.041277436
0.041167938
0.041082502
0.041020956
0.040983111
0.040968772
0.040977395
0.041008794
0.041063425
0.041140559
0.041239863
0.041361
0.041503376
0.041661862
0.001815031
0.0068366125
0.012764378
0.01893255
0.024804946
0.030034334
0.034457247
0.038054519
0.040870178
0.043020021
0.044592197
0.045737654
0.046527923
0.047021375
0.047277966
0.047357133
0.04729702
0.047130464
0.046884844
0.046582971
0.046242394
0.045876775
0.04549707
0.045111891
0.044727956
0.044350528
0.04398371
0.04363069
0.04329393
0.042975325
0.04267632
0.042398
0.042141174
0.041906434
0.041694202
0.04150477
0.041338321
0.04119496
0.04107473
0.040977625
0.040903599
0.040852573
0.040824436
0.04081904
0.040835769
0.040875074
0.040936816
0.041020529
0.041125917
0.04125274
0.041399292
0.041562411
0.0016636992
0.0060957593
0.01132361
0.01686623
0.022286536
0.027266671
0.031618774
0.035270442
0.038225082
0.040552474
0.042339821
0.04365678
0.044620506
0.045286568
0.045706343
0.045928
0.045999664
0.045952811
0.045815139
0.045609526
0.045355258
0.045066902
0.044756417
0.044433332
0.044105141
0.043777825
0.043456125
0.043143795
0.042843796
0.042558466
0.04228964
0.042038741
0.041806873
0.041594893
0.041403456
0.041233053
0.041084047
0.040956698
0.040851187
0.040767633
0.040706097
0.040666597
0.040649106
0.04065342
0.040679247
0.040727149
0.040796699
0.040887653
0.040999724
0.041133096
0.041283192
0.041452883
0.0015310903
0.0054847466
0.010126588
0.015109267
0.020082958
0.024768681
0.028978602
0.032613114
0.035643535
0.038101659
0.040047875
0.041552987
0.042670052
0.043493498
0.044067917
0.044436103
0.044636275
0.0447089
0.044679934
0.044573267
0.044407863
0.044199498
0.043961049
0.043702916
0.043433277
0.043158805
0.04288485
0.042615719
0.04235486
0.042105054
0.041868527
0.041647039
0.041441999
0.04125453
0.041085526
0.040935686
0.040805556
0.04069556
0.040606021
0.040537186
0.040489233
0.040462279
0.040456368
0.040471214
0.040507172
0.040564322
0.040642418
0.040741298
0.04086058
0.041000393
0.041155584
0.041332904
0.0014133785
0.0049703131
0.0091188754
0.013606849
0.018157639
0.022532431
0.026555168
0.030116143
0.033165638
0.035706661
0.037774781
0.039422037
0.040705161
0.041666037
0.042381289
0.042887255
0.043218596
0.043406821
0.04348614
0.043478053
0.043403726
0.0432772
0.043112883
0.042922006
0.04271327
0.042494007
0.042270127
0.042046467
0.041826938
0.041614758
0.041412535
0.041222364
0.041045951
0.040884694
0.040739726
0.040611959
0.040502125
0.040410814
0.040338496
0.040285554
0.040252283
0.040238908
0.040245415
0.040271903
0.04031878
0.040385936
0.040473327
0.040580853
0.040707877
0.040854113
0.041016256
0.041201405
0.001307869
0.0045295216
0.0082595732
0.012312968
0.016472517
0.020537347
0.024348239
0.027795341
0.030817277
0.033397009
0.035549502
0.037309251
0.038719969
0.039827935
0.040666251
0.041297168
0.041751286
0.042057051
0.042240505
0.042330633
0.042346313
0.042303293
0.042214408
0.042092495
0.041946483
0.041784377
0.041612556
0.041436363
0.041260126
0.041087487
0.040921432
0.040764365
0.040618288
0.040484872
0.04036549
0.040261265
0.040173116
0.040101805
0.040047943
0.040012061
0.039994568
0.039995754
0.040015636
0.040054856
0.040113374
0.040191343
0.04028879
0.04040576
0.040541119
0.040693313
0.04086512
0.041057533
0.0012125946
0.0041462097
0.0075177925
0.011189998
0.014992399
0.018758222
0.022346808
0.025653565
0.028612158
0.031192686
0.033394367
0.035236583
0.036750556
0.037973001
0.038941815
0.039682924
0.040247944
0.040663187
0.040952361
0.041136636
0.041242002
0.041281203
0.041268588
0.041216808
0.04113474
0.041031282
0.040913106
0.040786061
0.040654807
0.04052341
0.040395211
0.040272894
0.040158744
0.040054706
0.039962386
0.039883113
0.039817996
0.039767967
0.03973377
0.039716097
0.03971546
0.039732074
0.039766639
0.039819321
0.039890322
0.039979919
0.040088171
0.040215538
0.040358219
0.040519567
0.040700817
0.040900743
0.0011260546
0.0038088491
0.0068702736
0.010207497
0.013686368
0.017169456
0.020534627
0.023685339
0.02655469
0.029105292
0.031325101
0.03322131
0.034814013
0.036130685
0.037202017
0.038059357
0.038724038
0.039237172
0.039624403
0.039903591
0.040096861
0.040216125
0.040279306
0.040297474
0.040280294
0.040236515
0.040173119
0.040096561
0.040011673
0.039922965
0.039834114
0.039748022
0.039667245
0.039594005
0.039530132
0.039477148
0.039436344
0.039408841
0.039395473
0.039397132
0.039414219
0.039447649
0.039497682
0.039564717
0.039649025
0.039751074
0.0398708
0.040008282
0.040160276
0.040332378
0.04052245
0.0010470688
0.0035090115
0.0062995063
0.0093410592
0.012527928
0.015747022
0.018893591
0.021880435
0.024642845
0.02713974
0.029351515
0.031276037
0.032924039
0.034314602
0.035471559
0.036421108
0.037189864
0.03779433
0.038267495
0.03863658
0.038913764
0.039114488
0.039250416
0.039338536
0.039385764
0.039402143
0.039394286
0.039369221
0.039331719
0.039286866
0.039238637
0.03919005
0.039143919
0.039102763
0.039068613
0.039043158
0.039027868
0.039024086
0.039032611
0.039054595
0.039090716
0.039141804
0.039208237
0.039290521
0.039388915
0.039504286
0.039636258
0.039783221
0.039947859
0.040130113
0.04032951
0.0009746891
0.0032403809
0.0057922375
0.0085714159
0.011494706
0.014469234
0.017405621
0.02022633
0.02287053
0.025296036
0.027478543
0.029409114
0.031090949
0.032535956
0.033761795
0.034789528
0.035641559
0.036339906
0.03689683
0.03734308
0.037700378
0.03797777
0.038187498
0.038344393
0.03845427
0.038531104
0.038578688
0.038605608
0.038616242
0.038616107
0.03860955
0.038599529
0.038589109
0.038581168
0.038577895
0.038581091
0.038592404
0.038613369
0.038644976
0.038688363
0.03874438
0.038814117
0.038897871
0.038996298
0.039109434
0.039239101
0.039382315
0.039542806
0.039719273
0.039912135
0.040121453
0.00090814096
0.0029981194
0.0053382538
0.0078834975
0.010568375
0.013317048
0.016053614
0.018709744
0.02122934
0.023570841
0.025707365
0.027625292
0.029322043
0.030803665
0.03208236
0.033174345
0.034097923
0.034871904
0.035514601
0.036036339
0.036463806
0.036813698
0.037093713
0.037316748
0.037490545
0.037626688
0.03772858
0.037807966
0.03786685
0.037912051
0.0379478
0.037977268
0.038003363
0.038029607
0.038058176
0.038091049
0.038130031
0.038176716
0.038232365
0.038298148
0.038374884
0.038464248
0.038566248
0.038681754
0.038809973
0.038953366
0.039111818
0.039285224
0.039473843
0.039677957
0.03989777
0.00084678367
0.0027784482
0.0049295565
0.0072653317
0.0097341908
0.012274474
0.014822208
0.01731766
0.019709798
0.021958753
0.024036591
0.025926667
0.027622203
0.029124539
0.030441188
0.031583988
0.03256739
0.033407037
0.034118779
0.034718312
0.035213163
0.035631107
0.035974175
0.036261624
0.036496734
0.036690283
0.036847977
0.036979064
0.037085344
0.037176131
0.037254796
0.037324397
0.037387422
0.03744869
0.037509943
0.037573355
0.037640864
0.037714168
0.037794741
0.037883907
0.037981935
0.038091876
0.038213191
0.038344661
0.038490744
0.038649891
0.038822794
0.03900978
0.039211152
0.039427134
0.00079008099
0.0025783631
0.0045597886
0.0067072802
0.0089801098
0.0113283
0.013698304
0.016038368
0.018302622
0.020453611
0.022463415
0.024313612
0.025994445
0.027503582
0.028844629
0.03002559
0.031057411
0.031952705
0.032724788
0.033386895
0.033950199
0.034434814
0.034839599
0.035183797
0.035477026
0.035726878
0.035938362
0.036119541
0.036274765
0.036411037
0.036532118
0.036642418
0.036742125
0.03683927
0.036933855
0.037028497
0.037125254
0.037225915
0.037332169
0.037445886
0.037565193
0.037696435
0.037837256
0.03798823
0.038151438
0.038326821
0.038514872
0.038716082
0.038930818
0.039159308
0.00073757932
0.0023954378
0.0042238286
0.0062014915
0.008296174
0.010467449
0.012670763
0.014861671
0.016999407
0.019049373
0.020984449
0.022785373
0.024440365
0.025944307
0.027297627
0.028505061
0.02957444
0.030515581
0.03133939
0.032057146
0.032679916
0.033221642
0.03369049
0.034089841
0.034439281
0.034740144
0.035003254
0.035233825
0.035436563
0.035618146
0.035781269
0.035931348
0.036070224
0.036202548
0.036330776
0.036457162
0.03658374
0.036712312
0.036844721
0.036982573
0.037126259
0.037278768
0.037439915
0.037610472
0.037791676
0.037983947
0.038187761
0.038403797
0.038632505
0.038874099
0.00068889115
0.002227684
0.0039174976
0.0057415009
0.007674064
0.0096825181
0.01172998
0.01377859
0.015792508
0.01774023
0.019596003
0.021340439
0.022960504
0.024449033
0.025803929
0.027027204
0.028123978
0.02910155
0.029968591
0.030734518
0.031409126
0.032003144
0.032524822
0.032981128
0.033386123
0.03373729
0.034048266
0.034324801
0.03457332
0.034800127
0.03500421
0.035194408
0.035371847
0.03553956
0.035701731
0.035860238
0.03601707
0.036173933
0.036332969
0.036495956
0.036663931
0.036838699
0.037020913
0.037211471
0.037411359
0.037621154
0.037841242
0.038072654
0.038315952
0.038571283
0.00064368222
0.0020734509
0.0036373442
0.0053219313
0.0071067659
0.008965454
0.010867585
0.012781142
0.014674934
0.01652064
0.018294248
0.019976803
0.02155463
0.023019137
0.024366282
0.025595845
0.026710641
0.027715736
0.028617761
0.029424342
0.030143726
0.030784605
0.031354728
0.031861508
0.032314468
0.032719067
0.033075524
0.033398693
0.033689845
0.033960424
0.034202633
0.034433414
0.034649152
0.034851552
0.035047955
0.03523882
0.035426235
0.035611516
0.035797484
0.035986253
0.036178775
0.036376458
0.036580311
0.036791343
0.037010519
0.037238471
0.037475161
0.037722417
0.037980952
0.038250836
0.00060166154
0.0019313505
0.0033804857
0.0049382673
0.0065883167
0.0083092992
0.010076218
0.011862169
0.013640253
0.015385318
0.017075311
0.018692122
0.020221941
0.021655268
0.022986613
0.024213977
0.025338246
0.026362549
0.027291679
0.028131582
0.02888897
0.029570979
0.030184519
0.030736445
0.031234122
0.031683106
0.032087584
0.032458071
0.032791106
0.033097744
0.033382739
0.03365078
0.033904815
0.034139576
0.03437096
0.034594206
0.034812535
0.035025915
0.03523887
0.035453992
0.035671379
0.035892426
0.036118354
0.03635029
0.036589289
0.036836167
0.037089381
0.037352842
0.037627295
0.037913215
0.00056257353
0.0018002025
0.0031444881
0.0045866827
0.0061136092
0.0077080042
0.0093493665
0.01101521
0.012682525
0.014329217
0.015935313
0.017483825
0.018961209
0.020357494
0.021666176
0.022883881
0.024009911
0.025045747
0.025994556
0.026860748
0.027649604
0.028366923
0.029018641
0.029610773
0.030149433
0.030639972
0.031087375
0.03149844
0.03187702
0.032221232
0.032546427
0.032847702
0.033137229
0.033409141
0.03367287
0.033927807
0.034177814
0.034417979
0.034657682
0.034900002
0.035142457
0.035387137
0.035635442
0.035888597
0.036147827
0.036415026
0.036683651
0.036963598
0.037254497
0.037553923
0.00052619183
0.0016789925
0.0029272754
0.0042639063
0.005678237
0.0071562768
0.0086812366
0.010234405
0.011796241
0.013347526
0.0148704
0.01634918
0.017770879
0.019125425
0.020405673
0.02160723
0.022728138
0.023768497
0.024730066
0.025615883
0.026429924
0.027176789
0.027861414
0.028488926
0.029064516
0.029593093
0.030079442
0.030528753
0.03094488
0.031330412
0.031694448
0.032029758
0.032355581
0.032658169
0.032955141
0.03324059
0.033519249
0.033790163
0.034058089
0.034325633
0.034592883
0.034861272
0.035132114
0.035406643
0.035685961
0.035970945
0.036260164
0.03655748
0.036863483
0.037177505
0.00049231443
0.00156684
0.0027270604
0.0039671193
0.0052783737
0.0066494634
0.0080666499
0.009514418
0.010976276
0.012435652
0.01387676
0.015285329
0.016649133
0.017958292
0.019205341
0.020385181
0.021494888
0.022533436
0.023501386
0.024400574
0.025233809
0.026004606
0.026716933
0.02737505
0.027983349
0.028546176
0.02906784
0.029552685
0.030004486
0.030426699
0.03082434
0.031198221
0.031557579
0.031891844
0.032223234
0.032534501
0.032842711
0.033142598
0.033438213
0.033731568
0.034023537
0.034315638
0.034609066
0.034905077
0.03520469
0.035508694
0.035817251
0.036132173
0.03645419
0.036783429
0.00046075975
0.0014629739
0.0025422904
0.0036938731
0.0049106753
0.0061834519
0.007500963
0.0088503788
0.010217854
0.011589211
0.012950636
0.014289317
0.015593936
0.016855006
0.018065016
0.01921844
0.020311645
0.021342719
0.022311228
0.023217976
0.024064747
0.024854073
0.025589023
0.026273035
0.026909761
0.02750294
0.028056343
0.028573726
0.029058615
0.02951442
0.029944863
0.030352549
0.030741929
0.031112556
0.031473973
0.0318139
0.032152945
0.032476925
0.032799742
0.033118994
0.033435436
0.033751193
0.034067124
0.034384662
0.03470472
0.035028179
0.035355674
0.03568831
0.036026802
0.036371624
0.0004313635
0.0013667133
0.002371606
0.0034420256
0.0045722022
0.0057545929
0.006979999
0.0082378327
0.0095165218
0.010804018
0.012088346
0.013358136
0.014603068
0.015814204
0.016984189
0.01810731
0.019179463
0.02019806
0.021161872
0.022070834
0.022925842
0.023728558
0.02448123
0.025186527
0.02584741
0.026467011
0.027048557
0.027595301
0.02811042
0.028597048
0.029058336
0.0294971
0.029916484
0.030318412
0.0307072
0.031082938
0.031443415
0.031796894
0.032148829
0.032489491
0.03282967
0.033169092
0.033507213
0.033846271
0.034186775
0.034529805
0.034876095
0.035226481
0.035581663
0.03594227
0.00040397625
0.0012774526
0.0022138078
0.0032096905
0.0042603562
0.0053596344
0.0064999913
0.0076727008
0.0088681252
0.010076085
0.011286285
0.012488739
0.013674161
0.014834278
0.01596204
0.017051736
0.018099
0.019100769
0.020055194
0.020961502
0.021819838
0.022631104
0.023396809
0.024118924
0.024799762
0.02544187
0.026047947
0.02662077
0.027163132
0.027677819
0.028167602
0.028635123
0.029083027
0.029513612
0.029929599
0.030332268
0.030722725
0.031106683
0.031477058
0.031846285
0.032213038
0.032570874
0.032930248
0.033290948
0.033651666
0.034014244
0.03437923
0.034747323
0.035119244
0.035495709
0.00037846132
0.0011946493
0.0020678307
0.0029951963
0.0039728292
0.0049956678
0.0060575349
0.0071512442
0.0082687917
0.0094016204
0.010540939
0.011678063
0.012804736
0.013913413
0.014997467
0.016051333
0.017070555
0.018051774
0.018992687
0.019891962
0.020749124
0.021564427
0.022338728
0.023073371
0.023770072
0.024430829
0.025057835
0.025653412
0.026219954
0.026759888
0.027275644
0.027769602
0.028244095
0.028701314
0.029143446
0.029572171
0.029989191
0.030397183
0.030796065
0.031192099
0.031575218
0.031959098
0.032343509
0.032720143
0.033100232
0.033482354
0.033865912
0.034251561
0.034640128
0.035032409
0.00035469323
0.001117815
0.0019327231
0.0027970538
0.0037075615
0.0046600829
0.0056495457
0.0066700338
0.0077149136
0.0087770217
0.0098488989
0.010923053
0.011992223
0.013049618
0.014089117
0.015105411
0.016094087
0.017051645
0.017975478
0.018863836
0.019715745
0.020530921
0.021309662
0.022052754
0.022761377
0.023437018
0.024081396
0.024696399
0.025284025
0.025846345
0.02638546
0.026903466
0.027402427
0.027884334
0.028351107
0.028804479
0.029246175
0.029678106
0.030101609
0.030519412
0.030931828
0.031333125
0.031735655
0.03213676
0.032539676
0.032935233
0.033337157
0.033740026
0.034144996
0.034552936
0.0003325563
0.0010465077
0.0018076305
0.0026139298
0.0034627074
0.0043505298
0.0052732256
0.0062259232
0.0072031338
0.0081988802
0.0092068669
0.010220678
0.011233988
0.01224076
0.013235421
0.014213004
0.015169242
0.016100613
0.017004345
0.017878393
0.018721406
0.019532661
0.020311989
0.021059694
0.021776479
0.022463368
0.02312164
0.023752774
0.02435839
0.024940208
0.025500013
0.026039612
0.026560812
0.027065386
0.027555053
0.028031452
0.028496197
0.028950918
0.029397089
0.029836366
0.030269477
0.030696348
0.031122955
0.031538334
0.031958273
0.03237703
0.03279939
0.033213638
0.033634601
0.034057923
0.00031194358
0.00098032542
0.0016917818
0.0024446253
0.0032366068
0.0040648874
0.0049260311
0.005816025
0.0067303314
0.0076639766
0.0086116708
0.0095679557
0.010527365
0.011484589
0.012434624
0.013372897
0.014295368
0.015198588
0.016079727
0.016936564
0.017767475
0.018571401
0.019347789
0.020096539
0.020817936
0.021512595
0.022181396
0.022825435
0.023445976
0.024044408
0.024622204
0.025180894
0.02572203
0.026247163
0.02675782
0.027255493
0.027741648
0.028217728
0.028685106
0.029145108
0.029598738
0.030046977
0.03049216
0.030934416
0.03136715
0.031803472
0.032241651
0.032680099
0.033112173
0.033547969
0.00029275601
0.0009189013
0.0015844786
0.0022880581
0.0030277613
0.0038012362
0.0046056479
0.0054376885
0.0062936093
0.0071692795
0.0080602712
0.0089619655
0.0098696752
0.010778773
0.011684817
0.012583661
0.013471548
0.014345176
0.015201742
0.016038947
0.016854994
0.017648574
0.018418838
0.019165353
0.019888053
0.020587192
0.021263296
0.021917114
0.02254958
0.023161766
0.023754856
0.024330108
0.024888826
0.025432341
0.025961983
0.026479075
0.026984925
0.027480814
0.027967976
0.02844759
0.028920705
0.029388378
0.029851869
0.030311627
0.030767312
0.031224697
0.031671662
0.032125316
0.032577245
0.033032841
0.00027490241
0.00086190046
0.0014850857
0.002143248
0.0028348153
0.0035578357
0.0043099674
0.0050884813
0.0058902813
0.0067119424
0.0075497689
0.0083998706
0.0092582536
0.010120919
0.010983966
0.011843681
0.012696627
0.013539705
0.014370202
0.015185821
0.015984676
0.016765295
0.017526607
0.018267915
0.018988867
0.019689411
0.020369762
0.021030362
0.021671839
0.02229498
0.022900692
0.023489974
0.024063895
0.024623564
0.025170118
0.025704701
0.026228455
0.02674251
0.027247961
0.027745864
0.028237213
0.028722979
0.029204118
0.029681341
0.030155368
0.03062818
0.031099507
0.031561049
0.032027999
0.032497054
0.00025829775
0.00080901629
0.0013930252
0.0020093048
0.002656539
0.0033331052
0.0040370667
0.0047661709
0.0055178608
0.0062892998
0.0070774108
0.00787893
0.008690473
0.0095086099
0.010329944
0.01115119
0.011969244
0.012781248
0.013584634
0.01437716
0.015156924
0.015922363
0.016672256
0.01740571
0.018122143
0.018821254
0.019502991
0.020167527
0.020815223
0.021446601
0.022062313
0.02266312
0.02324986
0.023823434
0.024384783
0.024934872
0.025474678
0.026005179
0.026527334
0.027042077
0.027550307
0.028052891
0.028550664
0.029044382
0.029534834
0.03002303
0.030509395
0.030994425
0.031469493
0.031949477
0.00024286112
0.00075996516
0.001307771
0.0018854198
0.0024918147
0.0031256066
0.0037851916
0.0044687096
0.0051740492
0.0058988629
0.0066405937
0.0073965124
0.0081637643
0.0089394254
0.0097205631
0.010504298
0.011287863
0.01206866
0.012844302
0.01361265
0.014371836
0.01512027
0.015856642
0.016579926
0.017289365
0.017984458
0.018664939
0.019330747
0.019982011
0.020619017
0.021242188
0.02185206
0.022449261
0.023034488
0.023608495
0.024172071
0.024726031
0.025271199
0.025808398
0.026338438
0.02686211
0.027380178
0.027893379
0.028402416
0.028907992
0.029410814
0.029911409
0.030410246
0.030907767
0.031395111
0.00022851869
0.00071448481
0.0012288386
0.001770857
0.0023396266
0.0029340307
0.0035527409
0.00419422
0.0048567248
0.0055383143
0.006236867
0.0069501065
0.0076756346
0.0084109721
0.0091536044
0.0099010299
0.010650808
0.011400608
0.012148244
0.012891715
0.013629227
0.014359211
0.015080323
0.015791454
0.016491729
0.017180495
0.017857311
0.01852193
0.019174278
0.019814438
0.020442628
0.021059182
0.021664531
0.022259184
0.022843716
0.023418746
0.02398493
0.024542943
0.025093471
0.025637199
0.026174803
0.026706942
0.027234255
0.02775736
0.028276853
0.028793306
0.029307203
0.029818966
0.03032896
0.030837554
0.00021520166
0.00067233535
0.0011557831
0.0016649418
0.0021990505
0.0027571858
0.0033382532
0.0039409821
0.0045639333
0.0052055029
0.0058639332
0.0065373298
0.0072236845
0.0079209049
0.0086268476
0.0093393557
0.010056297
0.010775602
0.011495299
0.012213544
0.01292865
0.013639102
0.014343567
0.0150409
0.015730151
0.016410561
0.017081559
0.017742744
0.018393881
0.019034878
0.019665774
0.020286725
0.020897982
0.021499883
0.022092833
0.022677292
0.023253761
0.023822773
0.024384878
0.024940636
0.025490606
0.026035338
0.026575373
0.027111232
0.027643412
0.028172383
0.028698559
0.029222297
0.029743899
0.030263672
0.00020284599
0.0006332957
0.0010881985
0.0015670564
0.0020692409
0.0025939878
0.0031403961
0.0037074221
0.0042938774
0.0048984374
0.0055196476
0.0061559344
0.0068056211
0.0074669481
0.008138098
0.008817223
0.0095024748
0.010192035
0.010884144
0.011577129
0.012269427
0.012959605
0.013646373
0.014328589
0.015005266
0.015675581
0.016338869
0.016994615
0.017642453
0.018282147
0.018913587
0.01953677
0.020151793
0.020758834
0.021358145
0.021950036
0.022534865
0.023113026
0.023684938
0.024251036
0.024811765
0.025367568
0.02591888
0.026466126
0.02700971
0.027550008
0.028087357
0.028622046
0.029154317
0.029684424
0.0001913922
0.00059716218
0.0010257132
0.0014766392
0.0019494255
0.0024434454
0.0029579568
0.0034921028
0.0040449084
0.0046152807
0.0052020169
0.005803812
0.0064192692
0.0070469139
0.0076852114
0.0083325875
0.0089874508
0.0096482169
0.010313332
0.010981295
0.01165068
0.012320155
0.012988494
0.013654588
0.014317448
0.014976218
0.015630173
0.016278721
0.016921393
0.017557842
0.018187831
0.018811228
0.01942799
0.02003816
0.020641848
0.021239229
0.021830525
0.022416
0.022995949
0.023570689
0.02414055
0.024705866
0.025266973
0.025824198
0.026377851
0.026928222
0.02747557
0.028020114
0.028562037
0.029101542
0.00018078515
0.00056374749
0.00096798666
0.0013931775
0.0018389039
0.0023046557
0.0027898271
0.0032937148
0.0038155193
0.0043543442
0.004909197
0.0054789963
0.0060625809
0.006658718
0.0072661165
0.0078834412
0.0085093299
0.0091424118
0.0097813259
0.01042474
0.01107137
0.011719993
0.012369466
0.01301873
0.013666823
0.014312883
0.014956156