/*--------------------------------*- C++ -*----------------------------------*\
| =========                 |                                                 |
| \\      /  F ield         | OpenFOAM: The Open Source CFD Toolbox           |
|  \\    /   O peration     | Version:  2312                                  |
|   \\  /    A nd           | Website:  www.openfoam.com                      |
|    \\/     M anipulation  |                                                 |
\*---------------------------------------------------------------------------*/
FoamFile
{
    version     2.0;
    format      ascii;
    arch        "LSB;label=32;scalar=64";
    class       volScalarField;
    location    "0.04";
    object      N2;
}
// * * * * * * * * * * * * * * * * * * * * * * * * * * * * * * * * * * * * * //

dimensions      [0 0 0 0 0 0 0];

internalField   nonuniform List<scalar> 
3275
(
0.023541631
0.10429272
0.19113569
0.26596557
0.32737101
0.37620753
0.41593184
0.44869299
0.47615541
0.49944138
0.51944036
0.53394724
0.54774801
0.5598367
0.57025959
0.57931199
0.58723885
0.59424107
0.60047704
0.60607076
0.61112005
0.61570383
0.61988692
0.6237221
0.62725311
0.63051654
0.63354326
0.63635952
0.63898783
0.64144759
0.64375564
0.64592671
0.64797373
0.64990813
0.65174008
0.65347863
0.65513192
0.65670729
0.65821137
0.65965018
0.66102924
0.66235357
0.66362779
0.66485616
0.66604275
0.66719242
0.66825063
0.66932118
0.67037902
0.6714109
0.67241922
0.67340516
0.036545853
0.1290765
0.21094886
0.28009095
0.33713057
0.38270087
0.42041604
0.45185608
0.47845661
0.50114931
0.52072461
0.53498599
0.54856469
0.56048956
0.57079062
0.57975048
0.58760592
0.59455213
0.60074351
0.60630128
0.61132122
0.61588076
0.62004365
0.62386182
0.62737838
0.63062944
0.6336455
0.63645251
0.63907273
0.64152539
0.64382717
0.64599267
0.64803473
0.6499647
0.65179265
0.65352761
0.65517764
0.65675005
0.65825144
0.65968779
0.6610646
0.66238687
0.66365921
0.66488584
0.66607068
0.66721828
0.66827516
0.66934523
0.67040177
0.67143251
0.6724399
0.67342518
0.07341973
0.1797537
0.24962334
0.30731571
0.3559699
0.39520088
0.42904954
0.45802024
0.48296798
0.5045097
0.5232586
0.53704274
0.55018051
0.56178404
0.57184493
0.580622
0.58833608
0.5951713
0.60127425
0.60676063
0.61172224
0.61623362
0.6203563
0.62414061
0.62762839
0.63085481
0.63384961
0.63663816
0.63924227
0.64168076
0.64397003
0.64612444
0.64815661
0.65007772
0.65189772
0.6536255
0.65526904
0.65683556
0.65833157
0.65976303
0.66113536
0.66245354
0.66372215
0.66494534
0.66612677
0.66727001
0.6683244
0.66939354
0.67044755
0.67147604
0.67248161
0.67346566
0.15570611
0.25924568
0.30381639
0.34497913
0.38228288
0.41260378
0.44126286
0.46686181
0.4894936
0.50940055
0.52696502
0.54007024
0.55255764
0.56369537
0.57340534
0.58191423
0.58942036
0.59609192
0.60206421
0.60744493
0.61232011
0.61676
0.62082296
0.62455691
0.62800188
0.6311916
0.63415473
0.63691577
0.63949582
0.64191318
0.64418379
0.64632162
0.64833902
0.6502469
0.65205502
0.65377208
0.65540592
0.65696363
0.65845163
0.65987577
0.66124141
0.66255348
0.66381651
0.66503463
0.66621111
0.6673473
0.66839838
0.66946606
0.67051633
0.67154146
0.67254427
0.67352697
0.32384107
0.36080763
0.3713093
0.38951154
0.41222254
0.43494277
0.45662844
0.47794452
0.49776882
0.51565537
0.53173499
0.54400265
0.55564473
0.56618896
0.57544745
0.58360965
0.59084593
0.5973044
0.60310614
0.6083486
0.61311044
0.61745645
0.62144086
0.62510849
0.628497
0.6316383
0.6345596
0.63728427
0.63983252
0.64222191
0.64446779
0.64658367
0.64858149
0.65047184
0.65226419
0.65396703
0.65558801
0.65713403
0.65861139
0.66002581
0.66138257
0.66268652
0.66394217
0.66515363
0.66632397
0.66744954
0.66849717
0.66956271
0.670608
0.67162863
0.67262767
0.67360994
0.59159949
0.46727983
0.43631686
0.43375507
0.44225832
0.45678832
0.47369147
0.49015448
0.50692803
0.52264948
0.53710417
0.54848498
0.5591677
0.56904785
0.57779749
0.58556691
0.592496
0.59871094
0.60431704
0.60940045
0.61403158
0.61826907
0.62216253
0.62575324
0.62907618
0.63216116
0.63503375
0.63771604
0.64022719
0.64258393
0.64480094
0.64689117
0.64886609
0.65073593
0.65250983
0.65419602
0.65580193
0.65733426
0.65879915
0.66020219
0.66154853
0.66284295
0.66408993
0.66529367
0.66645782
0.6675683
0.66861392
0.66967645
0.67071588
0.67173117
0.67272542
0.6737037
0.68544951
0.54483366
0.49116179
0.4733029
0.47202053
0.47894943
0.49052708
0.50312699
0.51653729
0.53007129
0.54282899
0.55333308
0.56299516
0.57216081
0.58036616
0.58771341
0.59431064
0.60026133
0.60565438
0.61056403
0.61505199
0.61917034
0.62296374
0.62646969
0.62972026
0.632743
0.6355617
0.63819705
0.64066707
0.64298759
0.64517254
0.64723426
0.64918373
0.65103075
0.65278413
0.65445179
0.65604091
0.657558
0.659009
0.66039934
0.66173406
0.66301785
0.66425513
0.66545025
0.66660944
0.66769854
0.66874552
0.66980371
0.67083659
0.67184586
0.6728345
0.67380704
0.72171141
0.60409175
0.541064
0.51203791
0.50186598
0.50207218
0.50806822
0.5170848
0.52734286
0.53833803
0.54921657
0.55883657
0.56740082
0.57572955
0.5833249
0.59019559
0.59641592
0.60206494
0.60721367
0.61192333
0.61624598
0.62022642
0.6239037
0.62731109
0.63047735
0.63342747
0.63618321
0.63876364
0.6411855
0.64346356
0.64561089
0.64763915
0.64955871
0.65137891
0.65310815
0.654754
0.65632336
0.65782249
0.65925711
0.66063249
0.66195351
0.66322475
0.66445054
0.66563514
0.66678456
0.66785605
0.66890316
0.66995425
0.67097949
0.67198165
0.67296346
0.67392852
0.73772546
0.64572144
0.58282658
0.54762335
0.53069384
0.52507399
0.52631314
0.53148114
0.53897842
0.54742695
0.55634215
0.56477999
0.57238057
0.57973515
0.58666709
0.59301221
0.5988138
0.60412562
0.60899988
0.61348389
0.61761935
0.62144312
0.62498815
0.628283
0.6313528
0.63421967
0.63690312
0.63942041
0.64178682
0.64401594
0.64611988
0.64810949
0.6499945
0.65178368
0.65348497
0.65510557
0.65665203
0.65813035
0.65954599
0.66090401
0.66220911
0.66346576
0.66467817
0.66585024
0.666986
0.66804215
0.66908791
0.67012971
0.67114611
0.67214001
0.67311383
0.67406955
0.74598328
0.67457122
0.61667634
0.57913892
0.55772832
0.54748192
0.54461492
0.5463324
0.55094596
0.55722401
0.56410215
0.57113981
0.57786224
0.58418639
0.59038107
0.59615774
0.60150301
0.60644479
0.6110161
0.61524981
0.61917678
0.62282545
0.6262222
0.62939052
0.63235159
0.63512444
0.63772609
0.64017181
0.64247529
0.64464879
0.64670336
0.64864894
0.65049455
0.65224834
0.65391772
0.65550946
0.65702975
0.65848426
0.65987818
0.66121631
0.66250316
0.66374306
0.66494013
0.66609783
0.6672159
0.66825857
0.66930103
0.67033178
0.67133804
0.67232253
0.67328729
0.67423123
0.75090284
0.69473437
0.64360943
0.60640089
0.58248212
0.56885196
0.5625811
0.56129542
0.5632555
0.56730695
0.57247201
0.57797155
0.58365504
0.58909306
0.59444617
0.59962225
0.60447887
0.60902123
0.61326335
0.61722359
0.62092174
0.62437746
0.62761021
0.63063815
0.63347828
0.63614629
0.63865652
0.64102213
0.64325503
0.64536607
0.64736511
0.64926113
0.65106233
0.65277619
0.65440955
0.65596868
0.65745938
0.65888695
0.66025626
0.66157186
0.66283802
0.66405891
0.66523861
0.6663806
0.6674756
0.66850742
0.66954405
0.67056216
0.67155694
0.67253084
0.6734859
0.6744142
0.75419348
0.70913066
0.66486997
0.62959844
0.60472462
0.58884868
0.57993169
0.5760584
0.57571998
0.57767204
0.5811018
0.58528036
0.58973593
0.59435089
0.59889556
0.60339206
0.60773334
0.61185093
0.61574046
0.61940597
0.62285629
0.62610208
0.62915569
0.63202976
0.63473689
0.6372893
0.63969851
0.64197538
0.64412998
0.6461716
0.64810883
0.6499496
0.65170126
0.65337052
0.65496359
0.65648622
0.65794378
0.65934116
0.66068289
0.66197319
0.6632161
0.66441558
0.66557578
0.66670207
0.6677651
0.66879162
0.66981857
0.67082256
0.67180448
0.67276657
0.67371232
0.67461805
0.75658587
0.71969097
0.68165282
0.64913224
0.62442541
0.60727032
0.59642383
0.59045111
0.58807467
0.58820686
0.58998361
0.59281005
0.59620786
0.59984005
0.60367372
0.6074746
0.61125495
0.61492711
0.61844395
0.62179577
0.62498099
0.62800107
0.63086119
0.6335684
0.63613082
0.63855708
0.64085574
0.64303528
0.64510383
0.64706902
0.64893807
0.65071783
0.65241469
0.65403456
0.65558297
0.6570651
0.65848583
0.65984968
0.66116072
0.66242285
0.66363984
0.66481538
0.66595349
0.66705694
0.66809358
0.66911433
0.67012614
0.67111477
0.67208239
0.67303117
0.67396239
0.67485061
0.75842615
0.72765696
0.69497469
0.66549118
0.64169373
0.62402922
0.61189114
0.60428932
0.60020548
0.59871344
0.59903212
0.60055914
0.60287367
0.60564878
0.60865754
0.61185368
0.61504396
0.61824018
0.621368
0.62438984
0.62729481
0.63007484
0.63272817
0.63525626
0.63766275
0.63995265
0.64213144
0.64420519
0.64617999
0.64806174
0.64985622
0.65156912
0.65320585
0.65477146
0.65627074
0.65770825
0.65908841
0.66041526
0.66169243
0.66292342
0.66411173
0.66526067
0.66637444
0.66744807
0.66846414
0.66947532
0.67046893
0.67144062
0.67239245
0.67332677
0.67423826
0.6751135
0.75989607
0.73382606
0.7056453
0.67917091
0.6567241
0.63912723
0.62623708
0.61744217
0.61198064
0.60909362
0.60810644
0.60845925
0.60973272
0.6116264
0.6139172
0.61641962
0.61909657
0.6217897
0.62450444
0.62718291
0.62979505
0.63232242
0.63475693
0.63709459
0.63933456
0.64147837
0.6435283
0.64548799
0.6473615
0.64915288
0.65086639
0.65250659
0.65407783
0.65558427
0.65702988
0.65841858
0.65975432
0.66104065
0.66228066
0.66347746
0.6646343
0.6657538
0.66684229
0.66787597
0.66888045
0.66987544
0.67084893
0.67180201
0.67273641
0.67365645
0.67454032
0.67540912
0.76110087
0.73871733
0.71428625
0.69062812
0.66975306
0.65263042
0.6394238
0.62982179
0.62329475
0.61924919
0.61711876
0.6164127
0.61673072
0.61777531
0.6193318
0.62122922
0.62332005
0.62557281
0.62785497
0.6301675
0.63247739
0.63474139
0.63694655
0.63908356
0.64114725
0.6431359
0.64504838
0.64688607
0.64865098
0.65034521
0.65197143
0.65353312
0.65503354
0.65647588
0.65786326
0.65919889
0.6604863
0.66172856
0.66292806
0.66408748
0.66521017
0.66629678
0.66735059
0.66835331
0.66934382
0.67031635
0.67126809
0.67220088
0.67311564
0.6740156
0.67487701
0.67573987
0.76210703
0.74267599
0.72136602
0.70026024
0.6810283
0.66464642
0.65145965
0.64137879
0.63407064
0.62909475
0.62599349
0.62434616
0.62379589
0.62405362
0.62490359
0.62618378
0.62776101
0.62951382
0.63141103
0.63334896
0.63533603
0.63732777
0.63929481
0.64122228
0.64310081
0.6449261
0.64669305
0.64840121
0.65005056
0.65164112
0.65317384
0.65465132
0.65607565
0.657449
0.65877361
0.66005182
0.66128698
0.66248162
0.66363718
0.66475586
0.66584218
0.66689281
0.66790099
0.66888503
0.66985312
0.67080032
0.67172844
0.67263929
0.67353206
0.67440695
0.67525163
0.67610485
0.76295948
0.74593755
0.72723555
0.70840107
0.69078876
0.67530574
0.6623868
0.65209615
0.64425732
0.63856391
0.63466119
0.63220023
0.63086908
0.6304061
0.63059925
0.63128512
0.63233803
0.6336487
0.63511602
0.63670343
0.63838745
0.64007599
0.6417982
0.6435087
0.64519417
0.64684902
0.64846291
0.65003454
0.65156187
0.65304256
0.65447568
0.65586344
0.65720655
0.65850612
0.65976346
0.66097987
0.66215882
0.6633024
0.66441053
0.66548459
0.66653358
0.66753363
0.66850949
0.66947071
0.67040964
0.67132943
0.67223202
0.67311957
0.67398804
0.67483098
0.67566813
0.67650453
0.76368998
0.74866633
0.73215827
0.71532499
0.6992535
0.68474774
0.67227029
0.66198272
0.653827
0.6476086
0.6430655
0.6399184
0.63790276
0.63678608
0.63637385
0.63650625
0.63705263
0.63791207
0.63899522
0.64021869
0.6415746
0.64300126
0.64445289
0.6459397
0.64742496
0.64890398
0.65035769
0.65178641
0.65318593
0.65455105
0.65587854
0.65717136
0.65842829
0.65964945
0.6608352
0.66198525
0.66310408
0.66419339
0.66525061
0.66627466
0.66727707
0.66823333
0.66918142
0.67010846
0.67101557
0.6719058
0.67278074
0.67364453
0.67447725
0.67530123
0.67612422
0.67694093
0.76432188
0.75097898
0.73633175
0.7212547
0.70661672
0.69311081
0.6811887
0.67106674
0.66277139
0.65619748
0.65116307
0.64745327
0.64485079
0.6431549
0.6421905
0.6418086
0.64188269
0.64230468
0.64299597
0.64387927
0.64492484
0.64605057
0.64725873
0.6485246
0.64978918
0.65108983
0.65237603
0.65365634
0.65492318
0.65616769
0.65738332
0.6585765
0.65974257
0.6608809
0.66199108
0.66306984
0.66412466
0.66515711
0.66616039
0.66712742
0.66807546
0.66900216
0.66991042
0.67080045
0.67167301
0.67253149
0.67337615
0.67420834
0.67501199
0.67581919
0.67662016
0.7648728
0.7529604
0.73990454
0.72636914
0.71304668
0.70052611
0.68922701
0.67938998
0.67109793
0.66431397
0.65892278
0.65476673
0.65167343
0.64947466
0.64801656
0.64716243
0.64679342
0.6468086
0.64711905
0.64766504
0.64839469
0.64925352
0.65019693
0.65122725
0.65229431
0.65341091
0.65451511
0.65564284
0.65677342
0.65789336
0.65898998
0.66007988
0.66115064
0.66220193
0.66323339
0.66423499
0.6652219
0.66619611
0.66712882
0.66804919
0.66895002
0.66983238
0.67069823
0.67154878
0.67238388
0.67320872
0.67402102
0.67481262
0.67559913
0.67638119
0.67715777
0.76535642
0.75467383
0.74298924
0.73081031
0.71868685
0.70711411
0.69647124
0.68700273
0.67882597
0.67195395
0.66632465
0.66182966
0.65833764
0.65571161
0.65381947
0.65253917
0.65176152
0.65139122
0.65134812
0.65156216
0.6519864
0.65256716
0.65326564
0.65406859
0.65491902
0.65584225
0.65678043
0.65775135
0.65873593
0.65972928
0.66069678
0.66168231
0.66265327
0.66361339
0.66456494
0.66548115
0.66639614
0.6673015
0.66817948
0.66904322
0.66989137
0.67072616
0.67154688
0.67235567
0.67314978
0.67393973
0.67470809
0.6754752
0.6762343
0.67698863
0.6777391
0.76578349
0.75616734
0.74567257
0.73469025
0.72365629
0.71298246
0.70300481
0.69395986
0.68598349
0.67912332
0.67335852
0.66862136
0.66481653
0.66183593
0.65956924
0.65791031
0.65676125
0.65603445
0.65565359
0.65555653
0.65568607
0.65599485
0.65644757
0.65701803
0.65766869
0.65839934
0.65915748
0.65997208
0.66080672
0.66166044
0.66251643
0.66338515
0.66425063
0.66511482
0.66597408
0.66681677
0.66765577
0.66848759
0.66930381
0.67010843
0.67090068
0.67168535
0.67245838
0.67322364
0.67397149
0.67471735
0.67545716
0.67619045
0.67691848
0.67764334
0.67836604
0.76616259
0.75747814
0.74802222
0.73809838
0.72805231
0.71822359
0.70890473
0.70031709
0.69260391
0.68583558
0.6800219
0.67512777
0.67108839
0.66782177
0.6652386
0.66324903
0.66176729
0.66071454
0.66002049
0.65962426
0.65947669
0.65952507
0.6597337
0.66007892
0.66052529
0.6610597
0.66165162
0.66230545
0.66298335
0.66369773
0.66443447
0.66518697
0.66594195
0.66670739
0.66747396
0.66823555
0.66899614
0.66975365
0.67050369
0.67124682
0.67197871
0.6727112
0.67343504
0.67414333
0.67485477
0.67556036
0.67626149
0.67695888
0.6776536
0.67834709
0.76650067
0.75863545
0.75009173
0.74110682
0.73195529
0.72291559
0.71423873
0.70612653
0.69872168
0.69210796
0.68631714
0.6813396
0.67713587
0.67364697
0.67080315
0.66853042
0.66675546
0.66540878
0.66442685
0.66375323
0.66333914
0.66313827
0.66311575
0.66324032
0.6634827
0.6638267
0.66424674
0.66473413
0.66526686
0.6658426
0.6664511
0.6670875
0.66772504
0.66839115
0.66906322
0.66973886
0.67041829
0.67109955
0.67178002
0.67246093
0.67312512
0.67380214
0.67447213
0.67513585
0.67580006
0.67646222
0.67712265
0.67778207
0.67844139
0.67910144
0.7668034
0.75966259
0.75192392
0.74377424
0.73543215
0.72712508
0.71906606
0.7114353
0.70436947
0.69795864
0.69224935
0.68725129
0.68294555
0.67929292
0.67624128
0.67373166
0.67170295
0.67009526
0.66885224
0.6679225
0.66726002
0.66682272
0.66657533
0.66648995
0.66653502
0.66669098
0.66693856
0.66726329
0.66764772
0.66808456
0.66856264
0.6690751
0.66960766
0.67016621
0.67074082
0.67132699
0.67192261
0.6725252
0.67313241
0.67374242
0.6743498
0.67496441
0.6755786
0.67619235
0.67680789
0.67742448
0.67804211
0.67866152
0.67928347
0.67990829
0.76707546
0.76057838
0.75355346
0.74614881
0.73853896
0.73090928
0.72343898
0.71628636
0.70957849
0.70340654
0.69782601
0.69286055
0.68850753
0.68474427
0.68153419
0.6788321
0.67658851
0.67475305
0.67327678
0.67211382
0.67122204
0.67056299
0.67010319
0.66981394
0.66966758
0.66964394
0.66972234
0.66988559
0.67012103
0.67041973
0.67076637
0.67115647
0.67157846
0.67202981
0.67250525
0.67299944
0.67350897
0.67403062
0.67456207
0.67510114
0.67564539
0.67619744
0.67675398
0.67731449
0.67787947
0.67844849
0.67902118
0.67959858
0.68018134
0.68076929
0.76732073
0.76139816
0.75500864
0.7482703
0.74132298
0.73431757
0.72740387
0.72071906
0.71437864
0.70847113
0.70305651
0.6981679
0.69381504
0.68998876
0.68666581
0.6838133
0.68139258
0.6793624
0.67768126
0.67630904
0.67520806
0.67434346
0.67368401
0.673202
0.672872
0.67267258
0.67258686
0.67259427
0.67268265
0.67284396
0.67305776
0.67332688
0.67363616
0.67397929
0.67435455
0.67475509
0.67517676
0.67561541
0.67606908
0.67653587
0.67701343
0.67750161
0.67799851
0.67850332
0.67901582
0.67953545
0.68006095
0.68059436
0.68113627
0.68168615
0.76754248
0.76213462
0.75631281
0.75017189
0.74382426
0.73739276
0.73100197
0.72476953
0.71879852
0.71317229
0.70795191
0.70317629
0.69886413
0.69501697
0.69162266
0.68865907
0.68609737
0.68390488
0.68204731
0.68049041
0.67920115
0.67814842
0.67730364
0.67664085
0.67613648
0.67576987
0.67552321
0.67537872
0.67532468
0.67534801
0.67543507
0.67558198
0.67577838
0.67601115
0.67628638
0.67659218
0.67692494
0.6772786
0.67765268
0.67804581
0.67845433
0.67887704
0.67931241
0.67975947
0.6802177
0.68068656
0.68116217
0.6816496
0.68214924
0.68266116
0.76774348
0.76279827
0.75748539
0.75188136
0.7460769
0.74017205
0.73427007
0.72847098
0.72286544
0.71753008
0.71252458
0.70789077
0.7036534
0.6998221
0.69639377
0.69335543
0.69068695
0.68836348
0.68635759
0.68464078
0.68318475
0.68196223
0.68094755
0.68011699
0.67944876
0.67892334
0.67852329
0.67823245
0.67803729
0.6779283
0.67788977
0.67791591
0.6779972
0.6781256
0.67829815
0.67850832
0.67875226
0.67901854
0.67931127
0.67963013
0.67996784
0.68032349
0.68069563
0.68108314
0.68148543
0.68190337
0.68232499
0.68276455
0.68322036
0.68368752
0.76792608
0.76339799
0.75854266
0.7534222
0.74811009
0.74268788
0.73724099
0.73185388
0.72660536
0.72156454
0.71678797
0.71231821
0.70818369
0.70439982
0.7009706
0.69789062
0.69514726
0.69272273
0.6905959
0.68874379
0.68714277
0.68576941
0.68460116
0.68361671
0.68279626
0.68212165
0.68157639
0.68114544
0.68081571
0.68057601
0.68041379
0.68032325
0.68029204
0.68031481
0.68038568
0.68049985
0.68065149
0.68083424
0.68104694
0.681288
0.68155317
0.68184034
0.68214778
0.6824741
0.68281826
0.6831793
0.68355302
0.68394397
0.68435178
0.68477403
0.76809228
0.76394125
0.75949839
0.75481435
0.74994889
0.74496862
0.73994406
0.7349462
0.73004287
0.72529547
0.72075631
0.71646701
0.71245782
0.708748
0.70534683
0.70225498
0.69946617
0.69696875
0.69474732
0.69278404
0.69105976
0.68955485
0.68824992
0.68712626
0.6861661
0.68535292
0.68467144
0.68410768
0.6836491
0.68328448
0.68300304
0.68279651
0.68265515
0.68257455
0.68254513
0.68256374
0.68262422
0.68272203
0.68285374
0.68301715
0.68320887
0.68342653
0.6836681
0.68393196
0.68421674
0.68452113
0.68484324
0.68518417
0.6855436
0.68592015
0.76824383
0.76443444
0.76036429
0.75607487
0.75161497
0.74703911
0.74240548
0.73777352
0.73320116
0.72874226
0.72444433
0.72034684
0.7164804
0.71286655
0.70951827
0.70644094
0.7036334
0.7010893
0.69879828
0.69674718
0.69492105
0.69330394
0.69187959
0.6906319
0.6895453
0.68860498
0.68779708
0.68710873
0.68652815
0.68604461
0.6856482
0.68533025
0.68508244
0.68489832
0.68477037
0.68469574
0.6846666
0.68467902
0.68472928
0.68481517
0.68493297
0.6850805
0.68525537
0.68545585
0.68568035
0.68592749
0.68619595
0.68648557
0.68679582
0.68712572
0.76838224
0.76488304
0.76115038
0.75721841
0.75312711
0.74892119
0.7446487
0.74035924
0.73610202
0.7319238
0.72786704
0.72396835
0.72025755
0.71675722
0.71348274
0.71044288
0.70764059
0.70507384
0.70273665
0.70062004
0.69871289
0.69700271
0.69547629
0.69412012
0.69292084
0.69186548
0.69094168
0.69013777
0.68944293
0.68884711
0.68834108
0.68791649
0.68756556
0.68728157
0.68705797
0.68688945
0.68677334
0.68670119
0.68667097
0.68667929
0.68672295
0.68680021
0.68690789
0.68704443
0.68720799
0.68739717
0.68761073
0.68784797
0.6881082
0.6883905
0.76850881
0.76529177
0.7618653
0.75825763
0.75450163
0.75063409
0.74669468
0.74272474
0.73876586
0.7348583
0.73103953
0.7273429
0.72379665
0.72042338
0.71723983
0.7142571
0.71148117
0.70891352
0.70655181
0.7043907
0.70242252
0.70063797
0.69902669
0.69757771
0.69627986
0.69512204
0.69409344
0.6931837
0.69238304
0.69168227
0.69107285
0.69054693
0.69009724
0.68971723
0.68940085
0.68914285
0.68893886
0.68878287
0.68867438
0.68860565
0.68857635
0.68858326
0.6886234
0.68869586
0.68879805
0.68892877
0.68908662
0.68927071
0.68948016
0.68971404
0.7686247
0.76566475
0.76251654
0.75920352
0.75575283
0.75219478
0.7485622
0.74488949
0.74121168
0.73756322
0.73397682
0.73048238
0.72710611
0.72386986
0.72079085
0.71788165
0.71515036
0.71260115
0.71023466
0.7080486
0.70603832
0.7041974
0.70251813
0.70099193
0.69960976
0.69836235
0.6972405
0.69623521
0.6953378
0.69454003
0.69383414
0.69321287
0.6926695
0.69219783
0.69179219
0.69144746
0.69115905
0.6909223
0.69073413
0.69058954
0.69048901
0.69042612
0.6903997
0.69040791
0.69044843
0.69052052
0.69062221
0.69075261
0.69091072
0.69109554
0.76873093
0.76600555
0.76311062
0.76006569
0.75689322
0.75361829
0.75026807
0.74687123
0.74345716
0.74005518
0.73669364
0.733399
0.73019513
0.72710266
0.7241386
0.72131623
0.71864508
0.71613123
0.71377764
0.71158454
0.70954987
0.70766971
0.70593875
0.70435063
0.70289831
0.70157435
0.7003711
0.69928092
0.69829633
0.69741006
0.6966152
0.69590518
0.69527384
0.69471546
0.69422475
0.69379684
0.69342726
0.69311185
0.69284702
0.69262902
0.69245517
0.69232529
0.69223281
0.69217732
0.69215708
0.69217028
0.69221553
0.69229205
0.69239851
0.69253384
0.76882838
0.76631731
0.76365324
0.76085251
0.75793381
0.75491792
0.75182738
0.74868607
0.74551864
0.74234995
0.73920435
0.73610508
0.73307353
0.73012878
0.72728717
0.72456208
0.72196384
0.71949984
0.71717475
0.71499079
0.71294801
0.71104468
0.70927757
0.70764235
0.70613385
0.70474631
0.70347363
0.70230951
0.70124766
0.70028184
0.69940601
0.69861435
0.69790133
0.69726176
0.69669076
0.69618382
0.69573674
0.69534563
0.69500698
0.6947175
0.69447447
0.69427575
0.69411738
0.69400085
0.69392022
0.69387514
0.69386465
0.69388696
0.69394167
0.69402732
0.76891787
0.7666028
0.76414941
0.76157139
0.75888432
0.7561055
0.75325366
0.75034868
0.74741125
0.74446235
0.74152284
0.7386129
0.73575151
0.73295602
0.73024176
0.72762176
0.72510665
0.72270461
0.7204215
0.71826101
0.71622492
0.71431325
0.71252463
0.71085649
0.70930533
0.70786699
0.70653681
0.70530982
0.70418086
0.70314476
0.70219635
0.70133062
0.7005427
0.69982796
0.69918202
0.69860074
0.69808027
0.69761702
0.69720768
0.69684921
0.69653892
0.69627435
0.69605281
0.6958725
0.69573426
0.69563182
0.6955658
0.6955349
0.69553822
0.69557389
0.76900008
0.76686446
0.76460354
0.76222883
0.75975337
0.75719156
0.75455903
0.75187237
0.74914889
0.74640631
0.7436624
0.74093458
0.73823953
0.7355928
0.7330085
0.73049903
0.72807489
0.72574463
0.72351487
0.72139034
0.7193741
0.71746762
0.71567104
0.71398332
0.71240246
0.71092573
0.7095498
0.70827095
0.70708515
0.70598823
0.70497594
0.70404405
0.70318841
0.70240498
0.70168988
0.70103945
0.70045019
0.69991885
0.69944237
0.69901796
0.69864303
0.69831523
0.6980323
0.69779243
0.69759432
0.69743475
0.69731602
0.69723236
0.69718465
0.69717158
0.76907566
0.76710446
0.76501954
0.7628306
0.76054856
0.75818549
0.75575441
0.7532692
0.75074437
0.74819484
0.74563572
0.74308196
0.7405481
0.73804794
0.73559428
0.73319864
0.73087114
0.72862035
0.72645326
0.72437529
0.72239042
0.72050123
0.71870906
0.71701415
0.71541581
0.71391256
0.7125023
0.71118243
0.70995
0.70880181
0.7077345
0.70674463
0.70582876
0.70498346
0.70420542
0.70349143
0.70283842
0.70224348
0.70170386
0.70121702
0.70078057
0.70039233
0.70005025
0.69975254
0.69949757
0.69928341
0.69910896
0.69897568
0.698878
0.69881639
0.76914516
0.76732471
0.76540087
0.7633818
0.7612767
0.75909566
0.75684959
0.75455012
0.7522094
0.74984002
0.74745477
0.74506646
0.74268767
0.74033055
0.73800653
0.73572619
0.73349903
0.7313334
0.72923637
0.72721375
0.72527009
0.72340879
0.72163212
0.71994137
0.71833691
0.71681835
0.71538466
0.71403429
0.71276527
0.71157531
0.71046189
0.70942236
0.70845396
0.70755391
0.70671945
0.70594786
0.70523651
0.70458286
0.70398451
0.70343918
0.70294474
0.70249919
0.70210069
0.70174753
0.70143815
0.70117101
0.70094485
0.70075854
0.70061389
0.70050519
0.7692091
0.76752695
0.76575062
0.763887
0.76194382
0.75992956
0.75785339
0.75572504
0.75355472
0.75135305
0.74913085
0.74689905
0.74466851
0.7424498
0.7402531
0.73808794
0.73596311
0.73388652
0.73186513
0.72990486
0.72801061
0.7261863
0.72443489
0.72275846
0.72115826
0.71963481
0.718188
0.7168172
0.7155213
0.71429888
0.71314821
0.71206736
0.71105426
0.71010675
0.70922262
0.70839967
0.7076357
0.70692859
0.70627627
0.70567678
0.70512825
0.70462891
0.70417712
0.70377133
0.70341011
0.70309212
0.70281617
0.70258118
0.70238615
0.70223301
0.76926793
0.76771271
0.76607153
0.76435023
0.76255531
0.76069391
0.75877372
0.75680293
0.75479014
0.75274428
0.75067453
0.74859018
0.74650057
0.74441489
0.74234207
0.74029064
0.73826861
0.73628335
0.73434151
0.73244895
0.73061071
0.72883099
0.72711323
0.72546008
0.72387347
0.72235465
0.72090429
0.71952253
0.71820905
0.71696317
0.7157839
0.71466999
0.71362002
0.71263242
0.71170554
0.71083765
0.71002704
0.70927198
0.70857078
0.70792177
0.70732339
0.70677412
0.70627253
0.70581727
0.70540708
0.70504077
0.70471726
0.70443557
0.7041948
0.70399392
0.76932207
0.76788338
0.76636608
0.76477511
0.76311598
0.76139469
0.75961771
0.75779193
0.75592459
0.75402324
0.75209564
0.75014973
0.74819347
0.74623483
0.74428162
0.74234139
0.74042136
0.73852829
0.73666842
0.73484741
0.73307024
0.73134127
0.72966417
0.72804201
0.7264772
0.72497157
0.72352639
0.72214246
0.72082013
0.71955938
0.71835985
0.71722095
0.71614182
0.71512149
0.7141588
0.71325254
0.71240143
0.71160414
0.71085935
0.71016576
0.70952206
0.70892702
0.70837945
0.70787819
0.70742218
0.7070104
0.7066419
0.70631583
0.70603136
0.70578756
0.76937188
0.76804017
0.76663645
0.7651649
0.76363016
0.76203729
0.76039176
0.75869936
0.7569662
0.75519866
0.75340334
0.75158696
0.74975636
0.7479184
0.74607988
0.74424745
0.74242756
0.74062633
0.73884954
0.73710252
0.7353901
0.73371662
0.73208589
0.73050117
0.72896522
0.72748028
0.72604811
0.72467002
0.72334692
0.72207934
0.7208675
0.71971134
0.71861058
0.71756473
0.71657315
0.71563509
0.71474968
0.71391601
0.71313313
0.71240006
0.71171582
0.71107943
0.71048995
0.70994646
0.70944807
0.70899397
0.70858335
0.70821548
0.70788967
0.70760507
0.7694177
0.7681842
0.76688462
0.76552247
0.76410169
0.76262653
0.76110162
0.75953184
0.75792235
0.75627855
0.75460603
0.75291053
0.7511979
0.74947404
0.74774484
0.74601616
0.74429368
0.74258293
0.74088916
0.73921734
0.73757207
0.73595754
0.73437757
0.73283552
0.73133433
0.72987654
0.72846425
0.72709916
0.72578262
0.72451563
0.72329889
0.72213282
0.72101761
0.71995324
0.71893953
0.71797615
0.71706265
0.71619851
0.71538311
0.71461582
0.71389595
0.71322282
0.71259573
0.712014
0.71147694
0.71098392
0.7105343
0.71012752
0.70976299
0.70943998
0.76945983
0.76831647
0.76711235
0.76585043
0.76453403
0.76316675
0.76175247
0.76029534
0.75879972
0.75727018
0.75571146
0.75412848
0.75252622
0.75090978
0.74928425
0.74765474
0.74602628
0.74440379
0.74279203
0.74119555
0.73961866
0.73806536
0.73653936
0.73504401
0.73358237
0.7321571
0.73077055
0.72942471
0.72812127
0.72686158
0.72564674
0.72447758
0.7233547
0.72227849
0.72124917
0.72026679
0.71933131
0.71844253
0.71760021
0.71680401
0.71605355
0.71534842
0.71468818
0.71407237
0.71350054
0.71297222
0.71248698
0.71204438
0.71164399
0.7112852
0.76949854
0.76843786
0.76732122
0.76615109
0.76493027
0.7636618
0.76234895
0.76099523
0.75960434
0.75818016
0.75672673
0.75524822
0.75374892
0.75223321
0.75070551
0.74917027
0.7476319
0.74609479
0.7445632
0.74304127
0.74153299
0.74004211
0.73857218
0.73712648
0.73570805
0.73431962
0.73296369
0.73164242
0.73035775
0.72911131
0.7279045
0.72673849
0.7256142
0.7245324
0.72349364
0.72249834
0.72154676
0.72063908
0.71977535
0.71895553
0.71817953
0.71744721
0.71675837
0.71611278
0.71551021
0.71495039
0.71443306
0.71395795
0.71352475
0.76953407
0.76854919
0.76751264
0.76642652
0.76529317
0.76411514
0.76289521
0.76163634
0.76034166
0.75901449
0.75765826
0.75627653
0.754873
0.75345142
0.75201564
0.75056952
0.74911694
0.74766179
0.74620787
0.74475892
0.7433186
0.74189039
0.74047764
0.73908349
0.7377109
0.73636263
0.73504119
0.73374888
0.73248778
0.73125972
0.73006633
0.72890903
0.72778904
0.72670739
0.72566494
0.72466242
0.72370039
0.7227793
0.72189951
0.72106126
0.72026472
0.71950999
0.71879713
0.71812613
0.71749696
0.71690955
0.71636381
0.7158596
0.71539664
0.76956665
0.76865115
0.76768788
0.76667857
0.76562518
0.76452986
0.76339496
0.76222297
0.76101656
0.75977855
0.75851188
0.7572196
0.75590488
0.75457096
0.75322117
0.7518589
0.75048754
0.74911052
0.74773124
0.74635307
0.74497932
0.7436132
0.74225783
0.7409162
0.73959115
0.73828536
0.73700135
0.73574145
0.73450783
0.73330245
0.7321271
0.73098338
0.72987273
0.72879641
0.72775553
0.72675106
0.72578382
0.72485454
0.7239638
0.72311211
0.72229989
0.72152747
0.72079512
0.72010306
0.71945145
0.7188404
0.71827001
0.7177403
0.71725109
0.76959646
0.76874439
0.76784805
0.76690887
0.76592848
0.7649087
0.76385148
0.76275896
0.76163339
0.76047718
0.75929284
0.75808301
0.7568504
0.75559783
0.75432818
0.75304441
0.75174951
0.7504465
0.74913841
0.74782827
0.74651907
0.74521376
0.74391521
0.74262624
0.74134952
0.74008765
0.73884309
0.73761817
0.73641506
0.73523582
0.73408232
0.7329563
0.73185935
0.73079291
0.72975828
0.72875663
0.72778901
0.72685634
0.72595946
0.72509907
0.72427581
0.72349023
0.72274281
0.72203396
0.72136402
0.72073331
0.72014206
0.71959047
0.7190785
0.76962369
0.76882948
0.76799414
0.76711887
0.76620501
0.76525406
0.76426769
0.7632477
0.762196
0.76111466
0.76000582
0.75887175
0.75771481
0.75653744
0.75534216
0.75413155
0.75290824
0.7516749
0.75043424
0.74918896
0.74794178
0.74669538
0.7454524
0.74421547
0.7429871
0.74176976
0.74056584
0.73937759
0.73820721
0.73705673
0.7359281
0.73482313
0.73374352
0.73269083
0.73166651
0.7306719