/*--------------------------------*- C++ -*----------------------------------*\
| =========                 |                                                 |
| \\      /  F ield         | OpenFOAM: The Open Source CFD Toolbox           |
|  \\    /   O peration     | Version:  2312                                  |
|   \\  /    A nd           | Website:  www.openfoam.com                      |
|    \\/     M anipulation  |                                                 |
\*---------------------------------------------------------------------------*/
FoamFile
{
    version     2.0;
    format      ascii;
    arch        "LSB;label=32;scalar=64";
    class       volScalarField;
    location    "0.04";
    object      nut;
}
// * * * * * * * * * * * * * * * * * * * * * * * * * * * * * * * * * * * * * //

dimensions      [0 2 -1 0 0 0 0];

internalField   nonuniform List<scalar> 
3275
(
0.024581583
0.025598816
0.026561407
0.02745314
0.028335097
0.029273857
0.030313613
0.031459599
0.03269241
0.033974863
0.035258908
0.036513949
0.037704467
0.038779111
0.039697265
0.040421239
0.04091317
0.041208429
0.041358595
0.04140368
0.041378177
0.041283487
0.041144645
0.040973129
0.040777681
0.040565001
0.040340266
0.040107495
0.039869827
0.039629722
0.039389115
0.039149532
0.038912177
0.038677999
0.038447747
0.038222008
0.038001239
0.037785793
0.037575941
0.037371886
0.037173773
0.036981706
0.036795746
0.036615926
0.036442204
0.036274489
0.036112919
0.03595741
0.035807774
0.035663884
0.035525648
0.035392986
0.02465705
0.025655108
0.026564102
0.027432973
0.028309296
0.029249849
0.030293455
0.03144248
0.032677083
0.033960254
0.035244426
0.036498921
0.03768836
0.038761927
0.039679113
0.040402352
0.040893941
0.041189156
0.04133957
0.041385096
0.041360202
0.041266235
0.041128167
0.040957444
0.040762784
0.040550875
0.040326882
0.040094821
0.039857827
0.03961836
0.039378354
0.039139337
0.038902514
0.038668836
0.038439054
0.038213756
0.037993401
0.037778344
0.037568858
0.037365146
0.037167357
0.036975591
0.036789914
0.036610351
0.036436874
0.036269422
0.036108089
0.035952804
0.035803381
0.035659695
0.035521657
0.03538917
0.024811151
0.025738951
0.026555452
0.027388629
0.028257799
0.029203143
0.030254283
0.031409014
0.032646878
0.033931276
0.03521557
0.036468892
0.037656136
0.038727533
0.039642772
0.040364533
0.040855422
0.041150561
0.04130149
0.041347917
0.04132426
0.041231754
0.041095244
0.040926116
0.040733041
0.040522678
0.040300177
0.04006954
0.039833899
0.039595712
0.039356914
0.039119034
0.03888328
0.038650608
0.03842177
0.03819736
0.03797784
0.037763569
0.037554821
0.037351804
0.037154669
0.036963519
0.03677842
0.036599399
0.036426436
0.036259489
0.036098633
0.035943797
0.035794798
0.035651519
0.03551387
0.035381743
0.025017375
0.02578556
0.0265094
0.027313589
0.028181157
0.029136173
0.030197947
0.031360383
0.032602534
0.033888359
0.035172576
0.036423983
0.037607859
0.038675968
0.039588262
0.040307776
0.040797557
0.041092596
0.041244336
0.04129214
0.041270373
0.041180076
0.041045919
0.040879191
0.040688499
0.040480461
0.040260198
0.040031699
0.039798089
0.039561822
0.039324836
0.039088662
0.038854513
0.038623349
0.03839593
0.038172853
0.037954587
0.037741495
0.037533857
0.037331886
0.037135735
0.036945514
0.036761289
0.036583091
0.036410906
0.036244713
0.036084571
0.035930407
0.035782046
0.035639375
0.035502305
0.035370723
0.02513337
0.025720212
0.026408277
0.027204197
0.028081958
0.029052465
0.030126702
0.031298053
0.032544975
0.033832046
0.035115728
0.036364333
0.037543598
0.038607264
0.039515585
0.040232051
0.040720253
0.041015185
0.041168066
0.041217758
0.041198566
0.041111245
0.040980247
0.040816733
0.040629226
0.040424289
0.040207011
0.039981363
0.039750458
0.039516749
0.039282175
0.039048272
0.03881626
0.038587106
0.038361575
0.038140274
0.037923678
0.037712158
0.037506
0.037305421
0.037110584
0.036921601
0.036738545
0.036561449
0.036390306
0.036225114
0.036065923
0.035912655
0.035765141
0.03562328
0.035486981
0.03535613
0.024759213
0.025528697
0.026259136
0.027074147
0.027971859
0.02896119
0.030048556
0.031228053
0.032479194
0.033766881
0.035049354
0.036294343
0.037468028
0.038526368
0.039429949
0.040142753
0.040628956
0.040923805
0.04107812
0.041130108
0.041114025
0.041030255
0.040903007
0.040743297
0.040559551
0.040358271
0.040144509
0.039922214
0.039694491
0.03946379
0.039232052
0.039000819
0.038771319
0.038544526
0.038321216
0.038102002
0.03788737
0.037677698
0.03747328
0.037274341
0.037081049
0.036893525
0.036711845
0.036536047
0.036366133
0.036202119
0.036044045
0.035891828
0.035745313
0.035604401
0.035469009
0.035339018
0.024605493
0.025328631
0.02609871
0.0269394
0.027858741
0.028866131
0.029966314
0.031153368
0.032407591
0.033695057
0.034975561
0.036216198
0.037383508
0.038435767
0.039333976
0.040042599
0.04052642
0.040821226
0.04097725
0.041031891
0.041019373
0.040939629
0.040816615
0.040661186
0.040481663
0.040284482
0.040074656
0.039856113
0.039631948
0.039404609
0.039176041
0.038947792
0.038721099
0.038496945
0.038276116
0.038059235
0.037846798
0.037639191
0.037436718
0.037239612
0.03704805
0.036862156
0.036682016
0.036507673
0.036339135
0.036176437
0.036019611
0.03586857
0.03572317
0.035583322
0.035448941
0.035319911
0.024543931
0.025161274
0.025939663
0.026799764
0.02773889
0.028763222
0.029875605
0.0310696
0.032325545
0.033611391
0.034888729
0.036123822
0.03728346
0.038328335
0.039220094
0.039923656
0.04040449
0.040699325
0.040857516
0.040915418
0.040907228
0.040832323
0.040714373
0.040564042
0.040389536
0.040197217
0.039992054
0.039777953
0.039557997
0.039334635
0.039109814
0.038885093
0.038661717
0.038440682
0.038222785
0.038008663
0.03779882
0.037593656
0.037393482
0.037198544
0.037009026
0.036825063
0.036646745
0.036474123
0.036307216
0.036146075
0.035990723
0.035841074
0.035696993
0.035558402
0.035425218
0.035297325
0.024520896
0.025043862
0.025798812
0.02666451
0.027617231
0.028655185
0.029777766
0.030976969
0.032233094
0.033515565
0.034787978
0.036016143
0.037166808
0.038202828
0.039086938
0.039784463
0.040261638
0.040556624
0.040717529
0.040779399
0.040776374
0.040707206
0.040595223
0.040450876
0.04028224
0.040095599
0.039895875
0.03968695
0.039471898
0.039253164
0.039032705
0.038812088
0.038592572
0.038375167
0.038160683
0.03794977
0.037742947
0.037540624
0.037343128
0.037150714
0.036963577
0.036781861
0.036605665
0.036435049
0.036270044
0.036110717
0.035957082
0.035809051
0.035666508
0.035529381
0.03539759
0.035271021
0.024516335
0.02497159
0.025684611
0.026540813
0.027498291
0.028544639
0.029673997
0.030875758
0.032130012
0.03340715
0.034672464
0.035892018
0.037032326
0.038057944
0.038933039
0.039623444
0.040096256
0.040391594
0.040555863
0.040622528
0.040625562
0.040563126
0.040458093
0.04032068
0.040158827
0.039978734
0.039785276
0.039582307
0.039372892
0.039159479
0.038944032
0.038728132
0.038513051
0.038299816
0.038089252
0.037882027
0.037678673
0.037479618
0.037285199
0.037095685
0.036911287
0.036732155
0.0365584
0.036390091
0.036227277
0.036070035
0.035918373
0.035772204
0.035631431
0.03549599
0.035365801
0.035240756
0.024521084
0.024931938
0.025598017
0.026432638
0.027385336
0.028433557
0.029565116
0.030766179
0.032015891
0.033285438
0.034541366
0.035750202
0.036878628
0.037892309
0.038756835
0.0394389
0.03990668
0.040202672
0.040371061
0.040443526
0.04045351
0.040398928
0.040301903
0.040172439
0.040018341
0.039845721
0.039659401
0.039463213
0.039260213
0.039052852
0.038843104
0.038632566
0.038422526
0.038214031
0.038007925
0.037804892
0.037605484
0.037410143
0.037219224
0.03703301
0.036851728
0.036675538
0.036504561
0.036338879
0.036178563
0.036023693
0.035874275
0.035730226
0.035591469
0.035457948
0.035329583
0.035206275
0.024529831
0.024913465
0.02553542
0.026340806
0.027280033
0.028323149
0.029451686
0.030648131
0.031890206
0.033149494
0.034393608
0.035589481
0.036704204
0.03770438
0.038556686
0.039228968
0.039691202
0.039988298
0.040161661
0.040241189
0.040258892
0.040213473
0.040125582
0.040005145
0.039859829
0.039695656
0.039517397
0.039328858
0.03913309
0.038932548
0.038729221
0.038524723
0.038320363
0.038117207
0.037916123
0.037717814
0.037522853
0.037331699
0.037144725
0.036962232
0.036784464
0.036611592
0.03644375
0.036281032
0.036123537
0.035971344
0.035824455
0.0356828
0.03554632
0.035414968
0.035288664
0.035167317
0.024539524
0.024907485
0.025491051
0.026263637
0.027182426
0.028213704
0.029333687
0.030521161
0.031752173
0.032998287
0.034227898
0.035408485
0.036507505
0.037492411
0.038330832
0.038991591
0.0394481
0.039746957
0.039926301
0.040014166
0.040040524
0.040005686
0.039928087
0.039817807
0.039682353
0.03952765
0.039358415
0.039178434
0.038990753
0.038797834
0.038601683
0.038403935
0.038205923
0.038008736
0.037813264
0.037620237
0.037430248
0.037243777
0.037061216
0.036882885
0.036709051
0.036539893
0.036375559
0.036216166
0.036061831
0.035912634
0.035768576
0.035629604
0.035495675
0.035366756
0.035242763
0.035123615
0.024548388
0.024907276
0.025458659
0.026197744
0.027091121
0.028104566
0.029210522
0.030384474
0.031600727
0.032830561
0.034042856
0.035205637
0.036286855
0.037254596
0.038077328
0.038724384
0.039175706
0.03947722
0.039663701
0.039761221
0.039797296
0.039774522
0.039708417
0.039609473
0.039485005
0.039340835
0.039181629
0.039011151
0.038832445
0.038647985
0.038459796
0.038269538
0.038078569
0.037888006
0.037698765
0.037511602
0.037327133
0.037145864
0.036968205
0.036794499
0.03662504
0.036460011
0.036299578
0.036143886
0.035993067
0.0358472
0.035706291
0.035570307
0.035439219
0.03531301
0.035191593
0.035074894
0.024555229
0.024907487
0.025431981
0.026138728
0.027003583
0.027994215
0.029081011
0.03023689
0.031434548
0.032644832
0.03383691
0.034979275
0.036040408
0.036989024
0.037794214
0.03842543
0.038872577
0.039177819
0.039372708
0.03948126
0.039528234
0.039518982
0.039465638
0.039379248
0.039266925
0.039134385
0.038986242
0.038826242
0.038657431
0.038482294
0.03830288
0.038120877
0.037937674
0.037754415
0.037572046
0.037391351
0.037212976
0.037037448
0.0368652
0.036696603
0.036531978
0.036371512
0.036215392
0.036063796
0.035916864
0.035774677
0.035637251
0.035504574
0.035376632
0.035253427
0.035134863
0.035020875
0.024558956
0.024903467
0.02540524
0.026081729
0.026916474
0.027880392
0.028943431
0.030076851
0.031252053
0.032439421
0.033608295
0.034727577
0.03576625
0.036693641
0.037479498
0.038093654
0.03853753
0.038847739
0.039052366
0.039173365
0.039232503
0.039238192
0.03919891
0.039126319
0.039027323
0.038907532
0.038771509
0.038622984
0.038465008
0.03830008
0.038130278
0.03795732
0.037782625
0.037607372
0.037432538
0.037258938
0.037087248
0.03691802
0.036751713
0.036588725
0.036429415
0.036273963
0.036122587
0.035975497
0.035832838
0.035694695
0.035561104
0.035432069
0.035307589
0.035187697
0.035072276
0.034961278
0.024558078
0.024890624
0.025372944
0.026021788
0.026825963
0.027760277
0.028795582
0.029902443
0.031051403
0.032212465
0.033355089
0.034448561
0.035462335
0.036366322
0.037130991
0.037728014
0.038169725
0.038486226
0.038701992
0.03883684
0.038909475
0.038931411
0.038907522
0.038849983
0.038765501
0.038659584
0.038536747
0.038400709
0.038254522
0.038100705
0.037941366
0.037778259
0.037612835
0.037446307
0.037279688
0.037113827
0.036949432
0.036787083
0.036627263
0.036470402
0.036316908
0.036166935
0.036020753
0.035878592
0.035740604
0.035606887
0.035477497
0.035352453
0.035231769
0.035115507
0.035003534
0.03489582
0.024550511
0.024863447
0.025329884
0.025954119
0.026728016
0.027630664
0.028634886
0.029711445
0.030830527
0.031961923
0.033075231
0.034140117
0.035126491
0.036004825
0.036746163
0.037327644
0.037768712
0.038092908
0.038321182
0.038471254
0.038558835
0.038598031
0.038590933
0.038549677
0.038480877
0.038389951
0.038281362
0.03815882
0.038025381
0.037883584
0.03773557
0.037583129
0.037427749
0.037270679
0.03711297
0.036955507
0.03679903
0.036644152
0.036491382
0.036341185
0.036194019
0.036050007
0.035909481
0.035772687
0.035639785
0.035510891
0.03538608
0.035265391
0.035148858
0.035036538
0.034928338
0.034824223
0.024540576
0.024830566
0.025271399
0.025874285
0.026618641
0.027488139
0.028458494
0.029501393
0.030587168
0.031685608
0.032766538
0.03380004
0.034756457
0.035606841
0.036322093
0.036892203
0.037334524
0.037667856
0.037909926
0.038076395
0.038180738
0.03823754
0.038248829
0.03822501
0.038173018
0.038098165
0.038004864
0.037896815
0.037777072
0.037648197
0.03751237
0.037371415
0.037226858
0.037079987
0.03693189
0.036783493
0.036635572
0.036488768
0.036343624
0.036200643
0.036060327
0.035922771
0.035788377
0.035657398
0.03553001
0.035406349
0.035286511
0.035170552
0.035058526
0.034950487
0.034846393
0.034746221
0.024530194
0.024795888
0.025202977
0.02577856
0.026494025
0.027329244
0.02826341
0.029269664
0.030318937
0.031381234
0.032426737
0.033426059
0.034349917
0.035170165
0.035860512
0.036422418
0.036867858
0.037211641
0.037468642
0.037652543
0.037775303
0.037849892
0.037881171
0.037875795
0.037841658
0.03778391
0.037706895
0.037614302
0.037509181
0.037394115
0.037271325
0.03714267
0.03700971
0.036873779
0.036736
0.036597343
0.036458619
0.036320502
0.036183575
0.036048384
0.035915409
0.035784831
0.035657058
0.035532356
0.035410923
0.035292917
0.035178452
0.03506761
0.034960459
0.034857055
0.034757395
0.024520225
0.024761558
0.025131912
0.025665986
0.026350568
0.027150631
0.028046625
0.029013574
0.030023402
0.031046476
0.032053523
0.033015898
0.033904513
0.034691921
0.03536328
0.035919915
0.036370114
0.036725427
0.03699824
0.03720043
0.037342741
0.037435841
0.037487913
0.037502063
0.037486747
0.037447044
0.037387248
0.037311026
0.037221408
0.037121008
0.037012084
0.036896525
0.036775926
0.036651666
0.036524907
0.036396662
0.036267777
0.036138963
0.036010847
0.03588401
0.035758911
0.035635824
0.035515169
0.035397213
0.035282185
0.035170263
0.035061585
0.034956254
0.034854352
0.034755942
0.03466102
0.024511052
0.024728758
0.025062193
0.025548516
0.026186202
0.02694904
0.027805274
0.028730512
0.029698209
0.030679076
0.03164462
0.032567381
0.033418016
0.034176945
0.034833615
0.035387268
0.035843424
0.036210984
0.036500163
0.0367212
0.036883704
0.036996548
0.037069216
0.037104132
0.037108447
0.037087637
0.037045907
0.036986882
0.036913594
0.036828673
0.036734403
0.036632705
0.036525207
0.036413335
0.036298286
0.036181115
0.036062707
0.035943813
0.035825096
0.035707172
0.035590495
0.035475417
0.03536238
0.035251645
0.035143477
0.035038077
0.034935606
0.034836188
0.034739919
0.034646876
0.034557058
0.024502828
0.024698122
0.024995965
0.025432945
0.026015604
0.02672647
0.027536888
0.028418096
0.029341259
0.030276981
0.03119786
0.032078596
0.032895317
0.033630946
0.034275847
0.034827949
0.035290661
0.035670702
0.035976392
0.036216471
0.036399422
0.036533132
0.036625841
0.036682615
0.036707197
0.036705976
0.036683041
0.036641955
0.03658574
0.036517052
0.036438172
0.03635105
0.036257359
0.036158562
0.036055895
0.035950444
0.035843137
0.035734764
0.035626029
0.035517579
0.035409868
0.035303314
0.035198401
0.03509536
0.034994511
0.034896077
0.034800239
0.034707138
0.034616891
0.034529597
0.034445284
0.024495591
0.024669964
0.024934331
0.025323046
0.025847732
0.026498531
0.027251926
0.028079331
0.028951652
0.029839808
0.030716985
0.031559231
0.032345599
0.033060664
0.033695231
0.034246237
0.034715396
0.035107588
0.035429454
0.035688354
0.035891699
0.036046588
0.036159658
0.036238078
0.036283692
0.036302613
0.036299057
0.036276526
0.036238034
0.03618624
0.036123415
0.03605153
0.035972305
0.035887233
0.035797581
0.035704472
0.03560887
0.035511606
0.035413421
0.035314994
0.035216784
0.035119264
0.035022982
0.034928104
0.034835035
0.034744012
0.034655231
0.034568856
0.034485023
0.034403855
0.024489316
0.024644401
0.024877789
0.025220798
0.025687884
0.026275283
0.026965202
0.027732185
0.028547878
0.029384867
0.030217019
0.031021293
0.03177828
0.032473468
0.033097718
0.033647077
0.03412182
0.034525221
0.034862408
0.035139447
0.035362716
0.035538496
0.035672668
0.035771487
0.035839008
0.035878369
0.035894601
0.035891109
0.03587087
0.035836517
0.035790323
0.035734268
0.035670105
0.035599354
0.035523307
0.035443124
0.035359802
0.03527421
0.035187123
0.03509925
0.035011065
0.034923111
0.034835884
0.034749667
0.034664841
0.034581668
0.03450037
0.034421127
0.034344096
0.034269387
0.024483938
0.024621422
0.024826477
0.02512711
0.025539008
0.026062981
0.026686691
0.027388966
0.028144136
0.028926286
0.029710942
0.030475892
0.031202605
0.031876991
0.032489705
0.033035927
0.033514644
0.033927688
0.034278798
0.034572818
0.034815113
0.035011154
0.03516623
0.035285359
0.035374054
0.035434357
0.035470596
0.035486455
0.03548485
0.035468369
0.035439274
0.035399555
0.035350972
0.035295065
0.035233159
0.035166439
0.035095932
0.035022541
0.034947075
0.034870252
0.034792598
0.034714687
0.034637004
0.034559906
0.03448377
0.034408882
0.034335484
0.03426378
0.03419394
0.034126077
0.024479372
0.024600934
0.024780315
0.025042239
0.025402548
0.025865272
0.02642283
0.027058663
0.027750791
0.02847527
0.02920967
0.029932966
0.030627315
0.03127882
0.031877793
0.032418574
0.032898971
0.033319499
0.033682603
0.03399196
0.034251942
0.034467205
0.034642397
0.034781976
0.034890448
0.03497197
0.035028249
0.035063581
0.035080822
0.0350825
0.035070851
0.035047859
0.035015281
0.034974667
0.034927367
0.034874585
0.034817376
0.034756671
0.034693305
0.034628005
0.034561357
0.034493947
0.034426272
0.034358737
0.034291723
0.034225541
0.034160454
0.034096688
0.034034428
0.033973797
0.02447552
0.024582783
0.024739082
0.024966046
0.025278981
0.025684025
0.026177485
0.026747201
0.027375169
0.028040505
0.028722119
0.029401127
0.030060406
0.030686225
0.031268554
0.031800955
0.032280162
0.032705485
0.033078157
0.033400742
0.033676637
0.033909679
0.034103856
0.034263112
0.034391227
0.034492422
0.034569077
0.034623781
0.03465989
0.034679851
0.034685852
0.034679852
0.034663594
0.034638626
0.034606314
0.034567874
0.034524382
0.034476792
0.034425957
0.034372619
0.034317412
0.034260935
0.034203701
0.034146147
0.034088669
0.034031598
0.033975221
0.03391978
0.03386548
0.033812457
0.024472278
0.02456678
0.02470247
0.024898148
0.02516817
0.025519913
0.025952688
0.026458231
0.027022443
0.027627732
0.028255298
0.028887582
0.029508949
0.030105952
0.030668326
0.031188975
0.031663688
0.032090679
0.032470063
0.032803343
0.033092966
0.033341953
0.033553613
0.03373135
0.033878516
0.033998354
0.034094611
0.034168628
0.034223429
0.034261615
0.034285309
0.034296423
0.034296674
0.034287596
0.034270558
0.034246779
0.034217347
0.034183232
0.034145302
0.034104316
0.034060942
0.03401579
0.033969392
0.033922211
0.033874656
0.033827081
0.03377979
0.033733047
0.033687072
0.033642017
0.024469546
0.024552711
0.024670116
0.024838015
0.025069591
0.025372806
0.025749176
0.026193697
0.026695865
0.02724141
0.027814222
0.028398134
0.028978989
0.029544057
0.030083035
0.030588343
0.031054979
0.031480197
0.031863092
0.032204173
0.032504972
0.032767702
0.03299499
0.03318967
0.033354633
0.033492726
0.033606764
0.033699965
0.033773079
0.033829242
0.033870496
0.03389869
0.033915499
0.03392243
0.033920838
0.03391194
0.033896825
0.03387647
0.033851752
0.033823446
0.033792242
0.033758761
0.033723552
0.033687096
0.033649821
0.033612095
0.033574244
0.033536548
0.033499244
0.033462498
0.024467224
0.02454035
0.024641622
0.024785029
0.024982483
0.025242057
0.025566787
0.025954273
0.026397162
0.026884325
0.027402387
0.027937265
0.028475493
0.02900579
0.029518051
0.030004421
0.030459292
0.030879112
0.031262076
0.031607781
0.031916895
0.032190847
0.032431581
0.032641348
0.032822556
0.032977652
0.033109038
0.033219393
0.03331078
0.033384448
0.033442938
0.033488007
0.033521271
0.033544191
0.033558096
0.033564188
0.033563545
0.033557146
0.03354587
0.033530499
0.033511738
0.033490218
0.033466499
0.033441079
0.033414397
0.033386842
0.033358752
0.033330423
0.033302109
0.033273991
0.024465222
0.024529466
0.024616574
0.024738526
0.024905945
0.025126685
0.025404745
0.025739713
0.026126877
0.026557945
0.027022178
0.027507641
0.028002342
0.028495517
0.02897807
0.029442091
0.029881572
0.030292329
0.030671796
0.031018762
0.031333096
0.031615483
0.031867197
0.032089905
0.032285518
0.032456069
0.03260363
0.032730273
0.032838306
0.03292922
0.033004417
0.033065974
0.033115421
0.03315416
0.033183478
0.033204545
0.033218421
0.033226074
0.033228377
0.033226116
0.033219999
0.033210663
0.033198677
0.033184549
0.03316873
0.03315162
0.033133574
0.0331149
0.033095865
0.033076664
0.024463459
0.024519836
0.024594555
0.024697822
0.024839004
0.025025513
0.025261874
0.025549119
0.02588466
0.026262668
0.026674843
0.027111386
0.027561986
0.028016677
0.028467034
0.028905652
0.029326337
0.029724467
0.030096872
0.030441653
0.030757964
0.031045802
0.031305801
0.031539055
0.031746974
0.031931163
0.032093334
0.032235243
0.032358614
0.032465514
0.032556973
0.032634438
0.03269962
0.032753845
0.032798343
0.03283424
0.032862559
0.03288425
0.03290017
0.032911101
0.032917746
0.032920743
0.032920664
0.032918023
0.03291328
0.032906843
0.032899077
0.032890302
0.032880797
0.032870767
0.024461862
0.024511246
0.024575158
0.02466224
0.024780662
0.024937258
0.025136746
0.025381142
0.025669502
0.02599805
0.026360658
0.026749559
0.027156139
0.027571701
0.027988083
0.028398738
0.02879758
0.029179755
0.029541657
0.029880831
0.030195823
0.030486012
0.030751437
0.030992645
0.031210551
0.031406329
0.031581318
0.031736951
0.03187469
0.031995999
0.032102695
0.032195486
0.032275777
0.032344988
0.032404274
0.032454707
0.032497264
0.032532857
0.032562324
0.032586428
0.032605862
0.032621258
0.032633184
0.032642155
0.032648636
0.032653039
0.032655737
0.032657059
0.03265729
0.032656646
0.024460371
0.024503498
0.024557994
0.02463112
0.024729929
0.024860598
0.025027795
0.025234146
0.02547992
0.025762994
0.026079106
0.026422338
0.026785728
0.027161892
0.027543588
0.027924268
0.028298687
0.028661934
0.029010131
0.029340414
0.029650837
0.029940245
0.030208147
0.030454578
0.030679983
0.030885111
0.031070923
0.031238525
0.031389102
0.031523878
0.031644085
0.031751298
0.031846024
0.031929551
0.032003076
0.032067598
0.032124042
0.032173278
0.0322161
0.032253247
0.032285398
0.032313166
0.032337109
0.032357741
0.032375523
0.032390869
0.032404155
0.032415714
0.032425838
0.032434748
0.024458934
0.024496412
0.024542696
0.024603834
0.024685846
0.024794218
0.024933396
0.025106325
0.025314116
0.025555925
0.025829036
0.026129159
0.02645087
0.026788097
0.027134606
0.027484387
0.027832373
0.028174177
0.028505817
0.028824167
0.029126912
0.029412469
0.029679887
0.029928745
0.030159049
0.030371141
0.030565617
0.030743251
0.030904943
0.03105167
0.03118445
0.031304311
0.031412593
0.031509707
0.031596759
0.031674775
0.031744615
0.031807088
0.031862945
0.031912894
0.031957579
0.031997586
0.032033471
0.032065727
0.032094807
0.032121125
0.032145055
0.032166931
0.032187046
0.032205624
0.024457511
0.02448983
0.024528931
0.024579795
0.024647501
0.024736843
0.024851927
0.024995791
0.025170093
0.025374928
0.025608815
0.025868847
0.02615098
0.026450401
0.026761916
0.027080308
0.027400642
0.027719035
0.0280317
0.028335409
0.02862761
0.028906395
0.029170441
0.029418934
0.02965149
0.029868075
0.030068932
0.030254517
0.030425444
0.030582435
0.030726287
0.030857837
0.030977941
0.031087707
0.031187534
0.031278294
0.031360891
0.031436063
0.031504507
0.031566882
0.031623802
0.03167582
0.031723462
0.031767208
0.031807503
0.031844743
0.031879298
0.031911502
0.031941642
0.031969943
0.024456073
0.024483615
0.024516397
0.024558465
0.024614048
0.024687261
0.024781806
0.024900652
0.025045755
0.025217868
0.025416453
0.025639737
0.025884875
0.026148207
0.026425558
0.026712538
0.027004825
0.027298397
0.027590169
0.027876945
0.028156058
0.028425387
0.028683329
0.028928751
0.029160935
0.029379511
0.0295844
0.029775756
0.029953913
0.030119344
0.030272618
0.030414376
0.0305453
0.030666093
0.030777639
0.030880398
0.030974967
0.031062161
0.031142609
0.031216914
0.031285643
0.031349319
0.031408438
0.031463451
0.031514771
0.031562794
0.03160788
0.031650347
0.031690476
0.03172849
0.024454609
0.024477645
0.024504826
0.02453936
0.024584707
0.024644345
0.024721533
0.024819055
0.024938983
0.025082488
0.025249723
0.025439802
0.025650885
0.025880331
0.026124919
0.02638108
0.026645131
0.026913458
0.027182968
0.027451002
0.027714884
0.027972387
0.028221727
0.028461532
0.028690813
0.028908918
0.029115481
0.029310378
0.029493682
0.029665623
0.02982655
0.029976904
0.030117188
0.03024795
0.03036976
0.030483283
0.030589104
0.03068751
0.030779241
0.030864852
0.030944853
0.031019723
0.031089915
0.031155857
0.031217932
0.031276509
0.031331933
0.031384517
0.031434527
0.031482172
0.024453152
0.024471802
0.024493989
0.024522052
0.024558779
0.02460706
0.024669702
0.024749231
0.024847696
0.024966495
0.025106252
0.025266752
0.02544696
0.025645104
0.025858818
0.026085318
0.026321584
0.026564531
0.026811167
0.027059184
0.027306148
0.027549839
0.027788384
0.028020259
0.028244274
0.028459549
0.028665478
0.028861694
0.029048032
0.029224495
0.029391222
0.029548457
0.029696527
0.02983582
0.029966765
0.03008982
0.030205437
0.030314392
0.030416547
0.030512716
0.03060333
0.030688813
0.030769572
0.030845994
0.030918438
0.03098725
0.031052743
0.031115203
0.031174894
0.031232017
0.024451629
0.024466189
0.024483703
0.024506174
0.024535646
0.024574475
0.024625025
0.024689522
0.024769893
0.024867622
0.024983617
0.025118142
0.025270779
0.02544047
0.025625588
0.025824065
0.026033526
0.026251432
0.026475224
0.026702461
0.026931307
0.027159632
0.027385558
0.027607488
0.027824104
0.028034362
0.028237464
0.028432841
0.028620123
0.028799108
0.028969738
0.029132075
0.029286274
0.029432564
0.029571231
0.029702603
0.029827032
0.029944895
0.030056787
0.030162659
0.030263114
0.030358514
0.030449219
0.030535574
0.030617903
0.030696515
0.030771705
0.030843729
0.030912821
0.030979174
0.024449903
0.024460825
0.024473998
0.024491425
0.024514774
0.024545763
0.024586336
0.0246384
0.024703696
0.024783679
0.024879407
0.02499145
0.025119845
0.025264089
0.025423172
0.025595651
0.025779746
0.025973449
0.026174634
0.026381144
0.026591183
0.026803057
0.027014954
0.027225278
0.027432657
0.027635941
0.027834199
0.028026705
0.028212917
0.028392461
0.028565104
0.028730739
0.028889359
0.029041045
0.029185943
0.029324251
0.02945621
0.029582091
0.029702192
0.029816842
0.029926363
0.030030874
0.030130792
0.030226429
0.030318056
0.030405945
0.030490355
0.030571526
0.030649662
0.030724924
0.024448161
0.024455176
0.024464804
0.024477688
0.024495707
0.024520204
0.024552601
0.024594482
0.024647364
0.024712601
0.024791284
0.02488416
0.024991573
0.025113432
0.025249217
0.025398011
0.025558559
0.025729351
0.025908699
0.026094827
0.026285958
0.026480787
0.026677689
0.026875143
0.027071786
0.027266428
0.027458057
0.027645838
0.027829102
0.028007331
0.028180148
0.028347297
0.028508626
0.028664076
0.028813661
0.028957456
0.029095587
0.029228219
0.029355547
0.029477782
0.029595102
0.029708039
0.029816323
0.029920498
0.030020735
0.03011728
0.03021035
0.03030015
0.030386872
0.030470642
0.02444638
0.024449544
0.02445548
0.024464852
0.024478185
0.024497184
0.024522916
0.024556536
0.024599321
0.024652471
0.024717032
0.024793822
0.02488337
0.024985871
0.025101173
0.025228781
0.025367889
0.025517425
0.025676118
0.025842557
0.026015261
0.026192886
0.026374274
0.026558012
0.026742799
0.02692746
0.027110957
0.027292394
0.027471015
0.027646199
0.027817453
0.027984397
0.028146757
0.028304346
0.028457059
0.028604856
0.028747754
0.028885813
0.029019133
0.029147837
0.029272068
0.029392021
0.029507849
0.029619811
0.029727866
0.029832352
0.02993343
0.030031265
0.030126017
0.030217797
0.024444559
0.024443917
0.024446323
0.024452161
0.024462017
0.0244763
0.024496505
0.024523485
0.024558157
0.024601543
0.024654589
0.024718103
0.024792701
0.024878759
0.024976382
0.025085397
0.025205358
0.025335571
0.025475135
0.025622986
0.025777948
0.025938784
0.026104608
0.026274215
0.026446425
0.026620128
0.026794309
0.026968057
0.027140574
0.027311172
0.027479276
0.027644411
0.027806201
0.027964355
0.028118662
0.028268978
0.028415217
0.028557347
0.028695374
0.028829339
0.028959311
0.029085388
0.029207668
0.02932625
0.029441413
0.029553057
0.029661411
0.029766595
0.029868753
0.029967954
0.024442708
0.024438295
0.024437296
0.02443987
0.024446354
0.024457239
0.024472837
0.024494399
0.024522637
0.024558258
0.024602074
0.024654829
0.02471715
0.024789504
0.024872163
0.024965181
0.025068387
0.025181394
0.025303617
0.025434305
0.025572573
0.025717445
0.02586802
0.026023488
0.0261828
0.026344947
0.026508974
0.026674
0.026839222
0.027003926
0.027167486
0.027329364
0.027489107
0.027646343
0.027800772
0.027952161
0.028100336
0.028245176
0.028386604
0.028524583
0.028659105
0.028790192
0.028917883
0.029042237
0.029163341
0.029281199
0.029396162
0.02950791
0.029616784
0.029722752
0.024440837
0.024432693
0.024428385
0.024427901
0.02443138
0.024439092
0.024451432
0.024468641
0.024491697
0.024521245
0.024557802
0.02460201
0.024654455
0.024715628
0.024785885
0.024865427
0.024954283
0.025052297
0.025159144
0.025274338
0.025397255
0.025527167
0.02566327
0.025804998
0.025951482
0.026101849
0.026255242
0.026410842
0.02656788
0.026725647
0.026883502
0.027040872
0.027197256
0.027352223
0.027505405
0.027656498
0.027805253
0.027951474
0.02809501
0.028235749
0.028373615
0.028508562
0.028640567
0.02876963
0.028895768
0.029019
0.029139399
0.029256931
0.029371862
0.029483848
0.024438962
0.024427131
0.024419594
0.024416211
0.024416965
0.02442195
0.024431371
0.024445529
0.024464618
0.024489324
0.024520292
0.024557865
0.024602551
0.02465481
0.024715028
0.024783483
0.024860329
0.024945579
0.025039104
0.025140633
0.025249766
0.02536599
0.025488691
0.025617403
0.025751481
0.025890203
0.026032833
0.026178641
0.02632692
0.026476997
0.026628246
0.026780087
0.026932
0.027083515
0.027234223
0.027383764
0.027531833
0.027678172
0.027822565
0.027964839
0.028104855
0.028242504
0.028377707
0.028510406
0.028640565
0.02876816
0.02889319
0.029015647
0.029135559
0.029252857
0.024437096
0.024421634
0.02441094
0.024404783
0.024403027