/*--------------------------------*- C++ -*----------------------------------*\
| =========                 |                                                 |
| \\      /  F ield         | OpenFOAM: The Open Source CFD Toolbox           |
|  \\    /   O peration     | Version:  2312                                  |
|   \\  /    A nd           | Website:  www.openfoam.com                      |
|    \\/     M anipulation  |                                                 |
\*---------------------------------------------------------------------------*/
FoamFile
{
    version     2.0;
    format      ascii;
    arch        "LSB;label=32;scalar=64";
    class       volScalarField;
    location    "0.04";
    object      omega;
}
// * * * * * * * * * * * * * * * * * * * * * * * * * * * * * * * * * * * * * //

dimensions      [0 0 -1 0 0 0 0];

internalField   nonuniform List<scalar> 
3275
(
460.04117
476.52147
495.0604
515.93846
539.78432
566.8026
596.53518
627.84819
659.35529
689.72894
717.88328
743.30262
765.62054
784.3567
799.27112
810.15797
816.73976
819.81148
820.31928
818.91495
816.06233
812.09924
807.27473
801.7777
795.75328
789.31448
782.55039
775.53204
768.31659
760.95048
753.4717
745.91158
738.29609
730.6469
722.98215
715.3171
707.66465
700.03571
692.43957
684.88413
677.37618
669.92151
662.52511
655.19125
647.92338
640.72451
633.59862
626.54777
619.57244
612.67367
605.85286
599.11158
461.26002
477.70055
495.82304
516.52742
540.32349
567.31917
597.01369
628.25359
659.66691
689.9433
718.01037
743.35258
765.60325
784.28672
799.16059
810.01725
816.57858
819.63622
820.13569
818.72759
815.87455
811.91338
807.09239
801.59994
795.58075
789.14756
782.38925
775.37673
768.16706
760.80661
753.33334
745.77855
738.1682
730.52394
722.86392
715.20341
707.5553
699.93051
692.33834
684.7867
677.28239
669.83119
662.43811
655.10742
647.84257
640.64661
633.52352
626.47533
619.50256
612.60625
605.78782
599.04877
463.62971
479.60662
497.05021
517.555
541.32463
568.30759
597.9375
629.03784
660.26923
690.35638
718.25317
743.44422
765.56261
784.14232
798.93604
809.73284
816.25335
819.28321
819.76651
818.35128
815.49771
811.54064
806.72689
801.24374
795.23513
788.81324
782.06657
775.06576
767.86769
760.51861
753.0564
745.5123
737.91225
730.27789
722.62737
714.97596
707.33656
699.7201
692.13589
684.59188
677.09484
669.65062
662.26421
654.93988
647.6811
640.49102
633.37357
626.33076
619.36313
612.47177
605.65811
598.92357
466.60701
481.32848
498.26898
518.79791
542.67278
569.70301
599.25131
630.15342
661.12476
690.94002
718.59115
743.56268
765.48791
783.91578
798.59159
809.29985
815.75925
818.74845
819.20859
817.78365
814.93008
810.97977
806.17735
800.70849
794.716
788.31125
781.58219
774.59905
767.41847
760.0865
752.64091
745.11289
737.52833
729.90885
722.27259
714.63485
707.00852
699.40457
691.83233
684.29975
676.81366
669.3799
662.0035
654.68873
647.43909
640.25784
633.14887
626.11415
619.15424
612.27033
605.46382
598.73611
467.80471
481.62012
499.04455
520.03853
544.26285
571.43035
600.8787
631.53508
662.18216
691.6552
718.99542
743.68694
765.36389
783.59585
798.11858
808.71103
815.08925
818.02606
818.45736
817.02126
814.16912
810.22894
805.44245
799.99327
794.02274
787.64118
780.93584
773.97646
766.81933
759.51028
752.08695
744.58042
737.01655
729.41694
721.79973
714.18022
706.57134
698.98408
691.4278
683.91048
676.43898
669.01918
661.65614
654.35412
647.11667
639.94722
632.84956
625.82562
618.87601
612.00203
605.2051
598.48658
459.67422
479.84515
499.20997
521.15411
545.91136
573.28409
602.64021
633.01968
663.31152
692.40896
719.40555
743.78496
765.18259
783.19272
797.541
808.00024
814.28338
817.16115
817.56146
816.11483
813.26649
809.33985
804.57336
799.14828
793.20429
786.85056
780.17355
773.24243
766.11313
758.83125
751.43424
743.95312
736.41369
728.83754
721.24281
713.64481
706.05651
698.48893
690.95145
683.45211
675.99781
668.59447
661.24715
653.96017
646.73709
639.58155
632.49722
625.48596
618.5485
611.68622
604.90056
598.19288
456.44267
477.94614
499.17791
522.21934
547.57756
575.1647
604.43504
634.53524
664.45142
693.15552
719.79066
743.83972
764.9392
782.71031
796.86974
807.18343
813.36089
816.17574
816.54479
815.08941
812.24778
808.3382
803.59554
798.19853
792.28507
785.96314
779.31831
772.4192
765.32134
758.07008
750.70271
743.25017
735.73821
728.1884
720.61889
713.04504
705.47982
697.9343
690.41791
682.93873
675.50371
668.11879
660.78911
653.51897
646.31201
639.17207
632.10265
625.10561
618.18176
611.33259
604.55955
597.864
455.30762
476.40942
499.15349
523.3189
549.31987
577.13915
606.32785
636.1345
665.64085
693.9108
720.14761
743.83029
764.59683
782.09661
796.04093
806.18698
812.24064
814.98533
815.32203
813.86035
811.02995
807.14312
802.43062
797.06832
791.19216
784.90872
778.30265
771.44194
764.38171
757.167
749.83498
742.41647
734.93718
727.41869
719.87916
712.33397
704.79616
697.27683
689.78545
682.33019
674.91803
667.55498
660.2462
652.99604
645.80821
638.68675
631.63503
624.65483
617.74713
610.9135
604.15542
597.47423
455.175
475.57076
499.31208
524.47483
551.09705
579.14798
608.25231
637.75304
666.8287
694.63307
720.43635
743.72226
764.12769
781.32532
795.02912
804.98563
810.89726
813.56602
813.87117
812.40746
809.59444
805.73746
801.06267
795.7428
789.9116
783.67417
777.11417
770.29892
763.28307
756.11142
748.82093
741.44236
734.00139
726.51958
719.01515
711.50351
703.99775
696.50904
689.04691
681.6196
674.23416
666.89666
659.61229
652.38546
645.22002
638.12015
631.08906
624.12853
617.23969
610.42421
603.68359
597.01919
455.54208
475.46728
499.75596
525.70024
552.86779
581.12634
610.13671
639.32227
667.95451
695.27353
720.61318
743.47678
763.49792
780.36644
793.8047
803.5502
809.3021
811.89133
812.16804
810.70873
807.92113
804.10271
799.47457
794.20602
788.42848
782.2455
775.73968
768.97765
762.01361
754.89208
747.64986
740.31764
732.92107
725.48176
718.01794
710.5451
703.0764
695.62307
688.19473
680.79969
673.44511
666.1371
658.88091
651.68101
644.54145
637.46648
630.4592
623.52136
616.65429
609.85977
603.13928
596.49423
456.15459
475.94637
500.4897
526.98144
554.58315
583.00516
611.9063
640.7705
668.95262
695.77531
720.63163
743.04956
762.6679
779.18583
792.33379
801.84683
807.4232
809.93218
810.18639
808.74037
805.98837
802.21901
797.648
792.44099
786.72696
780.60785
774.1652
767.46493
760.56083
753.49712
746.31048
739.03154
731.68597
724.2954
716.87814
709.44974
702.02347
694.61064
687.22096
679.86283
672.54355
665.26925
658.04527
650.87617
643.76623
636.71969
629.7396
622.82767
615.9855
609.21492
602.51743
595.89452
456.8723
476.80623
501.44778
528.27685
556.18615
584.7136
613.48466
642.02343
669.75489
696.07625
720.43807
742.39395
761.59331
777.74332
790.57825
799.83596
805.22521
807.65711
807.89805
806.477
803.77309
800.06526
795.56351
790.42968
784.79024
778.74551
772.37595
765.74684
758.91154
751.91403
744.7909
737.57275
730.28528
722.95019
715.58587
708.20799
700.82991
693.46306
686.11725
678.801
671.52176
664.28571
657.09824
649.96406
642.88774
635.87343
628.9241
622.04156
615.22761
608.4842
601.81277
595.21493
457.60986
477.85809
502.52628
529.52292
557.61314
586.18003
614.79589
643.00554
670.29037
696.11204
719.97367
741.45808
760.22606
775.99242
788.49453
797.47103
802.66926
805.03259
805.27323
803.89179
801.25094
797.61916
793.20058
788.15308
782.60062
776.64191
770.35638
763.80871
757.05188
750.12968
743.07864
735.92938
728.70767
721.4353
714.13079
706.80993
699.48622
692.17122
684.87485
677.60579
670.37167
663.17868
656.03232
648.93753
641.89906
634.92101
628.00628
621.15683
614.37465
607.66183
601.01975
594.45013
458.31043
478.94278
503.60538
530.64076
558.79521
587.33283
615.76518
643.64174
670.48641
695.81491
719.17686
740.18439
758.51281
773.88239
786.03237
794.69453
799.71371
802.02337
802.28083
800.9568
798.39648
794.85744
790.53774
785.5913
780.13957
774.2797
768.0902
761.63517
754.96733
748.1303
741.16062
734.08897
726.94125
719.73939
712.50204
705.24517
697.98245
690.72557
683.48459
676.26839
669.08483
661.94005
654.83971
647.78905
640.79296
633.85544
626.9794
620.16699
613.42037
606.7418
600.13256
593.5945
458.92923
479.92839
504.56195
531.54155
559.65918
588.10039
616.31895
643.85754
670.26952
695.11433
717.98177
738.51158
756.39442
771.35704
783.13781
791.45413
796.317
798.59338
798.88895
797.64329
795.18351
791.756
787.55274
782.72366
777.38779
771.64083
765.5604
759.21021
752.64273
745.90152
739.02317
732.03854
724.97365
717.85062
710.68831
703.50289
696.30821
689.11614
681.93692
674.77959
667.6524
660.56133
653.51224
646.51078
639.56184
632.66941
625.83642
619.06527
612.35821
605.71781
599.14513
592.64219
459.42356
480.69598
505.27249
532.13026
560.12793
588.41046
616.38421
643.57862
669.5653
693.93734
716.31834
736.37304
753.80693
768.35365
779.75208
787.70951
792.43833
794.70699
795.06543
793.92216
791.58537
788.29024
784.22273
779.52888
774.32537
768.70658
762.7494
756.51721
750.06236
743.42841
736.65212
729.76455
722.79195
715.75668
708.67782
701.57178
694.45268
687.33256
680.22184
673.12982
666.06519
659.03364
652.04142
645.09452
638.19781
631.35527
624.57001
617.84457
611.18136
604.58332
598.05111
591.58708
459.74431
481.12538
505.61679
532.30793
560.12029
588.18883
615.88731
642.72992
668.29771
692.20815
714.11215
733.69636
750.67983
764.80286
775.80702
783.41477
788.03794
790.32883
790.77896
789.76451
787.57526
784.43535
780.52457
775.98526
770.93193
765.45777
759.63906
753.53901
747.20995
740.69552
734.03275
727.253
720.38279
713.44477
706.45832
699.44014
692.40461
685.36403
678.32899
671.3091
664.31366
657.3478
650.41842
643.53173
636.69262
629.90511
623.17252
616.49757
609.88275
603.33144
596.84387
590.4228
459.83375
481.07893
505.4739
531.97276
559.55043
587.35762
614.75204
641.23407
666.38781
689.84699
711.28358
730.4026
746.93481
760.62631
771.21921
778.52023
783.07735
785.42537
785.99884
785.14241
783.1269
780.16658
776.43506
772.07094
767.18683
761.87487
756.21087
750.25806
744.0688
737.68695
731.14991
724.48943
717.73235
710.90169
704.01715
697.09581
690.15236
683.19936
676.24762
669.30713
662.3879
655.49427
648.63402
641.81354
635.0377
628.3107
621.63604
615.01663
608.45519
601.95486
595.51651
589.1427
459.77502
480.70359
504.71985
531.02214
558.32691
585.83316
612.89734
639.00931
663.75207
686.76862
707.74635
726.40506
742.48456
755.73572
765.88464
772.97805
777.52067
779.96564
780.69669
780.02865
778.21496
775.46006
771.93126
767.76416
763.06937
757.93819
752.4461
746.65652
740.62191
734.38647
727.9881
721.45901
714.82644
708.11382
701.34128
694.5263
687.68392
680.82699
673.96666
667.1133
660.27761
653.46312
646.67872
639.93074
633.22421
626.56351
619.95234
613.39381
606.89084
600.44636
594.06193
587.73995
459.60794
480.06376
503.43698
529.35208
556.35251
583.5236
610.23455
635.96685
660.30005
682.88024
703.40546
721.60731
737.23087
750.03507
759.78581
766.75415
771.33793
773.92207
774.84651
774.39859
772.81538
770.29257
766.99122
763.04359
758.55905
753.6281
748.32596
742.71641
736.85205
730.77756
724.53152
718.14662
711.65054
705.06726
698.41734
691.71875
684.98693
678.23508
671.4748
664.71703
657.97182
651.24409
644.54265
637.87387
631.24304
624.65474
618.1129
611.62089
605.18173
598.79833
592.47275
459.3541
479.20164
501.75511
526.90641
553.52422
580.32545
606.66427
632.00776
655.93161
678.07879
698.15437
715.9006
731.06032
743.39535
752.89645
759.82411
764.50574
767.27203
768.42575
768.22982
766.90644
764.64251
761.59356
757.88876
753.63609
748.9253
743.83185
738.41983
732.74195
726.84364
720.76425
714.53693
708.18991
701.74781
695.23168
688.66005
682.04876
675.41145
668.76029
662.10665
655.46
648.82678
642.21573
635.63319
629.08477
622.57531
616.10899
609.68941
603.31971
597.00287
590.74127
459.02761
478.14913
499.75911
523.91037
549.74876
576.12234
602.07284
627.01905
650.53365
672.24759
691.87109
709.16115
723.84356
735.83678
745.20954
752.17464
757.00826
759.99837
761.41625
761.50343
760.46859
758.49023
755.71883
752.28014
748.28118
743.8112
738.94572
733.74903
728.27445
722.5682
716.6703
710.61453
704.42967
698.14114
691.7705
685.33686
678.85655
672.34378
665.81117
659.27053
652.7311
646.20047
639.68764
633.1987
626.73976
620.31592
613.93163
607.59068
601.29638
595.05187
588.85975
458.63955
476.93354
497.51009
520.51176
545.30765
570.89975
596.32755
620.86866
643.97655
665.25244
684.41206
701.24676
715.58585
727.38846
736.73326
743.80365
748.83797
752.09006
753.80467
754.20444
753.48557
751.81855
749.34911
746.19991
742.47655
738.26796
733.64993
728.68685
723.4328
717.93501
712.23391
706.36399
700.35493
694.23283
688.0199
681.73577
675.39738
669.01948
662.61526
656.197
649.77381
643.35423
636.94786
630.5602
624.19815
617.86706
611.57162
605.31579
599.10315
592.937
586.8202
458.19983
475.58011
495.05653
516.81442
540.39612
564.95898
589.59136
613.52067
636.12735
656.96822
675.74288
692.2536
706.37726
718.09583
727.48955
734.71996
739.99584
743.54295
745.58314
746.3222
745.94471
744.61335
742.46905
739.632
736.20573
732.27912
727.92797
723.21688
718.2009
712.92816
707.4395
701.7702
695.95098
690.00862
683.96598
677.84331
671.65818
665.42594
659.16035
652.87426
646.57665
640.27695
633.98573
627.70729
621.44992
615.21905
609.01955
602.85568
596.73125
590.64978
457.71777
474.11304
492.43998
512.89658
535.1559
558.5203
582.15822
605.29563
627.29583
647.66465
666.07728
682.32987
696.31363
708.0165
717.51229
724.94274
730.49148
734.35999
736.74974
737.85102
737.83738
736.86386
735.0664
732.5627
729.45432
725.82966
721.76451
717.32384
712.56357
707.53242
702.27203
696.81846
691.20343
685.45446
679.59501
673.64612
667.62598
661.55057
655.43426
649.29044
643.12818
636.95806
630.78976
624.62945
618.48494
612.36205
606.26594
600.20114
594.17177
588.1815
457.20234
472.55575
489.69786
508.82088
529.69425
551.74907
574.24892
596.45571
617.73187
637.5681
655.60285
671.6163
685.49422
697.21724
706.84567
714.5008
720.34297
724.55143
727.3088
728.7906
729.15962
728.56317
727.13211
724.98115
722.21026
718.90659
715.14598
710.99374
706.5065
701.73352
696.71726
691.49474
686.09843
680.55661
674.89359
669.13109
663.28799
657.38096
651.42498
645.43358
639.41681
633.38571
627.34973
621.3163
615.29306
609.28619
603.30118
597.3429
591.41572
585.52353
456.6621
470.9308
486.86478
504.63991
524.09537
544.77256
566.03376
587.19828
607.64574
626.87181
644.48665
660.24642
674.02011
685.77184
695.54272
703.43188
709.57667
714.13497
717.27118
719.14639
719.91246
719.70882
718.66084
716.87989
714.46413
711.49935
708.06085
704.21432
700.01693
695.51841
690.76206
685.78577
680.62276
675.30203
669.84883
664.28553
658.63177
652.90487
647.12042
641.29213
635.4312
629.5489
623.65489
617.75738
611.86408
605.98158
600.11571
594.27166
588.45409
582.66711
456.10511
469.25965
483.97294
500.39935
518.42752
537.69098
557.64701
577.68358
597.2144
615.74107
632.87901
648.34707
661.99318
673.75953
683.66408
691.7819
698.22692
703.13571
706.65453
708.92987
710.10236
710.30307
709.65152
708.25519
706.20981
703.60001
700.49994
696.97539
693.08388
688.8756
684.39455
679.67942
674.76413
669.67846
664.4485
659.09735
653.64533
648.11048
642.50893
636.85481
631.16028
625.43688
619.69464
613.94233
608.18794
602.43842
596.69998
590.97815
585.27787
579.60351
455.5388
467.56241
481.05225
496.13956
512.74742
530.5848
549.19612
568.04206
586.58162
604.33445
620.91672
636.03898
649.5153
661.2638
671.27692
679.60429
686.33572
691.58616
695.48339
698.15889
699.74152
700.35343
700.1077
699.10734
697.44511
695.20386
692.45687
689.26918
685.69856
681.79545
677.60449
673.16498
668.51156
663.67471
658.68134
653.55522
648.31741
642.9866
637.57949
632.11076
626.59335
621.03916
615.45865
609.86108
604.25478
598.64711
593.04465
587.45325
581.87818
576.32408
454.96998
465.85756
478.1302
491.89646
507.10303
523.51971
540.76822
558.38098
575.86863
592.77795
608.73004
623.43707
636.6877
648.37133
658.45404
666.95932
673.95238
679.52608
683.78928
686.85786
688.84824
689.87297
690.03799
689.44118
688.17173
686.31013
683.92845
681.09082
677.85462
674.27054
670.38356
666.23348
661.85555
657.28093
652.53721
647.64887
642.63763
637.52284
632.32178
627.04971
621.72025
616.34572
610.93703
605.50392
600.0551
594.59834
589.14058
583.68806
578.24633
572.82033
454.40466
464.16182
475.23169
487.70201
501.53535
516.54998
532.43455
548.78909
565.17843
581.18313
596.43731
610.64978
623.61016
635.17108
645.27295
653.91341
661.13304
667.00233
671.61075
675.05795
677.44719
678.88068
679.45646
679.26654
678.39589
676.92208
674.91531
672.43874
669.54877
666.29605
662.72578
658.87801
654.78849
650.4889
646.00747
641.36933
636.59681
631.70988
626.72639
621.66221
616.53155
611.34718
606.12049
600.86167
595.57985
590.28321
584.97907
579.67401
574.37394
569.08405
453.84813
462.48997
472.37896
483.58445
496.07951
509.72078
524.25374
539.34009
554.59854
569.64761
584.14106
597.79123
610.38038
621.75333
631.81495
640.53842
647.94024
654.06862
658.99331
662.79716
665.56962
667.40178
668.38299
668.59864
668.12878
667.04742
665.4223
663.31502
660.78106
657.87033
654.62792
651.0941
647.30489
643.29235
639.08524
634.70922
630.18716
625.53965
620.78506
615.93984
611.01874
606.03501
601.0005
595.92585
590.82062
585.69339
580.55188
575.40301
570.25303
565.10744
453.30488
460.85486
469.59147
479.56836
490.76552
503.06974
516.2741
530.09518
544.20317
558.25651
571.93348
584.95557
597.10102
608.20887
618.16419
626.91077
634.44232
640.78513
645.98923
650.12036
653.25352
655.46798
656.84364
657.4585
657.38696
656.6988
655.45873
653.72617
651.55526
648.99506
646.08998
642.88022
639.40189
635.68734
631.76569
627.66302
623.40264
619.00565
614.49092
609.87546
605.17449
600.40173
595.56949
590.68886
585.7698
580.8213
575.85146
570.86757
565.87621
560.88318
452.77866
459.26739
466.88589
475.67485
485.61876
496.62808
508.53531
521.10496
534.05492
547.08367
559.8972
572.23108
583.86499
594.62956
604.40653
613.11054
620.71262
627.21801
632.65736
637.07918
640.54366
643.11765
644.87089
645.87326
646.19276
645.89429
645.03888
643.68323
641.87958
639.6758
637.11542
634.23805
631.07967
627.67273
624.04652
620.22747
616.2392
612.10319
607.8388
603.46348
598.99288
594.44117
589.8211
585.14417
580.42076
575.66025
570.87111
566.06099
561.2368
556.40464
452.27248
457.73655
464.27617
471.9216
480.66033
490.4214
501.06968
512.41088
524.2061
536.19249
548.10548
559.6985
570.7576
581.11005
590.62716
599.2202
606.82866
613.43871
619.06256
623.73178
627.49156
630.39591
632.50384
633.87643
634.57461
634.65773
634.18246
633.20226
631.76693
629.92261
627.7117
625.17294
622.34176
619.25048
615.92837
612.40195
608.69518
604.82984
600.82554
596.70011
592.46968
588.14872
583.75039
579.28661
574.76813
570.2047
565.60517
560.97753
556.32901
551.66601
451.78872
456.26954
461.77362
468.32303
475.90735
484.47027
493.90308
504.04644
514.69983
525.63675
536.62241
547.43073
557.85821
567.73325
576.92093
585.32389
592.87113
599.52316
605.27518
610.14241
614.15521
617.35456
619.78829
621.50813
622.56734
623.01905
622.915
622.30479
621.23528
619.75036
617.89082
615.69434
613.19549
610.42602
607.41502
604.18895
600.77186
597.18568
593.45029
589.58382
585.60266
581.52154
577.35412
573.11256
568.80798
564.45046
560.04924
555.61262
551.14814
546.66249
451.32911
454.87187
459.38703
464.89042
471.37325
478.7907
487.05562
496.03802
505.57095
515.4612
525.50308
535.49251
545.23948
554.5775
563.36934
571.50934
578.92262
585.5506
591.3701
596.38082
600.59873
604.05185
606.77666
608.81513
610.21232
611.01458
611.26816
611.0182
610.3081
609.17904
607.66974
605.81634
603.65238
601.20875
598.51398
595.59427
592.47359
589.17385
585.71508
582.11553
578.39189
574.55912
570.63105
566.62021
562.53807
558.39497
554.20043
549.96311
545.69081
541.39052
450.89486
453.54753
457.12288
461.63217
467.06794
473.39456
480.54232
488.40573
496.84676
505.70218
514.79387
523.9402
532.96682
541.71552
550.05047
557.86159
565.06516
571.60221
577.42572
582.52136
586.89166
590.55209
593.52779
595.85077
597.55753
598.68718
599.27994
599.37601
599.01479
598.23426
597.07064
595.55812
593.72876
591.61244
589.23683
586.62755
583.80827
580.80076
577.62497
574.2992
570.84021
567.26323
563.5823
559.8101
555.95823
552.03745
548.05757
544.02748
539.95518
535.84797
450.48668
452.29908
454.9855
458.55394
462.99815
468.28988
474.37354
481.16395
488.54774
496.38819
504.53271
512.82173
521.09776
529.21332
537.03719
544.45837
551.38803
557.7599
563.5227
568.64196
573.10815
576.92493
580.10641
582.67467
584.65743
586.08623
586.99485
587.41809
587.39087
586.94754
586.12134
584.94412
583.44611
581.65574
579.59966
577.30267
574.78784
572.07651
569.1885
566.14196
562.95361
559.6388
556.21161
552.68501
549.07066
545.3795
541.62156
537.80606
533.94119
530.0344
450.10485
451.12791
452.97732
455.65894
459.16767
463.48122
468.55547
474.32197
480.68818
487.54049
494.74945
502.17657
509.6816
517.12945
524.39599
531.3723
537.96727
544.10865
549.74266
554.8227
559.32578
563.24449
566.58251
569.35222
571.57261
573.26747
574.46383
575.19073
575.47821
575.35654
574.85561
574.00452
572.83127
571.36254
569.62358
567.63816
565.42851
563.01539
560.4181
557.65459
554.74141
551.69383
548.52596
545.25076
541.8801
538.42509
534.8958
531.30151
527.65079
523.95128
449.74933
450.03428
451.09906
452.94815
455.57759
458.97
463.09053
467.88446
473.27674
479.17363
485.46633
492.03595
498.75923
505.51435
512.18611
518.67011
524.87562
530.72723
536.16515
541.14416
545.62415
549.58815
553.0303
555.95384
558.36925
560.29258
561.744
562.74651
563.32497
563.5052
563.31336
562.77544
561.91685
560.76218
559.33497
557.65765
555.75138
553.63612
551.33048
548.85194
546.21673
543.43995
540.53556
537.51645
534.39456
531.18101
527.88609
524.51906
521.08852
517.60233
449.41972
449.01759
449.34994
450.42057
452.22665
454.75481
457.97774
461.85199
466.31703
471.29609
476.69848
482.42314
488.36308
494.41
500.45882
506.41148
512.17997
517.68828
522.87348
527.6861
532.08347
536.03515
539.52701
542.55391
545.11826
547.2286
548.89823
550.14405
550.98548
551.44365
551.54067
551.29908
550.74139
549.88976
548.76575
547.39011
545.78269
543.96237
541.94697
539.75324
537.39694
534.89274
532.25439
529.49463
526.6253
523.65747
520.60139
517.46655
514.26148
510.99399
449.11542
448.07642
447.72796
448.07354
449.11148
450.83175
453.21318
456.22148
459.80818
463.91083
468.45444
473.35391
478.51737
483.84982
489.25686
494.64809
499.93999
505.05806
509.93817
514.5272
518.78284
522.66497
526.15142
529.22949
531.89418
534.14693
535.9944
537.44738
538.51982
539.22796
539.58964
539.62368
539.34941
538.78628
537.95354
536.87004
535.55403
534.02307
532.29393
530.3825
528.30384
526.0721
523.7006
521.20177
518.5873
515.86805
513.0542
510.15515
507.17963
504.13535
448.8356
447.20871
446.22999
445.90293
446.22691
447.19474
448.79025
450.98663
453.74533
457.01591
460.73681
464.83703
469.23845
473.85873
478.61424
483.42302
488.20736
492.89592
497.42524
501.74075
505.79714
509.55537
512.98214
516.05879
518.77383
521.12223
523.10438
524.7252
525.99318
526.91967
527.51807
527.80333
527.79134
527.4986
526.94181
526.13765
525.10254
523.85248
522.40294
520.76878
518.96416
517.00257
514.8967
512.65859
510.29954
507.83018
505.26046
502.59967
499.8564
497.03854
448.57929
446.41189
444.85202
443.90335
443.56625
443.83585
444.70014
446.13838
448.12017
450.60506
453.5429
456.8749
460.5353
464.45348
468.55629
472.77051
477.02508
481.25308
485.39329
489.39135
493.2004
496.78142
500.09598
503.11947
505.83472
508.23094
510.30281
512.04973
513.47497
514.58503
515.38888
515.89747
516.12314
516.07922
515.77969
515.23882
514.47095
513.49034
512.31096
510.94638
509.40973
507.71358
505.86996
503.89027
501.78535
499.56543
497.24013
494.81853
492.30904
489.71939
448.34539
445.68299
443.58934
442.06841
441.12149
440.74562
440.93215
441.66534
442.92146
444.6683
446.86533
449.46425
452.41018
455.64313
459.09989
462.71589
466.42714
470.17202
473.8927
477.53641
481.05621
484.41149
487.56578
490.48682
493.15332
495.54969
497.66561
499.49545
501.03764
502.29402
503.26925
503.97027
504.40581
504.58595
504.52174
504.2249
503.70753
502.98191
502.06032
500.95489
499.6775
498.23968
496.65255
494.9268
493.07264
491.09977
489.01741
486.83427
484.5585
482.19764
448.13273
445.01874
442.43671
440.39096
438.88359
437.91327
437.47402
437.55417
438.13545
439.19248
440.69271
442.5968
444.85929
447.42973
450.254
453.27587
456.43853
459.68608
462.96496
466.22504
469.42052
472.51057
475.45962
478.23217
480.80333
483.15357
485.26831
487.13755
488.75531
490.11913
491.22957
492.08969
492.70463
493.08119
493.22741
493.15236
492.86573
492.3777
491.69868
490.83919
489.8097
488.62051
487.28171
485.8031
484.19413
482.46387
480.62101
478.67376
476.62997
474.49686
447.94008
444.41566
441.38851
438.86327
436.84277
435.327
434.31222
433.78998
433.74644
434.16184
435.01033
436.26003
437.87361
439.80899
442.02029
444.45905
447.07544
449.8195
452.64238
455.49738
458.34082
461.13282
463.83783
466.42085
468.85388
471.11437
473.1844
475.05028
476.70222
478.13393
479.34215
480.32633
481.08813
481.6311
481.96035
482.08216
482.00379
481.73317
481.27874
480.64926
479.85363
478.90081
477.7997
476.55907
475.18747
473.69321
472.08431
470.36846
468.55303
466.64487
447.76617
443.87014
440.43884
437.47723
434.9887
432.97438
431.4323
430.35665
429.73716
429.55862
429.80069
430.43785
431.43963
432.77118
434.39396
436.2666
438.34586
440.58766
442.94807
445.38428
447.85541
450.32318
452.75242
455.11109
457.36802
459.49897
461.48358
463.30528
464.95112
466.41149
467.67978
468.75209
469.62688
470.3046
470.78744
471.07899
471.18401
471.10816
470.85781
470.43984
469.86151
469.13029
468.25376
467.23955
466.09519
464.82811
463.44556
461.95456
460.36186
447.60976
443.3785
439.58168
436.22445
433.31071
430.84248
428.81921
427.23721
426.08911
425.36341
425.04425
425.11136
425.54014
426.30192
427.36457
428.69309
430.2503
431.99772
433.89636
435.90754
437.9936
440.11862
442.24891
444.35349
446.40166
448.36795
450.23029
451.97
453.57163
455.02284
456.31417
457.43878
458.39221
459.17205
459.77775
460.21028
460.47196
460.56616
460.49717
460.26995
459.89001
459.36326
458.69589
457.89423
456.96472
455.91379
454.74781
453.47303
452.09537
447.46958
442.9371
438.81097
435.09651
431.79799
428.91813
426.45754
424.41421
422.78309
421.55569
420.71983
420.25952
420.15505
420.3831
420.91702
421.72742
422.78264
424.04938
425.49341
427.08019
428.77556
430.54632
432.36076
434.18915
436.00228
437.77434
439.48237
441.10625
442.62876
444.03544
445.31449
446.4566
447.45475
448.30401
449.00126
449.54507
449.9354
450.17342
450.26134
450.2022
449.99975
449.65826
449.18245
448.57733
447.84812
447.00018
446.03892
444.96972
443.79772
447.34442
442.54232
438.1207
434.08499
430.43973
427.18816
424.3318
421.86998
419.7995
418.1143
416.80517
415.85969
415.26215
414.99369
415.03244
415.35387
415.93119
416.73585
417.73805
418.90729
420.21292
421.62467
423.11315
424.65022
426.20866
427.76303
429.29013
430.76916
432.18171
433.51184
434.74596
435.87276
436.88311
437.76985
438.52766
439.15288
439.64328
439.99798
440.21718
440.30206
440.25459
440.07742
439.77377
439.34726
438.80185
438.14177
437.3714
436.49517
435.51742
447.23311
442.19066
437.50503
433.18167
429.2253
425.63956
422.42664
419.58693
417.11871
415.01784
413.27754
411.88829
410.83769
410.11059
409.68914
409.55302
409.67973
410.04492
410.62286
411.38684
412.30965
413.36398
414.52292
415.76027
417.05095
418.37044
419.6959
421.00639
422.28295
423.50867
424.66872
425.7503
426.74258
427.63658
428.42508
429.10247
429.6646
430.10865
430.43298
430.63697
430.72091
430.68586
430.53352
430.26613
429.88638
429.3973
428.8022
428.10454
427.30776
447.13453
441.87878
436.95832
432.37859
428.1444
424.25966
420.72706
417.54782
414.72135
412.24507
410.11415
408.32139
406.85717
405.70937
404.86352
404.30286
404.0086
403.96013
404.13534
404.511
405.06313
405.76735
406.59926
407.53478
408.55104
409.62478
410.73395
411.85794
412.97772
414.07595
415.13704
416.14715
417.09418
417.96774
418.75905
419.46086
420.06735
420.574
420.97748
421.27554
421.46687
421.551
421.52818
421.3993
421.16577
420.82942
420.39248
419.85741
419.22669
447.04763
441.60348
436.47521
431.66816
427.18717
423.0363
419.21862
415.73596
412.58863
409.77525
407.29255
405.13525
403.29593
401.76504
400.53087
399.57969
398.89583
398.46192
398.2591
398.26725
398.46536
398.8318
399.34468
399.98213
400.72337
401.5466
402.43086
403.35625
404.30406
405.25693
406.19892
407.11559
407.994
408.82269
409.5917
410.29246
410.91774
411.46157
411.91916
412.28677
412.56164
412.7419
412.82644
412.81483
412.70725
412.50439
412.20736
411.81762
411.33672
446.97143
441.36181
436.05068
431.04325
426.3443
421.95799
417.88764
414.1355
410.70259
407.58847
404.79113
402.30678
400.12982
398.25278
396.66627
395.35906
394.31813
393.52888
392.97521
392.63982
392.50434
392.54967
392.75622
393.10481
393.57606
394.14982
394.80642
395.52691
396.29321
397.08827
397.89617
398.70221
399.49296
400.25629
400.98134
401.65855
402.27958
402.83726
403.32555
403.73944
404.07491
404.32879
404.49874
404.58312
404.58094
404.49178
404.31571
404.05319
403.70484
446.90504
441.15103
435.68009
430.49724
425.60717
421.01405
416.72133
412.73161
409.0464
405.66601
402.5894
399.81401
397.3357
395.14866
393.24541
391.61679
390.25203
389.13882
388.26346
387.61103
387.16556
386.91021
386.82755
386.9011
387.11243
387.44307
387.87477
388.38967
388.97053
389.60084
390.26497
390.94826
391.63709
392.31894
392.9824
393.61717
394.21409
394.76505
395.263
395.70187
396.07654
396.38275
396.61703
396.77667
396.85961
396.8644
396.79011
396.63628
396.4026
446.84765
440.9687
435.35925
430.02415
424.96793
420.19472
415.70804
411.5107
407.6046
403.99064
400.6685
397.63662
394.89201
392.43023
390.24534
388.32988
386.67489
385.27004
384.10362
383.16275
382.4335
381.90104
381.55062
381.36672
381.33258
381.43129
381.64597
381.95992
382.35683
382.82088
383.33693
383.89057
384.46824
385.05726
385.64593
386.22349
386.78019
387.30723
387.79678
388.24192
388.63663
388.97571
389.25475
389.4701
389.61873
389.69828
389.70693
389.64331
389.50631
446.79856
440.81263
435.08446
429.61867
424.41962
419.49134
414.83737
410.46067
406.36342
402.54694