/*--------------------------------*- C++ -*----------------------------------*\
| =========                 |                                                 |
| \\      /  F ield         | OpenFOAM: The Open Source CFD Toolbox           |
|  \\    /   O peration     | Version:  2312                                  |
|   \\  /    A nd           | Website:  www.openfoam.com                      |
|    \\/     M anipulation  |                                                 |
\*---------------------------------------------------------------------------*/
FoamFile
{
    version     2.0;
    format      ascii;
    arch        "LSB;label=32;scalar=64";
    class       volScalarField;
    location    "0.05";
    object      CH4;
}
// * * * * * * * * * * * * * * * * * * * * * * * * * * * * * * * * * * * * * //

dimensions      [0 0 0 0 0 0 0];

internalField   nonuniform List<scalar> 
3272
(
0.034845637
0.035245441
0.035619089
0.035965739
0.036284786
0.036575699
0.036837999
0.037071253
0.037275075
0.03744913
0.037593129
0.037706839
0.037790079
0.037842725
0.037864708
0.037856168
0.037817204
0.037747344
0.037647109
0.0375189
0.037359155
0.037169443
0.036950663
0.036703302
0.036427907
0.036125087
0.035795511
0.035439905
0.035059051
0.034653783
0.034224989
0.033773603
0.033300604
0.032813913
0.032305385
0.031774286
0.031226051
0.030669184
0.030093111
0.029500753
0.028903473
0.028289253
0.02766379
0.027029803
0.026388561
0.025741335
0.025089391
0.024433986
0.023776359
0.023117735
0.022459325
0.021802329
0.021147952
0.035169473
0.035570339
0.035944717
0.0362918
0.036611004
0.036901812
0.037163755
0.037396406
0.037599386
0.037772366
0.037915065
0.038027254
0.038108759
0.038159461
0.0381793
0.038168462
0.038126942
0.038054389
0.037951301
0.037820105
0.037657002
0.037463881
0.037241532
0.036990448
0.036711185
0.036404358
0.036070639
0.035710761
0.03532551
0.034915727
0.034482304
0.034026182
0.033548347
0.033056863
0.032543254
0.032007067
0.031453686
0.030891767
0.030310557
0.029712947
0.029110489
0.02849067
0.027859775
0.027220318
0.026573582
0.025920852
0.025263402
0.024602491
0.023939361
0.023275223
0.022611268
0.02194868
0.021288835
0.035777013
0.036179164
0.036554327
0.036901703
0.037220718
0.037510871
0.037771704
0.038002805
0.038203808
0.038374395
0.038514298
0.038623298
0.038701234
0.038747996
0.038763535
0.038748136
0.038701574
0.038623766
0.038515271
0.038378259
0.038208718
0.038009088
0.037779959
0.037521835
0.03723528
0.036920918
0.036579432
0.036211563
0.035818107
0.035399913
0.034957884
0.034492968
0.034006162
0.033505804
0.032982798
0.032437195
0.031874289
0.031303041
0.030712399
0.030105192
0.029493203
0.028863082
0.028222169
0.027572635
0.026915792
0.026252943
0.02558538
0.024914373
0.024241176
0.023567014
0.022893089
0.022220612
0.021550992
0.036634183
0.037037353
0.037412855
0.037759903
0.038077943
0.038366491
0.038625109
0.038853403
0.039051028
0.039217683
0.039353116
0.03945713
0.039529576
0.039570361
0.039579444
0.039557235
0.039503135
0.039417317
0.039302097
0.039155877
0.038977175
0.038768204
0.0385294
0.038261269
0.037964386
0.037639384
0.037286959
0.036907863
0.036502904
0.036072944
0.035618895
0.035141719
0.034642424
0.034129725
0.033593657
0.033034947
0.032458756
0.03187448
0.031270779
0.030650869
0.030025547
0.029381108
0.028726274
0.02806278
0.027391961
0.026715136
0.026033611
0.025348675
0.024661594
0.023973613
0.023285954
0.022599849
0.02191674
0.037710971
0.038114386
0.038489301
0.038834957
0.039150826
0.039436448
0.039691413
0.039915354
0.040107949
0.040268923
0.040398048
0.040495149
0.040560102
0.040592836
0.040593338
0.040562156
0.04049834
0.040402535
0.040277244
0.04011939
0.039929248
0.039708408
0.039457331
0.039176544
0.038866635
0.038528255
0.038162111
0.03776897
0.037349656
0.036905043
0.036436056
0.03594367
0.035428903
0.034900948
0.034348735
0.033773793
0.033181049
0.032580242
0.031959094
0.03132811
0.030684126
0.030021906
0.02934983
0.028669145
0.027981149
0.027287159
0.026588491
0.025886449
0.02518232
0.024477368
0.02377284
0.023069992
0.022370296
0.0389807
0.039383104
0.039756061
0.040098849
0.040410975
0.040692014
0.04094159
0.041159367
0.041345056
0.041498412
0.041619238
0.041707385
0.041762756
0.041785302
0.041775233
0.041732617
0.04165701
0.041549147
0.04141133
0.0412395
0.041035588
0.040800534
0.040534822
0.040238996
0.039913663
0.039559487
0.039177193
0.038767563
0.038331433
0.037869695
0.037383287
0.036873197
0.036340455
0.035794827
0.035223944
0.034630302
0.034018641
0.033399331
0.032759705
0.032110882
0.031446231
0.030764482
0.030072747
0.029372341
0.028664594
0.027950848
0.027232438
0.026510691
0.025786919
0.02506241
0.024338436
0.023616281
0.022897453
0.040419378
0.040819071
0.04118829
0.041526362
0.041832838
0.042107337
0.042349521
0.042559097
0.042735812
0.042879457
0.042989868
0.043066931
0.043110575
0.043120785
0.043097999
0.043041622
0.042951779
0.042831057
0.042677649
0.042489773
0.04226991
0.042018488
0.041735999
0.041423001
0.041080116
0.040708022
0.040307461
0.039879229
0.039424178
0.038943213
0.038437286
0.037907398
0.037354593
0.036789294
0.036197646
0.035583248
0.034950634
0.034310872
0.033650809
0.032981458
0.032294039
0.031590717
0.030877276
0.030155082
0.029425503
0.028689909
0.027949662
0.027206115
0.026460606
0.02571445
0.024968947
0.024225412
0.02348539
0.042005194
0.042400076
0.042763414
0.043094595
0.043393223
0.043658966
0.043891536
0.044090685
0.044256201
0.044387919
0.044485712
0.044549501
0.044579252
0.044575072
0.044537342
0.044465275
0.044359741
0.04422318
0.044051686
0.043846337
0.043608573
0.043338843
0.043037659
0.042705594
0.042343282
0.041951419
0.04153076
0.041082117
0.040606356
0.040104396
0.039577202
0.039025784
0.038451195
0.037864596
0.037250458
0.036613606
0.035958336
0.035296478
0.034614429
0.033922766
0.033210936
0.032484331
0.03174751
0.031001869
0.030248803
0.029489708
0.028725972
0.027958973
0.027190074
0.02642062
0.02565194
0.024885386
0.024122566
0.043718135
0.044105759
0.044460763
0.044782601
0.045070939
0.045325503
0.045546058
0.045732407
0.045884387
0.046001877
0.04608479
0.046133086
0.046146762
0.046126239
0.046071039
0.045981089
0.045859215
0.045703962
0.045512498
0.045287827
0.045030367
0.044740578
0.044418986
0.044066178
0.043682803
0.04326957
0.042827247
0.042356661
0.041858692
0.041334272
0.040784377
0.040210025
0.039612273
0.03900308
0.038365069
0.037704399
0.037025096
0.036339824
0.035634686
0.034919354
0.034181842
0.033430626
0.032669132
0.031898769
0.031120952
0.030337096
0.029548613
0.028756906
0.027963361
0.027169348
0.026376229
0.025585435
0.024798964
0.045539701
0.04591733
0.046261289
0.04657111
0.046846526
0.047087328
0.047293339
0.047464417
0.047600451
0.047701366
0.047767122
0.047797716
0.04779329
0.047754239
0.047679734
0.047570706
0.04742978
0.047252787
0.047040671
0.046795013
0.046516238
0.046204825
0.045861312
0.0454863
0.045080448
0.044644476
0.044179167
0.043685359
0.043163947
0.042615878
0.042042139
0.041443755
0.040821778
0.040189016
0.039526073
0.038840532
0.038136093
0.037426332
0.036697507
0.035957303
0.035193154
0.034416374
0.033629282
0.032833284
0.032029807
0.031220285
0.030406152
0.029588833
0.028769739
0.027950266
0.027131794
0.047452684
0.047817351
0.048147359
0.048442324
0.048702053
0.048926404
0.049115264
0.049268546
0.049386194
0.049468181
0.049514512
0.049525231
0.04950084
0.049440701
0.049344864
0.049216445
0.049053336
0.048853177
0.04861882
0.048350652
0.04804911
0.047714688
0.047347934
0.046949457
0.046519924
0.046060066
0.045570672
0.045052593
0.044506742
0.043934082
0.04333562
0.042712391
0.042065438
0.04140845
0.040719846
0.040008713
0.039278247
0.038542678
0.037790945
0.03702376
0.036232605
0.035429722
0.034616466
0.033794252
0.032964524
0.032128742
0.031288364
0.030444845
0.029599629
0.028754186
0.027910229
0.049441016
0.049789589
0.050102604
0.050379768
0.050620967
0.050826126
0.050995198
0.051128155
0.051224993
0.05128573
0.05131041
0.051299384
0.051252699
0.051169908
0.051051759
0.050901119
0.050713051
0.050489392
0.050231344
0.049939303
0.049613715
0.04925508
0.048863952
0.048440945
0.04798673
0.04750204
0.04698767
0.046444482
0.045873402
0.045275418
0.044651578
0.044002959
0.043330601
0.042649041
0.041934421
0.041197514
0.04044089
0.039678484
0.038902036
0.038106671
0.037289389
0.036460203
0.035620513
0.034771776
0.033915476
0.033053104
0.032186153
0.031316107
0.030444446
0.02957268
0.028702597
0.051489656
0.051818901
0.052111809
0.052368181
0.052587981
0.052771208
0.052917877
0.053028019
0.053101681
0.053138926
0.05313984
0.053105156
0.053033756
0.052926618
0.052786344
0.052609541
0.052395858
0.052147327
0.051864306
0.051547199
0.051196458
0.050812585
0.050396136
0.049947723
0.049468014
0.048957742
0.0484177
0.04784875
0.047251825
0.046627943
0.04597822
0.045303878
0.044606125
0.043899845
0.043159069
0.042396816
0.04161619
0.040819837
0.040020394
0.03919747
0.038354222
0.03749872
0.036632517
0.035757156
0.034874173
0.033985101
0.033091463
0.032194777
0.031296551
0.030398325
0.029501916
0.053584512
0.053891159
0.054160833
0.054393432
0.054588997
0.054747599
0.054869314
0.054954231
0.055002444
0.055014057
0.054989631
0.054928557
0.054830779
0.054699778
0.054533474
0.054328829
0.054089048
0.053814426
0.053505318
0.053162126
0.0527853
0.052375341
0.051932801
0.051458286
0.050952459
0.05041604
0.049849813
0.049254625
0.048631393
0.047981126
0.047304985
0.046604527
0.0458826
0.045151171
0.044383595
0.0435951
0.042788159
0.041964157
0.041139553
0.040288726
0.03941931
0.038537443
0.037644738
0.036742792
0.035833183
0.034917476
0.033997226
0.033073974
0.032149257
0.031224639
0.030301967
0.055712397
0.055993199
0.056236558
0.056442465
0.05661104
0.056742418
0.056836737
0.056894138
0.056914766
0.056899078
0.056846984
0.056758222
0.056633484
0.056476021
0.056280205
0.056048301
0.055781316
0.055479575
0.05514344
0.054773313
0.054369643
0.053932923
0.053463696
0.05296256
0.052430164
0.051867214
0.051274473
0.05065276
0.050002941
0.049325909
0.048622513
0.047893321
0.047154433
0.046394799
0.045599559
0.044784438
0.043951171
0.043101168
0.042251584
0.041373285
0.040477706
0.039569521
0.038650429
0.037722064
0.036786029
0.035843909
0.034897278
0.033947699
0.032996732
0.032045965
0.031097273
0.05786099
0.058112784
0.058326848
0.058503261
0.058642216
0.058743908
0.058808532
0.058836277
0.058827507
0.058782526
0.05870072
0.058582842
0.058431747
0.058243224
0.058018173
0.057757907
0.057462744
0.057133015
0.056769082
0.056371342
0.055940235
0.055476244
0.054979901
0.054451788
0.05389254
0.053302844
0.052683442
0.052035128
0.051358741
0.050655146
0.049925214
0.049169797
0.048407636
0.047621018
0.046799103
0.045957499
0.045098049
0.044224248
0.043349598
0.042445372
0.041523416
0.04058899
0.039643727
0.038689235
0.037727108
0.036758935
0.035786297
0.034810771
0.033833934
0.032857398
0.031883074
0.06001883
0.06023859
0.060420525
0.060564801
0.060671672
0.06074139
0.060774196
0.060770397
0.060730605
0.060653965
0.060541316
0.060395441
0.060212622
0.059993063
0.059738377
0.059448813
0.059124662
0.058766243
0.058373906
0.057948039
0.057489065
0.056997455
0.056473723
0.055918433
0.0553322
0.054715694
0.054069636
0.053394799
0.052692004
0.051962118
0.051206043
0.050424742
0.049638238
0.048824632
0.047976502
0.047108064
0.04621999
0.045330937
0.044428877
0.043499145
0.042550955
0.041590593
0.040619548
0.039639365
0.038651615
0.037657876
0.03665973
0.03565876
0.034656551
0.033654736
0.032655273
0.062175302
0.062360182
0.062507347
0.062617037
0.062689563
0.06272522
0.062724297
0.062687622
0.062614213
0.062504974
0.06236266
0.062183942
0.061968453
0.061718029
0.0614329
0.061113315
0.060759551
0.060371913
0.059950735
0.059496386
0.059009274
0.058489847
0.057938599
0.057356074
0.056742865
0.056099619
0.055427037
0.054725871
0.053996929
0.053241066
0.052459192
0.051652281
0.050841491
0.050001202
0.049127549
0.048233544
0.047320171
0.046408977
0.045482696
0.044529125
0.043555487
0.042569806
0.041573557
0.040568265
0.039555484
0.038536783
0.03751374
0.036487936
0.035460956
0.034434431
0.033410376
0.06432063
0.064468005
0.064577983
0.06465087
0.06468702
0.064686733
0.064650944
0.06457869
0.064470879
0.064330285
0.06415375
0.063940778
0.063693169
0.063411147
0.063094942
0.062744797
0.062360973
0.061943755
0.061493459
0.061010432
0.060495057
0.059947759
0.059369008
0.058759322
0.058119269
0.057449474
0.056750612
0.056023417
0.055268676
0.054487228
0.053679968
0.05284785
0.052013167
0.051146662
0.050248159
0.049329493
0.048391796
0.047457566
0.046507774
0.045531539
0.044533219
0.043522928
0.042502167
0.041472456
0.040435339
0.039392378
0.038345146
0.037295221
0.036244183
0.035193618
0.066445871
0.06655337
0.066623995
0.066658115
0.066656107
0.066618837
0.066545496
0.066436994
0.066296134
0.066119647
0.065907445
0.065661034
0.065380633
0.065066456
0.06471872
0.064337649
0.063923485
0.063476491
0.062996955
0.062485199
0.061941578
0.061366489
0.060760374
0.060123721
0.059457074
0.058761026
0.058036232
0.057283401
0.056503299
0.055696744
0.054864604
0.0540078
0.053149746
0.05225755
0.051334807
0.050392266
0.049431436
0.048474302
0.047501355
0.046503438
0.04548114
0.044446984
0.043402472
0.042349111
0.041288434
0.040221992
0.039151357
0.03807812
0.037003922
0.035930698
0.068542911
0.068608439
0.068637813
0.068631516
0.068590347
0.06851355
0.068402083
0.06825883
0.068080116
0.067866746
0.067619736
0.067339298
0.06702563
0.066678925
0.066299377
0.065887185
0.065442564
0.064965749
0.064456998
0.063916602
0.063344883
0.062742208
0.062108985
0.061445671
0.060752778
0.060030873
0.059280582
0.058502592
0.057697647
0.056866545
0.056010128
0.055129264
0.054248448
0.053331099
0.052384549
0.05141858
0.050437567
0.049457098
0.048461033
0.047442378
0.046396819
0.045339599
0.044272164
0.043195991
0.04211259
0.041023504
0.039930303
0.038834584
0.037738023
0.036642675
0.07060445
0.07062621
0.070612849
0.070564886
0.070482592
0.070365625
0.07021771
0.070034406
0.069817749
0.06956817
0.069285867
0.068971022
0.068623805
0.06824438
0.067832909
0.067389562
0.066914521
0.066407986
0.065870182
0.065301363
0.064701818
0.064071874
0.063411906
0.062722336
0.062003641
0.061256357
0.060481081
0.059678477
0.058849273
0.057994257
0.057114257
0.056210092
0.05530723
0.054365343
0.053395129
0.052403413
0.051412738
0.050403892
0.049384479
0.048346219
0.047278287
0.04619892
0.04510947
0.044011381
0.042906145
0.041795296
0.040680396
0.039563039
0.038444894
0.037328059
0.072623979
0.072600836
0.07254312
0.072451501
0.07232856
0.07217264
0.071982436
0.0717602
0.071505913
0.071219754
0.070901886
0.070552455
0.070171593
0.069759428
0.069316089
0.068841706
0.068336425
0.067800407
0.067233839
0.066636934
0.066009943
0.065353154
0.064666901
0.063951568
0.063207596
0.062435485
0.0616358
0.060809182
0.059956343
0.05907808
0.058175275
0.057248786
0.056324751
0.055359347
0.054367252
0.053354501
0.052347269
0.051312034
0.050268995
0.04921297
0.048124029
0.047023592
0.04591311
0.044794048
0.043667901
0.0425362
0.041400507
0.040262407
0.039123509
0.074596251
0.07452649
0.074423249
0.07428994
0.074123353
0.073924601
0.073694395
0.07343313
0.07314098
0.072818093
0.072464591
0.07208058
0.071666153
0.071221395
0.070746393
0.070241237
0.06970603
0.069140892
0.068545964
0.067921419
0.067267464
0.066584345
0.065872353
0.065131832
0.06436318
0.063566858
0.062743395
0.061893393
0.061017542
0.060116656
0.059191819
0.05824449
0.057300063
0.056311955
0.055299221
0.054267563
0.053242967
0.052185965
0.051110707
0.050040966
0.048933226
0.047812782
0.046682265
0.04554319
0.044397072
0.043245451
0.042089904
0.040932073
0.039773922
0.076515003
0.076399097
0.07625167
0.076071741
0.075861574
0.07562106
0.075350476
0.075050082
0.074720043
0.074360476
0.073971462
0.073553056
0.073105305
0.072628251
0.072121935
0.071586401
0.071021705
0.070427921
0.069805144
0.069153502
0.068473155
0.067764304
0.067027198
0.066262132
0.065469463
0.064649604
0.063803038
0.06293031
0.062032031
0.061108929
0.060162349
0.059197492
0.058232703
0.057222117
0.05618912
0.055141835
0.05409835
0.053017356
0.051918581
0.050831011
0.049705552
0.048566105
0.047416524
0.046258384
0.045093229
0.043922615
0.042748131
0.041571453
0.040394682
0.078379449
0.078214283
0.078019476
0.077794994
0.077541449
0.077259065
0.076948058
0.07660861
0.076240845
0.075844834
0.075420603
0.07496815
0.074487468
0.073978553
0.0734414
0.072876002
0.072282365
0.071660511
0.07101049
0.070332379
0.069626292
0.068892382
0.06813085
0.067341946
0.066525979
0.065683313
0.064814375
0.063919629
0.062999525
0.062054288
0.061083241
0.060111309
0.059122489
0.058089095
0.057033175
0.055980781
0.054912778
0.053808544
0.052689243
0.051583718
0.050441226
0.049283586
0.048115828
0.04693953
0.045756253
0.044567559
0.043375031
0.042180324
0.040985566
0.080181241
0.079968
0.079726579
0.079457275
0.079160449
0.078836332
0.078485095
0.078106865
0.077701717
0.077269669
0.076810683
0.076324679
0.075811592
0.075271377
0.074703981
0.07410934
0.073487406
0.072838151
0.072161572
0.071457698
0.07072659
0.069968356
0.069183146
0.068371163
0.067532666
0.066667974
0.065777458
0.064861519
0.06392053
0.062954689
0.061963812
0.060977857
0.059967183
0.058914334
0.057840844
0.056776094
0.055683199
0.054559992
0.053421966
0.052299225
0.05114051
0.049965456
0.048780362
0.047586785
0.046386283
0.045180418
0.043970759
0.04275888
0.081919837
0.081658371
0.081370499
0.081056519
0.080716685
0.080351175
0.079960102
0.07954354
0.079101516
0.078634001
0.07814088
0.077621956
0.077077106
0.076506257
0.075909317
0.075286151
0.07463665
0.07396074
0.073258363
0.072529493
0.071774144
0.070992373
0.070184279
0.069350019
0.068489805
0.067603907
0.066692654
0.065756413
0.064795547
0.063810349
0.062801077
0.061799571
0.060767958
0.059697931
0.058609112
0.057529422
0.056412939
0.055272374
0.05411687
0.052977796
0.051803771
0.050612105
0.049410508
0.048200512
0.046983669
0.045761546
0.044535755
0.043308189
0.083592829
0.083283392
0.082949428
0.08259118
0.082208819
0.081802445
0.081372109
0.080917822
0.080439572
0.079937298
0.079410831
0.078859739
0.078283856
0.077683128
0.077057442
0.076406554
0.075730288
0.075028537
0.074301181
0.073548137
0.072769375
0.071964897
0.071134754
0.070279053
0.069397958
0.068491701
0.067560577
0.066604936
0.06562516
0.064621631
0.063594791
0.062577548
0.061525733
0.06043947
0.059339101
0.058241713
0.057103411
0.055946417
0.054774459
0.053619929
0.052431544
0.051224085
0.050006814
0.048781244
0.047548921
0.04631142
0.045070378
0.043827793
0.085198497
0.084841594
0.084462115
0.084060225
0.083636008
0.083189481
0.082720613
0.082229347
0.081715625
0.081179405
0.080620601
0.080038187
0.079432049
0.078802257
0.078148737
0.077471004
0.076768824
0.076042108
0.075290647
0.074514291
0.073712981
0.072886661
0.072035331
0.071159051
0.070257933
0.069332173
0.068382043
0.06740789
0.066410122
0.065389182
0.064345529
0.063312783
0.062241255
0.061137087
0.060036483
0.058912063
0.057755614
0.056582993
0.055395484
0.054226334
0.053024532
0.051802101
0.050569977
0.04932966
0.048082692
0.046830651
0.045575179
0.044318299
0.086735664
0.086332019
0.085907801
0.085463089
0.084997867
0.08451206
0.084005542
0.083478163
0.082929782
0.082360419
0.081770694
0.081157834
0.08052219
0.079864165
0.079183897
0.078480258
0.077753022
0.077002284
0.076227641
0.075428854
0.074605897
0.073758626
0.07288699
0.071991011
0.071070738
0.07012633
0.069158046
0.068166238
0.067151349
0.06611389
0.06505428
0.06400651
0.062916575
0.06180195
0.060690303
0.059542294
0.058370559
0.057183077
0.05598086
0.05479789
0.05358359
0.052346994
0.051100819
0.049846561
0.048585757
0.047319985
0.046050884
0.044780475
0.088203644
0.087754167
0.087286173
0.086799627
0.086294411
0.085770347
0.085227208
0.08466471
0.084082501
0.083480404
0.082862211
0.082219567
0.081555009
0.080869491
0.080163949
0.079435358
0.078683821
0.077910126
0.077113281
0.076292916
0.075449254
0.074581942
0.073690885
0.072776111
0.071837552
0.07087534
0.069889734
0.068881088
0.067849889
0.066796791
0.065722329
0.064659753
0.063550044
0.062435838
0.061302987
0.060134814
0.058949149
0.057747719
0.056531629
0.055335605
0.054109691
0.052859711
0.051600266
0.050332849
0.049058995
0.047780277
0.046498328
0.045215162
0.089602194
0.08910795
0.088597312
0.088070071
0.087526011
0.086964848
0.086386258
0.085789814
0.085174755
0.084538629
0.083897449
0.083224562
0.082531384
0.081818709
0.081090395
0.080337655
0.079562187
0.078766915
0.077948929
0.07710769
0.076244363
0.075357927
0.074448302
0.073515678
0.0725597
0.071580507
0.070578387
0.069553677
0.068506878
0.067438919
0.066351521
0.06527473
0.06415296
0.063029892
0.061873755
0.060691513
0.059492673
0.058278112
0.057048936
0.055840586
0.054603898
0.053341288
0.052069327
0.050789507
0.049503361
0.048212457
0.046918423
0.045623264
0.090931477
0.090393635
0.089841656
0.089274984
0.088693346
0.088096348
0.087483597
0.086854627
0.086208887
0.085546006
0.084869727
0.084171198
0.08345237
0.082711401
0.081965744
0.081188901
0.080388717
0.079574225
0.078736284
0.077874348
0.076992722
0.076088061
0.075160585
0.074211181
0.073238633
0.072243244
0.071225402
0.070185376
0.069123519
0.068040835
0.066944431
0.065849918
0.064726434
0.063583784
0.062408028
0.061213625
0.060002448
0.058775526
0.057534003
0.05631401
0.055067339
0.053792819
0.052509068
0.051217574
0.049919868
0.048617513
0.047312134
0.046005727
0.092192003
0.091611761
0.091019976
0.090415215
0.089797368
0.089165865
0.088520288
0.087860111
0.087184807
0.086494058
0.085788284
0.08506403
0.084321232
0.083559954
0.082784743
0.081986065
0.08116263
0.080334255
0.079477693
0.078593592
0.077696142
0.076774025
0.075828988
0.074864269
0.073875914
0.072865044
0.071832277
0.070777738
0.069701296
0.068601408
0.06750739
0.06639446
0.06526151
0.06409684
0.062908641
0.061702655
0.060479855
0.059241282
0.0579881
0.056757097
0.055501184
0.054215443
0.052920599
0.051618133
0.050309569
0.048996473
0.047680462
0.046363531
0.093384551
0.092763013
0.092133398
0.091491852
0.090839271
0.090174634
0.089497598
0.088807529
0.088103786
0.087385852
0.086653233
0.085904203
0.085138224
0.08435522
0.08355605
0.082736982
0.0818978
0.081044255
0.080167584
0.079264406
0.078357237
0.077417847
0.076454284
0.075476936
0.074473204
0.073447425
0.072400568
0.071332515
0.070243091
0.069130854
0.068030886
0.0669087
0.065755257
0.064575913
0.063376953
0.06216004
0.060926282
0.059676727
0.058412528
0.057171092
0.055906626
0.054610322
0.053305057
0.051992292
0.050673544
0.049350383
0.048024433
0.046697679
0.094509999
0.093847965
0.093183568
0.092506121
0.091820492
0.09112407
0.090416995
0.089698394
0.088967438
0.088223472
0.087465743
0.086693095
0.085904822
0.085100532
0.084279981
0.08344142
0.082584541
0.081710739
0.080816491
0.07990101
0.07897096
0.078016136
0.077035734
0.076052115
0.075032201
0.07399184
0.072931795
0.071851224
0.070750176
0.069627733
0.068522134
0.067384128
0.066214392
0.065023985
0.0638145
0.062587204
0.061343119
0.060083222
0.058808603
0.057557248
0.056284857
0.054978631
0.053663595
0.052341176
0.051012883
0.049680303
0.048345077
0.047009184
0.097624171
0.096946503
0.096262498
0.095568885
0.094866514
0.094173202
0.093459095
0.092742756
0.092015722
0.091280108
0.090534405
0.089777507
0.089008769
0.08822736
0.087432302
0.086622769
0.085798134
0.084957794
0.084100659
0.083226232
0.082334517
0.081423854
0.080493833
0.079546235
0.078577202
0.077586981
0.076582236
0.075551503
0.074499545
0.073427464
0.072335276
0.071223528
0.070091748
0.068978411
0.067825856
0.066643469
0.065442241
0.064222641
0.062985522
0.061731737
0.060462132
0.059177658
0.057916801
0.056637054
0.055321544
0.053997371
0.052665915
0.05132868
0.04998729
0.048643426
0.047299059
0.098741154
0.098019508
0.097294823
0.096564963
0.095830489
0.095096247
0.094348395
0.093608363
0.092851149
0.092088706
0.091317427
0.090535818
0.089743565
0.088939787
0.088123547
0.087293875
0.086449975
0.085591101
0.084716372
0.083825154
0.082916977
0.081990828
0.081046257
0.080083498
0.079100913
0.078098589
0.077078308
0.076035812
0.074972505
0.07388915
0.072786075
0.071664235
0.070524053
0.069402373
0.068236334
0.067043121
0.065831807
0.064602668
0.063356328
0.062093488
0.06081483
0.059521051
0.058250945
0.056964351
0.05564024
0.054307548
0.052967642
0.051622021
0.050272385
0.048920499
0.047568314
0.099789209
0.09902681
0.098264009
0.097499098
0.096731981
0.095963643
0.095189094
0.094414019
0.093625866
0.092844701
0.092049506
0.091244247
0.090429697
0.089604801
0.088768625
0.087919979
0.087057925
0.086181654
0.085290337
0.08438325
0.083459742
0.082519005
0.081560506
0.080583964
0.079588497
0.078573951
0.077540575
0.076486604
0.075412386
0.074318354
0.0732049
0.072073367
0.070926566
0.069796104
0.068617444
0.067414512
0.066193889
0.064955852
0.063700922
0.062429697
0.061142695
0.059840209
0.058560784
0.0572678
0.055935904
0.054595284
0.053247484
0.051893981
0.050536611
0.049177308
0.047817952
0.10077037
0.099970049
0.099171439
0.098372984
0.097574238
0.096774998
0.095972867
0.095168691
0.094357406
0.093541902
0.092729807
0.091904676
0.09106901
0.090224208
0.089369369
0.088502939
0.08762384
0.08673125
0.085824354
0.084902358
0.083964519
0.083010082
0.082038447
0.081049138
0.080041519
0.079015273
0.07797017
0.076905333
0.075820749
0.074716585
0.073593064
0.072451536
0.071301963
0.070161266
0.068970755
0.067758943
0.066529746
0.06528346
0.064020574
0.062741647
0.06144711
0.060136742
0.058847222
0.057548453
0.056209656
0.054861728
0.053506571
0.052145621
0.050780964
0.049414879
0.048048989
0.1016861
0.10085119
0.10001895
0.099188589
0.098359659
0.097531668
0.096702895
0.095872611
0.095038278
0.094200733
0.093361494
0.092509942
0.091663358
0.090799834
0.089927623
0.089044629
0.088149564
0.087241701
0.086320219
0.085384266
0.084433037
0.083465773
0.082481821
0.081480622
0.080461604
0.079424356
0.078368498
0.077293476
0.076199128
0.075085413
0.073952112
0.072798027
0.071654605
0.070498734
0.06929764
0.068077737
0.066840652
0.065586742
0.06431651
0.063030553
0.061729411
0.060412724
0.059110674
0.057807345
0.0564626
0.05510803
0.05374604
0.05237799
0.05100642
0.04963437
0.048262535
0.10253189
0.10166699
0.10080869
0.099948006
0.099090414
0.098235528
0.097381572
0.096527198
0.095670658
0.094811691
0.093949903
0.093080467
0.092205256
0.091332914
0.090445215
0.089546948
0.08863692
0.087714801
0.086779713
0.085830736
0.084867017
0.083887773
0.082892315
0.081880036
0.080850367
0.079802845
0.07873704
0.077652514
0.07654904
0.075426472
0.074284477
0.073121964
0.071977803
0.070809258
0.069599515
0.068372217
0.067127875
0.065866925
0.064589913
0.063297526
0.061990691
0.060671394
0.05935036
0.058045596
0.05669592
0.055335351
0.053967066
0.052592154
0.10332844
0.10242117
0.10153419
0.1006534
0.099768586
0.098888615
0.098011086
0.097134314
0.096256747
0.095377565
0.094495754
0.093608621
0.092716016
0.091817167
0.090922786
0.090011851
0.089087696
0.08815232
0.087204586
0.086243497
0.085268154
0.084277753
0.083271576
0.082248982
0.081209393
0.080152309
0.079077281
0.077983911
0.076871947
0.075741231
0.074591535
0.073422249
0.07227473
0.071094816
0.069877853
0.068643693
0.06739266
0.066125211
0.064841927
0.063543561
0.062231182
0.060906753
0.059574451
0.058265246
0.056910885
0.055544846
0.054170909
0.10406676
0.10312981
0.10220378
0.10129843
0.10039618
0.099493036
0.098593586
0.097695978
0.096798692
0.095900627
0.095000559
0.094096583
0.093187733
0.092272985
0.091353738
0.090440925
0.089503597
0.088555995
0.087596558
0.086624244
0.085638115
0.084637348
0.083621208
0.082589032
0.081540225
0.080474264
0.079390685
0.0782891
0.077169256
0.076031039
0.074874445
0.073699323
0.072547487
0.071357261
0.070133884
0.068893415
0.067636218
0.066362773
0.065073684
0.063769727
0.062451965
0.061121986
0.059781746
0.058467507
0.057108624
0.055737597
0.054359026
0.10474921
0.10378436
0.10283175
0.10189027
0.10096904
0.10005097
0.099131224
0.098214263
0.097298586
0.096382965
0.095466094
0.09454637
0.093622523
0.092693154
0.091756381
0.090828396
0.089886271
0.088927536
0.087957307
0.086974634
0.085978523
0.084968151
0.083942773
0.082901714
0.081844363
0.080770177
0.07967868
0.078569477
0.077442317
0.076297161
0.07513432
0.07395422
0.072797745
0.071598109
0.070368861
0.069122594
0.067859726
0.066580755
0.065286296
0.063977125
0.062654243
0.061318936
0.059972416
0.058653292
0.057290123
0.0559145
0.054531638
0.10537817
0.10438724
0.10340984
0.10244433
0.10148909
0.10056186
0.099626161
0.098691248
0.097758476
0.096826577
0.095894208
0.094959873
0.094022221
0.093079908
0.092132293
0.091181165
0.090232083
0.089268658
0.088288468
0.087296282
0.086290964
0.085271711
0.084237788
0.083188511
0.082123259
0.081041471
0.079942654
0.078826398
0.077692439
0.076540799
0.075372197
0.07418827
0.073026962
0.07181868
0.070583995
0.069332397
0.068064317
0.066780262
0.06548085
0.06416684
0.062839169
0.061498932
0.060147105
0.058823451
0.057456284
0.056076412
0.054689523
0.10595604
0.10494089
0.10394051
0.10295271
0.10197282
0.10102358
0.1000801
0.099128993
0.098180362
0.097233409
0.09628675
0.095338922
0.094388543
0.093434309
0.092475539
0.091511997
0.09054176
0.089579416
0.088591619
0.087590767
0.086576974
0.085549529
0.084507719
0.083450859
0.082378317
0.081289518
0.080183951
0.079061178
0.077920895
0.07676311
0.075588931
0.074403082
0.073236431
0.072020153
0.070780434
0.069523942
0.068251085
0.066962366
0.065658397
0.064339922
0.063007822
0.061663082
0.060306613
0.058978822
0.05760797
0.056224174
0.054833521
0.1064852
0.10544766
0.10442618
0.10341841
0.10242162
0.10144079
0.10049205
0.09952964
0.098566195
0.097605353
0.096645544
0.095685294
0.094723193
0.093757921
0.092788525
0.091813821
0.090829978
0.089856276
0.088868621
0.087859642
0.086838046
0.085803056
0.084753981
0.083690138
0.082610888
0.081515643
0.080403869
0.079275094
0.078128942
0.076965248
0.075784983
0.07460075
0.073427197
0.072203595
0.070959265
0.069698301
0.068421077
0.067128091
0.065819948
0.064497373
0.063161208
0.061812377
0.060451781
0.059120235
0.05774601
0.056358604
0.05496446
0.10696797
0.1059099
0.1048691
0.10384315
0.10282942
0.10182606
0.10086243
0.099894834