/*--------------------------------*- C++ -*----------------------------------*\
| =========                 |                                                 |
| \\      /  F ield         | OpenFOAM: The Open Source CFD Toolbox           |
|  \\    /   O peration     | Version:  2312                                  |
|   \\  /    A nd           | Website:  www.openfoam.com                      |
|    \\/     M anipulation  |                                                 |
\*---------------------------------------------------------------------------*/
FoamFile
{
    version     2.0;
    format      ascii;
    arch        "LSB;label=32;scalar=64";
    class       volScalarField;
    location    "0.05";
    object      CO2;
}
// * * * * * * * * * * * * * * * * * * * * * * * * * * * * * * * * * * * * * //

dimensions      [0 0 0 0 0 0 0];

internalField   nonuniform List<scalar> 
3272
(
0.018702442
0.019123627
0.019541531
0.019955794
0.020366009
0.020771746
0.021172562
0.021568002
0.021957596
0.022340862
0.022717307
0.023086429
0.023447717
0.023800655
0.024144726
0.024473582
0.024795022
0.025108786
0.025411347
0.025697316
0.025974906
0.026240415
0.026492438
0.026730405
0.026953746
0.027161907
0.027354344
0.027530535
0.027689978
0.027832195
0.027956736
0.02806318
0.028151141
0.028219301
0.02826882
0.028299315
0.028310135
0.028301215
0.028272321
0.028223203
0.02815481
0.028065684
0.027956316
0.02782704
0.027678034
0.027509533
0.027321822
0.027115242
0.026890183
0.026647086
0.026386434
0.026108751
0.025814593
0.018821485
0.019243866
0.019662933
0.020078324
0.02048963
0.020896425
0.021298267
0.021694703
0.022085266
0.022469476
0.02284684
0.023216854
0.023579003
0.023932769
0.024277636
0.024607193
0.024929798
0.025244282
0.025547519
0.02583417
0.026112744
0.02637903
0.026631824
0.026870543
0.027094614
0.027303476
0.027496583
0.027673408
0.027833447
0.027976217
0.028101264
0.028208162
0.028296521
0.028365003
0.028414799
0.028445492
0.028456434
0.028447558
0.028418626
0.028369376
0.028300767
0.028211279
0.028101476
0.027971658
0.027822001
0.027652735
0.027464149
0.02725658
0.027030425
0.026786127
0.026524183
0.026245125
0.025949454
0.01904485
0.019469331
0.019890415
0.020307746
0.020720924
0.021129526
0.021533119
0.021931255
0.022323472
0.022709294
0.023088231
0.023459774
0.023823395
0.024178554
0.024524739
0.02485551
0.025180191
0.025495955
0.025800049
0.026088031
0.026368395
0.026636084
0.026890255
0.027130317
0.02735569
0.027565808
0.027760122
0.027938098
0.028099225
0.028243013
0.028368998
0.028476747
0.028565858
0.028634959
0.028685299
0.028716395
0.028727609
0.028718862
0.028689918
0.028640494
0.02857155
0.028481469
0.028370937
0.028240194
0.028089411
0.027918816
0.027728692
0.027519377
0.027291262
0.027044793
0.026780464
0.026498808
0.026200322
0.019359377
0.019786526
0.020210163
0.020629941
0.021045468
0.021456333
0.021862114
0.022262371
0.022656655
0.0230445
0.023425423
0.023798914
0.024164415
0.024521276
0.024868865
0.025201247
0.025528872
0.02584718
0.026149426
0.026440931
0.026723577
0.026993168
0.027249163
0.027490995
0.027718091
0.027929883
0.028125814
0.028305345
0.028467952
0.028613135
0.028740418
0.028849355
0.02893953
0.029009519
0.02906065
0.029092354
0.029103997
0.02909549
0.029066605
0.029017069
0.028947736
0.028856927
0.028745483
0.028613564
0.028461332
0.028289009
0.02809687
0.027885247
0.02765453
0.027405161
0.027137633
0.026852479
0.026550198
0.019753358
0.020183443
0.020609872
0.021032312
0.021450384
0.021863692
0.022271828
0.022674368
0.023070875
0.023460903
0.023843991
0.024219659
0.024587339
0.024946109
0.025294117
0.02562852
0.025959104
0.026279237
0.026582679
0.026877553
0.027162213
0.027433858
0.027691906
0.027935773
0.028164874
0.028378634
0.028576485
0.028757875
0.028922266
0.029069145
0.029198021
0.02930843
0.02939994
0.029471059
0.029523215
0.029555729
0.029567965
0.029559803
0.029530981
0.029481774
0.029411876
0.029320304
0.029207858
0.029074626
0.028920753
0.028746446
0.028551973
0.028337658
0.028103884
0.027851089
0.027579766
0.027290446
0.026983632
0.020216305
0.020649313
0.021078501
0.021503553
0.021924107
0.022339787
0.022750201
0.023154941
0.023553586
0.023945702
0.024330836
0.024708521
0.025078269
0.025439636
0.025785712
0.026125165
0.026457747
0.026779144
0.027084356
0.02738262
0.027669418
0.02794324
0.02820348
0.028449539
0.028680822
0.028896743
0.029096719
0.029280185
0.029446588
0.029595395
0.029726099
0.029838216
0.029931295
0.030003762
0.030057164
0.030090697
0.030103729
0.030096116
0.030067616
0.030018511
0.029948155
0.029855949
0.029742523
0.029607946
0.029452351
0.029275932
0.029078942
0.028861698
0.028624574
0.028368002
0.028092471
0.027798515
0.027486636
0.020738784
0.021174447
0.021606114
0.022033488
0.02245623
0.022873986
0.023286383
0.023693036
0.024093542
0.02448748
0.024874406
0.025253829
0.025625145
0.025987392
0.026334706
0.026678228
0.027013337
0.027332414
0.027641467
0.027942916
0.028231939
0.028507982
0.028770458
0.029018771
0.029252319
0.029470502
0.029672726
0.029858409
0.03002698
0.030177887
0.030310601
0.030424618
0.030519462
0.03059347
0.030648319
0.030683071
0.030697093
0.030690211
0.030662197
0.030613286
0.030542603
0.030449873
0.030335543
0.030199668
0.030042361
0.0298638
0.029664226
0.029443941
0.029203309
0.028942756
0.028662765
0.028363866
0.02804657
0.021312278
0.021750101
0.022183748
0.022612943
0.023037374
0.023456712
0.023870612
0.024278712
0.024680634
0.02507599
0.025464384
0.025845449
0.026218983
0.026577621
0.026928732
0.027275154
0.02761096
0.027930611
0.028243732
0.028547079
0.028838122
0.029116264
0.029380903
0.029631431
0.029867236
0.030087703
0.030292223
0.030480195
0.030651028
0.030804151
0.030939008
0.031055073
0.031151845
0.031227557
0.031284037
0.031320193
0.031335391
0.03132942
0.03130207
0.031253509
0.031182673
0.031089559
0.030974453
0.030837385
0.030678449
0.030497802
0.030295667
0.030072333
0.02982815
0.029563534
0.029278961
0.028974957
0.028652031
0.021929081
0.022368372
0.022803307
0.023233639
0.023659085
0.024079346
0.024494105
0.024903026
0.025305755
0.02570192
0.026091111
0.026472809
0.026846049
0.027204455
0.027559756
0.027908079
0.028240557
0.028562851
0.028879578
0.029184655
0.02947751
0.029757565
0.030024215
0.030276842
0.030514821
0.030737524
0.030944323
0.031134597
0.031307734
0.031463136
0.031600226
0.031718448
0.031817275
0.031894829
0.031953099
0.03199083
0.032007383
0.032002502
0.031976005
0.031927973
0.03185718
0.031763858
0.031648143
0.031510037
0.031349609
0.031166997
0.0309624
0.030736091
0.030488407
0.030219749
0.029930585
0.029621425
0.029292724
0.022582213
0.023022108
0.02345748
0.02388811
0.024313752
0.024734137
0.02514898
0.025557975
0.025960798
0.026357122
0.026746678
0.027129425
0.027497366
0.027858633
0.028216294
0.028564088
0.028895974
0.02922237
0.029540186
0.029846565
0.030140907
0.030422607
0.030691045
0.03094559
0.031185602
0.031410434
0.031619441
0.031811978
0.03198741
0.032145113
0.032284482
0.032404933
0.032505911
0.032585416
0.032645615
0.032685074
0.032703151
0.032699536
0.032674088
0.032626762
0.032556222
0.032462891
0.032346762
0.032207808
0.032046073
0.031861664
0.031654764
0.031425621
0.031174557
0.03090196
0.030608287
0.023265337
0.023704835
0.02413966
0.024569628
0.024994527
0.025414127
0.025828175
0.02623639
0.026638452
0.027033996
0.027422585
0.027803381
0.028169681
0.02853437
0.028892691
0.029235412
0.029569615
0.029898856
0.030217413
0.030524728
0.03082021
0.031103244
0.031373199
0.031629432
0.031871284
0.032098092
0.03230919
0.032503909
0.032681588
0.032841575
0.032983234
0.03310595
0.033209139
0.033290677
0.033352922
0.033394246
0.033414001
0.033411811
0.033387644
0.03334114
0.033271091
0.033177964
0.033061636
0.03292205
0.032759218
0.032573221
0.032364216
0.032132429
0.03187816
0.031601775
0.031303674
0.0239727
0.02441069
0.024843883
0.025272131
0.025695261
0.026113083
0.02652538
0.026931905
0.027332366
0.027726475
0.028114288
0.028487443
0.028856614
0.029221615
0.029577856
0.02991886
0.030256318
0.030585516
0.03090432
0.031212139
0.03150837
0.03179239
0.032063554
0.032321204
0.032564667
0.03279326
0.033006295
0.033203079
0.033382923
0.033545145
0.033689073
0.033814057
0.033919479
0.034003105
0.034067488
0.034110799
0.034132383
0.034131802
0.034109039
0.034063474
0.033994199
0.03390149
0.033785184
0.033645192
0.033481493
0.033294139
0.033083258
0.032849052
0.032591797
0.032311844
0.032009575
0.024699074
0.025134365
0.025564769
0.025990173
0.026410444
0.026825426
0.027234933
0.027638733
0.02803649
0.028427673
0.028811615
0.029181887
0.029552936
0.029916258
0.030265351
0.030609311
0.030947582
0.031276281
0.031594858
0.031902734
0.032199302
0.03248393
0.032755966
0.033014736
0.03325955
0.033489707
0.033704496
0.0339032
0.034085103
0.034249488
0.034395642
0.034522864
0.03463048
0.034716218
0.034782819
0.034828219
0.034851753
0.03485293
0.034831707
0.034787275
0.034718974
0.034626891
0.034510829
0.034370662
0.034206334
0.034017867
0.033805359
0.033568983
0.033308993
0.03302572
0.032719537
0.025439705
0.025871056
0.026297471
0.026718872
0.027135162
0.027546212
0.027951856
0.028351878
0.028745971
0.029133732
0.029508527
0.029882514
0.030252338
0.030607591
0.030955639
0.031301432
0.03163837
0.03196602
0.032283861
0.032591322
0.032887794
0.033172638
0.033445189
0.033704761
0.033950646
0.034182124
0.034398461
0.034598918
0.034782751
0.034949214
0.035097559
0.035226996
0.035336576
0.035424469
0.035493372
0.035540951
0.035566537
0.035569599
0.035550044
0.035506935
0.035439787
0.035348527
0.035232921
0.035092805
0.034928088
0.034738756
0.034524876
0.034286594
0.034024136
0.03373781
0.033427984
0.026190269
0.026616417
0.02703763
0.027453864
0.027865058
0.028271111
0.028671881
0.029067175
0.029456735
0.029833751
0.030209026
0.030580856
0.030945779
0.031296521
0.03164625
0.031989473
0.032324351
0.032650353
0.032966929
0.033273493
0.033569429
0.033854086
0.034126787
0.034386831
0.034633494
0.034866033
0.035083694
0.035285714
0.035471328
0.035639775
0.035790319
0.035922284
0.036032704
0.036123169
0.036194497
0.036244327
0.036272042
0.036277082
0.036259307
0.036217695
0.036151863
0.036061608
0.035946657
0.035806808
0.035641932
0.035451981
0.035236987
0.034997064
0.034732412
0.034443315
0.034130132
0.026946831
0.027366514
0.027781319
0.028191239
0.02859625
0.028996282
0.029391218
0.029780888
0.03015841
0.030533464
0.030907052
0.03127442
0.031629171
0.031981709
0.032329273
0.032669454
0.033001721
0.033325536
0.033640339
0.033945536
0.034240499
0.034524569
0.034797054
0.035057237
0.035304375
0.035537707
0.035756454
0.035959828
0.036147037
0.036317291
0.036469813
0.036603849
0.036716031
0.036808819
0.036882427
0.036934494
0.036964369
0.036971428
0.036955508
0.036915592
0.036851204
0.036762113
0.036648
0.03650862
0.036343807
0.036153472
0.035937613
0.035696313
0.035429741
0.035138158
0.034821911
0.027705806
0.028117785
0.028525005
0.028927499
0.02932528
0.029718313
0.030106503
0.030482924
0.030856037
0.03122962
0.031597647
0.031953662
0.032307606
0.032657906
0.033001561
0.033338189
0.033667323
0.033988442
0.034300989
0.034604365
0.034897934
0.035181025
0.035452933
0.035712925
0.035960238
0.03619409
0.036413678
0.036618187
0.036806796
0.036978679
0.037133017
0.037268998
0.037383065
0.037478143
0.037553964
0.037608259
0.037640339
0.037649373
0.037635402
0.037597318
0.0375345
0.037446718
0.037333608
0.037194883
0.037030335
0.036839839
0.036623355
0.036380931
0.036112708
0.03581892
0.035499905
0.028463934
0.028867008
0.02926551
0.029659512
0.030049069
0.030434184
0.030807945
0.03117773
0.0315494
0.031916214
0.032271641
0.032625104
0.032976217
0.033321486
0.033660575
0.033993089
0.034318569
0.034636503
0.034946333
0.035247455
0.035539225
0.035820961
0.036091944
0.036351423
0.036598617
0.03683272
0.037052906
0.037258331
0.037448142
0.03762148
0.037777488
0.03791531
0.038031223
0.038128545
0.038206531
0.038263023
0.038297285
0.038308373
0.038296381
0.038260214
0.038199069
0.03811272
0.038000759
0.037862856
0.037698761
0.037508308
0.037291422
0.037048116
0.036778499
0.036482777
0.036161288
0.029218245
0.029611269
0.029999978
0.030384479
0.030764875
0.031134367
0.031499821
0.031867639
0.032231358
0.032584364
0.032935825
0.033285704
0.033630607
0.033970207
0.034304144
0.034632011
0.034953344
0.035267632
0.035574311
0.035872773
0.036162364
0.036442389
0.036712116
0.036970775
0.037217566
0.037451659
0.037672203
0.037878327
0.038069146
0.038243768
0.038401298
0.038540844
0.03865852
0.038758017
0.038838113
0.038896762
0.038933181
0.038946341
0.038936362
0.038902173
0.038842784
0.038757973
0.038647287
0.038510353
0.038346877
0.038156656
0.037939574
0.03769561
0.037424839
0.037127438
0.029966035
0.030347937
0.030725852
0.031099903
0.031463401
0.031823612
0.032185835
0.032544577
0.032893332
0.033241422
0.033588114
0.033930677
0.034268816
0.034602204
0.034930474
0.035253209
0.035569945
0.035880161
0.036183291
0.036478717
0.036765776
0.03704376
0.03731192
0.03756947
0.037815588
0.038049422
0.038270095
0.038476707
0.038668343
0.038844076
0.039002977
0.03914412
0.039263458
0.039365048
0.039447189
0.039507943
0.039546466
0.039561692
0.039553746
0.039521582
0.039464014
0.039380825
0.03927152
0.039135679
0.03897297
0.038783146
0.038566055
0.03832164
0.038049947
0.037751161
0.030704845
0.031074643
0.031440858
0.031796812
0.032150548
0.032505457
0.032857503
0.033200241
0.033543604
0.033885285
0.034223622
0.034558374
0.034889264
0.035215969
0.035538119
0.035855296
0.036167028
0.036472792
0.036772012
0.037064061
0.037348266
0.037623904
0.037890212
0.038146384
0.038391578
0.038624919
0.038845503
0.039052401
0.039244668
0.039421343
0.039581461
0.039724064
0.039844955
0.039948545
0.040032666
0.040095479
0.040135966
0.040153263
0.040147365
0.040117257
0.040061555
0.039980054
0.039872212
0.03973757
0.039575751
0.039386471
0.039169538
0.038924859
0.03865245
0.038352497
0.031432438
0.031789249
0.032136356
0.032483015
0.0328278
0.033171795
0.033506902
0.033844111
0.034179108
0.03451145
0.03484098
0.035167484
0.035490699
0.03581031
0.036125949
0.036437193
0.036743568
0.037044542
0.037339532
0.037627901
0.037908964
0.038181984
0.03844618
0.03870073
0.038944769
0.039177399
0.03939769
0.039604685
0.039797405
0.039974856
0.040136037
0.040279954
0.040402278
0.040507771
0.040593815
0.040658752
0.040700749
0.040720273
0.040716432
0.040688391
0.040634582
0.040554812
0.040448498
0.040315137
0.040154314
0.039965702
0.039749071
0.039504292
0.039231351
0.038930437
0.032146817
0.032483279
0.032821754
0.033158362
0.033487049
0.033815318
0.034144701
0.034471508
0.034796213
0.035118785
0.035439102
0.035756974
0.036072149
0.036384316
0.036693108
0.0369981
0.037298812
0.037594706
0.03788519
0.038169615
0.038447283
0.038717443
0.038979297
0.039232004
0.039474679
0.0397064
0.039926212
0.040133128
0.040326138
0.04050421
0.040666297
0.04081136
0.040934992
0.041042273
0.041130111
0.041196939
0.04124072
0.041262353
0.0412605
0.041234499
0.041182591
0.041104576
0.040999834
0.040867819
0.040708075
0.040520235
0.04030403
0.040059294
0.039785976
0.032840245
0.033167018
0.033492654
0.033810155
0.034129123
0.034447488
0.03476453
0.035080007
0.035393969
0.035706384
0.036017138
0.036326052
0.036632878
0.03693731
0.037238977
0.037537452
0.037832248
0.038122818
0.038408561
0.038688817
0.038962874
0.039229965
0.039489277
0.039739948
0.039981073
0.040211707
0.04043087
0.040637548
0.040830702
0.041009262
0.041172113
0.041318086
0.041442914
0.041551887
0.041641414
0.041709983
0.041755569
0.041779265
0.041779362
0.041755352
0.041705357
0.0416291
0.041525954
0.04139533
0.04123673
0.041049748
0.040834077
0.040589524
0.040316069
0.033525122
0.033832764
0.034140188
0.034448582
0.034754958
0.035060395
0.035364995
0.035668729
0.035971593
0.036273534
0.036574439
0.03687413
0.037172362
0.037468824
0.037763145
0.03805489
0.038343565
0.038628615
0.038909426
0.039185328
0.039455593
0.03971944
0.039976038
0.040224505
0.040463918
0.040693307
0.040911671
0.041117972
0.041311149
0.04149011
0.041653666
0.041800045
0.041926058
0.042036685
0.042127845
0.042197896
0.042245299
0.04227102
0.042273061
0.042250956
0.042202868
0.042128366
0.042026827
0.041897624
0.041740216
0.041554158
0.041339109
0.041094842
0.040821359
0.034185634
0.034481134
0.034775094
0.035068476
0.035361094
0.035653293
0.035945232
0.036236958
0.036528464
0.036819693
0.037110531
0.0374008
0.037690251
0.03797857
0.038265377
0.038550231
0.03883263
0.039112007
0.039387739
0.03965914
0.039925469
0.040185928
0.04043967
0.040685793
0.040923353
0.041151361
0.041368792
0.041574588
0.041767681
0.041947021
0.042111688
0.04225692
0.042384641
0.042496941
0.042589875
0.042660657
0.042710151
0.042737855
0.042741792
0.042721533
0.04267532
0.042602554
0.04250262
0.042374851
0.042218667
0.042033584
0.041819221
0.041575322
0.041301905
0.034832308
0.035111383
0.035389959
0.035668393
0.035946846
0.036225542
0.036504623
0.036784152
0.037064125
0.037344479
0.037625097
0.037905806
0.038186353
0.038466411
0.038745591
0.039023443
0.039299457
0.039573055
0.039843598
0.04011039
0.040372672
0.040629633
0.040880405
0.041124069
0.041359661
0.04158617
0.041802547
0.042007716
0.042200583
0.042380072
0.042545158
0.042690346
0.042819415
0.042932996
0.043027269
0.043099229
0.043150704
0.043180181
0.043185931
0.043167453
0.043123068
0.043052008
0.042953665
0.042827332
0.042672389
0.042488314
0.042274689
0.042031213
0.035458652
0.0357213
0.035984157
0.036247507
0.036511592
0.036776615
0.037042709
0.03730993
0.037578268
0.037847651
0.038117959
0.038389033
0.03866061
0.038932346
0.039203835
0.039474624
0.039744189
0.04001194
0.040277227
0.040539337
0.040797497
0.041050877
0.041298594
0.041539711
0.04177324
0.04199815
0.042213371
0.042417798
0.042610308
0.042789776
0.042955076
0.043100475
0.043230763
0.043345364
0.043440744
0.043513997
0.043567343
0.043598493
0.043605977
0.043589212
0.0435466
0.043477206
0.043380427
0.043255519
0.043101824
0.042918784
0.042705948
0.042463068
0.036064091
0.036310114
0.036557071
0.036805228
0.037054844
0.037306116
0.037559167
0.037814045
0.038070721
0.038329103
0.038589059
0.038850478
0.039113083
0.039376491
0.039640273
0.039903978
0.040167075
0.040428954
0.040688951
0.040946341
0.041200333
0.041450082
0.041694686
0.041933188
0.042164583
0.042387817
0.042601793
0.042805382
0.042997424
0.043176746
0.043342163
0.043487822
0.043619227
0.043734728
0.043830848
0.043905543
0.043960649
0.043993391
0.044002531
0.043987409
0.043946507
0.04387873
0.043783481
0.043659978
0.043507527
0.043325533
0.04311351
0.042871233
0.036647934
0.036877215
0.037108194
0.037341118
0.037576247
0.03781377
0.038053799
0.038296369
0.038541432
0.038788854
0.039038439
0.039290243
0.039543939
0.03979907
0.040055161
0.040311804
0.040568456
0.040824471
0.041079179
0.041331845
0.041581654
0.041827747
0.042069204
0.042305051
0.042534261
0.04275576
0.042968425
0.043171096
0.04336258
0.043541663
0.043707119
0.043853026
0.043985476
0.044101988
0.044197863
0.044274666
0.044331309
0.04436556
0.044376274
0.04436272
0.044323462
0.044257248
0.044163486
0.044041359
0.043890137
0.043709191
0.043498
0.043256336
0.037209599
0.037422123
0.037637138
0.037854871
0.038075572
0.038299419
0.038526514
0.038756882
0.038990463
0.039227064
0.039466208
0.039708506
0.039953441
0.040200406
0.040448832
0.040698472
0.040948753
0.04119894
0.04144839
0.04169636
0.041941998
0.042184436
0.042422737
0.042655906
0.042882902
0.043102627
0.043313933
0.043515629
0.043706487
0.04388525
0.044050664
0.044196787
0.044330146
0.044446956
0.044543513
0.044622097
0.044680074
0.044715746
0.044727949
0.044715886
0.044678201
0.04461349
0.044521167
0.04440038
0.044250366
0.04407046
0.043860109
0.043619071
0.037748638
0.037944489
0.038143639
0.038346299
0.038552702
0.038763012
0.038977318
0.039195645
0.03941796
0.039644097
0.039872461
0.040105506
0.040341944
0.040580943
0.040821666
0.041064405
0.041308462
0.041552868
0.04179711
0.042040455
0.042281953
0.042520759
0.042755921
0.042986407
0.043211178
0.043429112
0.04363903
0.043839713
0.044029897
0.044208273
0.044373536
0.044519875
0.044654282
0.044770285
0.044868449
0.04494855
0.045007738
0.045044735
0.045058342
0.045047691
0.045011505
0.044948235
0.044857299
0.04473781
0.044588974
0.044410094
0.044200583
0.043960179
0.038264732
0.038444084
0.038627549
0.038815325
0.039007627
0.039204597
0.039406309
0.039612785
0.039824083
0.040040761
0.040257055
0.040481546
0.040709901
0.040941302
0.041174022
0.04141005
0.04164818
0.041886799
0.042125893
0.042364752
0.042602144
0.042837364
0.04306943
0.043297241
0.043519794
0.043735938
0.043944457
0.044144108
0.044333597
0.044511546
0.04467644
0.04482298
0.044957609
0.045073816
0.045173679
0.045254803
0.04531511
0.045353341
0.045368266
0.045358949
0.045324189
0.045262294
0.045172688
0.045054453
0.044906762
0.044728885
0.044520205
0.044280439
0.038757687
0.038920802
0.039088827
0.039261979
0.039440437
0.039624323
0.039813679
0.040008488
0.040208687
0.040414084
0.040623013
0.040837995
0.041057838
0.041282483
0.04150606
0.041735831
0.041968689
0.042201278
0.042435276
0.042669949
0.042903212
0.043134913
0.043363978
0.043589109
0.043809469
0.044023846
0.044230971
0.044429585
0.044618394
0.044795979
0.044959998
0.045107234
0.045240913
0.04535848
0.045459699
0.045541681
0.045603015
0.045642394
0.045658554
0.045650495
0.045617085
0.045556499
0.045468166
0.045351136
0.045204553
0.045027654
0.04481979
0.04458066
0.039227419
0.039374653
0.039527533
0.039686384
0.039851315
0.040022425
0.040199723
0.040383152
0.040572587
0.040767767
0.040968106
0.04117426
0.041385684
0.041601729
0.041820356
0.042043678
0.042271231
0.04249674
0.042725684
0.042956913
0.043185765
0.043414063
0.043640337
0.043862711
0.044080933
0.044293592
0.044499337
0.04469691
0.04488507
0.045062753
0.045224335
0.045372524
0.045506236
0.04562533
0.045727225
0.045810001
0.045872283
0.045912731
0.045930048
0.045923172
0.045891038
0.045831695
0.045744576
0.045628701
0.045483184
0.045307233
0.045100167
0.044861665
0.039673955
0.039805769
0.039943808
0.040088757
0.040240523
0.040399222
0.040564809
0.040737203
0.040916256
0.041101724
0.041293286
0.041490973
0.04169436
0.041902813
0.042115368
0.04233237
0.042553074
0.042775037
0.042999713
0.043226992
0.043450253
0.043675423
0.043899409
0.044118691
0.044334912
0.044545941
0.044750322
0.044946827
0.045134208
0.045311365
0.04547185
0.045619798
0.045754843
0.04587466
0.045977082
0.046060585
0.046123747
0.046165191
0.04618359
0.046177824
0.046146893
0.046088727
0.046002762
0.04588799
0.045743498
0.045568463
0.045362174
0.045124286
0.040097444
0.040214426
0.040337834
0.040469406
0.040608393
0.040755094
0.040909358
0.041071096
0.041240155
0.041416291
0.041599229
0.041788766
0.041984489
0.042185827
0.042392111
0.042603068
0.04281795
0.043035486
0.043255681
0.043477763
0.043699039
0.043920927
0.044142452
0.0443575
0.044572139
0.044781679
0.044984704
0.045180117
0.045366628
0.045543044
0.045702515
0.045851096
0.045986935
0.046107126
0.04621007
0.046294256
0.046358235
0.046400606
0.046420015
0.046415289
0.04638549
0.046328436
0.046243565
0.046129846
0.045986336
0.045812184
0.045606645
0.045369358
0.040240373
0.040318325
0.040404009
0.04049833
0.040601151
0.040709745
0.040828762
0.040955306
0.041090486
0.041233839
0.041385319
0.041544782
0.041711956
0.041886549
0.04206826
0.042256665
0.042451228
0.042651355
0.042856543
0.043066067
0.043279009
0.043494847
0.043712686
0.043931028
0.044149711
0.044367553
0.044581887
0.044794005
0.045001632
0.045203254
0.045397567
0.045583185
0.045758826
0.045917646
0.046066712
0.046202965
0.046323552
0.046427001
0.046511825
0.046576565
0.046619798
0.04664015
0.046636396
0.046607659
0.046551652
0.046467817
0.046355098
0.046212529
0.046039226
0.045834411
0.045597707
0.040665706
0.040727234
0.040797352
0.040876518
0.040964692
0.041061121
0.0411679
0.041281642
0.04140591
0.041538764
0.041680391
0.041830679
0.041989276
0.042155862
0.04233008
0.0425115
0.042699599
0.04289379
0.043093479
0.043297947
0.043506377
0.043718047
0.043932045
0.044147235
0.044362892
0.044577854
0.044790518
0.045000576
0.045206461
0.045406718
0.045599958
0.045784706
0.04595953
0.046117858
0.046267317
0.046403818
0.046524759
0.046628679
0.046714096
0.046779541
0.046823576
0.046844805
0.046841957
0.046814213
0.046759193
0.046676333
0.046564564
0.046422895
0.046250409
0.046046286
0.045810148
0.041067254
0.041112801
0.04116781
0.041232526
0.041306987
0.041391001
0.041485233
0.041588646
0.04170291
0.041824679
0.041956855
0.042098424
0.042248849
0.042407793
0.04257486
0.042749624
0.042931567
0.043120086
0.043314543
0.043514213
0.043718301
0.043926005
0.044136406
0.044348473
0.044561277
0.044773685
0.044984417
0.0451926
0.045396874
0.045595835
0.045788065
0.045972005
0.046145846
0.046303825
0.046453625
0.046590293
0.04671154
0.04681589
0.046901853
0.04696795
0.047012728
0.047034771
0.047032766
0.047005946
0.046951855
0.04686991
0.046759039
0.046618233
0.046446533
0.046243066
0.046007476
0.041445272
0.041475419
0.041515902
0.041566845
0.041628309
0.041700251
0.041782876
0.041875827
0.041979589
0.042093393
0.042215769
0.042348626
0.042491301
0.042642984
0.042803245
0.042971681
0.043147778
0.043330906
0.043520397
0.043715518
0.04391547
0.044119411
0.044326415
0.044535477
0.044745587
0.044955623
0.045164394
0.045370815
0.045573583
0.045771327
0.04596264
0.046145939
0.046318334
0.046476252
0.046626361
0.046763149
0.046884657
0.046989394
0.047075858
0.047142557
0.04718802
0.047210819
0.047209596
0.047183633
0.047130412
0.047049321
0.046939296
0.046799319
0.046628389
0.04642553
0.046190464
0.04180017
0.041815555
0.041842159
0.041880001
0.04192913
0.041989527
0.042061223
0.042144042
0.042238036
0.042342712
0.042457447
0.042583362
0.042717278
0.04286209
0.04301589
0.043178316
0.043348884
0.043526909
0.043711704
0.043902523
0.044098556
0.044298941
0.044502737
0.044708942
0.044916507
0.045124311
0.045331178
0.045535933
0.045737285
0.045933885
0.046124377
0.046307537
0.04647728
0.04663593
0.046786251
0.046923116
0.047044846
0.047149929
0.047236849
0.0473041
0.047350197
0.047373693
0.047373198
0.047348025
0.047295612
0.047215313
0.047106077
0.046966901
0.046796761
0.046594479
0.046359918
0.042132406
0.042133839
0.04214715
0.042172567
0.042210015
0.042259452
0.042320832
0.042394004
0.042478854
0.042575011
0.042682096
0.042800335
0.042928905
0.04306587
0.043213454
0.043370177
0.043535538
0.043708752
0.043889119
0.044075883
0.044268222
0.044465255
0.044666031
0.044869537
0.045074706
0.045280406
0.045485456
0.045688639
0.045888657
0.046084165
0.046273811
0.046456336
0.046624577
0.046783646
0.046933987
0.047070894
0.047192811
0.047298203
0.047385539
0.047453297
0.047499976
0.047524115
0.047524296
0.047499845
0.047448181
0.047368609
0.047260094
0.047121701
0.042442525
0.042430663
0.042431612
0.04244516
0.042471578
0.042510664
0.042562323
0.042626387
0.042702663
0.042790828
0.042890553
0.043001722
0.043123784
0.043256238
0.04339679
0.0435479
0.043708396
0.043877086
0.044053291
0.044236245
0.044425115
0.044619002
0.044816943
0.045017915
0.045220833
0.045424556
0.04562789
0.045829593
0.046028356
0.046222821
0.046411608
0.046593371
0.046760609
0.046919979
0.047070221
0.047207155
0.047329231
0.0474349
0.047522613
0.047590834
0.047638048
0.047662778
0.047663591
0.047639794
0.047588818
0.047509905
0.047402035
0.042731171
0.042706753
0.042695944
0.04269856
0.042714474
0.042743826
0.042786354
0.042841862
0.04291011
0.042990782
0.043083548
0.043188144
0.043304113
0.043430947
0.043567842
0.043712178
0.043868115
0.044032555
0.044204859
0.044384246
0.044569868
0.044760814
0.044956105
0.045154705
0.045355518
0.04555739
0.045759115
0.045959431
0.046157018
0.046350497
0.046538438
0.046719416
0.046885896
0.047045496
0.047195602
0.047332546
0.047454759
0.047560674
0.047648729
0.047717373
0.047765078
0.047790351
0.047791746
0.047768545
0.0477182
0.047639875
0.04753258
0.04299901
0.042962794
0.042940922
0.04293323
0.042939493
0.042959615
0.042993601
0.043041105
0.043101856
0.043175527
0.043261769
0.043360242
0.043470514
0.043592092
0.043724642
0.043864833
0.044015344
0.044175788
0.044344448
0.044520506
0.044703102
0.044891306
0.04508413
0.045280522
0.045479374
0.045679521
0.045879743
0.046078768
0.04627526
0.046467816
0.046654947
0.046835126
0.047000995
0.047160778
0.047310744
0.047447687
0.047570018
0.047676154
0.047764518
0.047833548
0.047881702
0.047907473
0.047909403
0.047886747
0.047836976
0.047759175
0.047652412
0.043246746
0.043199491
0.043167275
0.043149903
0.043147216
0.043158793
0.043184751
0.043224801
0.043278575
0.043345728
0.043425888
0.04351867
0.043623629
0.043740244
0.04386794
0.044005601
0.044151554
0.044307397
0.044472672
0.04464563
0.044825416
0.045011078
0.045201613
0.045395958
0.04559299
0.045791536
0.045990364
0.046188192
0.046383672
0.046575382
0.046761758
0.046941081
0.047106461
0.0472664
0.047416238
0.047553174
0.047675606
0.047781939
0.047870583
0.047939964
0.047988528
0.048014756
0.048017177
0.047995019
0.047945774
0.047868455
0.047762182
0.043475107
0.043417574
0.04337573
0.043349357
0.043338262
0.043342084
0.043360516
0.043393636
0.043440943
0.043502053
0.043576571
0.04366408
0.043764115
0.043876134
0.043999518
0.044133461
0.044277442
0.044428242
0.044590131
0.044760206
0.044937393
0.045120708
0.045309131
0.045501584
0.045696937
0.045894004
0.046091545
0.046288268
0.046482822
0.046673774
0.046859493
0.047037787
0.047202842
0.047362927
0.047512649
0.047649575
0.047772095
0.047878604
0.047967501
0.048037201
0.048086139
0.048112784
0.048115654
0.048093952
0.048045189
0.047968321
0.047862499
0.04368484
0.043617783
0.043567024
0.043532322
0.04351343
0.043510062
0.043521655
0.043548292
0.043589631
0.043645163
0.043714474
0.04379712
0.043892614
0.044000406
0.044119875
0.044250354
0.044391592
0.044539697
0.044697354
0.044864798
0.045039597
0.045220756
0.045407238
0.045597954
0.045791764
0.04598747
0.046183827
0.046379536
0.046573246
0.04676354
0.046948799
0.047125647
0.047290692
0.047450906
0.04760052
0.047737432
0.047860029
0.047966695
0.048055822
0.048125811
0.04817509
0.048202115
0.048205395
0.04818411
0.048135791
0.048059341
0.047953937
0.043876703
0.043800873
0.043741908