/*--------------------------------*- C++ -*----------------------------------*\
| =========                 |                                                 |
| \\      /  F ield         | OpenFOAM: The Open Source CFD Toolbox           |
|  \\    /   O peration     | Version:  2312                                  |
|   \\  /    A nd           | Website:  www.openfoam.com                      |
|    \\/     M anipulation  |                                                 |
\*---------------------------------------------------------------------------*/
FoamFile
{
    version     2.0;
    format      ascii;
    arch        "LSB;label=32;scalar=64";
    class       volScalarField;
    location    "0.05";
    object      H2O;
}
// * * * * * * * * * * * * * * * * * * * * * * * * * * * * * * * * * * * * * //

dimensions      [0 0 0 0 0 0 0];

internalField   nonuniform List<scalar> 
3272
(
0.015311525
0.015656345
0.015998479
0.016337633
0.016673472
0.017005646
0.017333791
0.017657534
0.01797649
0.018290267
0.01859846
0.018900657
0.01919644
0.019485387
0.019767075
0.020036307
0.020299466
0.020556342
0.020804046
0.021038167
0.021265427
0.021482797
0.021689126
0.021883947
0.022066795
0.022237214
0.022394761
0.022539007
0.022669541
0.022785973
0.022887934
0.022975079
0.023047091
0.023102894
0.023143435
0.0231684
0.023177259
0.023169956
0.023146301
0.023106088
0.023050095
0.022977129
0.02288759
0.022781753
0.022659763
0.022521813
0.022368135
0.02219901
0.022014756
0.021815735
0.021602341
0.021375005
0.02113418
0.015408984
0.015754784
0.016097871
0.016437947
0.01677468
0.017107719
0.017436704
0.017761262
0.018081013
0.018395562
0.018704507
0.019007434
0.019303923
0.019593547
0.019875887
0.020145692
0.020409807
0.020667272
0.020915529
0.021150208
0.021378274
0.02159628
0.02180324
0.021998677
0.022182122
0.022353116
0.02251121
0.022655976
0.022786998
0.022903883
0.023006258
0.023093774
0.023166113
0.023222178
0.023262946
0.023288074
0.023297032
0.023289766
0.023266079
0.023225758
0.023169589
0.023096326
0.023006432
0.022900151
0.022777627
0.022639051
0.022484657
0.022314723
0.022129571
0.021929567
0.021715115
0.021486653
0.02124459
0.015591852
0.01593937
0.016284107
0.016625773
0.016964038
0.017298557
0.017628975
0.017954925
0.01827603
0.018591899
0.018902132
0.019206311
0.019504004
0.01979477
0.020078188
0.020348988
0.020614801
0.020873314
0.021122273
0.021358042
0.021587573
0.021806728
0.022014816
0.022211352
0.022395863
0.022567885
0.022726968
0.022872675
0.023004588
0.023122306
0.023225449
0.023313662
0.023386617
0.02344319
0.023484402
0.02350986
0.023519041
0.02351188
0.023488184
0.023447721
0.023391277
0.023317528
0.023227036
0.023119998
0.022996554
0.02285689
0.022701237
0.022529872
0.022343116
0.022141334
0.021924931
0.021694341
0.021449973
0.015849351
0.016199055
0.016545883
0.016889551
0.017229739
0.017566111
0.01789832
0.018226008
0.018548805
0.01886633
0.019178188
0.019483962
0.019783194
0.020075353
0.020359921
0.020632039
0.020900263
0.021160859
0.021408305
0.021646958
0.021878357
0.022099069
0.02230865
0.022506636
0.022692557
0.022865949
0.023026357
0.023173337
0.023306462
0.023425322
0.023529527
0.023618713
0.023692539
0.023749838
0.023791699
0.023817655
0.023827186
0.023820222
0.023796574
0.023756019
0.023699257
0.023624913
0.023533674
0.023425673
0.023301043
0.023159963
0.02300266
0.022829407
0.022640521
0.022436364
0.022217342
0.021983889
0.021736413
0.0161719
0.016524007
0.016873121
0.017218969
0.01756124
0.017899613
0.01823375
0.018563306
0.018887923
0.019207235
0.019520866
0.019828422
0.020129438
0.02042316
0.020708071
0.020981844
0.02125249
0.02151458
0.021763006
0.022004416
0.022237465
0.022459858
0.02267112
0.022870772
0.023058335
0.023233338
0.023395317
0.023543819
0.023678405
0.023798654
0.023904163
0.023994554
0.024069472
0.024127697
0.024170396
0.024197015
0.024207033
0.024200351
0.024176755
0.024136469
0.024079244
0.024004275
0.023912217
0.02380314
0.023677166
0.023534463
0.023375249
0.023199792
0.023008403
0.022801442
0.022579312
0.022342448
0.022091262
0.016550911
0.016905411
0.017256784
0.01760477
0.017949074
0.018289387
0.018625389
0.018956746
0.019283114
0.019604135
0.019919442
0.020228648
0.020531359
0.020827206
0.021110536
0.021388443
0.021660725
0.02192385
0.022173724
0.02241791
0.02265271
0.022876885
0.023089941
0.023291387
0.023480737
0.023657509
0.023821228
0.02397143
0.024107662
0.02422949
0.024336496
0.024428285
0.024504488
0.024563816
0.024607536
0.024634989
0.024645658
0.024639426
0.024616093
0.024575891
0.024518291
0.024442803
0.024349942
0.024239765
0.024112381
0.023967948
0.023806674
0.023628819
0.023434687
0.023224634
0.022999059
0.022758399
0.022503067
0.01697866
0.017335333
0.017688736
0.018038623
0.018384718
0.018726731
0.019064357
0.01939728
0.019725171
0.020047685
0.020364457
0.020675087
0.020979081
0.021275649
0.021559992
0.02184123
0.022115582
0.022376807
0.022629826
0.02287662
0.023113241
0.023339234
0.023554121
0.023757413
0.023948616
0.024127241
0.0242928
0.024444817
0.024582824
0.024706371
0.024815023
0.024908367
0.024986016
0.025046605
0.025091509
0.025119961
0.02513144
0.025125806
0.025102871
0.025062828
0.025004961
0.024929043
0.024835442
0.024724202
0.024595417
0.024449231
0.024285841
0.024105496
0.023908492
0.02369518
0.023465954
0.023221248
0.02296148
0.017448174
0.017806616
0.018161639
0.018513017
0.018860495
0.019203804
0.01954266
0.019876768
0.020205818
0.020529493
0.020847467
0.021159442
0.021465251
0.021758865
0.022046316
0.022329929
0.02260485
0.022866545
0.023122895
0.023371243
0.023609517
0.023837229
0.024053887
0.024258992
0.024452043
0.024632538
0.024799976
0.024953867
0.025093727
0.025219087
0.025329494
0.025424515
0.025503742
0.025565726
0.025611966
0.025641566
0.025654009
0.02564912
0.025626729
0.025586973
0.02552898
0.025452749
0.025358513
0.025246296
0.025116176
0.024968282
0.024802796
0.024619954
0.024420044
0.024203405
0.023970428
0.023721543
0.023457166
0.017953146
0.018312789
0.018668867
0.019021176
0.019369485
0.019713549
0.020053108
0.020387888
0.020717599
0.021041936
0.021360563
0.021673056
0.021978624
0.022272048
0.02256293
0.022848099
0.023120296
0.023384155
0.023643457
0.02389322
0.024132979
0.024362257
0.024580561
0.024787384
0.024982216
0.025164541
0.025333845
0.025489621
0.025631366
0.025758593
0.025870827
0.025967614
0.026048523
0.026112016
0.026159721
0.026190611
0.026204163
0.026200167
0.026178474
0.026139151
0.026081193
0.026004791
0.025910056
0.02579699
0.02566565
0.025516146
0.025348645
0.025163368
0.02496059
0.024740643
0.024503907
0.024250801
0.023981695
0.018487859
0.018847998
0.019204433
0.019556986
0.019905455
0.02024962
0.020589249
0.020924089
0.021253877
0.021578344
0.02189727
0.022210622
0.022511851
0.022807618
0.023100432
0.023385167
0.02365688
0.023924097
0.024184291
0.02443512
0.024676095
0.024906721
0.025126489
0.025334882
0.025531378
0.025715446
0.025886558
0.026044186
0.026187811
0.026316922
0.026431022
0.026529634
0.026612303
0.026677393
0.026726678
0.026758983
0.026773782
0.026770823
0.026749989
0.026711243
0.026653493
0.026577083
0.026482009
0.02636825
0.026235838
0.026084864
0.025915477
0.02572788
0.025522335
0.025299163
0.025058736
0.019047127
0.01940694
0.019762928
0.020114938
0.020462799
0.020806322
0.0211453
0.021479502
0.021808667
0.022132495
0.022450629
0.022762384
0.02306227
0.023360838
0.023654192
0.023934774
0.024208384
0.02447793
0.02473873
0.024990326
0.025232235
0.025463952
0.025684963
0.025894738
0.02609274
0.026278426
0.026451249
0.026610664
0.026756129
0.026887109
0.027003084
0.02710355
0.02718803
0.027254785
0.027305744
0.027339576
0.027355749
0.027353956
0.027334171
0.027296098
0.02723875
0.027162508
0.027067271
0.026952993
0.026819683
0.02666741
0.026496299
0.026306537
0.026098369
0.025872096
0.025628043
0.019626239
0.019984817
0.020339469
0.020690071
0.021036484
0.021378552
0.021716096
0.022048914
0.022376768
0.022699421
0.02301692
0.023322419
0.023624656
0.023923479
0.02421513
0.024494308
0.024770582
0.025040093
0.025301095
0.025553104
0.025795626
0.02602815
0.02625015
0.026461085
0.026660406
0.026847554
0.027021963
0.027183069
0.027330306
0.027463115
0.027580948
0.027683271
0.027769579
0.027838043
0.027890753
0.027926211
0.027943882
0.027943406
0.02792477
0.027887466
0.027830752
0.027754851
0.027659633
0.027545023
0.027411004
0.027257619
0.027084972
0.02689323
0.026682618
0.026453423
0.026205958
0.020220914
0.020577283
0.020929651
0.021277926
0.021621998
0.02196174
0.022297
0.022627587
0.022953228
0.023273486
0.023587816
0.023890954
0.024194729
0.024492177
0.024777977
0.025059574
0.025336513
0.025605616
0.025866433
0.026118488
0.026361285
0.026594308
0.026817021
0.027028874
0.027229301
0.027417729
0.027593575
0.027756252
0.027905174
0.028039754
0.02815941
0.028263565
0.028351669
0.028421863
0.028476388
0.028513557
0.028532824
0.028533787
0.028516412
0.028480036
0.028424119
0.028348731
0.028253712
0.028138958
0.028004425
0.027850129
0.02767615
0.027482631
0.02726978
0.027037866
0.026787197
0.020827263
0.021180406
0.021529508
0.021874506
0.022215319
0.022551841
0.022883939
0.023211433
0.023534074
0.02385153
0.024158372
0.024464552
0.024767323
0.025058166
0.025343109
0.025626207
0.025902055
0.0261703
0.026430513
0.026682229
0.026924947
0.027158147
0.027381282
0.027593791
0.027795095
0.027984604
0.028161718
0.02832583
0.028476332
0.028612615
0.028734063
0.028840032
0.028929744
0.029001702
0.029058112
0.029097064
0.029118011
0.029120518
0.029104509
0.029069216
0.029014242
0.028939529
0.028844883
0.028730171
0.028595318
0.028440314
0.028265213
0.028070133
0.027855261
0.027620849
0.027367197
0.021441743
0.021790627
0.02213547
0.022476237
0.022812878
0.02314531
0.023473417
0.02379704
0.02411597
0.024424629
0.024731864
0.025036278
0.025335037
0.025622186
0.025908507
0.0261895
0.026463662
0.026730557
0.026989735
0.027240716
0.027482996
0.027716042
0.027939301
0.028152196
0.028354137
0.028544514
0.028722712
0.028888104
0.029040064
0.029177971
0.029301219
0.029409258
0.029499658
0.029573721
0.029632116
0.029672912
0.029695602
0.029699728
0.029685176
0.029651109
0.029597212
0.029523321
0.029429212
0.029314719
0.029179737
0.029024225
0.028848211
0.028651788
0.02843512
0.028198439
0.027942039
0.022061133
0.022404724
0.022744321
0.02307992
0.023411498
0.023739001
0.024062332
0.024381351
0.024690425
0.024997478
0.025303331
0.025604092
0.025894524
0.026183144
0.026467692
0.026746195
0.027018218
0.027283323
0.02754105
0.027790912
0.028032396
0.028264961
0.028488042
0.028701052
0.028903382
0.029094408
0.029273494
0.029439995
0.029593261
0.029732647
0.029857516
0.029967249
0.030059092
0.030135057
0.030195319
0.030237945
0.030262404
0.030268183
0.030255149
0.03022247
0.030169757
0.030096819
0.030003396
0.029889287
0.029754355
0.029598529
0.029421808
0.029224257
0.029006018
0.028767301
0.028508392
0.0226825
0.023019783
0.023353171
0.023682689
0.024008349
0.024330122
0.024647929
0.024956102
0.025261566
0.025567415
0.025868715
0.026160182
0.026449953
0.02673674
0.027018088
0.027293683
0.027563141
0.027826039
0.028081918
0.028330289
0.028570631
0.028802395
0.029025005
0.029237857
0.029440331
0.029631783
0.029811558
0.029978988
0.0301334
0.030274119
0.030400474
0.030511801
0.030605186
0.030683026
0.0307451
0.030789551
0.030815815
0.030823211
0.030811772
0.030780594
0.030729165
0.030657299
0.030564696
0.030451124
0.03031641
0.030160452
0.029983218
0.029784748
0.029565157
0.029324635
0.02906346
0.023303173
0.023633165
0.023959416
0.024281982
0.024600908
0.024916199
0.025222194
0.025524934
0.025829216
0.026129524
0.026420509
0.026709886
0.026997339
0.027280007
0.027557617
0.027829843
0.028096311
0.028356601
0.028610255
0.028856781
0.029095651
0.029326306
0.029548158
0.029760591
0.029962966
0.030154624
0.030334888
0.030503068
0.030658464
0.030800375
0.030928097
0.031040931
0.031135828
0.031215505
0.031279351
0.031325601
0.03135365
0.031362728
0.031352911
0.031323301
0.031273242
0.031202548
0.031110887
0.030997987
0.030863644
0.030707722
0.03053016
0.030330967
0.030110233
0.029868129
0.029604928
0.02392072
0.024242485
0.024560718
0.024875506
0.025186932
0.025489433
0.025788626
0.026089756
0.026387529
0.026676533
0.026964271
0.027250714
0.027533082
0.02781111
0.028084501
0.028352922
0.028615996
0.0288733
0.029124376
0.029368724
0.029605809
0.029835064
0.030055887
0.030267649
0.030469694
0.030661344
0.030841902
0.031010653
0.031166875
0.031309836
0.031438805
0.03155305
0.03164939
0.031730848
0.031796421
0.031844437
0.031874253
0.031885027
0.031876857
0.031848867
0.031800246
0.031730812
0.031640194
0.031528087
0.031394251
0.031238519
0.031060796
0.030861064
0.030639386
0.030395907
0.024532929
0.024845589
0.025154985
0.025461217
0.02575881
0.026053712
0.02635026
0.026643959
0.026929481
0.02721446
0.027498294
0.027778747
0.028055578
0.02832852
0.028597272
0.028861493
0.029120801
0.029374773
0.029622943
0.029864805
0.030099818
0.0303274
0.030546941
0.030757794
0.030959289
0.031150727
0.03133139
0.031500542
0.031657432
0.031801303
0.031931394
0.032046946
0.032144648
0.032227818
0.032295066
0.032344806
0.032376344
0.03238881
0.032382304
0.032355971
0.032308841
0.032240735
0.032151248
0.032040036
0.031906827
0.031751421
0.03157369
0.03137359
0.031151157
0.030906543
0.025137787
0.025440537
0.025740354
0.02603177
0.026321371
0.026611932
0.026900149
0.027180745
0.027461854
0.027741585
0.028018578
0.028292637
0.028563534
0.028831004
0.029094745
0.029354415
0.029609628
0.029859954
0.030104923
0.030344021
0.030576697
0.030802359
0.031020383
0.031230109
0.031430847
0.031621882
0.031802472
0.031971858
0.032129264
0.032273906
0.032404994
0.032521742
0.032620714
0.032705522
0.032774392
0.032825816
0.032858962
0.032873124
0.032868295
0.032843645
0.032798043
0.032731318
0.032643029
0.032532799
0.03240032
0.032245358
0.032067756
0.03186744
0.031644421
0.031398852
0.02573346
0.026025578
0.026309752
0.026593559
0.026875831
0.027157457
0.027431806
0.027707876
0.027982135
0.028254221
0.028524004
0.02879131
0.029055924
0.029317586
0.029575997
0.02983081
0.030081636
0.030328041
0.030569546
0.030805632
0.031035735
0.031259254
0.03147555
0.031683947
0.03188374
0.032074192
0.032254542
0.032424007
0.032581786
0.032727063
0.032859021
0.032976844
0.03307699
0.033163356
0.0332338
0.033286963
0.033321346
0.033337329
0.033334185
0.033311228
0.033267175
0.033201868
0.033114829
0.033005649
0.032873984
0.032719569
0.032542215
0.032341816
0.032118362
0.031872006
0.026318316
0.026593775
0.026870881
0.027146459
0.027415552
0.027684304
0.027953966
0.028221521
0.028487353
0.02875144
0.029013681
0.02927392
0.029531951
0.029787519
0.030040324
0.030290019
0.030536209
0.030778455
0.031016272
0.031249128
0.031476452
0.03169763
0.031912008
0.032118897
0.032317573
0.032507281
0.032687238
0.032856639
0.033014654
0.03316044
0.03329314
0.033411902
0.033513118
0.033600948
0.033672861
0.033727572
0.033763414
0.033781125
0.033779609
0.033758322
0.033715825
0.033651955
0.033566203
0.033458124
0.033327343
0.03317356
0.032996555
0.032796192
0.032572429
0.02688602
0.027153546
0.027420141
0.027680077
0.027941213
0.028201855
0.028461415
0.028719693
0.028976731
0.029232502
0.029486914
0.029739819
0.029991015
0.030240251
0.030487223
0.030731582
0.030972928
0.031210816
0.031444751
0.031674195
0.031898562
0.032117228
0.032329524
0.032534746
0.032732153
0.032920971
0.033100397
0.033269603
0.033427737
0.033573922
0.033707247
0.033826754
0.033928949
0.034018164
0.034091459
0.034147596
0.034184918
0.034204317
0.034204396
0.03418474
0.034143809
0.034081378
0.033996933
0.033889993
0.033760148
0.033607068
0.0334305
0.033230286
0.033006411
0.027446723
0.027698586
0.027950272
0.028202751
0.028453579
0.028703637
0.02895301
0.029201675
0.029449627
0.029696823
0.029943172
0.030188526
0.030432686
0.030675397
0.030916355
0.031155204
0.031391539
0.031624907
0.031854805
0.032080684
0.032301947
0.032517957
0.032728031
0.032931449
0.033127453
0.033315253
0.033494025
0.033662922
0.033821074
0.033967588
0.03410149
0.034221329
0.034324495
0.034415065
0.034489696
0.034547047
0.034585855
0.034606912
0.034608583
0.034590486
0.034551117
0.034490123
0.034406994
0.034301216
0.034172347
0.034020024
0.033843965
0.033643985
0.033420088
0.027987478
0.028229401
0.028470064
0.028710253
0.028949816
0.029189037
0.029428046
0.029666879
0.029905532
0.030143959
0.030382066
0.030619706
0.030856677
0.031092721
0.031327528
0.031560735
0.031791932
0.032020657
0.032246396
0.032468589
0.03268663
0.032899866
0.033107602
0.033309101
0.033503589
0.033690258
0.033868266
0.03403675
0.034194833
0.034341657
0.034476469
0.034595369
0.034699933
0.034791872
0.034867956
0.034925905
0.034966425
0.034989106
0.034992329
0.034975743
0.034937909
0.034878336
0.034796522
0.034691918
0.034564051
0.034412525
0.034237028
0.03403735
0.033813506
0.028516905
0.028745381
0.028973448
0.0292014
0.029429367
0.029657532
0.029886014
0.030114862
0.030344073
0.030573596
0.030803336
0.03103315
0.031262831
0.031492112
0.031720674
0.03194815
0.03217412
0.032398112
0.032619603
0.032838023
0.033052752
0.033263123
0.033468428
0.033667914
0.033860791
0.034046231
0.034223378
0.034391348
0.034549247
0.034696193
0.034831346
0.034950211
0.035055879
0.035148866
0.035226047
0.03528496
0.035327102
0.035351235
0.035355942
0.035340814
0.035304476
0.0352463
0.035165788
0.03506236
0.03493551
0.034784809
0.034609916
0.034410585
0.029029686
0.029244714
0.029459913
0.029675515
0.02989172
0.030108691
0.03032654
0.030545312
0.030764998
0.030985539
0.031206838
0.031428763
0.031651101
0.031873569
0.032095835
0.032317527
0.032538218
0.032757424
0.032974612
0.033189198
0.033400552
0.033607992
0.033810796
0.034008196
0.034199384
0.034383516
0.034559715
0.034727078
0.034884685
0.035031613
0.035166943
0.03528598
0.035392646
0.035486468
0.035564555
0.035624527
0.035668201
0.035693703
0.03569983
0.035686105
0.035651218
0.035594406
0.035515175
0.035412913
0.035287085
0.035137231
0.034962984
0.03476414
0.029525354
0.029726771
0.029928953
0.030132116
0.030336475
0.030542189
0.03074936
0.030958026
0.031168164
0.031379699
0.031592523
0.031806545
0.032021537
0.032237187
0.032453143
0.032669036
0.032884431
0.033098829
0.033311686
0.033522409
0.03373035
0.033934818
0.034135073
0.034330332
0.034519773
0.034702533
0.034877714
0.035044389
0.035201613
0.035348423
0.035483848
0.035603097
0.035710678
0.035805238
0.03588393
0.035945082
0.035990197
0.036017002
0.036024485
0.036012105
0.035978619
0.035923131
0.035845151
0.03574404
0.03561923
0.035470233
0.035296652
0.035098302
0.030003342
0.030191051
0.030380152
0.030570845
0.030763343
0.030957801
0.031154311
0.031352901
0.031553532
0.031756094
0.031960427
0.032166576
0.032374275
0.032583148
0.032792808
0.033002919
0.033213038
0.033422635
0.033631163
0.033838018
0.034042535
0.034244009
0.034441688
0.034634773
0.034822425
0.035003764
0.035177871
0.035343797
0.035500563
0.035647176
0.035782634
0.035902087
0.036010522
0.03610591
0.036184402
0.03624728
0.036293653
0.036321694
0.036330465
0.036319369
0.036287228
0.03623302
0.036156258
0.036056273
0.035932469
0.03578433
0.03561143
0.035413582
0.030463172
0.030637163
0.030813194
0.03099145
0.031172136
0.031355397
0.031541318
0.031729918
0.031921149
0.032114852
0.032310637
0.032509004
0.032709531
0.032911719
0.033115103
0.033319481
0.033524384
0.03372921
0.033933432
0.034136443
0.034337545
0.034536027
0.034731122
0.034922015
0.035107855
0.035287742
0.035460736
0.035625863
0.035782116
0.035928468
0.036063891
0.036183521
0.0362927
0.036388332
0.036467382
0.036531719
0.036579184
0.036608388
0.036618379
0.036608502
0.03657765
0.036524672
0.036449088
0.036350201
0.036227385
0.036080098
0.035907886
0.03571055
0.030904478
0.031064819
0.031227862
0.031393778
0.031562758
0.031734937
0.031910388
0.03208913
0.032271137
0.032456274
0.032643233
0.032834025
0.033027595
0.033223261
0.033420339
0.033619067
0.033818875
0.034018968
0.034218927
0.034418151
0.034615863
0.034811372
0.035003896
0.035192594
0.035376612
0.035555032
0.03572689
0.035891188
0.03604689
0.036192924
0.036328224
0.03644803
0.036558068
0.036653039
0.036733405
0.036798982
0.03684744
0.036877729
0.036888868
0.036880148
0.036850523
0.036798724
0.036724276
0.036626452
0.036504601
0.036358153
0.036186628
0.035989812
0.031327
0.031473833
0.031624034
0.031777765
0.031935201
0.032096459
0.032261599
0.032430639
0.032603627
0.032781019
0.032958097
0.033141885
0.033328838
0.033518284
0.03370881
0.033902043
0.034096999
0.034292354
0.034488098
0.03468365
0.034878001
0.035070573
0.035260563
0.03544707
0.035629273
0.035806228
0.035976941
0.036140393
0.036295526
0.036441211
0.036576209
0.036696179
0.036806399
0.036901537
0.036983294
0.037049709
0.037099082
0.037130382
0.0371426
0.037134973
0.037106515
0.037055842
0.036982482
0.036885684
0.036764771
0.036619145
0.036448301
0.036252006
0.031730577
0.031864118
0.032001679
0.032143437
0.032289539
0.032440084
0.032595109
0.032754598
0.032918498
0.033086655
0.033257703
0.033433708
0.033613691
0.033797606
0.033980646
0.034168758
0.034359397
0.034549815
0.034741387
0.034933512
0.035124482
0.035314174
0.035501708
0.03568602
0.035866427
0.036041935
0.036211507
0.03637411
0.036528687
0.036674074
0.036808355
0.036928896
0.037038338
0.037134589
0.037217456
0.037284574
0.037334787
0.037367027
0.037380257
0.037373659
0.037346306
0.037296705
0.037224388
0.037128577
0.03700857
0.036863744
0.036693568
0.036497794
0.032115143
0.032235682
0.032360844
0.032490894
0.032625921
0.032766008
0.032911159
0.033061332
0.03321642
0.033376212
0.033540228
0.033709005
0.033882095
0.034058969
0.034237957
0.034420789
0.034607085
0.034791707
0.034979142
0.035168447
0.035355806
0.035542712
0.035727961
0.035910015
0.036088672
0.036262774
0.036431216
0.036592967
0.036747012
0.03689248
0.037024766
0.037146086
0.037255555
0.037353056
0.037436477
0.037504245
0.037555235
0.03758835
0.037602527
0.037596897
0.037570589
0.037522006
0.037450682
0.037355816
0.037236683
0.037092633
0.03692311
0.03672785
0.032480718
0.032588633
0.032701644
0.032820313
0.032944562
0.033074487
0.033210052
0.03335119
0.033497779
0.03364962
0.03380645
0.033968295
0.034134806
0.034305465
0.034479482
0.034657139
0.034837827
0.035019546
0.035203487
0.035389558
0.03557234
0.035756685
0.03594006
0.036119584
0.036296602
0.03646937
0.036636695
0.036797572
0.036950979
0.037096016
0.037227404
0.037348528
0.037459088
0.037557181
0.037641033
0.037709396
0.037761106
0.037795036
0.037810099
0.037805378
0.037780055
0.037732435
0.037662056
0.037568094
0.0374498
0.0373065
0.037137613
0.036942857
0.032827425
0.032923197
0.03302423
0.033131947
0.033245734
0.033365837
0.033492131
0.033624545
0.033762952
0.033907153
0.034056923
0.034212095
0.034372332
0.034537166
0.034706049
0.034878757
0.035054679
0.035232774
0.035413045
0.035594862
0.035776019
0.035957677
0.036139037
0.036315095
0.036490818
0.036662367
0.036828581
0.036988564
0.03714126
0.03728569
0.037416247
0.037537889
0.0376491
0.037747499
0.037831778
0.0379007
0.037953079
0.037987768
0.038003658
0.037999789
0.037975393
0.037928683
0.0378592
0.037766099
0.037648609
0.037506032
0.037337759
0.037143495
0.03294444
0.033008258
0.033078407
0.033155627
0.033239805
0.033328711
0.033426149
0.033529749
0.03364042
0.033757782
0.033881796
0.034012347
0.034149211
0.03429215
0.034440915
0.03459516
0.034754447
0.034918289
0.035086275
0.035257811
0.035432144
0.035608849
0.035787192
0.035965946
0.03614498
0.036323325
0.036498799
0.036672458
0.036842441
0.037007507
0.037166589
0.037318553
0.037462349
0.037592373
0.037714412
0.037825961
0.037924685
0.038009378
0.038078822
0.038131824
0.038167219
0.038183881
0.038180807
0.038157281
0.038111428
0.038042793
0.037950511
0.037833791
0.03769191
0.037524229
0.037330442
0.033292656
0.033343028
0.033400433
0.033465246
0.033537433
0.033616378
0.033703798
0.033796917
0.033898654
0.034007421
0.03412337
0.034246409
0.034376251
0.034512633
0.034655264
0.034803791
0.034957786
0.035116769
0.035280252
0.035447649
0.035618288
0.035791581
0.035966779
0.036142953
0.036319509
0.036495497
0.036669603
0.036841575
0.037010132
0.037174081
0.037332285
0.037483536
0.037626663
0.037756285
0.037878646
0.037990397
0.038089411
0.03817449
0.03824442
0.038297999
0.03833405
0.03835143
0.038349098
0.038326385
0.03828134
0.038213504
0.038121999
0.038006016
0.037864803
0.037697689
0.037504366
0.0336214
0.033658689
0.033703724
0.033756706
0.033817667
0.033886448
0.033963595
0.034048259
0.034141806
0.034241497
0.034349708
0.034465609
0.034588761
0.034718887
0.034855663
0.034998741
0.035147696
0.035302035
0.035461235
0.035624703
0.035791789
0.035961834
0.036134087
0.036307705
0.036481926
0.036655822
0.036828346
0.036998784
0.037166022
0.037328909
0.037486286
0.037636876
0.037779199
0.037908534
0.038031174
0.038143063
0.038242327
0.038327757
0.038398135
0.038452248
0.038488907
0.038506954
0.038505312
0.038483355
0.03843907
0.038371984
0.038281214
0.038165938
0.038025369
0.037858791
0.037665916
0.03393088
0.03395556
0.033988704
0.03403041
0.03408073
0.034139629
0.034207273
0.034283371
0.03436832
0.034461491
0.034561679
0.034670448
0.034787254
0.034911436
0.035042641
0.035180537
0.035324706
0.035474631
0.035629766
0.03578951
0.035953209
0.036120174
0.036289647
0.036460804
0.036632818
0.036804773
0.036975692
0.037144688
0.037310692
0.037472583
0.037629209
0.037779274
0.037920413
0.038049699
0.038172591
0.038284579
0.038384057
0.038469804
0.038540591
0.038595197
0.038632417
0.038651082
0.038650081
0.038628826
0.038585254
0.038518866
0.038428789
0.038314191
0.038174252
0.038008173
0.037815727
0.034221432
0.034234028
0.034255807
0.034286789
0.03432701
0.034376456
0.034435154
0.034502957
0.034579909
0.034665606
0.034759539
0.034862624
0.03497226
0.035090816
0.035216731
0.035349708
0.03548935
0.035635098
0.035786388
0.035942609
0.0361031
0.036267153
0.036434
0.036602817
0.036772749
0.036942876
0.037112237
0.037279868
0.037444713
0.037605667
0.037761622
0.037911573
0.038050541
0.038180426
0.038303492
0.038415542
0.038515201
0.038601232
0.038672393
0.038727451
0.03876519
0.038784426
0.03878402
0.038763412
0.038720502
0.038654762
0.038565331
0.038451389
0.038312096
0.03814649
0.037954457
0.03449343
0.034494603
0.034505501
0.03452631
0.034556968
0.034597441
0.034647693
0.034707599
0.034777064
0.034855788
0.034943456
0.035040258
0.035145517
0.035257649
0.035378475
0.035506782
0.035642163
0.035783971
0.035931636
0.036084538
0.036242004
0.036403313
0.036567687
0.036734296
0.036902265
0.03707067
0.037238543
0.037404887
0.03756864
0.037728701
0.037883962
0.038033394
0.038171131
0.03830136
0.038424443
0.038536527
0.038636339
0.038722623
0.038794124
0.038849597
0.038887812
0.038907575
0.038907723
0.038887706
0.038845409
0.038780264
0.038691424
0.038578122
0.034747322
0.034737611
0.034738388
0.034749479
0.034771107
0.034803107
0.0348454
0.034897848
0.034960295
0.035032475
0.035114119
0.035205132
0.035305062
0.035413502
0.03552857
0.035652283
0.03578368
0.035921785
0.036066042
0.036215825
0.036370451
0.036529184
0.036691237
0.036855771
0.037021898
0.037188684
0.037355152
0.037520285
0.03768301
0.037842217
0.037996776
0.038145583
0.038282499
0.038412974
0.038535976
0.038648083
0.038748025
0.038834535
0.038906345
0.038962197
0.039000851
0.039021097
0.039021763
0.03900228
0.038960547
0.038895941
0.038807629
0.034983634
0.034963643
0.034954794
0.034956935
0.034969964
0.034993994
0.035028812
0.035074255
0.035130129
0.035196175
0.035272122
0.035357753
0.035452697
0.035556534
0.035668609
0.035786775
0.03591444
0.036049065
0.036190129
0.036336992
0.036488959
0.036645284
0.036805168
0.03696776
0.037132164
0.037297435
0.037462585
0.037626582
0.037788345
0.037946744
0.03810061
0.038248775
0.038385071
0.038515734
0.038638624
0.038750739
0.038850794
0.038937506
0.039009595
0.039065793
0.039104849
0.03912554
0.039126682
0.039107688
0.039066471
0.039002347
0.038914505
0.035202912
0.035173262
0.035155355
0.035149058
0.035154185
0.035170659
0.035198483
0.035237374
0.035287111
0.035347424
0.035418029
0.035498649
0.035588928
0.035688463
0.03579698
0.035911753
0.036034975
0.036166329
0.03630441
0.036448547
0.036598036
0.036752118
0.036909981
0.037070765
0.037233563
0.037397422
0.037561342
0.037724282
0.037885148
0.038042792
0.038195995
0.038343506
0.038479301
0.038610114
0.03873289
0.038845004
0.038945155
0.039032048
0.039104391
0.039160905
0.039200328
0.039221427
0.039223007
0.039204459
0.039163712
0.039100017
0.039012611
0.035405731
0.035367044
0.035340668
0.035326446
0.035324246
0.035333724
0.035354976
0.035387765
0.035431789
0.035486766
0.035552392
0.035628352
0.035714281
0.035809753
0.035914297
0.036026999
0.036146489
0.036274076
0.036409386
0.036550985
0.036698174
0.036850174
0.037006163
0.037165271
0.03732658
0.037489128
0.037651907
0.037813866
0.037973904
0.038130855
0.03828344
0.03843025
0.038565645
0.038696586
0.038819257
0.038931366
0.0390316
0.039118653
0.039191226
0.039248027
0.039287786
0.039309259
0.03931124
0.0392931
0.039252783
0.039189483
0.039102478
0.035592688
0.035545586
0.035511328
0.035489737
0.035480654
0.035483783
0.035498873
0.035525988
0.035564718
0.035614748
0.035675756
0.035747399
0.035829296
0.035921005
0.036022018
0.036131676
0.036249553
0.036373011
0.036505548
0.036644787
0.036789848
0.036939927
0.037094187
0.037251747
0.037411681
0.037573017
0.037734742
0.037895798
0.038055077
0.038211408
0.038363455
0.038509422
0.038644552
0.038775612
0.038898188
0.039010288
0.039110594
0.039197792
0.039270572
0.039327634
0.0393677
0.039389513
0.039391863
0.039374096
0.039334174
0.039271242
0.039184607
0.035764394
0.035709495
0.03566794
0.035639529
0.035624063
0.035621305
0.035630796
0.035652604
0.035686447
0.035731911
0.035788655
0.035856317
0.035934497
0.036022745
0.036120554
0.036227376
0.036343006
0.036464258
0.03659333
0.036730415
0.036873522
0.037021835
0.037174506
0.037330644
0.037489314
0.037649538
0.037810293
0.037970518
0.038129107
0.038284899
0.038436569
0.038581353
0.038716473
0.038847639
0.038970127
0.039082216
0.039182585
0.039269912
0.039342879
0.039400179
0.039440522
0.039462648
0.039465333
0.039447907
0.039408349
0.03934576
0.039259466
0.035921471
0.03585939
0.035811116
0.035776425