/*--------------------------------*- C++ -*----------------------------------*\
| =========                 |                                                 |
| \\      /  F ield         | OpenFOAM: The Open Source CFD Toolbox           |
|  \\    /   O peration     | Version:  2312                                  |
|   \\  /    A nd           | Website:  www.openfoam.com                      |
|    \\/     M anipulation  |                                                 |
\*---------------------------------------------------------------------------*/
FoamFile
{
    version     2.0;
    format      ascii;
    arch        "LSB;label=32;scalar=64";
    class       volScalarField;
    location    "0.05";
    object      nut;
}
// * * * * * * * * * * * * * * * * * * * * * * * * * * * * * * * * * * * * * //

dimensions      [0 2 -1 0 0 0 0];

internalField   nonuniform List<scalar> 
3272
(
0.027923526
0.028026721
0.028130901
0.028236052
0.028342134
0.028449102
0.028556911
0.028665513
0.028774861
0.02888491
0.028995614
0.029106926
0.029218804
0.029331204
0.029444085
0.029557393
0.029671081
0.029785109
0.029899453
0.030014071
0.03012893
0.030244006
0.030359273
0.030474705
0.030590279
0.030705977
0.030821847
0.030937746
0.031053734
0.03116981
0.031285976
0.031402241
0.031518617
0.031635121
0.031751776
0.031868611
0.031985664
0.032102977
0.032220596
0.032338577
0.03245698
0.032575871
0.032695322
0.032815411
0.032936222
0.033057842
0.033180367
0.033303895
0.033428528
0.033554373
0.033681537
0.033810132
0.033940265
0.027927148
0.028031002
0.028135834
0.028241624
0.028348328
0.028455899
0.028564289
0.02867345
0.028783333
0.028893892
0.029005078
0.029116847
0.029229154
0.029341956
0.02945521
0.029568863
0.029682866
0.029797182
0.029911784
0.030026632
0.030141696
0.030256952
0.030372371
0.030487929
0.030603601
0.030719392
0.030835289
0.030951208
0.031067192
0.031183239
0.031299352
0.031415539
0.031531814
0.031648194
0.031764701
0.031881366
0.031998227
0.032115326
0.032232712
0.032350438
0.032468566
0.032587164
0.032706304
0.032826064
0.032946529
0.033067789
0.033189939
0.03331308
0.033437315
0.033562754
0.033689509
0.033817692
0.033947397
0.027934371
0.028039401
0.028145372
0.028252259
0.028360018
0.028468596
0.028577944
0.02868801
0.028798745
0.0289101
0.029022028
0.029134482
0.029247418
0.029360791
0.029474557
0.029588667
0.029703072
0.029817736
0.029932629
0.030047716
0.030162968
0.030278361
0.030393869
0.030509467
0.030625132
0.030740901
0.030856657
0.030972432
0.031088228
0.031204045
0.031319887
0.031435763
0.031551688
0.03166768
0.031783763
0.031899969
0.032016337
0.03213291
0.032249737
0.032366875
0.032484387
0.032602341
0.032720811
0.032839876
0.032959625
0.033080148
0.033201542
0.03332391
0.033447358
0.033571998
0.033697944
0.033825307
0.033954185
0.027947204
0.028053815
0.028161302
0.02826964
0.028378777
0.028488661
0.028599237
0.028710453
0.028822258
0.028934601
0.029047436
0.029160718
0.029274403
0.029388441
0.029502772
0.029617386
0.029732224
0.02984725
0.029962425
0.030077722
0.030193111
0.030308574
0.030424085
0.030539621
0.030655206
0.030770747
0.030886253
0.031001727
0.031117167
0.031232574
0.031347953
0.031463315
0.031578677
0.031694058
0.031809484
0.031924989
0.032040612
0.032156399
0.032272402
0.032388678
0.032505291
0.032622312
0.032739817
0.032857889
0.032976615
0.033096091
0.033216415
0.033337692
0.033460032
0.033583548
0.033708357
0.033834574
0.033962296
0.027967218
0.028075676
0.028184918
0.028294915
0.028405613
0.028516957
0.02862889
0.028741358
0.02885431
0.028967696
0.029081471
0.029195594
0.029310031
0.029424726
0.029539504
0.029654575
0.029769777
0.029885069
0.03000042
0.030115802
0.030231196
0.030346582
0.030461934
0.030577292
0.030692534
0.030807693
0.030922763
0.031037736
0.031152612
0.031267394
0.03138209
0.031496713
0.031611282
0.031725817
0.031840346
0.031954904
0.032069535
0.032184285
0.032299207
0.032414361
0.032529814
0.032645638
0.032761911
0.032878719
0.032996152
0.033114307
0.033233286
0.033353197
0.033474152
0.033596267
0.033719662
0.033844456
0.033970746
0.027995983
0.028106411
0.028217501
0.028329223
0.028441521
0.028554336
0.028667614
0.028781299
0.028895342
0.029009695
0.029124312
0.029239153
0.02935418
0.029469351
0.029584594
0.029699917
0.029815272
0.029930629
0.030045953
0.030161216
0.030276405
0.03039151
0.030506525
0.030621379
0.03073609
0.030850648
0.030965046
0.031079281
0.031193356
0.031307274
0.031421047
0.031534689
0.031648222
0.031761668
0.031875057
0.031988428
0.032101823
0.032215293
0.032328892
0.032442682
0.032556733
0.032671119
0.03278592
0.032901223
0.033017123
0.033133719
0.033251116
0.033369424
0.033488758
0.033609239
0.033730987
0.033854126
0.033978755
0.028034961
0.028147339
0.028260227
0.028373597
0.028487391
0.028601554
0.028716029
0.028830767
0.028945718
0.029060839
0.029176089
0.029291429
0.029406825
0.02952224
0.029637629
0.029752965
0.029868228
0.029983386
0.030098415
0.030213279
0.030328039
0.030442567
0.030556905
0.030671035
0.030784947
0.030898637
0.031012098
0.031125333
0.031238346
0.031351143
0.031463738
0.03157615
0.0316884
0.031800513
0.031912522
0.032024467
0.032136394
0.032248353
0.032360402
0.032472605
0.032585033
0.032697762
0.032810876
0.032924464
0.033038622
0.033153452
0.033269063
0.033385568
0.033503085
0.033621736
0.033741646
0.03386294
0.033985719
0.028085434
0.028199598
0.028314095
0.028428898
0.028543954
0.028659209
0.028774611
0.028890116
0.029005678
0.02912126
0.029236827
0.029352346
0.02946779
0.029583121
0.029698308
0.029813326
0.029928168
0.030042789
0.030157226
0.030271395
0.030385308
0.030498958
0.030612337
0.030725437
0.030838252
0.030950778
0.031063016
0.03117497
0.031286645
0.031398054
0.031509211
0.031620137
0.031730856
0.031841396
0.03195179
0.032062081
0.032172317
0.032282549
0.032392837
0.032503248
0.032613853
0.032724731
0.032835968
0.032947654
0.03305989
0.033172779
0.033286433
0.033400967
0.033516504
0.033633169
0.033751088
0.033870384
0.033991155
0.028148461
0.028264111
0.028379893
0.028495788
0.028611746
0.028727722
0.028843669
0.028959548
0.029075325
0.029190966
0.029306446
0.02942174
0.029536825
0.029651669
0.029766256
0.029880559
0.029994619
0.030108348
0.030221749
0.030334832
0.030447587
0.030560009
0.030672091
0.030783831
0.030895226
0.031006279
0.031116992
0.031227373
0.03133743
0.031447178
0.031556635
0.031665822
0.031774767
0.031883498
0.031992051
0.032100471
0.032208806
0.03231711
0.032425444
0.032533877
0.03264248
0.032751335
0.032860528
0.032970153
0.033080312
0.033191111
0.033302664
0.033415091
0.033528517
0.033643071
0.033758883
0.033876068
0.03399466
0.028224847
0.028341555
0.028458179
0.028574708
0.028691103
0.028807324
0.028923336
0.02903911
0.029154619
0.029269839
0.029384753
0.029499351
0.029613617
0.029727502
0.029841081
0.029954245
0.030067027
0.03017942
0.030291419
0.030403028
0.030514244
0.030625066
0.030735494
0.030845529
0.030955174
0.031064434
0.031173315
0.031281828
0.031389985
0.031497803
0.0316053
0.031712502
0.031819436
0.031926134
0.032032632
0.032138976
0.032245216
0.032351408
0.032457612
0.032563898
0.03267034
0.03277702
0.032884026
0.032991453
0.033099404
0.033207989
0.033317323
0.033427529
0.033538737
0.033651084
0.033764712
0.028315128
0.028432353
0.028549269
0.028665875
0.028782146
0.028898053
0.029013574
0.02912869
0.029243383
0.029357642
0.029471456
0.029584818
0.029697806
0.029810249
0.029922256
0.030033803
0.030144885
0.030255507
0.030365679
0.030475404
0.030584686
0.030693529
0.030801938
0.030909918
0.031017478
0.031124625
0.031231369
0.031337724
0.031443704
0.031549327
0.031654615
0.031759594
0.031864293
0.031968745
0.032072987
0.032177066
0.032281033
0.032384943
0.032488859
0.032592851
0.032696993
0.032801366
0.032906062
0.033011175
0.03311681
0.033223078
0.033330097
0.03343799
0.03354689
0.033656927
0.033768217
0.028419559
0.028536664
0.028653232
0.028769279
0.028884793
0.02899976
0.02911417
0.029228027
0.029341305
0.029454027
0.029566197
0.02967778
0.029788841
0.029899346
0.030009317
0.030118756
0.03022767
0.030336076
0.030443986
0.030551412
0.030658361
0.030764845
0.030870871
0.030976451
0.031081596
0.031186316
0.031290626
0.031394541
0.031498077
0.031601254
0.031704096
0.031806628
0.031908881
0.032010889
0.03211269
0.032214331
0.032315862
0.032417341
0.032518828
0.032620394
0.032722115
0.03282407
0.032926352
0.033029056
0.033132287
0.033236157
0.033340784
0.033446294
0.033552818
0.033660489
0.033769415
0.028538115
0.028654388
0.028769902
0.028884691
0.028998757
0.029112118
0.029224739
0.029336732
0.029447999
0.029558556
0.0296684
0.029777646
0.029886284
0.029994311
0.030101735
0.030208575
0.030314854
0.030420595
0.030525816
0.030630532
0.030734759
0.030838511
0.030941802
0.031044646
0.031147057
0.031249051
0.031350643
0.031451849
0.031552689
0.031653184
0.031753357
0.031853235
0.031952848
0.032052231
0.032151422
0.032250468
0.03234942
0.032448332
0.032547269
0.032646297
0.032745492
0.032844936
0.032944718
0.033044935
0.033145692
0.033247102
0.033349282
0.033452359
0.033556466
0.033661734
0.033768275
0.028670503
0.028785174
0.028898881
0.029011677
0.029123553
0.029234672
0.029344832
0.029454202
0.029562781
0.02967058
0.029777601
0.029883925
0.029989586
0.030094592
0.030198962
0.030302723
0.030405911
0.03050855
0.030610665
0.030712276
0.030813405
0.030914069
0.031014288
0.031114078
0.031213456
0.03131244
0.031411047
0.031509296
0.031607207
0.0317048
0.0318021
0.031899134
0.031995932
0.032092527
0.032188958
0.032285271
0.032381515
0.032477746
0.032574024
0.032670419
0.032767003
0.032863858
0.032961072
0.033058742
0.033156973
0.033255876
0.033355571
0.033456183
0.033557845
0.033660691
0.033764834
0.028816177
0.028928439
0.029039561
0.029149659
0.029258638
0.029366653
0.029473698
0.029579832
0.029685094
0.029789511
0.029893116
0.02999597
0.030098122
0.030199597
0.030300427
0.030400653
0.030500311
0.030599433
0.030698047
0.03079618
0.030893857
0.030991101
0.031087932
0.031184372
0.031280439
0.031376153
0.031471532
0.031566595
0.031661363
0.031755857
0.031850101
0.031944123
0.032037948
0.032131611
0.03222515
0.032318609
0.032412037
0.032505487
0.03259902
0.032692702
0.032786605
0.032880809
0.032975402
0.033070481
0.033166147
0.033262513
0.033359698
0.033457828
0.033557034
0.033657452
0.033759195
0.028974375
0.029083463
0.029191188
0.029297723
0.029403094
0.029507374
0.029610614
0.029712873
0.0298142
0.029914644
0.030014261
0.030113115
0.030211251
0.030308714
0.030405553
0.030501811
0.03059753
0.030692746
0.030787493
0.030881802
0.030975702
0.03106922
0.031162378
0.031255198
0.031347703
0.031439911
0.031531842
0.031623515
0.031714951
0.031806171
0.031897198
0.031988058
0.032078775
0.032169382
0.032259916
0.03235042
0.03244094
0.032531527
0.032622242
0.032713148
0.032804316
0.032895824
0.032987758
0.033080213
0.033173291
0.033267103
0.033361768
0.03345741
0.033554161
0.033652157
0.03375151
0.0291441
0.029249139
0.029352735
0.029455015
0.029556054
0.029655931
0.02975472
0.029852485
0.029949291
0.03004521
0.030140314
0.030234661
0.03032831
0.03042132
0.030513748
0.03060564
0.030697044
0.030788001
0.030878549
0.030968722
0.031058553
0.03114807
0.031237298
0.03132626
0.031414979
0.031503474
0.031591765
0.031679871
0.031767811
0.031855606
0.031943276
0.032030847
0.032118342
0.03220579
0.032293226
0.032380691
0.032468228
0.032555889
0.03264373
0.032731813
0.032820206
0.032908985
0.032998235
0.033088048
0.033178526
0.033269779
0.033361923
0.033455084
0.033549394
0.033644985
0.033741969
0.02932419
0.029424434
0.029523149
0.029620474
0.029716509
0.029811349
0.029905076
0.029997769
0.030089517
0.030180406
0.030270507
0.030359888
0.030448624
0.03053678
0.030624415
0.030711585
0.030798338
0.030884721
0.030970775
0.031056538
0.031142043
0.031227319
0.031312394
0.031397291
0.031482032
0.031566636
0.031651124
0.031735511
0.031819817
0.03190406
0.03198826
0.032072438
0.032156616
0.032240821
0.032325085
0.032409447
0.032493946
0.032578631
0.032663558
0.032748785
0.032834377
0.032920409
0.033006962
0.033094128
0.033182006
0.033270703
0.033360337
0.033451033
0.033542924
0.033636143
0.033730795
0.029513396
0.029608114
0.029701251
0.029792965
0.029883376
0.029972584
0.030060689
0.030147794
0.030233999
0.030319391
0.030404051
0.030488064
0.030571507
0.030654451
0.030736961
0.030819094
0.030900905
0.030982442
0.031063748
0.031144864
0.031225823
0.031306656
0.031387389
0.031468047
0.03154865
0.031629217
0.031709765
0.031790312
0.031870872
0.031951462
0.032032099
0.032112804
0.032193593
0.032274492
0.03235553
0.03243674
0.032518162
0.032599841
0.032681828
0.03276418
0.03284696
0.032930238
0.033014093
0.033098616
0.033183902
0.033270059
0.033357202
0.033445456
0.033534954
0.033625841
0.029710356
0.029798871
0.029885794
0.029971299
0.030055514
0.030138557
0.030220549
0.030301607
0.03038183
0.030461315
0.03054016
0.030618453
0.030696274
0.030773699
0.030850796
0.030927627
0.031004249
0.031080711
0.031157058
0.031233331
0.031309564
0.031385787
0.031462026
0.031538304
0.031614641
0.031691055
0.031767559
0.031844169
0.031920897
0.031997758
0.032074766
0.032151938
0.032229287
0.032306836
0.032384611
0.032462642
0.032540964
0.032619619
0.032698656
0.032778129
0.032858096
0.032938625
0.033019793
0.033101687
0.033184401
0.03326804
0.033352717
0.033438555
0.03352568
0.03361421
0.029913651
0.029995354
0.030075492
0.030154248
0.030231765
0.030308183
0.030383636
0.030458239
0.030532105
0.030605342
0.030678051
0.030750325
0.030822248
0.030893898
0.030965347
0.031036659
0.03110789
0.031179092
0.031250311
0.031321586
0.03139295
0.031464434
0.031536062
0.031607855
0.03167983
0.031752003
0.031824387
0.031896992
0.031969829
0.03204291
0.032116244
0.032189845
0.032263724
0.032337899
0.032412392
0.032487231
0.032562446
0.032638076
0.032714167
0.032790767
0.032867934
0.032945731
0.033024233
0.033103522
0.033183692
0.033264844
0.033347089
0.033430547
0.033515342
0.033601578
0.030121842
0.030196195
0.030269044
0.030340587
0.030410983
0.030480386
0.030548929
0.030616739
0.03068394
0.030750645
0.030816955
0.030882968
0.030948771
0.031014443
0.031080058
0.03114568
0.031211367
0.031277169
0.031343132
0.031409293
0.031475686
0.031542338
0.031609271
0.031676505
0.031744054
0.03181193
0.031880144
0.031948703
0.032017615
0.032086886
0.032156524
0.032226538
0.032296935
0.032367731
0.032438942
0.032510591
0.032582707
0.032655325
0.032728486
0.032802234
0.032876624
0.032951715
0.03302758
0.033104298
0.033181958
0.033260662
0.033340517
0.033421643
0.033504162
0.033588177
0.030333498
0.030400037
0.030465172
0.03052912
0.030592045
0.030654101
0.030715437
0.030776188
0.030836479
0.030896424
0.030956131
0.031015697
0.031075211
0.031134754
0.031194398
0.031254208
0.03131424
0.031374545
0.031435165
0.031496136
0.03155749
0.031619252
0.031681441
0.031744073
0.031807161
0.031870712
0.031934734
0.031999231
0.032064205
0.032129661
0.032195602
0.032262032
0.032328955
0.032396382
0.032464326
0.032532805
0.032601844
0.032671474
0.032741735
0.032812662
0.032884308
0.03295673
0.033029996
0.033104183
0.033179379
0.033255679
0.033333192
0.033412035
0.033492339
0.030547219
0.030605565
0.030662649
0.030718689
0.030773856
0.030828316
0.030882219
0.030935703
0.030988898
0.031041919
0.031094874
0.031147862
0.031200971
0.031254282
0.031307866
0.031361786
0.031416097
0.031470846
0.031526075
0.031581818
0.031638101
0.031694947
0.031752374
0.031810392
0.031869011
0.031928236
0.031988068
0.032048509
0.032109558
0.032171213
0.032233475
0.032296343
0.032359817
0.032423903
0.03248861
0.032553951
0.032619947
0.032686627
0.032754029
0.032822175
0.03289112
0.032960918
0.033031633
0.033103338
0.033176118
0.033250066
0.033325286
0.033401892
0.033479991
0.03076167
0.030811532
0.030860296
0.030908188
0.030955392
0.031002071
0.031048377
0.031094452
0.031140425
0.031186413
0.031232523
0.031278854
0.031325492
0.031372515
0.031419994
0.031467988
0.031516551
0.031565727
0.031615554
0.031666061
0.031717275
0.031769212
0.031821886
0.031875306
0.031929475
0.031984396
0.032040065
0.032096479
0.032153633
0.032211522
0.032270141
0.032329485
0.032389551
0.032450338
0.032511852
0.032574102
0.032637105
0.032700884
0.032765468
0.032830886
0.032897184
0.032964412
0.03303263
0.033101908
0.033172327
0.033243979
0.033316965
0.033391393
0.033467363
0.030975596
0.031016752
0.031057009
0.031096595
0.031135693
0.03117447
0.031213079
0.03125166
0.031290343
0.031329244
0.031368467
0.03140811
0.031448256
0.031488981
0.031530351
0.031572425
0.03161525
0.031658869
0.031703315
0.031748614
0.031794788
0.03184185
0.03188981
0.031938671
0.031988434
0.032039095
0.032090648
0.032143084
0.032196394
0.032250568
0.032305597
0.032361471
0.032418183
0.032475728
0.032534105
0.032593321
0.03265339
0.032714325
0.032776152
0.0328389
0.032902611
0.032967329
0.03303311
0.033100022
0.033168143
0.033237561
0.033308376
0.033380696
0.03345462
0.031187827
0.03122014
0.031251774
0.031282957
0.031313874
0.031344691
0.03137556
0.03140662
0.031437997
0.031469806
0.031502148
0.031535117
0.031568793
0.031603249
0.031638546
0.031674739
0.031711872
0.031749982
0.0317891
0.031829247
0.031870439
0.031912686
0.031955993
0.032000359
0.032045779
0.032092246
0.032139749
0.032188274
0.032237807
0.032288333
0.03233984
0.032392312
0.032445737
0.032500106
0.032555416
0.032611666
0.032668866
0.032727026
0.032786163
0.032846309
0.032907499
0.032969773
0.033033184
0.033097796
0.033163684
0.033230934
0.033299645
0.033369929
0.031397304
0.031420702
0.031443663
0.031466412
0.031489133
0.031511989
0.03153513
0.031558692
0.031582797
0.031607555
0.031633065
0.031659415
0.031686683
0.031714934
0.031744228
0.031774613
0.031806129
0.03183881
0.031872679
0.031907754
0.031944046
0.031981561
0.032020298
0.032060253
0.032101414
0.032143771
0.032187306
0.032232002
0.03227784
0.0323248
0.032372864
0.032422014
0.032472231
0.032523504
0.032575823
0.032629185
0.032683593
0.032739052
0.032795575
0.032853191
0.032911932
0.032971835
0.033032948
0.03309533
0.033159055
0.033224205
0.033290875
0.033359165
0.031603067
0.031617546
0.031631846
0.031646189
0.031660754
0.031675701
0.031691176
0.031707309
0.031724218
0.031742009
0.031760774
0.031780598
0.031801552
0.031823697
0.031847088
0.031871767
0.03189777
0.031925123
0.031953848
0.031983955
0.032015451
0.032048337
0.032082607
0.032118251
0.032155254
0.032193598
0.032233264
0.032274227
0.032316465
0.032359953
0.032404667
0.032450584
0.032497683
0.032545946
0.032595361
0.03264592
0.032697618
0.032750457
0.032804447
0.032859613
0.032915984
0.032973592
0.033032482
0.03309271
0.033154345
0.033217466
0.033282166
0.03334854
0.031804268
0.031809883
0.031815592
0.031821609
0.031828109
0.031835245
0.031843159
0.031851974
0.031861804
0.031872747
0.03188489
0.031898312
0.031913078
0.031929244
0.031946859
0.031965959
0.031986575
0.032008728
0.032032432
0.032057695
0.032084518
0.032112895
0.032142816
0.032174265
0.032207224
0.032241669
0.032277575
0.032314915
0.032353658
0.032393777
0.032435243
0.032478027
0.032522105
0.032567454
0.032614058
0.032661904
0.032710982
0.032761289
0.032812832
0.032865632
0.032919715
0.032975109
0.033031855
0.033090006
0.033149628
0.033210797
0.033273601
0.033338137
0.032000167
0.031997029
0.031994266
0.031992086
0.031990655
0.031990121
0.031990618
0.031992264
0.031995164
0.03199941
0.032005084
0.032012256
0.032020986
0.032031326
0.032043314
0.032056985
0.03207236
0.032089457
0.032108285
0.032128844
0.03215113
0.032175134
0.032200838
0.032228224
0.032257265
0.032287935
0.032320202
0.032354035
0.0323894
0.032426262
0.032464589
0.032504348
0.032545509
0.032588046
0.032631939
0.032677168
0.03272372
0.032771587
0.032820773
0.032871294
0.032923175
0.032976439
0.033031123
0.033087278
0.033144966
0.03320426
0.033265246
0.033328021
0.032190134
0.0321784
0.032167331
0.032157122
0.032147935
0.032139908
0.032133166
0.032127821
0.03212397
0.032121699
0.032121082
0.03212218
0.03212505
0.032129734
0.032136267
0.032144675
0.032154975
0.032167177
0.032181285
0.032197295
0.032215196
0.032234974
0.032256606
0.032280067
0.032305328
0.032332355
0.032361114
0.032391566
0.032423674
0.032457399
0.032492704
0.03252955
0.032567905
0.032607737
0.032649022
0.032691736
0.032735859
0.032781383
0.032828304
0.032876638
0.032926406
0.032977626
0.033030333
0.033084573
0.033140407
0.033197906
0.033257152
0.033318244
0.032373641
0.032353512
0.032334338
0.032316308
0.032299571
0.032284257
0.032270485
0.032258355
0.032247958
0.032239372
0.032232662
0.032227885
0.032225087
0.032224305
0.032225569
0.032228896
0.032234298
0.03224178
0.032251339
0.032262965
0.032276643
0.032292352
0.032310064
0.03232975
0.032351375
0.032374901
0.032400287
0.032427492
0.032456472
0.032487184
0.032519587
0.03255364
0.032589302
0.03262654
0.032665325
0.032705627
0.032747424
0.032790702
0.032835455
0.032881695
0.032929439
0.032978704
0.033029519
0.033081929
0.033135991
0.033191774
0.033249358
0.033308844
0.032550261
0.03252197
0.032494929
0.032469313
0.032445261
0.032422895
0.032402323
0.032383637
0.032366919
0.032352239
0.032339653
0.032329213
0.032320956
0.032314913
0.032311106
0.032309546
0.032310241
0.032313187
0.032318377
0.032325794
0.032335418
0.032347223
0.032361177
0.032377243
0.032395382
0.032415553
0.032437708
0.032461802
0.032487788
0.032515617
0.032545243
0.032576623
0.03260971
0.032644469
0.032680863
0.03271886
0.032758434
0.032799567
0.032842249
0.032886489
0.032932302
0.0329797
0.03302871
0.033079373
0.033131745
0.033185892
0.033241894
0.03329985
0.032719658
0.032683467
0.032648823
0.032615883
0.032584775
0.032555612
0.03252849
0.032503494
0.032480697
0.032460159
0.03244193
0.032426052
0.032412556
0.032401467
0.032392798
0.032386556
0.032382741
0.032381344
0.032382351
0.032385741
0.032391488
0.032399559
0.032409919
0.032422526
0.032437336
0.032454301
0.032473371
0.032494496
0.032517623
0.0325427
0.032569677
0.032598507
0.03262914
0.032661535
0.03269565
0.03273145
0.032768905
0.032807994
0.032848704
0.03289104
0.032935013
0.032980634
0.033027925
0.033076927
0.033127691
0.033180282
0.033234779
0.033291282
0.03288158
0.032837776
0.032795815
0.032755834
0.032717948
0.032682259
0.032648854
0.032617809
0.032589187
0.03256304
0.032539409
0.032518329
0.032499823
0.03248391
0.032470597
0.032459883
0.032451762
0.03244622
0.032443237
0.032442786
0.032444835
0.032449348
0.032456284
0.032465595
0.032477232
0.032491145
0.032507278
0.032525576
0.032545982
0.032568441
0.032592898
0.032619303
0.032647603
0.032677749
0.032709697
0.032743409
0.032778852
0.032816
0.032854836
0.032895362
0.032937588
0.032981521
0.033027181
0.033074603
0.03312384
0.033174955
0.033228025
0.033283151
0.03303585
0.032984741
0.032935769
0.032889046
0.032844675
0.032802744
0.032763334
0.03272651
0.032692328
0.032660828
0.032632045
0.032606005
0.032582726
0.032562217
0.032544481
0.03252951
0.032517292
0.032507807
0.032501028
0.032496925
0.03249546
0.032496591
0.032500273
0.032506453
0.032515079
0.032526093
0.032539438
0.032555053
0.032572878
0.032592852
0.032614919
0.032639024
0.03266511
0.032693124
0.032723019
0.032754752
0.032788287
0.032823595
0.032860655
0.032899467
0.032940038
0.032982372
0.033026485
0.033072412
0.033120202
0.033169919
0.033221638
0.033275463
0.033369422
0.033305084
0.03324268
0.033182335
0.033124271
0.033068611
0.033015458
0.032964903
0.032917025
0.032871895
0.032829571
0.032790098
0.032753509
0.032719829
0.032689076
0.032661262
0.032636389
0.032614454
0.032595444
0.032579339
0.032566114
0.032555738
0.032548172
0.032543377
0.032541304
0.032541904
0.032545119
0.032550892
0.032559163
0.032569868
0.032582943
0.032598325
0.032615949
0.032635755
0.032657685
0.032681677
0.032707675
0.032735628
0.03276549
0.032797221
0.03283079
0.032866173
0.032903364
0.032942371
0.032983193
0.033025845
0.033070357
0.033116779
0.033165174
0.033215618
0.033268216
0.033529708
0.033457862
0.03338825
0.033321024
0.033256344
0.033194325
0.033135058
0.033078629
0.033025103
0.032974545
0.032927002
0.032882513
0.0328411
0.03280278
0.032767564
0.032735455
0.032706452
0.032680544
0.032657712
0.032637932
0.032621171
0.032607392
0.032596556
0.032588613
0.032583513
0.032581201
0.032581616
0.032584696
0.032590377
0.03259859
0.032609268
0.032622344
0.03263775
0.032655423
0.032675302
0.032697319
0.032721415
0.032747536
0.032775634
0.032805666
0.032837596
0.032871397
0.03290706
0.032944592
0.03298399
0.033025263
0.033068441
0.033113571
0.033160718
0.033209961
0.033261405
0.033681139
0.033602159
0.033525712
0.033451945
0.033380987
0.033312939
0.033247883
0.033185893
0.033127023
0.033071328
0.03301885
0.03296962
0.03292365
0.032880948
0.032841518
0.032805355
0.032772454
0.032742798
0.032716361
0.032693114
0.032673019
0.032656035
0.032642115
0.032631207
0.032623256
0.032618202
0.03261598
0.032616524
0.032619766
0.032625634
0.032634056
0.032644961
0.03265828
0.032673947
0.032691895
0.032712054
0.032734361
0.03275876
0.032785198
0.032813631
0.03284402
0.032876334
0.032910561
0.032946706
0.032984764
0.03302474
0.033066661
0.033110573
0.033156544
0.033204659
0.033255023
0.033823771
0.033738038
0.033655125
0.033575167
0.033498272
0.033424529
0.033354007
0.033286767
0.033222858
0.033162321
0.033105192
0.033051493
0.03300123
0.032954402
0.032911006
0.032871029
0.03283446
0.032801278
0.032771452
0.032744946
0.032721717
0.03270172
0.032684903
0.03267121
0.03266058
0.03265295
0.032648252
0.032646415
0.032647367
0.032651033
0.032657337
0.032666205
0.032677565
0.032691349
0.032707486
0.032725901
0.03274653
0.032769313
0.032794195
0.032821128
0.032850071
0.03288099
0.032913871
0.032948715
0.032985516
0.033024275
0.033065015
0.033107779
0.033152643
0.033199704
0.033249058
0.033957707
0.033865604
0.033776594
0.033690799
0.033608311
0.033529204
0.033453538
0.033381362
0.033312714
0.033247627
0.033186128
0.033128233
0.033073936
0.033023234
0.032976119
0.032932562
0.032892553
0.032856065
0.032823061
0.032793499
0.032767334
0.032744513
0.032724981
0.032708678
0.032695539
0.032685497
0.03267848
0.032674413
0.032673221
0.032674826
0.032679147
0.032686108
0.032695635
0.032707658
0.032722099
0.032738882
0.032757941
0.032779211
0.032802637
0.032828167
0.032855757
0.032885373
0.032916994
0.032950621
0.032986246
0.033023867
0.0330635
0.033105183
0.033149007
0.033195095
0.033243509
0.034083095
0.033985005
0.033890265
0.033798987
0.033711247
0.033627106
0.033546614
0.03346981
0.033396721
0.033327372
0.033261781
0.033199955
0.033141883
0.033087554
0.033036961
0.032990055
0.03294683
0.032907251
0.032871275
0.032838857
0.032809947
0.032784488
0.03276242
0.032743679
0.032728197
0.032715901
0.032706718
0.03270057
0.032697376
0.032697055
0.032699526
0.032704707
0.032712522
0.032722901
0.03273576
0.03275102
0.032768613
0.032788472
0.032810538
0.032834759
0.032861087
0.032889486
0.032919933
0.032952425
0.032986954
0.033023513
0.033062114
0.03310278
0.034200119
0.034096423
0.033996319
0.033899905
0.03380725
0.033718401
0.033633397
0.033552268
0.033475032
0.033401702
0.03333229
0.033266796
0.0332052
0.033147486
0.033093651
0.033043622
0.032997398
0.032954937
0.032916192
0.032881112
0.032849644
0.032821726
0.032797296
0.032776284
0.032758619
0.032744226
0.032733026
0.032724939
0.032719881
0.032717768
0.032718515
0.032722039
0.032728263
0.032737111
0.032748496
0.032762339
0.032778567
0.032797113
0.032817914
0.032840916
0.03286607
0.032893337
0.032922692
0.032954128
0.032987638
0.033023212
0.033060858
0.034308994
0.034200068
0.034094961
0.033993758
0.033896517
0.033803278
0.03371407
0.033628912
0.033547813
0.033470779
0.033397812
0.033328904
0.03326403
0.033203166
0.033146318
0.033093384
0.033044373
0.032999235
0.032957916
0.032920363
0.032886518
0.032856317
0.032829692
0.032806571
0.032786879
0.032770538
0.032757465
0.032747578
0.03274079
0.032737013
0.032736161
0.032738146
0.032742892
0.032750319
0.032760338
0.032772865
0.032787827
0.032805153
0.03282478
0.03284665
0.032870715
0.032896931
0.032925272
0.03295573
0.032988296
0.03302296
0.033059744
0.034409966
0.034296173
0.034186417
0.034080765
0.033979262
0.033881943
0.03378883
0.033699932
0.033615249
0.033534778
0.033458513
0.033386439
0.033318528
0.033254749
0.033195091
0.033139471
0.03308788
0.033040262
0.032996559
0.032956715
0.032920669
0.032888353
0.032859696
0.032834622
0.032813053
0.032794908
0.032780102
0.032768549
0.032760159
0.032754842
0.032752509
0.032753071
0.032756449
0.032762561
0.032771314
0.032782624
0.032796414
0.032812611
0.032831152
0.032851975
0.032875031
0.032900275
0.032927679
0.032957231
0.032988923
0.033022747
0.033058733
0.034503298
0.034384995
0.034270933
0.034161162
0.034055714
0.033954616
0.033857887
0.033765529
0.033677531
0.033593883
0.033514569
0.033439569
0.033368851
0.033302378
0.033240125
0.033182023
0.03312805
0.033078141
0.033032236
0.032990277
0.032952199
0.032917931
0.032887398
0.032860521
0.032837221
0.032817411
0.032801005
0.032787914
0.032778046
0.032771308
0.032767608
0.032766856
0.032768974
0.032773873
0.032781458
0.032791644
0.032804352
0.032819508
0.032837046
0.032856904
0.032879028
0.032903376
0.032929914
0.032958631
0.032989518
0.033022567
0.033057812
0.034589272
0.034466803
0.034348766
0.034235197
0.034126112
0.034021529
0.033921462
0.033825914
0.033734862
0.033648285
0.033566162
0.033488468
0.033415164
0.033346211
0.03328157
0.033221182
0.033165016
0.033112999
0.033065068
0.033021161
0.032981214
0.032945149
0.032912891
0.032884356
0.032859462
0.032838121
0.032820244
0.032805739
0.032794511
0.032786466
0.032781509
0.032779549
0.032780506
0.03278429
0.032790801
0.032799953
0.032811666
0.032825865
0.03284248
0.032861449
0.032882717
0.032906239
0.032931982
0.032959931
0.032990078
0.033022413
0.033056974
0.034668179
0.034541879
0.034420187
0.034303127
0.034190702
0.034082917
0.033979784
0.033881303
0.033787446
0.033698182
0.033613481
0.033533314
0.033457638
0.033386409
0.033319579
0.033257094
0.033198915
0.033144965
0.033095175
0.033049483
0.033007822
0.032970111
0.032936269
0.032906215
0.03287986
0.032857116
0.03283789
0.032822088
0.032809614
0.032800371
0.032794261
0.032791194
0.032791089
0.032793849
0.032799375
0.03280758
0.032818381
0.032831702
0.032847471
0.032865626
0.032886109
0.032908874
0.032933887
0.032961131
0.032990599
0.03302228
0.033056211