/*--------------------------------*- C++ -*----------------------------------*\
| =========                 |                                                 |
| \\      /  F ield         | OpenFOAM: The Open Source CFD Toolbox           |
|  \\    /   O peration     | Version:  2312                                  |
|   \\  /    A nd           | Website:  www.openfoam.com                      |
|    \\/     M anipulation  |                                                 |
\*---------------------------------------------------------------------------*/
FoamFile
{
    version     2.0;
    format      ascii;
    arch        "LSB;label=32;scalar=64";
    class       volScalarField;
    location    "0.05";
    object      O2;
}
// * * * * * * * * * * * * * * * * * * * * * * * * * * * * * * * * * * * * * //

dimensions      [0 0 0 0 0 0 0];

internalField   nonuniform List<scalar> 
3272
(
0.19320703
0.1924669
0.19173797
0.1910209
0.19031645
0.18962539
0.18894851
0.18828662
0.18764051
0.18701102
0.18639895
0.18580515
0.18523042
0.1846756
0.1841415
0.18363784
0.18315261
0.18268631
0.18224426
0.18183417
0.18144425
0.18107982
0.18074284
0.18043408
0.18015427
0.17990413
0.17968435
0.17949556
0.17933835
0.17921327
0.17912079
0.17906135
0.17903533
0.1790429
0.17908418
0.17915992
0.17926987
0.17941216
0.1795896
0.17980189
0.18004496
0.18032381
0.18063639
0.18098154
0.18135871
0.18176724
0.1822064
0.18267537
0.18317329
0.18369918
0.18425205
0.18483081
0.18543436
0.1929498
0.19220764
0.19147679
0.19075791
0.19005176
0.18935911
0.18868075
0.18801747
0.18737008
0.18673938
0.18612621
0.18553138
0.18495574
0.1844001
0.18386527
0.18336106
0.18287463
0.18240785
0.18196541
0.18155496
0.1811643
0.18079946
0.18046212
0.18015305
0.179873
0.17962271
0.17940285
0.17921407
0.17905695
0.17893205
0.17883985
0.1787808
0.17875527
0.17876345
0.17880547
0.17888207
0.17899301
0.17913639
0.17931506
0.17952875
0.17977333
0.18005402
0.1803685
0.18071574
0.18109516
0.18150612
0.18194788
0.18241962
0.18292047
0.18344944
0.18400551
0.1845876
0.18519468
0.19246697
0.19172132
0.1909872
0.19026529
0.18955633
0.18886106
0.18818028
0.18751475
0.18686528
0.18623266
0.18561772
0.18502128
0.1844442
0.18388732
0.18335146
0.18284644
0.18235797
0.18189043
0.18144792
0.18103676
0.18064482
0.18027932
0.17994141
0.17963189
0.17935152
0.17910103
0.17888109
0.17869237
0.17853546
0.17841092
0.17831926
0.17826092
0.17823628
0.17824555
0.17828888
0.17836702
0.17847972
0.17862504
0.17880588
0.17902204
0.17926932
0.17955328
0.17987117
0.18022214
0.1806056
0.18102091
0.18146734
0.18194408
0.18245023
0.18298482
0.18354683
0.18413516
0.1847488
0.19178661
0.19103664
0.19029854
0.18957297
0.18886063
0.18816227
0.18747864
0.1868105
0.18615864
0.18552382
0.18490686
0.18430858
0.18372987
0.18317176
0.18263522
0.18212929
0.18163803
0.18116841
0.18073029
0.18031583
0.17992249
0.1795562
0.17921771
0.17890777
0.17862712
0.17837649
0.17815658
0.17796804
0.17781149
0.17768751
0.17759661
0.17753925
0.17751584
0.17752657
0.17757168
0.17765188
0.17776697
0.17791491
0.17809865
0.17831789
0.17856882
0.17885718
0.17917966
0.17953563
0.17992452
0.18034568
0.18079841
0.18128187
0.1817952
0.18233741
0.18290747
0.1835043
0.18412686
0.19093359
0.19017907
0.18943683
0.1887075
0.18799176
0.18729033
0.18660393
0.1859333
0.18527918
0.18464232
0.18402349
0.18342345
0.18284312
0.18228392
0.18174872
0.18124174
0.18074816
0.18027804
0.17984038
0.17942342
0.1790296
0.17866289
0.17832406
0.17801389
0.17773315
0.17748256
0.17726285
0.17707467
0.17691868
0.17679544
0.17670552
0.17664938
0.17662747
0.17663996
0.1766872
0.17676988
0.17688785
0.17703904
0.17722669
0.17744796
0.17770403
0.17799764
0.17832561
0.17868753
0.17908288
0.17951102
0.17997126
0.18046278
0.18098471
0.18153607
0.18211583
0.18272289
0.18335623
0.18993015
0.18917138
0.18842537
0.1876927
0.18697402
0.18627001
0.18558136
0.18490877
0.18425296
0.18361465
0.18299458
0.18239351
0.1818122
0.18125136
0.18072155
0.18020944
0.1797155
0.1792462
0.1788087
0.17838973
0.1779958
0.177629
0.17729016
0.17698007
0.17669951
0.17644923
0.17622995
0.17604237
0.17588714
0.17576487
0.17567613
0.17562143
0.17560123
0.17561569
0.1756653
0.1757507
0.17587179
0.17602638
0.17621777
0.17644296
0.17670448
0.17700353
0.17733752
0.17770603
0.17810855
0.17854447
0.17901309
0.17951363
0.1800452
0.18060685
0.18119753
0.18181615
0.18246166
0.18879629
0.18803409
0.18728514
0.18655
0.18582927
0.18512358
0.18443359
0.18375995
0.18310335
0.18246448
0.18184406
0.18124286
0.18066185
0.18010249
0.1795737
0.17905849
0.17856394
0.17810116
0.17766134
0.17724116
0.17684746
0.17648101
0.17614258
0.17583297
0.17555296
0.17530332
0.17508477
0.17489805
0.17474383
0.17462274
0.17453539
0.17448231
0.174464
0.17448061
0.17453275
0.17462104
0.17474541
0.17490356
0.17509889
0.17532849
0.17559573
0.17590054
0.17624089
0.17661639
0.17702654
0.17747076
0.17794836
0.17845857
0.17900052
0.17957325
0.18017572
0.18080683
0.18146554
0.18755013
0.18678572
0.1860351
0.18529875
0.18457724
0.18387115
0.18318107
0.18250761
0.18185141
0.18121311
0.18059333
0.17999267
0.17941144
0.17886094
0.17832975
0.17781369
0.17732168
0.17686166
0.17641973
0.17600065
0.17560796
0.17524248
0.17490502
0.17459638
0.17431736
0.17406874
0.17385129
0.17366573
0.17351278
0.1733931
0.17330734
0.17325605
0.17323977
0.17325865
0.17331344
0.17340473
0.17353248
0.17369431
0.17389366
0.17412783
0.17440091
0.17471164
0.17505855
0.17544126
0.1758593
0.17631211
0.17679904
0.1773193
0.17787207
0.17845638
0.1790712
0.17971545
0.18038806
0.18620809
0.18544311
0.18469244
0.18395651
0.18323581
0.18253088
0.18184225
0.18117048
0.18051616
0.17987989
0.17926231
0.17866425
0.17808716
0.17754078
0.17700716
0.17649229
0.17600915
0.17554936
0.17510648
0.17468917
0.17429822
0.17393441
0.17359855
0.17329145
0.17301392
0.17276677
0.17255078
0.17236672
0.17221533
0.17209731
0.17201332
0.17196398
0.17194986
0.17197109
0.17202861
0.17212293
0.17225412
0.17241964
0.17262297
0.17286176
0.17314067
0.17345737
0.17381087
0.17420084
0.17462685
0.17508836
0.17558474
0.17611524
0.17667904
0.17727518
0.17790266
0.17856039
0.17924747
0.18478516
0.18402157
0.18327278
0.18253916
0.18182115
0.1811192
0.18043379
0.17976543
0.17911464
0.17848194
0.17786775
0.17727214
0.17670737
0.17616085
0.17562804
0.17511837
0.17464051
0.17417941
0.17373961
0.17332512
0.17293678
0.17257541
0.17224183
0.17193688
0.17166139
0.17141619
0.17120209
0.17101988
0.17087034
0.17075421
0.17067219
0.17062494
0.17061307
0.17063671
0.17069698
0.17079436
0.17092897
0.17109817
0.17130532
0.17154873
0.17183336
0.17215594
0.17251595
0.1729131
0.17334701
0.17381717
0.17432297
0.1748637
0.17543854
0.17604657
0.17668676
0.18329504
0.18253506
0.18179033
0.18106116
0.1803479
0.17965095
0.17897071
0.17830765
0.17766226
0.17703512
0.17642689
0.17583885
0.1752812
0.17473426
0.17420534
0.17370793
0.17323161
0.17277146
0.17233563
0.17192488
0.17154002
0.17118188
0.17085131
0.17054916
0.17027627
0.17003352
0.16982173
0.16964174
0.16949436
0.16938036
0.1693005
0.16925547
0.16924594
0.16927201
0.16933503
0.16943542
0.16957342
0.16974635
0.16995678
0.17020513
0.17049519
0.17082345
0.17118976
0.17159391
0.17203552
0.17251415
0.17302921
0.17358002
0.17416578
0.17478562
0.1754386
0.18175028
0.18099633
0.18025803
0.1795356
0.17882933
0.17813954
0.17746655
0.17681076
0.17617263
0.17555258
0.17495052
0.17437924
0.17382229
0.17328009
0.1727595
0.17226984
0.17179425
0.17133957
0.1709088
0.17050276
0.17012228
0.16976819
0.16944136
0.16914266
0.16887297
0.16863318
0.16842415
0.16824675
0.16810184
0.16799022
0.16791269
0.16787001
0.16786287
0.16789138
0.16795708
0.16806033
0.16820153
0.16837814
0.16859209
0.16884545
0.16914033
0.16947397
0.16984632
0.17025718
0.17070622
0.17119303
0.17171708
0.1722777
0.17287413
0.17350551
0.17417094
0.18016236
0.17941702
0.17868764
0.17797438
0.17727743
0.17659705
0.17593351
0.17528717
0.17465852
0.17404838
0.17345775
0.17289633
0.17234219
0.17180816
0.17130365
0.17081546
0.17034451
0.16989631
0.16947163
0.16907127
0.16869605
0.16834682
0.16802447
0.16772989
0.16746398
0.16722766
0.16702183
0.1668474
0.16670526
0.16659626
0.16652126
0.16648104
0.16647636
0.16650729
0.16657559
0.16668144
0.16682515
0.16700686
0.16722372
0.16748167
0.167781
0.16811972
0.16849778
0.16891501
0.16937114
0.1698658
0.17039847
0.17096854
0.17157528
0.17221784
0.17289535
0.17854184
0.17780777
0.17708987
0.17638824
0.175703
0.17503433
0.17438248
0.17374775
0.17313059
0.1725316
0.17196087
0.17139981
0.17085361
0.17033748
0.16984057
0.16935595
0.16889306
0.16845247
0.16803492
0.16764119
0.16727212
0.16692856
0.16661141
0.16632159
0.16606004
0.16582769
0.1656255
0.16545441
0.16531533
0.1652092
0.1651369
0.16509927
0.16509713
0.16513051
0.16520143
0.16530996
0.16545655
0.1656417
0.16586177
0.16612409
0.16642766
0.16677117
0.1671546
0.16757786
0.1680407
0.16854279
0.16908368
0.16966278
0.1702794
0.17093272
0.17162186
0.17689841
0.17617829
0.17547446
0.17478692
0.17411572
0.17346101
0.17282295
0.17220182
0.17159798
0.1710218
0.17045668
0.16990531
0.16937285
0.16886974
0.16837703
0.16790263
0.16744916
0.16701735
0.16660796
0.1662218
0.16585971
0.16552259
0.16521135
0.16492692
0.16467028
0.1644424
0.16424426
0.16407686
0.16394116
0.16383813
0.1637687
0.16373379
0.16373424
0.16377015
0.16384369
0.16395487
0.16410423
0.16429231
0.16451538
0.1647817
0.16508925
0.16543725
0.16582573
0.16625464
0.16672378
0.16723289
0.16778154
0.1683692
0.16899522
0.1696588
0.17035909
0.17524095
0.17453746
0.17385022
0.17317918
0.17252431
0.17188568
0.17126343
0.17065777
0.17007921
0.16951278
0.16895709
0.16841927
0.16790852
0.16740979
0.16692713
0.16646393
0.16602095
0.16559894
0.16519866
0.16482095
0.16446667
0.16413672
0.16383204
0.16355361
0.1633024
0.16307945
0.16288577
0.1627224
0.16259035
0.16249064
0.16242427
0.16239219
0.16239528
0.16243381
0.16250997
0.16262379
0.16277584
0.16296628
0.16319225
0.16346192
0.16377329
0.16412553
0.16451873
0.1649529
0.16542794
0.16594361
0.16649955
0.16709528
0.16773018
0.16840349
0.16911438
0.17357762
0.17289336
0.17222518
0.17157295
0.17093658
0.17031607
0.16971151
0.16913348
0.16856883
0.16801195
0.1674719
0.16695798
0.16645576
0.16596761
0.16549778
0.16504678
0.16461529
0.16420401
0.16381374
0.1634453
0.16309956
0.16277747
0.16247997
0.16220807
0.1619628
0.16174521
0.16155637
0.16139734
0.1612692
0.16117303
0.16110987
0.16108075
0.16108653
0.16112774
0.16120652
0.16132307
0.16147831
0.16166921
0.16189846
0.16217117
0.16248615
0.16284232
0.16323989
0.16367895
0.16415946
0.16468123
0.16524399
0.16584727
0.16649052
0.16717301
0.16789392
0.17191588
0.17125334
0.17060657
0.16997535
0.16935953
0.16875903
0.16818442
0.16762416
0.16706946
0.16653048
0.16601664
0.16551419
0.16502384
0.16455052
0.16409471
0.16365694
0.16323788
0.16283822
0.16245875
0.16210032
0.16176383
0.16145021
0.16116046
0.16089561
0.16065672
0.16044489
0.16026122
0.16010683
0.15998285
0.15989041
0.15983061
0.15980454
0.15981306
0.15985695
0.15993826
0.16005731
0.16021499
0.16040781
0.16063958
0.16091481
0.16123306
0.16159283
0.16199442
0.16243797
0.16292352
0.16345095
0.16402002
0.16463035
0.1652814
0.16597251
0.16670286
0.17026254
0.16962409
0.16900093
0.1683928
0.16779943
0.16723123
0.16667741
0.16612835
0.16559379
0.16508326
0.16458338
0.16409433
0.16362091
0.16316358
0.16272283
0.16229924
0.16189346
0.16150621
0.16113828
0.16079053
0.16046388
0.1601593
0.15987781
0.15962046
0.15938836
0.15918265
0.15900446
0.15885498
0.15873538
0.15864684
0.15859053
0.1585676
0.15857889
0.15862546
0.15870923
0.15883062
0.15899058
0.15918549
0.15941957
0.15969695
0.16001816
0.16038121
0.16078646
0.16123412
0.16172429
0.16225692
0.16283184
0.1634487
0.16410702
0.16480619
0.16862383
0.16801166
0.16741416
0.166831
0.1662724
0.16572698
0.16518676
0.16466
0.16415605
0.16366133
0.16317699
0.16270688
0.1622514
0.16181101
0.16138623
0.16097764
0.16058591
0.16021176
0.15985601
0.15951954
0.15920328
0.15890822
0.15863543
0.15838598
0.15816103
0.15796175
0.15778932
0.15764498
0.15752995
0.15744547
0.15739277
0.15737305
0.15738715
0.1574364
0.15752259
0.15764622
0.15780825
0.15800525
0.15824151
0.15852075
0.15884466
0.15921069
0.15961926
0.16007066
0.16056505
0.16110245
0.16168274
0.16230563
0.1629707
0.16367734
0.1670054
0.1664215
0.16585147
0.16530545
0.16477087
0.16424269
0.16372689
0.16323273
0.16274578
0.16226939
0.1618059
0.16135563
0.16091895
0.16049632
0.16008826
0.15969537
0.15931833
0.15895789
0.15861487
0.15829017
0.15798476
0.15769965
0.15743593
0.15719474
0.15697724
0.15678465
0.15661822
0.15647922
0.15636892
0.15628863
0.15623963
0.1562232
0.15624014
0.15629208
0.15638069
0.15650654
0.15667018
0.15686934
0.15710775
0.15738859
0.15771496
0.15808369
0.15849526
0.15895005
0.15944827
0.15999002
0.16057524
0.16120368
0.16187499
0.16258855
0.16541236
0.16485851
0.1643277
0.16380555
0.16329419
0.16279203
0.16231067
0.16183422
0.16136885
0.16091516
0.16047333
0.16004364
0.15962648
0.15922228
0.15883158
0.15845497
0.15809317
0.15774692
0.15741709
0.15710458
0.15681039
0.15653558
0.15628125
0.15604858
0.15583879
0.15565312
0.15549288
0.15535939
0.15525397
0.15517798
0.15513276
0.15511965
0.15513944
0.1551941
0.15528519
0.15541367
0.1555772
0.15577945
0.15602006
0.1563022
0.1566308
0.15700194
0.15741621
0.15787404
0.15837574
0.15892145
0.15951116
0.16014471
0.16082176
0.16154172
0.1638493
0.16333707
0.16282974
0.16233308
0.16185583
0.16138681
0.16092397
0.16047247
0.16003159
0.15960133
0.15918184
0.15877338
0.15837632
0.15799109
0.15761824
0.15725839
0.15691224
0.15658059
0.15626429
0.15596431
0.15568164
0.1554174
0.15517271
0.15494879
0.1547469
0.15456834
0.15441445
0.15428659
0.15418615
0.15411454
0.15407316
0.15406342
0.15408606
0.15414337
0.15423671
0.15436712
0.15453169
0.15473676
0.15497974
0.1552628
0.15559329
0.15596656
0.15638323
0.15684381
0.15734863
0.15789793
0.15849174
0.15912996
0.15981231
0.16232932
0.16184271
0.16136559
0.16090791
0.16045564
0.16001169
0.15957703
0.15915193
0.15873627
0.15833008
0.15793349
0.15754676
0.15717025
0.15680441
0.1564498
0.15610704
0.15577687
0.15546009
0.1551576
0.15487038
0.15459947
0.15434599
0.15411113
0.15389613
0.15370229
0.15353096
0.15338352
0.1532614
0.15316602
0.15309886
0.15306136
0.15305499
0.15308048
0.1531404
0.15323588
0.15336794
0.15353371
0.15374059
0.15398799
0.15427113
0.15460298
0.15497813
0.15539694
0.15585995
0.15636759
0.15692013
0.15751766
0.15816014
0.15884726
0.16083479
0.16038821
0.15994926
0.15951631
0.15909342
0.15867896
0.15827272
0.15787467
0.15748479
0.15710313
0.15672985
0.15636521
0.15600958
0.15566342
0.1553273
0.15500188
0.15468789
0.15438619
0.15409769
0.15382338
0.15356437
0.15332179
0.15309687
0.1528909
0.15270521
0.1525412
0.15240029
0.15228397
0.15219371
0.15213102
0.15209743
0.15209446
0.1521228
0.15218533
0.15228295
0.15241631
0.15258362
0.15279288
0.15304266
0.15332698
0.15365995
0.15403676
0.15445746
0.15492266
0.15543282
0.15598828
0.1565892
0.15723555
0.15792704
0.15939021
0.15897364
0.15856629
0.15816667
0.15777491
0.15739043
0.15701295
0.15664235
0.15627861
0.15592181
0.1555721
0.15522978
0.15489522
0.15456891
0.15425143
0.15394346
0.15364578
0.15335925
0.15308482
0.15282352
0.15257647
0.15234486
0.15212994
0.15193304
0.15175555
0.1515989
0.15146457
0.15135407
0.15126895
0.15121077
0.15118109
0.15118148
0.15121271
0.1512779
0.15137805
0.15151144
0.15168117
0.15189271
0.15214428
0.15242987
0.15276386
0.15314216
0.15356456
0.15403171
0.15454414
0.15510224
0.15570622
0.15635611
0.15705161
0.15798133
0.15760107
0.1572281
0.15686176
0.15650174
0.15614763
0.15579917
0.15545624
0.15511883
0.15478703
0.15446104
0.15414113
0.15382771
0.15352129
0.15322249
0.15293201
0.15265065
0.1523793
0.15211895
0.15187066
0.15163558
0.15141493
0.15121002
0.1510222
0.15085291
0.15070362
0.15057586
0.15047119
0.15039121
0.15033752
0.15031176
0.15031543
0.15034959
0.15041727
0.15051939
0.15065379
0.15082618
0.15103935
0.15129241
0.1515792
0.1519141
0.15229376
0.15271768
0.15318658
0.15370105
0.15426152
0.15486829
0.15552143
0.15661824
0.15627434
0.15593622
0.15560335
0.15527531
0.15495174
0.15463241
0.15431722
0.15400618
0.15369941
0.15339711
0.15309958
0.15280726
0.15252068
0.1522405
0.15196743
0.15170232
0.15144609
0.15119974
0.15096439
0.15074122
0.15053148
0.15033652
0.15015774
0.1499966
0.14985464
0.14973341
0.14963454
0.14955967
0.14951045
0.14948857
0.14949549
0.14953257
0.14960262
0.14970655
0.14984238
0.15001729
0.15023187
0.15048627
0.15077416
0.15110983
0.15149073
0.15191602
0.15238649
0.15290279
0.1534654
0.15407467
0.15473064
0.15530239
0.15499508
0.15469201
0.15439269
0.15409668
0.15380365
0.1535134
0.15322587
0.15294109
0.15265922
0.1523805
0.15210522
0.15183382
0.15156691
0.15130519
0.15104939
0.15080037
0.1505591
0.15032663
0.15010409
0.14989269
0.14969375
0.14950864
0.1493388
0.14918574
0.14905103
0.14893627
0.14884314
0.14877332
0.14872853
0.1487105
0.14872062
0.14876062
0.148833
0.14893843
0.1490761
0.1492533
0.14946919
0.1497248
0.15001371
0.15035003
0.15073206
0.15115858
0.15163045
0.15214838
0.15271292
0.15332446
0.15398303
0.15403523
0.15376459
0.15349655
0.15323069
0.15296658
0.15270393
0.15244256
0.15218245
0.15192368
0.15166647
0.15141114
0.15115783
0.15090709
0.15065959
0.15041608
0.15017731
0.14994415
0.14971764
0.14949883
0.14928891
0.14908912
0.14890082
0.14872541
0.14856437
0.14841926
0.14829169
0.14818331
0.14809584
0.148031
0.14799057
0.14797632
0.14798962
0.14803253
0.14810745
0.14821329
0.14835392
0.14853291
0.14875005
0.1490068
0.14929664
0.14963349
0.15001654
0.15044418
0.15091731
0.1514367
0.15200297
0.15261655
0.1532775
0.15281794
0.15258381
0.15235061
0.15211796
0.15188546
0.15165287
0.15142005
0.151187
0.15095386
0.1507209
0.15048873
0.15025704
0.15002654
0.14979809
0.14957251
0.14935046
0.14913285
0.14892081
0.14871542
0.14851786
0.14832946
0.14815158
0.14798568
0.14783329
0.14769598
0.14757541
0.14747328
0.14739135
0.1473314
0.14729525
0.14728472
0.14730112
0.14734685
0.1474237
0.14753101
0.14767431
0.14785474
0.14807309
0.14833091
0.14862161
0.1489589
0.14934287
0.1497715
0.15024576
0.15076647
0.15133428
0.1519497
0.15261281
0.15165135
0.15145341
0.15125467
0.15105481
0.1508535
0.15065051
0.15044578
0.15023932
0.15003127
0.14982194
0.14961288
0.14940226
0.14919147
0.14898158
0.14877366
0.14856794
0.14836549
0.14816761
0.14797532
0.14778983
0.14761254
0.14744485
0.14728823
0.14714427
0.14701457
0.14690084
0.14680482
0.1467283
0.14667312
0.14664114
0.14663425
0.14665371
0.14670236
0.14678033
0.14689003
0.14703561
0.14721736
0.14743686
0.14769569
0.14798719
0.14832483
0.14870963
0.14913916
0.14961443
0.1501363
0.15070551
0.15132258
0.15198765
0.15053603
0.15037375
0.15020894
0.15004132
0.14987062
0.14969667
0.14951946
0.14933902
0.14915547
0.14896849
0.14878328
0.14859276
0.14840098
0.14820901
0.14801862
0.14782877
0.14764093
0.1474569
0.14727737
0.14710357
0.14693711
0.14677931
0.14663172
0.14649596
0.14637366
0.14626657
0.14617649
0.14610524
0.1460547
0.14602678
0.14602341
0.14604582
0.14609687
0.14617656
0.14628897
0.14643619
0.14661924
0.14683983
0.14709962
0.14739188
0.14772977
0.14811534
0.14854567
0.14902184
0.14954476
0.15011521
0.15073378
0.15140062
0.14947222
0.14934493
0.14921337
0.1490773
0.14893653
0.14879094
0.14864058
0.14848556
0.14832612
0.14816264
0.14799682
0.14782681
0.14765401
0.14747893
0.14730658
0.14713188
0.14695782
0.14678747
0.14662036
0.14645774
0.14630183
0.14615362
0.14601473
0.14588694
0.14577181
0.14567115
0.14558681
0.14552066
0.14547462
0.14545063
0.14545065
0.14547605
0.14552894
0.14561102
0.14572583
0.14587451
0.14605879
0.14628044
0.14654114
0.14683412
0.1471722
0.14755846
0.14798952
0.14846648
0.14899034
0.1495619
0.15018181
0.15085027
0.14845993
0.14836682
0.1482677
0.14816238
0.14805073
0.14793272
0.14780844
0.1476781
0.147542
0.14740063
0.1472548
0.14710427
0.14694992
0.14679272
0.14663478
0.146475
0.14631444
0.14615816
0.14600308
0.14585085
0.14570535
0.14556637
0.14543581
0.14531576
0.14520754
0.14511307
0.14503427
0.14497304
0.14493133
0.14491112
0.14491433
0.14494248
0.14499748
0.14508225
0.14519886
0.14534897
0.14553444
0.1457571
0.14601867
0.14631233
0.14665055
0.14703745
0.14746915
0.14794683
0.14847151
0.14904406
0.14966518
0.15033509
0.14749896
0.14743906
0.14737145
0.14729597
0.14721255
0.14712124
0.1470222
0.14691569
0.14680209
0.1466819
0.14655573
0.14642391
0.14628724
0.14614671
0.14600359
0.14585822
0.1457118
0.14556675
0.14542285
0.14528106
0.14514639
0.14501617
0.14489337
0.14478097
0.14467934
0.14459079
0.14451731
0.14446082
0.14442328
0.1444067
0.14441294
0.14444357
0.14450121
0.14458822
0.14470649
0.14485796
0.14504457
0.1452682
0.14553062
0.14582494
0.14616324
0.14655072
0.146983
0.14746131
0.14798672
0.14856016
0.14918236
0.14985358
0.14658886
0.14656108
0.14652397
0.14647731
0.14642113
0.14635558
0.14628085
0.14619729
0.14610531
0.14600545
0.1458983
0.14578444
0.14566468
0.14553997
0.1454114
0.1452798
0.14514638
0.14501279
0.14487981
0.14474883
0.14462245
0.14450082
0.14438566
0.1442812
0.14418571
0.14410278
0.14403441
0.14398245
0.14394891
0.1439358
0.14394487
0.14397814
0.14403829
0.14412725
0.14424711
0.1443999
0.14458761
0.14481216
0.14507539
0.14537037
0.14570871
0.14609672
0.14652953
0.14700839
0.14753444
0.14810865
0.14873182
0.14940424
0.14565324
0.14568908
0.1457145
0.14572883
0.1457321
0.14572442
0.14570549
0.14567551
0.1456347
0.14558331
0.14552175
0.14545049
0.1453701
0.14528122
0.14518454
0.1450809
0.14497128
0.14485672
0.14473825
0.1446171
0.14449468
0.14437216
0.14425104
0.14413319
0.14401974
0.14391249
0.14381397
0.14372483
0.14364749
0.14358402
0.1435364
0.14350668
0.1434969
0.14350873
0.14354458
0.14360698
0.1436978
0.14381919
0.14397323
0.14416197
0.14438741
0.14465143
0.14494706
0.14528542
0.14567392
0.14610717
0.14658652
0.14711312
0.14768801
0.14831205
0.14898554
0.14474228
0.14481348
0.14487218
0.14491816
0.14495134
0.14497177
0.14497942
0.14497457
0.14495747
0.14492839
0.14488785
0.14483637
0.14477457
0.14470314
0.14462285
0.14453457
0.14443931
0.14433813
0.14423215
0.14412262
0.14401091
0.14389835
0.14378646
0.14367693
0.14357125
0.14347118
0.14337878
0.1432955
0.14322344
0.14316464
0.14312116
0.14309507
0.14308846
0.14310295
0.14314128
0.14320577
0.14329834
0.14342117
0.1435764
0.14376612
0.14399238
0.14425716
0.14455349
0.14489187
0.14528077
0.14571443
0.14619419
0.14672126
0.14729675
0.14792156
0.14859602
0.14388375
0.14398889
0.14407959
0.14415584
0.14421761
0.14426498
0.14429805
0.14431714
0.14432254
0.1443148
0.14429429
0.14426165
0.14421753
0.1441627
0.14409797
0.14402429
0.14394266
0.14385419
0.14376006
0.14366154
0.14356002
0.1434569
0.14335373
0.14325216
0.1431538
0.14306046
0.14297403
0.14289626
0.14282916
0.14277479
0.14273523
0.1427126
0.142709
0.14272603
0.14276671
0.14283316
0.14292738
0.14305158
0.14320792
0.14339854
0.14362555
0.14389105
0.1441882
0.14452659
0.14491581
0.14534981
0.14582992
0.14635738
0.14693337
0.14755888
0.14823421
0.14307679
0.14321433
0.1433356
0.14344074
0.14352977
0.1436028
0.14366006
0.14370192
0.14372878
0.14374118
0.14373962
0.14372494
0.14369759
0.14365849
0.14360851
0.14354863
0.1434799
0.14340347
0.14332054
0.14323244
0.14314055
0.14304636
0.14295142
0.14285739
0.14276596
0.14267893
0.14259819
0.14252561
0.14246319
0.14241301
0.14237716
0.14235779
0.14235703
0.14237649
0.1424194
0.14248769
0.14258346
0.14270894
0.14286632
0.14305776
0.14328542
0.14355155
0.14384978
0.14418815
0.14457757
0.14501188
0.14549227
0.14602004
0.14659642
0.14722259
0.14789871
0.14232043
0.14248863
0.14263897
0.14277159
0.14288652
0.14298391
0.1430641
0.14312754
0.14317472
0.14320622
0.14322264
0.1432247
0.14321332
0.14318908
0.14315303
0.14310618
0.14304962
0.14298453
0.14291217
0.14283387
0.14275108
0.14266529
0.1425781
0.14249118
0.14240627
0.14232519
0.14224983
0.14218214
0.14212412
0.14207788
0.14204553
0.14202923
0.14203111
0.14205292
0.14209792
0.14216793
0.14226515
0.14239183
0.14255018
0.14274236
0.14297055
0.14323703
0.143537
0.14387517
0.14426466
0.14469921
0.14517986
0.14570784
0.14628448
0.14691126
0.14758808
0.14161501
0.14181156
0.14198833
0.14214703
0.14228651
0.14240693
0.14250878
0.14259258
0.14265892
0.14270844
0.1427418
0.14275977
0.14276318
0.14275303
0.1427301
0.14269551
0.14265038
0.14259596
0.14253352
0.14246445
0.14239019
0.1423123
0.14223238
0.14215214
0.14207335
0.14199785
0.14192756
0.14186444
0.14181056
0.14176801
0.14173894
0.14172555
0.14172988
0.14175394
0.14180087
0.1418725
0.14197109
0.14209889
0.14225813
0.142451
0.14267958
0.14294565
0.14324892
0.14358627
0.14397572
0.14441047
0.14489134
0.14541946
0.14095493
0.14118167
0.14138404
0.1415656
0.1417283
0.14187041
0.14199261
0.14209557
0.14217993
0.14224638
0.14229565
0.14232855
0.14234597
0.14234882
0.14233826
0.14231518
0.14228078
0.14223634
0.1421832
0.14212276
0.1420565
0.14198599
0.14191288
0.14183889
0.14176583
0.14169555
0.14163
0.14157118
0.14152116
0.14148206
0.14145607
0.14144538
0.14145202
0.14147821
0.14152693
0.14160008
0.14169994
0.14182879
0.14198887
0.14218238
0.14241139
0.14267771
0.14298258
0.14331993
0.14370936
0.14414432
0.14462543
0.14034126
0.14059413
0.14082356
0.14102758
0.14121044
0.14137284
0.14151412
0.14163502
0.14173625
0.14181856
0.14188272
0.1419296
0.14196011
0.14197523
0.14197602
0.14196378
0.1419394
0.1419043
0.14185983
0.14180744
0.14174864
0.14168503
0.14161827
0.14155011
0.14148238
0.14141698
0.14135585
0.14130103
0.14125461
0.14121874
0.14119561
0.14118746
0.14119623
0.14122442
0.14127481
0.14134937
0.14145042
0.14158025
0.14174113
0.14193525
0.14216472
0.14243146
0.14273724
0.14307481
0.1434643
0.1438995
0.14438092
0.13977244
0.14004987
0.14030241
0.14053059
0.14073265
0.14091267
0.14107175
0.1412094
0.14132639
0.14142349
0.14150154
0.14156145
0.14160416
0.14163071
0.14164219
0.14163982
0.14162487
0.14159846
0.14156206
0.14151716
0.1414653
0.14140809
0.14134723
0.1412845
0.14122173
0.14116085
0.14110384
0.14105274
0.14100967
0.1409768
0.14095633
0.14095053
0.14096129
0.14099134
0.14104327
0.14111915
0.1412213
0.14135204
0.14151366
0.14170837
0.14193831
0.1422055
0.14251188
0.14284972
0.14323931
0.14367476
0.14415645
0.13924684
0.13954723
0.13982139
0.14006997
0.14029361
0.14048888
0.14066396
0.1408172
0.14094883
0.14105969
0.14115066
0.14122266
0.14127672
0.14131388
0.14133527
0.14134212
0.14133577
0.14131749
0.14128857
0.14125061
0.14120518
0.1411539
0.14109852
0.14104081
0.14098264
0.14092595
0.14087274
0.14082509
0.14078512
0.14075502
0.14073702
0.14073339
0.140746
0.14077778
0.14083114
0.14090823
0.14101141
0.141143
0.14130531
0.14150057
0.14173097
0.14199857
0.1423054
0.14264351
0.1430332
0.14346891
0.14395084
0.13876279
0.13908455
0.13937879
0.13964634
0.13988857
0.14010081
0.14028926
0.14045687
0.14060209
0.1407257
0.14082862
0.14091182
0.14097636
0.14102333
0.1410539
0.1410693
0.14107085
0.14106007
0.14103809
0.14100654
0.14096703
0.14092124
0.1408709
0.14081782
0.14076389
0.14071107
0.14066138
0.1406169
0.14057979
0.14055225
0.14053653
0.1405349
0.14054922
0.14058259
0.14063727
0.14071549
0.14081961
0.14095199
0.14111494
0.14131072
0.14154154
0.14180952
0.14211672
0.14245507
0.14284487
0.1432808
0.14376295
0.13831858
0.13866013
0.13897293
0.13925787
0.13951598
0.13974654
0.13994671
0.14012688
0.14028468
0.14042005
0.14053399
0.14062752
0.14070172
0.14075774
0.14079675
0.14082003
0.14082891
0.14082488
0.14080936
0.1407837
0.14074965
0.14070889
0.14066319
0.14061437
0.14056435
0.14051508
0.14046862
0.14042706
0.14039258
0.14036739
0.14035376
0.14035396
0.14036987
0.1404047
0.14046059
0.14053984
0.14064483
0.14077793
0.14094147
0.14113773
0.14136895
0.14163727
0.14194478
0.14228335
0.14267324
0.14310936
0.14359171
0.13791252
0.13827228
0.13860213
0.13890305
0.13917608
0.13942211
0.13963516
0.13982578
0.13999513
0.14014131
0.14026538
0.14036839
0.14045146
0.14051576
0.14056252
0.14059303
0.14060864
0.1406108
0.14060114
0.14058092
0.14055187
0.14051572
0.14047427
0.14042935
0.14038289
0.14033688
0.14029337
0.14025449
0.14022241
0.14019938
0.14018766
0.14018951
0.14020691
0.14024307
0.14030007
0.14038026
0.14048604
0.1406198
0.14078388
0.14098059
0.14121217
0.1414808
0.14178857
0.14212733
0.1425173
0.14295359
0.1434361
0.13516541
0.13570996
0.13621891
0.13669334
0.13713441
0.13754286
0.13791928
0.13826474
0.13858026
0.13886697
0.1391263
0.13935278
0.13955239
0.13973203
0.13988809
0.14002141
0.14013309
0.14022426
0.14029614
0.14034997
0.14038707
0.14040883
0.14041668
0.14041226
0.14039706
0.14037256
0.14034062
0.14030303
0.14026167
0.14021846
0.14017541
0.1401346
0.14009816
0.14006827
0.14004719
0.14003722
0.14004056
0.14005934
0.1400967
0.1401547
0.14023575
0.14034226
0.14047662
0.14064119
0.14083831
0.14107022
0.14133912
0.14164712
0.14198605
0.14237609
0.14281252
0.14329518
0.13473646
0.13530266
0.1358317
0.13632484
0.13678324
0.13720783
0.13759942
0.13795908
0.13828789
0.13858697
0.13885735
0.13909778
0.13930597
0.13949391
0.139659
0.13980075
0.13992031
0.14001886
0.14009761
0.14015787
0.14020096
0.1402283
0.14024134
0.14024165
0.14023099
0.14021064
0.14018251
0.14014844
0.1401103
0.14007004
0.14002968
0.13999131
0.13995707
0.13992917
0.13990988
0.13990148
0.13990617
0.13992621
0.13996464
0.14002356
0.14010539
0.14021255
0.14034746
0.14051248
0.14070996
0.14094217
0.14121132
0.14151952
0.14185859
0.14224868
0.14268524
0.14316802
0.13434892
0.1349348
0.13548211
0.13599224
0.13646641
0.13690567
0.137311
0.13768352
0.13802436
0.13833465
0.13861542
0.13886723
0.13908469
0.1392795
0.13945272
0.13960209
0.13972879
0.139834
0.13991898
0.13998504
0.14003355
0.14006592
0.14008365
0.14008829
0.14008162
0.14006508
0.14004039
0.14000948
0.13997425
0.13993665
0.13989872
0.13986255
0.13983031
0.1398042
0.1397865
0.13977953
0.13978543
0.13980661
0.13984601
0.13990575
0.13998828
0.14009604
0.14023143
0.14039686
0.14059467
0.14082714
0.14109651
0.14140489
0.14174408
0.14213421
0.14257088
0.14305377
0.13400079
0.13460445
0.13516827
0.13569374
0.13618213
0.13663463
0.13705235
0.13743645
0.13778811
0.13810851
0.13839872
0.13865996
0.13888712
0.13908755
0.13926796
0.13942418
0.1395573
0.13966851
0.13975909
0.13983037
0.13988373
0.13992063
0.13994257