/*--------------------------------*- C++ -*----------------------------------*\
| =========                 |                                                 |
| \\      /  F ield         | OpenFOAM: The Open Source CFD Toolbox           |
|  \\    /   O peration     | Version:  2312                                  |
|   \\  /    A nd           | Website:  www.openfoam.com                      |
|    \\/     M anipulation  |                                                 |
\*---------------------------------------------------------------------------*/
FoamFile
{
    version     2.0;
    format      ascii;
    arch        "LSB;label=32;scalar=64";
    class       volScalarField;
    location    "0.05";
    object      omega;
}
// * * * * * * * * * * * * * * * * * * * * * * * * * * * * * * * * * * * * * //

dimensions      [0 0 -1 0 0 0 0];

internalField   nonuniform List<scalar> 
3272
(
353.60858
353.43723
353.2246
352.96947
352.67059
352.32687
351.93743
351.50155
351.01865
350.48835
349.91037
349.28456
348.61088
347.88939
347.12026
346.3036
345.43963
344.52863
343.57107
342.56737
341.51798
340.42341
339.28419
338.10084
336.8739
335.60395
334.29159
332.93742
331.54208
330.10621
328.63049
327.11561
325.56228
323.97123
322.34323
320.67905
318.97951
317.24548
315.47785
313.67755
311.84556
309.98289
308.09062
306.16986
304.22178
302.24761
300.24862
298.22613
296.18151
294.11621
292.03167
289.92939
287.81085
354.85508
354.67353
354.44959
354.1821
353.86988
353.51192
353.10742
352.65573
352.15639
351.60906
351.01354
350.36976
349.67776
348.93765
348.14964
347.31392
346.43074
345.50043
344.52351
343.50045
342.43176
341.31798
340.15965
338.95731
337.71153
336.42291
335.09207
333.71962
332.30622
330.85252
329.35921
327.82698
326.25656
324.64868
323.0041
321.32359
319.60798
317.85814
316.07494
314.25932
312.41224
310.53473
308.62785
306.6927
304.73046
302.74233
300.72959
298.69357
296.63565
294.55726
292.45991
290.34511
288.21415
357.18196
356.97872
356.7309
356.43752
356.09758
355.71025
355.27489
354.79102
354.25832
353.67661
353.04585
352.36608
351.63748
350.86029
350.03478
349.16131
348.2402
347.27187
346.25691
345.1959
344.08942
342.93808
341.74245
340.50313
339.22074
337.89591
336.5293
335.12156
333.67336
332.1854
330.65835
329.09294
327.4899
325.84997
324.1739
322.46248
320.71653
318.93691
317.12449
315.2802
313.40499
311.49988
309.5659
307.60417
305.61584
303.6021
301.56422
299.50351
297.42134
295.31915
293.19841
291.06061
288.90702
360.46285
360.22534
359.94031
359.60704
359.2248
358.793
358.31125
357.7793
357.19705
356.56453
355.8819
355.14942
354.36743
353.53629
352.65625
351.72822
350.75248
349.72959
348.66018
347.54495
346.38454
345.17967
343.93102
342.63924
341.30501
339.92902
338.51196
337.05453
335.55743
334.02137
332.44707
330.83524
329.18664
327.502
325.78209
324.02768
322.23959
320.41866
318.56577
316.68182
314.76775
312.82454
310.85324
308.85491
306.83068
304.78175
302.70935
300.61477
298.49936
296.36453
294.21174
292.04245
289.85788
364.57888
364.29326
363.95665
363.56872
363.12904
362.63736
362.09358
361.49774
360.85002
360.15071
359.40022
358.59908
357.74793
356.84727
355.89621
354.89828
353.85268
352.76009
351.62129
350.4371
349.20831
347.93573
346.62011
345.26221
343.86278
342.42256
340.94228
339.42268
337.8645
336.26848
334.63533
332.96581
331.26066
329.52062
327.74644
325.9389
324.09881
322.22698
320.32427
318.39156
316.42977
314.43985
312.42282
310.37971
308.31163
306.21973
304.10521
301.96934
299.81344
297.63889
295.44712
293.23955
291.01737
369.42339
369.0747
368.67133
368.21333
367.7007
367.13353
366.51209
365.83676
365.10803
364.32649
363.49281
362.60775
361.67211
360.6867
359.65204
358.56945
357.43961
356.26341
355.0417
353.77536
352.46531
351.11243
349.71759
348.28161
346.80532
345.28952
343.73498
342.14249
340.51281
338.84669
337.14487
335.40812
333.63716
331.83274
329.99561
328.12651
326.22624
324.2956
322.33539
320.34649
318.32976
316.28614
314.21658
312.1221
310.00375
307.86265
305.69996
303.51691
301.31477
299.09489
296.85867
294.6075
292.3425
374.89942
374.4719
373.98598
373.44217
372.84089
372.18268
371.46817
370.69812
369.87337
368.99483
368.06346
367.08029
366.04636
364.96273
363.83034
362.65029
361.42369
360.15155
358.83488
357.47466
356.07196
354.62775
353.14297
351.61853
350.05532
348.45418
346.81594
345.14142
343.4314
341.68664
339.90791
338.09594
336.25148
334.37526
332.46799
330.53041
328.56328
326.56737
324.54346
322.49235
320.41489
318.31196
316.18448
314.03339
311.85972
309.66452
307.44891
305.21406
302.96122
300.69167
298.40678
296.10789
293.7961
380.91775
380.39517
379.81065
379.16519
378.45971
377.69516
376.87262
375.99321
375.05814
374.06865
373.02602
371.93154
370.78655
369.59225
368.34989
367.06069
365.72599
364.34692
362.92463
361.46029
359.95501
358.40989
356.82593
355.20411
353.54538
351.85062
350.12071
348.35647
346.55871
344.72821
342.86571
340.97196
339.04768
337.09358
335.11034
333.09869
331.05933
328.99299
326.9004
324.78234
322.63958
320.47296
318.28332
316.07157
313.83867
311.58561
309.31345
307.0233
304.71635
302.39385
300.05709
297.70743
295.3459
387.39545
386.76146
386.06238
385.29972
384.47488
383.58928
382.64442
381.64183
380.58305
379.46967
378.30328
377.08545
375.81773
374.50154
373.13835
371.72965
370.27683
368.78122
367.24407
365.66671
364.05034
362.39611
360.70512
358.97839
357.21692
355.42162
353.5934
351.7331
349.84152
347.91945
345.96762
343.98677
341.97758
339.94073
337.87688
335.78671
333.67089
331.53008
329.36497
327.17627
324.9647
322.73103
320.47604
318.20058
315.90552
313.5918
311.26041
308.91238
306.54885
304.17097
301.78
299.37722
296.96354
394.25489
393.49346
392.66429
391.76946
390.81083
389.7903
388.70978
387.57118
386.3764
385.12733
383.82586
382.47388
381.07306
379.62509
378.13161
376.59434
375.01474
373.39429
371.73443
370.03654
368.3019
366.53172
364.72716
362.88929
361.01914
359.11764
357.18572
355.22422
353.23395
351.21566
349.17009
347.09792
344.99983
342.87645
340.7284
338.5563
336.36078
334.14244
331.90191
329.63983
327.35685
325.05367
322.73101
320.38963
318.03033
315.65398
313.26149
310.85381
308.43199
305.99707
303.55013
401.42316
400.51889
399.54492
398.50383
397.39798
396.22971
395.00134
393.71513
392.37332
390.97806
389.53148
388.03582
386.49291
384.90459
383.27278
381.59922
379.88556
378.13337
376.34425
374.51961
372.66081
370.76911
368.8457
366.89168
364.9081
362.89593
360.85607
358.78936
356.69659
354.57851
352.4358
350.26914
348.07914
345.86639
343.63147
341.37494
339.09737
336.79929
334.48127
332.14387
329.78768
327.4133
325.02139
322.61262
320.18772
317.74747
315.29269
312.82428
310.34317
307.85031
305.34638
408.83164
407.77016
406.63776
405.43752
404.17226
402.84473
401.45764
400.01362
398.51517
396.96461
395.36414
393.71668
392.0241
390.28836
388.51149
386.6953
384.8416
382.95212
381.02847
379.07214
377.08453
375.06693
373.02057
370.94655
368.84594
366.71969
364.56869
362.39379
360.19573
357.97524
355.73296
353.46951
351.18547
348.88138
346.55775
344.21509
341.85388
339.47461
337.07775
334.6638
332.23326
329.78666
327.32456
324.84755
322.35629
319.85146
317.3338
314.80411
312.26326
309.71209
307.15117
416.41595
415.18417
413.88108
412.51019
411.07476
409.57791
408.0227
406.4121
404.74892
403.03552
401.27376
399.46779
397.61941
395.73055
393.80322
391.83941
389.84106
387.80997
385.74778
383.65603
381.53613
379.38942
377.2171
375.0203
372.80006
370.55734
368.29301
366.00787
363.70264
361.37799
359.03454
356.67285
354.29343
351.89677
349.48332
347.05351
344.60777
342.1465
339.6701
337.17897
334.67354
332.15426
329.62158
327.07604
324.51816
321.94857
319.36791
316.77688
314.17627
311.56685
308.9491
424.1159
422.70231
421.21782
419.66638
418.05158
416.37692
414.64571
412.86116
411.0263
409.14385
407.21614
405.24645
403.23728
401.19072
399.10884
396.99371
394.84735
392.67155
390.46799
388.23823
385.98368
383.70568
381.40545
379.08408
376.74261
374.38195
372.00295
369.60638
367.19291
364.76317
362.31771
359.85704
357.38161
354.89184
352.3881
349.87078
347.3402
344.7967
342.24059
339.67219
337.09184
334.4999
331.89674
329.28279
326.6585
324.02438
321.381
318.72897
316.06898
313.40171
310.72755
431.87569
430.27047
428.59559
426.85535
425.05371
423.19439
421.28097
419.31685
417.30524
415.249
413.15088
411.01384
408.84053
406.63318
404.39401
402.12516
399.8286
397.50616
395.15951
392.7902
390.39968
387.98923
385.56006
383.11326
380.64981
378.17059
375.67642
373.168
370.64598
368.1109
365.56329
363.00356
360.43211
357.84928
355.25538
352.65071
350.03551
347.41005
344.77455
342.12925
339.47439
336.81024
334.13708
331.45524
328.7651
326.06705
323.36158
320.6492
317.93051
315.20611
312.47628
439.64396
437.83911
435.96664
434.03115
432.03686
429.98772
427.88751
425.73977
423.54774
421.3145
419.04304
416.73627
414.39673
412.02684
409.6289
407.20505
404.75723
402.28727
399.79684
397.28747
394.76058
392.21743
389.65919
387.08692
384.50154
381.90392
379.29479
376.67482
374.04459
371.40459
368.75527
366.09699
363.43007
360.75476
358.07132
355.37994
352.68082
349.9741
347.25995
344.5385
341.80992
339.07437
336.33205
333.58319
330.82805
328.06698
325.30032
322.52853
319.75209
316.97152
314.187
447.37401
445.3634
443.28796
441.15251
438.96147
436.71898
434.42895
432.09494
429.72031
427.30833
424.8621
422.38437
419.87775
417.34476
414.78768
412.20862
409.60952
406.99217
404.35822
401.70916
399.04638
396.3711
393.68445
390.98743
388.28092
385.56571
382.84251
380.1119
377.3744
374.63045
371.88042
369.12461
366.36325
363.59652
360.82459
358.04759
355.26562
352.47874
349.68703
346.89055
344.08936
341.28353
338.47316
335.65841
332.83943
330.01646
327.18978
324.35973
321.52671
318.69115
315.85314
455.02388
452.80324
450.52121
448.18279
445.79254
443.35473
440.87327
438.35179
435.79382
433.20272
430.58144
427.93278
425.25942
422.56383
419.84826
417.11478
414.3653
411.60158
408.82522
406.03768
403.24027
400.43417
397.62046
394.80008
391.97385
389.14251
386.30669
383.4669
380.62362
377.77719
374.92793
372.07605
369.22171
366.36501
363.50605
360.64487
357.78147
354.91585
352.048
349.17788
346.30547
343.43074
340.55371
337.67442
334.79296
331.90945
329.02409
326.13712
323.24886
320.35966
317.46951
462.55635
460.12319
457.63267
455.08989
452.49953
449.86582
447.19271
444.484
441.74328
438.97372
436.17831
433.35991
430.52115
427.66442
424.79192
421.9057
419.00761
416.09935
413.18246
410.25834
407.32824
404.3933
401.45452
398.51276
395.5688
392.6233
389.67681
386.72981
383.78267
380.83567
377.88906
374.94297
371.99748
369.05263
366.10841
363.1648
360.2217
357.27905
354.33673
351.39462
348.45262
345.5106
342.56848
339.62623
336.68382
333.7413
330.79876
327.85637
324.91434
321.97292
469.93894
467.29245
464.59311
461.84613
459.05607
456.22723
453.36367
450.46923
447.54731
444.60109
441.63359
438.64761
435.64567
432.63012
429.60311
426.56661
423.52239
420.47211
417.41723
414.35909
411.29886
408.23761
405.17627
402.11564
399.05642
395.9992
392.94446
389.8926
386.84392
383.79864
380.75691
377.71881
374.68433
371.65342
368.62602
365.60199
362.58118
359.56343
356.54854
353.53631
350.52653
347.51901
344.51358
341.51008
338.50843
335.50856
332.51049
329.51427
326.51998
323.52744
477.14377
474.28467
471.37768
468.42788
465.43987
462.41802
459.36641
456.28866
453.18816
450.06811
446.93145
443.78085
440.61877
437.4475
434.26909
431.08543
427.89824
424.70907
421.51932
418.33024
415.14295
411.95842
408.7775
405.60093
402.42933
399.26322
396.103
392.949
389.80145
386.66048
383.52618
380.39854
377.27748
374.16288
371.05459
367.95239
364.85606
361.76535
358.67998
355.59967
352.52411
349.45303
346.38617
343.32329
340.26422
337.2088
334.15694
331.10862
328.0638
325.02214
484.14739
481.07781
477.96551
474.81557
471.63263
468.42099
465.18455
461.9269
458.65142
455.36119
452.05902
448.74751
445.42904
442.10577
438.77969
435.45259
432.1261
428.80169
425.48068
422.16422
418.85335
415.54897
412.25185
408.96264
405.6819
402.41006
399.14745
395.89432
392.65082
389.41703
386.19294
382.97847
379.77347
376.57775
373.39106
370.21312
367.04364
363.88227
360.72867
357.58244
354.44322
351.31065
348.18438
345.06409
341.94951
338.84041
335.73661
332.63801
329.54449
326.45561
490.93055
487.65373
484.33966
480.99347
477.61958
474.22216
470.80505
467.37182
463.92567
460.46957
457.00623
453.53814
450.06757
446.59659
443.12707
439.66073
436.19908
432.7435
429.29522
425.85531
422.42472
419.00426
415.59462
412.19638
408.81
405.43585
402.07418
398.72517
395.38889
392.06534
388.75445
385.45606
382.16994
378.89582
375.6334
372.3823
369.14215
365.91255
362.69309
359.48324
356.28258
353.09068
349.9071
346.73145
343.56337
340.40253
337.2487
334.10166
330.96127
497.4778
493.99814
490.48699
486.94918
483.38908
479.81078
476.21798
472.61407
469.00217
465.3851
461.76547
458.14564
454.52776
450.91379
447.3055
443.70448
440.11217
436.52984
432.95862
429.39948
425.8533
422.32079
418.80257
415.29913
411.81086
408.33804
404.88085
401.43938
398.01366
394.60359
391.20903
387.82977
384.46548
381.11584
377.78045
374.45887
371.15066
367.85535
364.57252
361.30141
358.04162
354.79263
351.55392
348.32501
345.10547
341.89489
338.69295
335.49932
332.31343
503.77741
500.1003
496.39737
492.6734
488.93264
485.17898
481.41598
477.64688
473.87465
470.102
466.33139
462.56505
458.80502
455.05314
451.31105
447.58026
443.86207
440.15766
436.46806
432.79417
429.13674
425.49643
421.87375
418.26913
414.68286
411.11516
407.56613
404.03579
400.52408
397.03085
393.55589
390.09891
386.65951
383.2373
379.83182
376.44255
373.069
369.71059
366.36678
363.03689
359.72035
356.41656
353.12493
349.84493
346.57602
343.31773
340.06966
336.83138
333.60216
509.82091
505.95234
502.06376
498.15975
494.24438
490.32138
486.39414
482.46575
478.53903
474.61655
470.70061
466.79332
462.8966
459.01214
455.14149
451.28602
447.44694
443.62532
439.8221
436.03808
432.27392
428.53019
424.80733
421.10566
417.42542
413.76674
410.12966
406.51412
402.91999
399.34705
395.79502
392.26354
388.75216
385.26042
381.78776
378.33363
374.89747
371.47862
368.07642
364.6902
361.3193
357.96303
354.62075
351.29182
347.97565
344.67171
341.3795
338.09857
334.82811
515.60271
511.54936
507.48175
503.40425
499.32077
495.23484
491.1497
487.06826
482.99318
478.92687
474.87151
470.82906
466.80129
462.78979
458.79597
454.82109
450.86626
446.93245
443.02048
439.13107
435.26479
431.42212
427.60342
423.80894
420.03883
416.29316
412.57187
408.87487
405.20193
401.55277
397.92706
394.32436
390.74416
387.18594
383.64908
380.13297
376.63696
373.16032
369.70234
366.26228
362.83943
359.43303
356.04234
352.66667
349.30536
345.95781
342.62346
339.30182
521.11988
516.88883
512.64919
508.40513
504.16035
499.91822
495.68176
491.45373
487.23664
483.03272
478.844
474.67231
470.51929
466.38639
462.27492
458.186
454.12065
450.07972
446.06395
442.07395
438.11022
434.17315
430.26301
426.37998
422.52414
418.69547
414.89388
411.11916
407.37106
403.64921
399.95322
396.28259
392.63676
389.01513
385.41705
381.84182
378.28874
374.757
371.24582
367.75444
364.28205
360.82784
357.39101
353.97078
350.56644
347.1773
343.80271
340.44185
526.37168
521.97034
517.56597
513.16253
508.7635
504.37206
499.99105
495.62307
491.27042
486.93521
482.6193
478.32439
474.05198
469.8034
465.57982
461.38228
457.21166
453.06873
448.95413
444.86837
440.81188
436.78495
432.78778
428.82047
424.88304
420.9754
417.09737
413.24871
409.42907
405.63806
401.87519
398.13992
394.43163
390.74966
387.09332
383.46185
379.85445
376.27028
372.70849
369.16826
365.64875
362.14905
358.66832
355.2057
351.76042
348.33171
344.91885
341.52087
531.35932
526.79532
522.23372
517.67822
513.13213
508.59841
504.07971
499.57845
495.09679
490.63665
486.19976
481.78767
477.40175
473.0432
468.71309
464.41232
460.14169
455.90187
451.69339
447.51669
443.37209
439.25983
435.18001
431.13268
427.11778
423.13514
419.18454
415.26566
411.37811
407.52142
403.69505
399.8984
396.1308
392.39155
388.67988
384.995
381.33603
377.70207
374.09222
370.50561
366.94135
363.39847
359.87605
356.37319
352.88904
349.42278
345.9736
342.54049
536.08564
531.36676
526.65552
521.9554
517.26948
512.60053
507.95103
503.32321
498.71906
494.14036
489.58867
485.06541
480.57183
476.10901
471.67788
467.27926
462.91384
458.58217
454.28472
450.02183
445.79375
441.60062
437.44251
433.31935
429.23104
425.17735
421.15799
417.17258
413.22067
409.30174
405.41521
401.5604
397.73661
393.94307
390.17899
386.44349
382.73564
379.05449
375.3991
371.76854
368.16187
364.57807
361.01615
357.47516
353.95418
350.45234
346.96878
343.50242
540.55491
535.68897
530.83571
525.99839
521.17988
516.38275
511.60931
506.86159
502.14144
497.45047
492.79011
488.16164
483.56618
479.00469
474.47801
469.98683
465.53174
461.11321
456.73162
452.38723
448.08021
443.81063
439.57846
435.38362
431.2259
427.10502
423.02064
418.97233
414.95956
410.98178
407.03835
403.12855
399.25162
395.40674
391.59308
387.80971
384.05563
380.32986
376.63139
372.95927
369.31248
365.68998
362.0907
358.51365
354.95785
351.42237
347.90629
344.40852
544.77254
539.76734
534.77965
529.8125
524.86857
519.95024
515.05962
510.19859
505.36883
500.57181
495.80881
491.08098
486.38932
481.73468
477.11779
472.53923
467.99952
463.49902
459.03802
454.61672
450.2352
445.89346
441.59143
437.32893
433.10571
428.92144
424.7757
420.66801
416.59782
412.5645
408.56737
404.60566
400.67857
396.78525
392.9248
389.09622
385.29851
381.53061
377.79148
374.08011
370.39547
366.73642
363.10189
359.49079
355.90213
352.33489
348.78813
345.2607
548.74489
543.60813
538.49351
533.40382
528.34153
523.30885
518.30772
513.33984
508.40674
503.50974
498.65001
493.82854
489.04624
484.30384
479.60196
474.9411
470.32166
465.74395
461.20816
456.71442
452.26273
447.85305
443.48521
439.159
434.87409
430.6301
426.42658
422.26297
418.13868
414.05304
410.00532
405.99472
402.02038
398.08143
394.17688
390.30572
386.46689
382.6593
378.88186
375.13351
371.41319
367.71972
364.05195
360.40879
356.78915
353.192
349.61633
346.06096
552.47906
547.21833
541.98413
536.77903
531.60531
526.46499
521.35984
516.29142
511.2611
506.27007
501.31934
496.40982
491.54227
486.71735
481.93556
477.19732
472.50295
467.85265
463.24655
458.68471
454.16707
449.69351
445.26382
440.87771
436.5348
432.23469
427.97683
423.76065
419.5855
415.45067
411.35538
407.29882
403.28006
399.29819
395.35218
391.44097
387.56347
383.71855
379.90507
376.12195
372.36806
368.64222
364.94321
361.26989
357.62113
353.99584
350.39298
346.81132
555.98273
550.60544
545.25885
539.9453
534.66689
529.42546
524.22262
519.0598
513.9382
508.85889
503.82275
498.83058
493.88304
488.98067
484.1239
479.31305
474.54835
469.82995
465.15789
460.53215
455.95263
451.41913
446.93141
442.48909
438.09178
433.73899
429.43015
425.16464
420.94176
416.76076
412.62084
408.52113
404.46069
400.43853
396.4536
392.50479
388.59099
384.71103
380.86372
377.04794
373.26256
369.50631
365.77798
362.07634
358.40025
354.74855
351.12016
347.51382
559.26401
553.77737
548.32538
542.91014
537.53359
532.19737
526.90298
521.65168
516.44457
511.28256
506.16641
501.09682
496.07433
491.09942
486.17242
481.29357
476.46301
471.68083
466.94699
462.26142
457.62394
453.03431
448.49224
443.99729
439.549
435.14688
430.7903
426.47857
422.21099
417.98675
413.80501
409.66489
405.56539
401.50548
397.48408
393.50005
389.55224
385.63943
381.76042
377.91405
374.09914
370.31441
366.55859
362.83044
359.12873
355.45229
351.79997
348.17049
579.30426
573.615
567.95636
562.33125
556.7423
551.19169
545.68131
540.21294
534.78805
529.40802
524.07398
518.78691
513.54757
508.35662
503.21463
498.12208
493.07935
488.08669
483.14427
478.25215
473.41034
468.61876
463.87725
459.1856
454.5435
449.95061
445.40646
440.91054
436.46229
432.06107
427.70613
423.39676
419.13208
414.91124
410.73333
406.5973
402.50209
398.44658
394.42961
390.44999
386.50647
382.5978
378.7228
374.88027
371.06891
367.28739
363.53444
359.80879
356.10921
352.4345
348.78335
582.47559
576.67917
570.91743
565.19314
559.50863
553.86592
548.26671
542.71261
537.20494
531.74497
526.33369
520.97199
515.66049
510.39974
505.19021
500.03227
494.92625
489.87233
484.87059
479.92103
475.02359
470.17812
465.38443
460.64223
455.95118
451.31087
446.72081
442.18043
437.68915
433.24627
428.85102
424.50262
420.2002
415.94288
411.72969
407.55957
403.43141
399.34406
395.29634
391.28701
387.31482
383.37847
379.47674
375.60842
371.77219
367.96668
364.19059
360.44261
356.72144
353.02582
349.35441
585.42936
579.53304
573.6752
567.85841
562.08483
556.35627
550.67429
545.04033
539.45555
533.92108
528.43785
523.00663
517.62792
512.30216
507.02973
501.8109
496.64594
491.53496
486.47797
481.47492
476.52567
471.63003
466.78773
461.99846
457.26181
452.57735
447.94452
443.36275
438.83138
434.34969
429.91689
425.53214
421.19456
416.90325
412.65721
408.45533
404.29646
400.17944
396.10306
392.06606
388.06715
384.105
380.17836
376.28601
372.4266
368.59874
364.8011
361.03235
357.29108
353.57595
349.88564
588.17518
582.1859
576.23865
570.33583
564.47939
558.67099
552.91203
547.20379
541.54733
535.94361
530.39349
524.89763
519.45644
514.07026
508.73937
503.46393
498.24418
493.08017
487.97183
482.91906
477.92165
472.97937
468.0919
463.25886
458.47984
453.75433
449.08175
444.46149
439.89286
435.3751
430.90738
426.48884
422.11857
417.79567
413.51907
409.28764
405.10023
400.95562
396.85259
392.78985
388.76608
384.77994
380.83013
376.91542
373.03445
369.18581
365.36815
361.58011
357.8202
354.08689
350.37894
590.72257
584.64701
578.61678
572.63408
566.70074
560.81823
554.98784
549.21068
543.4877
537.81974
532.20755
526.65173
521.15256
515.71031
510.32522
504.99726
499.72669
494.51348
489.35751
484.25861
479.21653
474.23098
469.3016
464.42798
459.60964
454.84605
450.1366
445.48063
440.87743
436.32619
431.82607
427.37617
422.97558
418.62336
414.31841
410.05957
405.84565
401.67544
397.54767
393.46104
389.4142
385.40578
381.43447
377.499
373.59801
369.73007
365.89385
362.08798
358.3108
354.5605
350.83615
593.08101
586.92556
580.81845
574.76178
568.75721
562.80607
556.90952
551.06855
545.28399
539.55655
533.8869
528.27555
522.72268
517.22851
511.79328
506.4167
501.09909
495.84034
490.64028
485.49867
480.41524
475.38963
470.42145
465.51025
460.65551
455.85667
451.11308
446.42405
441.78883
437.2066
432.67649
428.19755
423.76888
419.38951
415.0583
410.77407
406.5356
402.34167
398.19099
394.08223
390.01402
385.98497
381.99373
378.03902
374.11948
370.23366
366.38023
362.55794
595.25979
589.03055
582.85243
576.72738
570.65698
564.64242
558.68474
552.78482
546.94336
541.16099
535.43826
529.7756
524.17311
518.63095
513.14946
507.72795
502.36688
497.06607
491.82527
486.64421
481.52257
476.45996
471.45595
466.51003
461.62166
456.79025
452.01512
447.29555
442.63076
438.01989
433.46205
428.95629
424.50167
420.09722
415.74174
411.43404
407.1729
402.95705
398.78519
394.65596
390.568
386.51988
382.51022
378.53773
374.60102
370.69863
366.82924
597.26803
590.97078
584.72724
578.53918
572.40806
566.33503
560.32099
554.36672
548.47283
542.63983
536.86818
531.15822
525.51
519.92358
514.39946
508.93654
503.53544
498.19587
492.91752
487.7001
482.54325
477.44653
472.40948
467.43156
462.5122
457.65077
452.84656
448.09884
443.40678
438.76951
434.18612
429.65562
425.17709
420.74951
416.37166
412.04232
407.76026
403.5242
399.33281
395.18472
391.07853
387.01282
382.98617
378.99727
375.04471
371.127
367.24267
599.11465
592.75487
586.4512
580.20523
574.01829
567.89145
561.82557
555.82132
549.87921
543.99967
538.18304
532.4296
526.73936
521.11232
515.54875
510.04785
504.60999
499.23479
493.92192
488.67105
483.48181
478.35374
473.28631
468.27896
463.3311
458.44207
453.61113
448.83751
444.12038
439.45883
434.85193
430.29869
425.79816
421.34931
416.95088
412.60164
408.30035
404.04569
399.83633
395.67088
391.54793
387.46603
383.42376
379.41975
375.4526
371.52077
367.6227
600.80832
594.3912
588.03239
581.73334
575.49521
569.31901
563.20555
557.15547
551.16914
545.24691
539.38904
533.59572
527.86694
522.20265
516.6029
511.06714
505.59559
500.18772
494.84318
489.56164
484.34271
479.18586
474.09057
469.05624
464.08224
459.16788
454.31242
449.51505
444.77492
440.09111
435.46264
430.88853
426.36784
421.89947
417.48216
413.11466
408.79572
404.524
400.29815
396.11677
391.97844
387.88169
383.82506
379.8072
375.82664
371.88185
367.9712
602.35745
595.88788
589.47864
583.13107
576.84615
570.6248
564.46781
558.37579
552.34902
546.38774
540.49215
534.66237
528.89835
523.19997
517.56716
511.99951
506.49713
501.05939
495.68589
490.3763
485.1302
479.94705
474.82627
469.76725
464.76934
459.83182
454.95393
450.13483
445.37367
440.66948
436.02129
431.42809
426.88894
422.40272
417.96814
413.58394
409.24884
404.96151
400.72058
396.52463
392.37222
388.26187
384.19212
380.16156
376.16874
372.21209
368.28995
603.77015
597.25276
590.79755
584.40572
578.07817
571.81565
565.61896
559.48867
553.42503
547.42815
541.49817
535.63514
529.83897
524.10952
518.44659
512.84986
507.31932
501.85436
496.45445
491.11928
485.84841
480.64127
475.49725
470.41572
465.396
460.43736
455.53901
450.70011
445.91975
441.19699
436.5308
431.92019
427.36422
422.86171
418.41137
414.01194
409.66211
405.36054
401.10585
396.8966
392.73134
388.60859
384.52686
380.48472
376.48071
372.51324
368.58063
605.05423
598.49339
591.99639
585.56435
579.19807
572.89815
566.66537
560.50029
554.40313
548.37389
542.41265
536.5194
530.69403
524.93632
519.24604
513.62288
508.06673
502.577
497.15312
491.7947
486.50132
481.27237
476.10722
471.00523
465.96568
460.98785
456.0709
451.21399
446.41619
441.67653
436.99399
432.36756
427.7963
423.27899
418.81432
414.40103
410.03781
405.72329
401.45608
397.23475
393.05781
388.92378
384.83115
380.77849
376.7643
372.78699
368.84487
640.14429
633.24183
626.39563
619.60813
612.88142
606.21718
599.61702
593.08219
586.61373
580.21238
573.87862
567.61316
561.41657
555.28903
549.23048
543.24093
537.32032
531.4685
525.68521
519.97018
514.32308
508.74372
503.23156
497.78596
492.40649
487.09273
481.84403
476.65975
471.53921
466.48172
461.48649
456.5527
451.67948
446.86589
442.11093
437.41357
432.77281
428.1877
423.65697
419.17933
414.75349
410.37813
406.05189
401.77335
397.54106
393.35355
389.20929
385.10679
381.04459
377.02118
373.03496
369.08423
641.39392
634.44793
627.56
620.73248
613.96734
607.26623
600.63061
594.06168
587.56037
581.12737
574.76312
568.46818
562.24319
556.08821
550.00323
543.98814
538.04286
532.16718
526.36082
520.62347
514.95478
509.35449
503.82207
498.35689
492.95844
487.6263
482.35978
477.15824
472.02098
466.94729
461.93638
456.9874
452.09946
447.27161
442.50285
437.79213
433.13845
428.54085
423.99802
419.50867
415.0715
410.6852
406.34838
402.05961
397.81744
393.62038
389.4669
385.35549
381.28467
377.25295
373.25869
369.3002
642.51598
635.53094
628.60557
621.74212
614.94249
608.20828
601.54083
594.94127
588.41048
581.94907
575.55745
569.23606
562.98555
556.80593
550.6972
544.65919
538.69176
532.79466
526.96759
521.21019
515.52212
509.90303
504.35242
498.86964
493.45418
488.10552
482.823
477.60596
472.45369
467.36545
462.34045
457.37783
452.47668
447.63603
442.85488
438.13215
433.46687
428.85805
424.30435
419.80448
415.35715
410.96102
406.61469
402.31674
398.06569
393.86006
389.6983
385.57888
381.50033
377.46114
373.45966
369.49419
643.51836
636.49846
629.53965
622.64412
615.81371
609.04992
602.35405
595.72714
589.17001
582.68323
576.26715
569.92215
563.64884
557.4472
551.31725
545.25877
539.27154
533.35531
527.50973
521.73444
516.02904
510.39317
504.8263
499.32779
493.89715
488.53374
483.23693
478.00603
472.84035
467.73912
462.70153
457.72672
452.81376
447.96168
443.16945
438.43601
433.76036
429.14151
424.57811
420.06885
415.61243
411.20752
406.8527
402.54654
398.28756
394.07426
389.9051
385.77853
381.69308
377.64721
373.63928
369.66758
644.40857
637.35773
630.36925
623.44524
616.58749
609.79745
603.07634
596.42515
589.84463
583.33532
576.89752
570.53158
564.23799
558.01681
551.86799
545.79133
539.78654
533.85332
527.99131
522.20012
516.47934
510.82855
505.24724
499.73477
494.29064
488.91416
483.60464
478.36144
473.18383
468.07106
463.0223
458.03666
453.11322
448.25099
443.44892
438.70596
434.02111
429.39335
424.82133
420.30372
415.83924
411.42652
407.06416
402.75071
398.48469
394.26459
390.08885
385.95593
381.86434
377.81254
373.79888
369.82166
645.19376
638.11566
631.10101
624.15191
617.27005
610.45686
603.71349
597.04088
590.43975
583.91057
577.45363
571.06921
564.75772
558.51931
552.35384
546.26115
540.24086
534.29266
528.41616
522.61096
516.87661
511.21267
505.61861
500.09383
494.63778
489.24981
483.92907
478.67501
473.48689
468.36394
463.30532
458.31014
453.37744
448.50626
443.69552
438.94415
434.25119
429.61558
425.03595
420.51099
416.03939
411.61979
407.25077
402.9309
398.65866
394.43256
390.25102
386.1125
382.01549
377.95846
373.93975
369.95766
645.88076
638.77881
631.74129
624.77023
617.86729
611.03384
604.27101
597.57967
590.9605
584.41395
577.94026
571.53967
565.21251
558.95903
552.779
546.67228
540.63844
534.67713
528.78796
522.97049
517.22427
511.54882
505.94361
500.40805
494.94158
489.54356
484.21301
478.94945
473.75213
468.62027
463.55303
458.54949
453.60871
448.72969
443.91136
439.15264
434.45258
429.8101
425.22382
420.69242
416.2146
411.78897
407.41414
403.08864
398.81097
394.57961
390.393
386.24957
382.14783
378.08623
374.0631
370.07674
646.47603
639.35343
632.2961
625.30602
618.38482
611.53383
604.75413
598.04657
591.41178
584.85017
578.36199
571.94738
565.60663
559.34012
553.14746
547.02858
540.98299
535.01033
529.11018
523.28208
517.52558
511.84016
506.22529
500.68037
495.20488
489.79818
484.45912
479.18733
473.98204
468.84246
463.76774
458.75696
453.80918
448.92337
444.09847
439.33338
434.62717
429.97874
425.38669
420.84972
416.3665
411.93566
407.55579
403.22541
398.94304
394.70713
390.51612
386.36845
382.2626
378.19704
374.17008
370.18003
646.98571
639.84544
632.77115
625.7648
618.82797
611.96196
605.16782
598.44637
591.79821
585.22373
578.72312
572.29649
565.94411
559.66649
553.46301
547.3337
541.27806
535.29568
529.38613
523.54894
517.78362
512.08967
506.46653
500.91361
495.43038
490.01625
484.66993
479.39108
474.17896
469.03277
463.95165
458.93468