/*--------------------------------*- C++ -*----------------------------------*\
| =========                 |                                                 |
| \\      /  F ield         | OpenFOAM: The Open Source CFD Toolbox           |
|  \\    /   O peration     | Version:  2312                                  |
|   \\  /    A nd           | Website:  www.openfoam.com                      |
|    \\/     M anipulation  |                                                 |
\*---------------------------------------------------------------------------*/
FoamFile
{
    version     2.0;
    format      ascii;
    arch        "LSB;label=32;scalar=64";
    class       surfaceScalarField;
    location    "0.05";
    object      phi;
}
// * * * * * * * * * * * * * * * * * * * * * * * * * * * * * * * * * * * * * //

dimensions      [1 0 -1 0 0 0 0];

oriented        oriented;

internalField   nonuniform List<scalar> 
6418
(
2.9314831e-07
-1.2137323e-07
2.918512e-07
-1.243253e-07
2.9051826e-07
-1.2721203e-07
2.891446e-07
-1.3003022e-07
2.8772579e-07
-1.3277694e-07
2.8625782e-07
-1.3544947e-07
2.8473714e-07
-1.3804523e-07
2.831606e-07
-1.4056184e-07
2.815255e-07
-1.4299708e-07
2.7982953e-07
-1.4534887e-07
2.7807079e-07
-1.4761532e-07
2.7624781e-07
-1.4979473e-07
2.7435961e-07
-1.5188553e-07
2.7240618e-07
-1.5388631e-07
2.7038879e-07
-1.5579582e-07
2.6830604e-07
-1.5762229e-07
2.6614698e-07
-1.5935091e-07
2.6392308e-07
-1.6098115e-07
2.6163625e-07
-1.6251676e-07
2.5928548e-07
-1.6396499e-07
2.5686684e-07
-1.6531062e-07
2.5438569e-07
-1.6655867e-07
2.5184346e-07
-1.6771007e-07
2.4924188e-07
-1.6876483e-07
2.4658297e-07
-1.6972315e-07
2.4386892e-07
-1.7058535e-07
2.411021e-07
-1.7135183e-07
2.38285e-07
-1.7202312e-07
2.3542023e-07
-1.7259987e-07
2.3251052e-07
-1.7308285e-07
2.2955868e-07
-1.7347294e-07
2.2656769e-07
-1.7377113e-07
2.2354073e-07
-1.7397858e-07
2.2048033e-07
-1.7409868e-07
2.1738792e-07
-1.7413004e-07
2.1426826e-07
-1.7407427e-07
2.1112447e-07
-1.7393391e-07
2.0795927e-07
-1.737111e-07
2.0477579e-07
-1.7340696e-07
2.0157716e-07
-1.7302381e-07
1.9836625e-07
-1.7256315e-07
1.951467e-07
-1.720282e-07
1.9192105e-07
-1.7142096e-07
1.8869218e-07
-1.7074366e-07
1.8546294e-07
-1.6999876e-07
1.822361e-07
-1.6918878e-07
1.7901436e-07
-1.6831634e-07
1.7580034e-07
-1.6738411e-07
1.7259655e-07
-1.6639483e-07
1.6940544e-07
-1.6535129e-07
1.6622932e-07
-1.6425634e-07
1.6307038e-07
-1.631129e-07
-1.6192401e-07
2.8751605e-07
-1.1706705e-07
2.8627989e-07
-1.1997472e-07
2.8500525e-07
-1.2281314e-07
2.836875e-07
-1.2557941e-07
2.8232245e-07
-1.282709e-07
2.8090632e-07
-1.3088515e-07
2.7943575e-07
-1.3341989e-07
2.779078e-07
-1.35873e-07
2.7631992e-07
-1.3824253e-07
2.7466992e-07
-1.4052667e-07
2.7295597e-07
-1.4272378e-07
2.7117662e-07
-1.4483243e-07
2.6933123e-07
-1.468518e-07
2.6742073e-07
-1.4878182e-07
2.6544653e-07
-1.5062132e-07
2.634066e-07
-1.5237634e-07
2.6129044e-07
-1.5403088e-07
2.5910971e-07
-1.5558743e-07
2.5686615e-07
-1.5705029e-07
2.5455835e-07
-1.5842545e-07
2.521832e-07
-1.5969851e-07
2.4974582e-07
-1.6087538e-07
2.4724752e-07
-1.6195679e-07
2.4469016e-07
-1.6294286e-07
2.4207586e-07
-1.6383389e-07
2.3940692e-07
-1.6463026e-07
2.3668575e-07
-1.653325e-07
2.3391486e-07
-1.6594125e-07
2.3109687e-07
-1.6645727e-07
2.2823448e-07
-1.6688143e-07
2.2533054e-07
-1.6721475e-07
2.2238797e-07
-1.6745834e-07
2.1940979e-07
-1.6761346e-07
2.1639852e-07
-1.6768346e-07
2.133557e-07
-1.6766701e-07
2.1028612e-07
-1.6756584e-07
2.0719275e-07
-1.6738252e-07
2.0407824e-07
-1.6711925e-07
2.0094571e-07
-1.667772e-07
1.9779829e-07
-1.6635877e-07
1.9463874e-07
-1.6586547e-07
1.9147067e-07
-1.6530062e-07
1.8829658e-07
-1.6466618e-07
1.8511932e-07
-1.6396443e-07
1.8194167e-07
-1.6319783e-07
1.7876638e-07
-1.6236894e-07
1.7559609e-07
-1.6148037e-07
1.7243336e-07
-1.605348e-07
1.6928068e-07
-1.5953496e-07
1.6614041e-07
-1.5848365e-07
1.6301482e-07
-1.5738368e-07
1.5990605e-07
-1.5623793e-07
-1.5504946e-07
2.8383969e-07
-1.1303898e-07
2.826704e-07
-1.1589884e-07
2.8145802e-07
-1.1868574e-07
2.8019826e-07
-1.2139708e-07
2.7888721e-07
-1.2403055e-07
2.7752143e-07
-1.2658398e-07
2.7609787e-07
-1.2905541e-07
2.746139e-07
-1.3144297e-07
2.7306721e-07
-1.3374497e-07
2.7145583e-07
-1.3595978e-07
2.6977787e-07
-1.380859e-07
2.680314e-07
-1.4012187e-07
2.6621523e-07
-1.4206766e-07
2.6433257e-07
-1.4392665e-07
2.6239067e-07
-1.4569902e-07
2.6038152e-07
-1.4738252e-07
2.5829444e-07
-1.4896094e-07
2.5613995e-07
-1.5044188e-07
2.5392372e-07
-1.5183379e-07
2.5164039e-07
-1.5313446e-07
2.4929016e-07
-1.5433527e-07
2.4687752e-07
-1.5544158e-07
2.4440384e-07
-1.564537e-07
2.4187106e-07
-1.5737186e-07
2.3928143e-07
-1.5819639e-07
2.3663732e-07
-1.5892779e-07
2.3394121e-07
-1.5956669e-07
2.3119563e-07
-1.6011382e-07
2.2840324e-07
-1.6057007e-07
2.2556677e-07
-1.6093643e-07
2.2268906e-07
-1.6121399e-07
2.1977302e-07
-1.6140398e-07
2.1682163e-07
-1.6150774e-07
2.1383738e-07
-1.6152859e-07
2.1082198e-07
-1.6146529e-07
2.0778012e-07
-1.6131973e-07
2.0471473e-07
-1.6109445e-07
2.0162843e-07
-1.6079165e-07
1.9852435e-07
-1.6041264e-07
1.9540552e-07
-1.5995979e-07
1.9227474e-07
-1.594347e-07
1.8913555e-07
-1.5884075e-07
1.859904e-07
-1.5817983e-07
1.8284213e-07
-1.5745427e-07
1.7969349e-07
-1.5666656e-07
1.7654716e-07
-1.5581926e-07
1.7340575e-07
-1.5491499e-07
1.7027178e-07
-1.5395642e-07
1.6714769e-07
-1.529463e-07
1.6403583e-07
-1.5188739e-07
1.6093841e-07
-1.507825e-07
1.5785759e-07
-1.496345e-07
-1.4844641e-07
2.8174949e-07
-1.0932435e-07
2.8064723e-07
-1.1213174e-07
2.7949583e-07
-1.1486269e-07
2.7829137e-07
-1.1751497e-07
2.7703036e-07
-1.2008657e-07
2.7570975e-07
-1.2257567e-07
2.7432695e-07
-1.249806e-07
2.7287975e-07
-1.272998e-07
2.7136629e-07
-1.2953183e-07
2.6978492e-07
-1.3167532e-07
2.6813386e-07
-1.3372888e-07
2.6640973e-07
-1.3569043e-07
2.646053e-07
-1.3755787e-07
2.627202e-07
-1.3933824e-07
2.6081575e-07
-1.4105607e-07
2.5882928e-07
-1.4266058e-07
2.5675679e-07
-1.4415919e-07
2.5461501e-07
-1.4556549e-07
2.5241073e-07
-1.4688727e-07
2.5013202e-07
-1.4811376e-07
2.4778964e-07
-1.4924275e-07
2.453847e-07
-1.5027881e-07
2.4291869e-07
-1.5122207e-07
2.4039355e-07
-1.520728e-07
2.3781152e-07
-1.5283141e-07
2.3517499e-07
-1.5349851e-07
2.3248648e-07
-1.5407482e-07
2.2974859e-07
-1.5456119e-07
2.26964e-07
-1.549586e-07
2.2413551e-07
-1.5526813e-07
2.2126597e-07
-1.5549096e-07
2.183583e-07
-1.5562839e-07
2.1541547e-07
-1.5568184e-07
2.1244001e-07
-1.556546e-07
2.0943379e-07
-1.5554553e-07
2.0640134e-07
-1.5535667e-07
2.0334559e-07
-1.5509052e-07
2.0026917e-07
-1.5474928e-07
1.9717524e-07
-1.5433439e-07
1.940666e-07
-1.5384801e-07
1.9094635e-07
-1.5329219e-07
1.8781777e-07
-1.5267005e-07
1.8468333e-07
-1.5198348e-07
1.8154584e-07
-1.512349e-07
1.7840801e-07
-1.5042678e-07
1.752725e-07
-1.4956171e-07
1.7214187e-07
-1.4864229e-07
1.6901861e-07
-1.4767121e-07
1.6590512e-07
-1.4665118e-07
1.6280371e-07
-1.4558496e-07
1.5971658e-07
-1.4447535e-07
1.5664585e-07
-1.4332519e-07
-1.4213748e-07
2.809125e-07
-1.0594036e-07
2.7987347e-07
-1.0868964e-07
2.7877825e-07
-1.1135933e-07
2.7762333e-07
-1.1394756e-07
2.7640572e-07
-1.1645266e-07
2.7512285e-07
-1.1887318e-07
2.7377265e-07
-1.2120779e-07
2.7235351e-07
-1.2345533e-07
2.7086431e-07
-1.2561481e-07
2.6930421e-07
-1.2768538e-07
2.6767191e-07
-1.2966646e-07
2.6596354e-07
-1.3155835e-07
2.6416052e-07
-1.3336159e-07
2.6220986e-07
-1.3506822e-07
2.603838e-07
-1.366612e-07
2.5840643e-07
-1.3819029e-07
2.5633167e-07
-1.3962489e-07
2.5418652e-07
-1.4096413e-07
2.5197497e-07
-1.4221612e-07
2.4969051e-07
-1.4336995e-07
2.4734237e-07
-1.4442858e-07
2.4493149e-07
-1.4539506e-07
2.424594e-07
-1.4626995e-07
2.3992804e-07
-1.4705374e-07
2.3733966e-07
-1.4774702e-07
2.3469669e-07
-1.4835051e-07
2.320017e-07
-1.4886505e-07
2.2925736e-07
-1.4929158e-07
2.2646642e-07
-1.4963116e-07
2.236317e-07
-1.4988494e-07
2.2075612e-07
-1.5005418e-07
2.1784262e-07
-1.5014025e-07
2.1489418e-07
-1.5014461e-07
2.1191335e-07
-1.5007053e-07
2.0890221e-07
-1.4991694e-07
2.0586508e-07
-1.4968606e-07
2.0280492e-07
-1.493803e-07
1.9972435e-07
-1.4900186e-07
1.9662652e-07
-1.4855228e-07
1.93514e-07
-1.4803357e-07
1.9039066e-07
-1.4744813e-07
1.8725884e-07
-1.467989e-07
1.8412133e-07
-1.4608775e-07
1.8098089e-07
-1.4531713e-07
1.7784019e-07
-1.4448952e-07
1.7470186e-07
-1.436075e-07
1.7156842e-07
-1.4267369e-07
1.6844234e-07
-1.4169073e-07
1.6532597e-07
-1.4066136e-07
1.622216e-07
-1.3958829e-07
1.5913138e-07
-1.3847432e-07
1.5605741e-07
-1.3732225e-07
-1.3613506e-07
2.8103601e-07
-1.0288911e-07
2.8005341e-07
-1.0557396e-07
2.790069e-07
-1.0817644e-07
2.7789348e-07
-1.1069504e-07
2.7671063e-07
-1.1312845e-07
2.7545626e-07
-1.1547552e-07
2.7412869e-07
-1.1773527e-07
2.7272666e-07
-1.1990682e-07
2.7124921e-07
-1.2198943e-07
2.6969564e-07
-1.2398248e-07
2.6806503e-07
-1.2588545e-07
2.6635491e-07
-1.2769794e-07
2.6455934e-07
-1.2941885e-07
2.6267989e-07
-1.3104457e-07
2.6077557e-07
-1.3258088e-07
2.5877648e-07
-1.3402616e-07
2.5669466e-07
-1.3537976e-07
2.5454205e-07
-1.3664638e-07
2.5231682e-07
-1.3782353e-07
2.5001873e-07
-1.3890363e-07
2.476552e-07
-1.3989132e-07
2.4522797e-07
-1.4078822e-07
2.4273896e-07
-1.4159503e-07
2.4019036e-07
-1.423124e-07
2.3758454e-07
-1.4294104e-07
2.3492404e-07
-1.4348177e-07
2.3221152e-07
-1.4393551e-07
2.2944971e-07
-1.4430329e-07
2.2664144e-07
-1.4458623e-07
2.2378961e-07
-1.4478554e-07
2.2089716e-07
-1.4490253e-07
2.1796706e-07
-1.4493862e-07
2.1500233e-07
-1.4489531e-07
2.1200555e-07
-1.4477584e-07
2.0897897e-07
-1.4457923e-07
2.0592672e-07
-1.443078e-07
2.0285176e-07
-1.4396392e-07
1.9975672e-07
-1.4354974e-07
1.9664477e-07
-1.4306689e-07
1.9351851e-07
-1.4251731e-07
1.9038175e-07
-1.4190365e-07
1.8723671e-07
-1.4122861e-07
1.8408618e-07
-1.4049415e-07
1.809329e-07
-1.3970269e-07
1.7777951e-07
-1.3885673e-07
1.7462859e-07
-1.3795882e-07
1.7148265e-07
-1.3701157e-07
1.683441e-07
-1.3601762e-07
1.6521526e-07
-1.3497967e-07
1.6209838e-07
-1.3390043e-07
1.5899559e-07
-1.3278266e-07
1.5590893e-07
-1.3162914e-07
-1.304428e-07
2.8186747e-07
-1.0016073e-07
2.8093232e-07
-1.0277442e-07
2.7992526e-07
-1.0530339e-07
2.7884384e-07
-1.0774649e-07
2.7768608e-07
-1.1010275e-07
2.7645039e-07
-1.1237135e-07
2.751356e-07
-1.1455159e-07
2.7374091e-07
-1.1664287e-07
2.7226588e-07
-1.1864471e-07
2.707103e-07
-1.2055669e-07
2.6907411e-07
-1.2237836e-07
2.6735687e-07
-1.2410903e-07
2.6555795e-07
-1.2574755e-07
2.6368577e-07
-1.2729882e-07
2.6174178e-07
-1.2876051e-07
2.5971572e-07
-1.3012703e-07
2.576151e-07
-1.3140352e-07
2.5544432e-07
-1.3259683e-07
2.5319245e-07
-1.3369733e-07
2.5087099e-07
-1.347035e-07
2.4848295e-07
-1.3562004e-07
2.4603048e-07
-1.3644761e-07
2.4351579e-07
-1.3718688e-07
2.4094123e-07
-1.3783856e-07
2.3830936e-07
-1.3840347e-07
2.3562281e-07
-1.3888251e-07
2.3288433e-07
-1.3927665e-07
2.3009676e-07
-1.3958699e-07
2.27263e-07
-1.3981469e-07
2.24386e-07
-1.3996102e-07
2.2146874e-07
-1.4002733e-07
2.1851424e-07
-1.4001506e-07
2.1552553e-07
-1.3992576e-07
2.1250522e-07
-1.3976259e-07
2.0945573e-07
-1.3952466e-07
2.0638099e-07
-1.3921441e-07
2.0328398e-07
-1.3883412e-07
2.0016732e-07
-1.383859e-07
1.9703421e-07
-1.3787145e-07
1.9388726e-07
-1.3729267e-07
1.9073009e-07
-1.3665242e-07
1.8756499e-07
-1.3595314e-07
1.8439468e-07
-1.3519686e-07
1.8122188e-07
-1.3438601e-07
1.7804918e-07
-1.3352306e-07
1.7487914e-07
-1.3261055e-07
1.7171421e-07
-1.3165107e-07
1.6855676e-07
-1.3064723e-07
1.6540909e-07
-1.2960171e-07
1.6227339e-07
-1.285172e-07
1.5915175e-07
-1.2739642e-07
1.5604619e-07
-1.2624214e-07
-1.2505722e-07
2.8319207e-07
-9.7736262e-08
2.8229393e-07
-1.002719e-07
2.8131589e-07
-1.0272095e-07
2.8025611e-07
-1.0508263e-07
2.7911314e-07
-1.0735629e-07
2.7788597e-07
-1.0954141e-07
2.7657397e-07
-1.1163759e-07
2.7517686e-07
-1.136445e-07
2.7369477e-07
-1.1556198e-07
2.721282e-07
-1.1738985e-07
2.7047775e-07
-1.1912771e-07
2.6874427e-07
-1.2077506e-07
2.669307e-07
-1.2233257e-07
2.6504213e-07
-1.2380737e-07
2.6306452e-07
-1.2518858e-07
2.6100888e-07
-1.2647507e-07
2.5888083e-07
-1.2767741e-07
2.5667714e-07
-1.2879465e-07
2.5439404e-07
-1.2981839e-07
2.520415e-07
-1.3075199e-07
2.4962171e-07
-1.3159784e-07
2.47137e-07
-1.3235668e-07
2.4458981e-07
-1.3302922e-07
2.4198268e-07
-1.3361624e-07
2.393183e-07
-1.3411861e-07
2.3659942e-07
-1.3453727e-07
2.3382889e-07
-1.3487328e-07
2.3100963e-07
-1.3512773e-07
2.281446e-07
-1.3530186e-07
2.252368e-07
-1.3539694e-07
2.2228926e-07
-1.3541437e-07
2.1930504e-07
-1.353556e-07
2.1628717e-07
-1.352222e-07
2.132383e-07
-1.3501726e-07
2.1016098e-07
-1.3473997e-07
2.0705897e-07
-1.3439285e-07
2.0393523e-07
-1.3397811e-07
2.0079238e-07
-1.3349779e-07
1.9763366e-07
-1.3295364e-07
1.944616e-07
-1.3234758e-07
1.9127973e-07
-1.3168259e-07
1.8809034e-07
-1.3096086e-07
1.8489613e-07
-1.3018451e-07
1.8169975e-07
-1.2935594e-07
1.7850378e-07
-1.284776e-07
1.753107e-07
-1.2755201e-07
1.7212294e-07
-1.2658172e-07
1.6894281e-07
-1.2556933e-07
1.6577258e-07
-1.2451748e-07
1.6261437e-07
-1.2342882e-07
1.5947024e-07
-1.2230605e-07
1.5634218e-07
-1.2115192e-07
-1.1996926e-07
2.8482945e-07
-9.5590224e-08
2.8395697e-07
-9.8040971e-08
2.8299686e-07
-1.0040381e-07
2.8194789e-07
-1.026783e-07
2.8080923e-07
-1.048641e-07
2.7958041e-07
-1.0696097e-07
2.7826131e-07
-1.0896877e-07
2.768522e-07
-1.1088747e-07
2.7535385e-07
-1.1271732e-07
2.7376774e-07
-1.1445869e-07
2.7209549e-07
-1.161113e-07
2.7033741e-07
-1.1767346e-07
2.6849928e-07
-1.1915155e-07
2.665766e-07
-1.205437e-07
2.6456509e-07
-1.2184181e-07
2.6247702e-07
-1.2305053e-07
2.6031672e-07
-1.2417882e-07
2.5807169e-07
-1.2521846e-07
2.5575154e-07
-1.2616655e-07
2.5336188e-07
-1.2702808e-07
2.5090476e-07
-1.2780401e-07
2.4838257e-07
-1.2849508e-07
2.4579789e-07
-1.2910203e-07
2.4315344e-07
-1.2962569e-07
2.4045201e-07
-1.3006697e-07
2.3769648e-07
-1.3042687e-07
2.3488978e-07
-1.3070643e-07
2.3203491e-07
-1.3090683e-07
2.2913486e-07
-1.3102927e-07
2.2619271e-07
-1.3107509e-07
2.2321151e-07
-1.3104567e-07
2.2019433e-07
-1.3094249e-07
2.1714422e-07
-1.3076711e-07
2.1406388e-07
-1.3052255e-07
2.1095592e-07
-1.3020808e-07
2.0782398e-07
-1.2982626e-07
2.0467096e-07
-1.2937924e-07
2.0149949e-07
-1.2886897e-07
1.9831279e-07
-1.2829725e-07
1.9511339e-07
-1.2766602e-07
1.9190465e-07
-1.2697835e-07
1.886889e-07
-1.2623618e-07
1.854688e-07
-1.2544171e-07
1.8224693e-07
-1.245973e-07
1.7902584e-07
-1.2370538e-07
1.7580795e-07
-1.2276843e-07
1.7259565e-07
-1.2178898e-07
1.693912e-07
-1.2076958e-07
1.6619679e-07
-1.1971284e-07
1.6301451e-07
-1.1862137e-07
1.5984636e-07
-1.1749782e-07
1.5669445e-07
2.8663006e-07
-9.3692782e-08
2.8577143e-07
-9.6052066e-08
2.8481789e-07
-9.8322709e-08
2.8376887e-07
-1.0050458e-07
2.8262411e-07
-1.0259763e-07
2.8138371e-07
-1.0460186e-07
2.8004797e-07
-1.0651732e-07
2.7861749e-07
-1.0834421e-07
2.7709358e-07
-1.1008333e-07
2.7547889e-07
-1.1173593e-07
2.7377666e-07
-1.1330197e-07
2.7198955e-07
-1.1478024e-07
2.7012067e-07
-1.1617729e-07
2.6815548e-07
-1.1748359e-07
2.6610587e-07
-1.186978e-07
2.6398017e-07
-1.1983089e-07
2.6177567e-07
-1.208819e-07
2.5948818e-07
-1.2184342e-07
2.5712758e-07
-1.2271801e-07
2.5469675e-07
-1.2350846e-07
2.5219833e-07
-1.2421563e-07
2.4963496e-07
-1.2484023e-07
2.470094e-07
-1.2538305e-07
2.443245e-07
-1.2584497e-07
2.4158316e-07
-1.2622691e-07
2.3878834e-07
-1.2652989e-07
2.3594306e-07
-1.2675499e-07
2.3305035e-07
-1.2690337e-07
2.3011329e-07
-1.2697627e-07
2.2713495e-07
-1.2697501e-07
2.2411841e-07
-1.2690099e-07
2.2106678e-07
-1.267557e-07
2.179831e-07
-1.2654068e-07
2.1487009e-07
-1.2625885e-07
2.1173045e-07
-1.2590956e-07
2.0856764e-07
-1.254954e-07
2.0538453e-07
-1.2501846e-07
2.0218373e-07
-1.2448059e-07
1.9896837e-07
-1.2388355e-07
1.9574113e-07
-1.2322951e-07
1.925051e-07
-1.2252137e-07
1.8926264e-07
-1.2176095e-07
1.8601637e-07
-1.2095048e-07
1.8276882e-07
-1.2009228e-07
1.7952248e-07
-1.1918876e-07
1.7627972e-07
-1.1824236e-07
1.7304286e-07
-1.1725556e-07
1.6981413e-07
-1.1623088e-07
1.6659564e-07
-1.1517088e-07
1.6338946e-07
-1.1407814e-07
-1.1295532e-07
2.8847149e-07
-9.2011607e-08
2.8761478e-07
-9.4273302e-08
2.8665652e-07
-9.6446248e-08
2.8559681e-07
-9.8530615e-08
2.8443601e-07
-1.0052661e-07
2.8317474e-07
-1.0243446e-07
2.8181363e-07
-1.0425431e-07
2.8035319e-07
-1.0598643e-07
2.7879483e-07
-1.0763219e-07
2.7714352e-07
-1.0919445e-07
2.754063e-07
-1.1067293e-07
2.7358495e-07
-1.1206907e-07
2.7167167e-07
-1.1337897e-07
2.6966314e-07
-1.1459817e-07
2.6757275e-07
-1.1573231e-07
2.6540568e-07
-1.167896e-07
2.6315121e-07
-1.1776144e-07
2.6081916e-07
-1.186462e-07
2.5841426e-07
-1.1944855e-07
2.5593929e-07
-1.2016925e-07
2.53397e-07
-1.2080908e-07
2.507902e-07
-1.213688e-07
2.4812179e-07
-1.2184924e-07
2.4539474e-07
-1.2225129e-07
2.4261205e-07
-1.2257588e-07
2.3977675e-07
-1.2282405e-07
2.3689191e-07
-1.2299688e-07
2.339606e-07
-1.2309553e-07
2.3098594e-07
-1.2312122e-07
2.2797101e-07
-1.2307529e-07
2.2491891e-07
-1.2295911e-07
2.2183275e-07
-1.2277416e-07
2.1871559e-07
-1.22522e-07
2.1557013e-07
-1.222054e-07
2.1239915e-07
-1.2182382e-07
2.0920593e-07
-1.2137985e-07
2.0599331e-07
-1.2087547e-07
2.0276391e-07
-1.203125e-07
1.995205e-07
-1.1969266e-07
1.962664e-07
-1.1901821e-07
1.9300399e-07
-1.1829197e-07
1.8973583e-07
-1.1751561e-07
1.8646448e-07
-1.1669139e-07
1.8319241e-07
-1.1582161e-07
1.7992203e-07
-1.1490861e-07
1.7665568e-07
-1.1395479e-07
1.7339559e-07
-1.129626e-07
1.7014395e-07
-1.1193451e-07
1.6690283e-07
-1.1087304e-07
1.6367422e-07
-1.0978071e-07
-1.0866014e-07
2.9025489e-07
-9.0513372e-08
2.8938833e-07
-9.2671947e-08
2.8841436e-07
-9.4742324e-08
2.8733375e-07
-9.6724971e-08
2.8614755e-07
-9.8620367e-08
2.8485691e-07
-1.0042898e-07
2.8346267e-07
-1.0215117e-07
2.8196466e-07
-1.0378709e-07
2.8036226e-07
-1.0533757e-07
2.7866259e-07
-1.0680653e-07
2.7689183e-07
-1.0819835e-07
2.7503303e-07
-1.0950838e-07
2.7306958e-07
-1.1072808e-07
2.7101486e-07
-1.1186243e-07
2.6887917e-07
-1.1291995e-07
2.6666093e-07
-1.1389847e-07
2.6435789e-07
-1.1479162e-07
2.619793e-07
-1.1560283e-07
2.5952814e-07
-1.1633428e-07
2.5700733e-07
-1.1698675e-07
2.5441981e-07
-1.1756095e-07
2.5176855e-07
-1.1805766e-07
2.4905657e-07
-1.1847772e-07
2.462869e-07
-1.1882202e-07
2.4346263e-07
-1.190915e-07
2.4058686e-07
-1.1928718e-07
2.3766269e-07
-1.1941014e-07
2.3469322e-07
-1.1946152e-07
2.3168156e-07
-1.1944253e-07
2.2863083e-07
-1.1935448e-07
2.2554413e-07
-1.1919872e-07
2.2242452e-07
-1.1897672e-07
2.192751e-07
-1.1869006e-07
2.1609856e-07
-1.1834135e-07
2.1289769e-07
-1.1793012e-07
2.0967564e-07
-1.1745894e-07
2.0643514e-07
-1.1692973e-07
2.0317887e-07
-1.1634431e-07
1.999095e-07
-1.1570423e-07
1.966303e-07
-1.1501196e-07
1.9334353e-07
-1.1427002e-07
1.9005176e-07
-1.1348015e-07
1.8675746e-07
-1.1264454e-07
1.8346307e-07
-1.1176545e-07
1.8017091e-07
-1.1084518e-07
1.7688327e-07
-1.098861e-07
1.7360232e-07
-1.0889058e-07
1.7033016e-07
-1.0786105e-07
1.6706882e-07
-1.0679997e-07
1.6382022e-07
-1.0570983e-07
-1.0459317e-07
2.9190158e-07
-8.9164933e-08
2.9101376e-07
-9.1215551e-08
2.9001351e-07
-9.3179182e-08
2.8890228e-07
-9.5056587e-08
2.8768175e-07
-9.6848531e-08
2.8635364e-07
-9.8555788e-08
2.8491909e-07
-1.0017922e-07
2.8337791e-07
-1.0171994e-07
2.817276e-07
-1.0317845e-07
2.7997254e-07
-1.0455265e-07
2.7816483e-07
-1.0584523e-07
2.7625638e-07
-1.0706282e-07
2.7424231e-07
-1.0819634e-07
2.7214116e-07
-1.0925382e-07
2.6995655e-07
-1.1023457e-07
2.676839e-07
-1.1113303e-07
2.6533196e-07
-1.1195033e-07
2.6290525e-07
-1.1268974e-07
2.6040678e-07
-1.1335213e-07
2.5783952e-07
-1.1393823e-07
2.552065e-07
-1.144488e-07
2.525108e-07
-1.1488463e-07
2.4975553e-07
-1.1524654e-07
2.4694381e-07
-1.1553543e-07
2.4407878e-07
-1.1575223e-07
2.4116355e-07
-1.1589794e-07
2.3820127e-07
-1.159736e-07
2.3519505e-07
-1.1598033e-07
2.32148e-07
-1.1591934e-07
2.2906323e-07
-1.1579186e-07
2.2594381e-07
-1.1559922e-07
2.2279276e-07
-1.1534287e-07
2.1961325e-07
-1.1502452e-07
2.1640788e-07
-1.1464642e-07
2.1317944e-07
-1.1420826e-07
2.0993096e-07
-1.1371258e-07
2.0666514e-07
-1.1316124e-07
2.0338466e-07
-1.1255605e-07
2.0009205e-07
-1.1189834e-07
1.9679046e-07
-1.1119083e-07
1.9348217e-07
-1.1043571e-07
1.9016967e-07
-1.0963479e-07
1.8685538e-07
-1.0879019e-07
1.8354165e-07
-1.0790415e-07
1.8023075e-07
-1.0697889e-07
1.7692489e-07
-1.0601674e-07
1.7362618e-07
-1.0502001e-07
1.7033666e-07
-1.0399108e-07
1.6705828e-07
-1.0293235e-07
1.6379289e-07
-1.0184625e-07
-1.0073525e-07
2.9335006e-07
-8.7934254e-08
2.9243016e-07
-8.9872823e-08
2.9139359e-07
-9.1726199e-08
2.9024236e-07
-9.3495365e-08
2.8897865e-07
-9.5181284e-08
2.876047e-07
-9.6784909e-08
2.8612237e-07
-9.8307248e-08
2.8453251e-07
-9.9749302e-08
2.8283539e-07
-1.0111103e-07
2.8104278e-07
-1.0239516e-07
2.7917318e-07
-1.0359907e-07
2.7720303e-07
-1.0472377e-07
2.7513953e-07
-1.0577305e-07
2.7299106e-07
-1.067522e-07
2.7075045e-07
-1.0765235e-07
2.684267e-07
-1.0847207e-07
2.6602575e-07
-1.0921625e-07
2.6355088e-07
-1.0988558e-07
2.6100521e-07
-1.1048078e-07
2.5839186e-07
-1.1100259e-07
2.5571401e-07
-1.1145174e-07
2.5297482e-07
-1.1182902e-07
2.5017746e-07
-1.1213523e-07
2.4732512e-07
-1.1237125e-07
2.4442096e-07
-1.1253796e-07
2.4146814e-07
-1.1263634e-07
2.3846978e-07
-1.1266742e-07
2.3542902e-07
-1.1263226e-07
2.3234895e-07
-1.1253203e-07
2.2923267e-07
-1.1236794e-07
2.2608321e-07
-1.1214124e-07
2.2290343e-07
-1.1185321e-07
2.1969679e-07
-1.1150621e-07
2.1646552e-07
-1.1110144e-07
2.1321251e-07
-1.1063911e-07
2.0994069e-07
-1.1012169e-07
2.0665273e-07
-1.0955095e-07
2.0335124e-07
-1.0892863e-07
2.0003874e-07
-1.0825596e-07
1.9671817e-07
-1.0753579e-07
1.933918e-07
-1.0677004e-07
1.9006206e-07
-1.0596055e-07
1.867313e-07
-1.0510941e-07
1.8340181e-07
-1.0421877e-07
1.8007578e-07
-1.0329083e-07
1.7675534e-07
-1.0232783e-07
1.7344254e-07
-1.0133204e-07
1.7013934e-07
-1.0030577e-07
1.6684763e-07
-9.9251367e-08
1.635692e-07
-9.8171191e-08
-9.7067638e-08
2.9455342e-07
-8.6791184e-08
2.9359152e-07
-8.8614478e-08
2.9250966e-07
-9.0354933e-08
2.9131039e-07
-9.2013687e-08
2.8999638e-07
-9.359182e-08
2.8857031e-07
-9.5090359e-08
2.8703477e-07
-9.6510314e-08
2.8539197e-07
-9.785257e-08
2.836492e-07
-9.9122006e-08
2.8180987e-07
-1.0031566e-07
2.7987385e-07
-1.0142856e-07
2.7784511e-07
-1.0246568e-07
2.7572925e-07
-1.0343456e-07
2.7352481e-07
-1.0433179e-07
2.7123103e-07
-1.0515119e-07
2.6885751e-07
-1.0589638e-07
2.6640776e-07
-1.0656927e-07
2.6388521e-07
-1.0717049e-07
2.6129316e-07
-1.0770069e-07
2.5863488e-07
-1.0816052e-07
2.5591362e-07
-1.0855071e-07
2.5313262e-07
-1.0887198e-07
2.5029512e-07
-1.0912512e-07
2.4740431e-07
-1.0931094e-07
2.4446338e-07
-1.0943031e-07
2.4147548e-07
-1.0948415e-07
2.3844376e-07
-1.0947344e-07
2.353713e-07
-1.0939922e-07
2.3226117e-07
-1.092626e-07
2.2911643e-07
-1.0906473e-07
2.2594009e-07
-1.0880684e-07
2.227352e-07
-1.0849019e-07
2.1950496e-07
-1.0811735e-07
2.1625111e-07
-1.0768864e-07
2.1297701e-07
-1.0720494e-07
2.0968544e-07
-1.0666855e-07
2.0637901e-07
-1.0608114e-07
2.0306022e-07
-1.0544433e-07
1.997316e-07
-1.0475935e-07
1.9639589e-07
-1.0402907e-07
1.9305532e-07
-1.0325522e-07
1.8971226e-07
-1.0243965e-07
1.8636899e-07
-1.0158438e-07
1.830277e-07
-1.0069151e-07
1.7969054e-07
-9.9763165e-08
1.7635954e-07
-9.8801526e-08
1.730367e-07
-9.7808805e-08
1.6972389e-07
-9.6787252e-08
1.6642294e-07
-9.5739146e-08
1.6313557e-07
-9.4666785e-08
-9.3572485e-08
2.954768e-07
-8.5707912e-08
2.9446397e-07
-8.7413634e-08
2.9332891e-07
-8.9039402e-08
2.9207467e-07
-9.0586459e-08
2.9070437e-07
-9.2055959e-08
2.8922119e-07
-9.3448964e-08
2.8762824e-07
-9.4766458e-08
2.8593316e-07
-9.6013926e-08
2.8413782e-07
-9.7190485e-08
2.822371e-07
-9.8289947e-08
2.8024108e-07
-9.9313059e-08
2.7815794e-07
-1.0026924e-07
2.7598699e-07
-1.0115691e-07
2.7372476e-07
-1.0197133e-07
2.7137957e-07
-1.0271413e-07
2.6895626e-07
-1.0338716e-07
2.6645833e-07
-1.0399114e-07
2.6388921e-07
-1.0452667e-07
2.6125226e-07
-1.0499436e-07
2.5855084e-07
-1.0539481e-07
2.5578825e-07
-1.0572869e-07
2.5296778e-07
-1.0599669e-07
2.5009267e-07
-1.0619952e-07
2.4716613e-07
-1.0633797e-07
2.4419135e-07
-1.0641284e-07
2.4117147e-07
-1.0642501e-07
2.3810961e-07
-1.063754e-07
2.3500881e-07
-1.0626502e-07
2.3187213e-07
-1.0609491e-07
2.2870257e-07
-1.0586617e-07
2.2550312e-07
-1.0558001e-07
2.2227676e-07
-1.0523768e-07
2.1902633e-07
-1.0484163e-07
2.1575393e-07
-1.0439187e-07
2.1246275e-07
-1.038896e-07
2.0915543e-07
-1.0333699e-07
2.0583459e-07
-1.0273567e-07
2.0250255e-07
-1.0208695e-07
1.9916184e-07
-1.0139226e-07
1.9581514e-07
-1.0065435e-07
1.9246455e-07
-9.98749e-08
1.8911237e-07
-9.9055685e-08
1.8576079e-07
-9.8198671e-08
1.8241195e-07
-9.7305876e-08
1.790679e-07
-9.637937e-08
1.7573062e-07
-9.5421264e-08
1.7240201e-07
-9.4433709e-08
1.690839e-07
-9.3418891e-08
1.6577801e-07
-9.2379021e-08
1.6248601e-07
-9.1316331e-08
-9.0233061e-08
2.9609532e-07
-8.4659276e-08
2.9502372e-07
-8.6246072e-08
2.938286e-07
-8.7756282e-08
2.9251347e-07
-8.9191215e-08
2.9108191e-07
-9.0552069e-08
2.8953746e-07
-9.1839883e-08
2.8788819e-07
-9.3060174e-08
2.8613681e-07
-9.421317e-08
2.8427616e-07
-9.5293106e-08
2.8231508e-07
-9.6299107e-08
2.8026478e-07
-9.7239801e-08
2.7812613e-07
-9.8114551e-08
2.7589541e-07
-9.8919269e-08
2.7357965e-07
-9.9655469e-08
2.7118392e-07
-1.0032505e-07
2.6871195e-07
-1.0092841e-07
2.6616728e-07
-1.0146609e-07
2.6355337e-07
-1.0193861e-07
2.6087365e-07
-1.0234653e-07
2.581315e-07
-1.0269039e-07
2.5533023e-07
-1.0297081e-07
2.5247314e-07
-1.031884e-07
2.4956348e-07
-1.0334383e-07
2.4660444e-07
-1.0343782e-07
2.4359919e-07
-1.0347112e-07
2.4055085e-07
-1.0344455e-07
2.3746247e-07
-1.0335899e-07
2.3433709e-07
-1.0321537e-07
2.311777e-07
-1.0301469e-07
2.2798723e-07
-1.0275801e-07
2.2476862e-07
-1.0244647e-07
2.2152472e-07
-1.020813e-07
2.1825825e-07
-1.0166475e-07
2.1497149e-07
-1.0119677e-07
2.1166744e-07
-1.0067871e-07
2.0834863e-07
-1.0011257e-07
2.0501755e-07
-9.9499918e-08
2.016765e-07
-9.8841856e-08
1.9832802e-07
-9.8140049e-08
1.9497465e-07
-9.7396946e-08
1.9161838e-07
-9.6614322e-08
1.8826142e-07
-9.5793832e-08
1.8490591e-07
-9.4937373e-08
1.815539e-07
-9.4046894e-08
1.7820736e-07
-9.3124396e-08
1.7486819e-07
-9.2171926e-08
1.7153822e-07
-9.1191567e-08
1.682192e-07
-9.0185438e-08
1.6491279e-07
-8.9155685e-08
1.6162059e-07
-8.810447e-08
-8.7033955e-08
2.9639238e-07
-8.3622937e-08
2.9525532e-07
-8.5090391e-08
2.9399442e-07
-8.6485049e-08
2.9261358e-07
-8.7808239e-08
2.9111673e-07
-8.9061157e-08
2.8951229e-07
-9.0249307e-08
2.8780397e-07
-9.1373527e-08
2.8598369e-07
-9.2428091e-08
2.8405959e-07
-9.3411861e-08
2.8204341e-07
-9.4333341e-08
2.7993734e-07
-9.5191597e-08
2.7773807e-07
-9.5982819e-08
2.7545225e-07
-9.6708461e-08
2.7308512e-07
-9.7370731e-08
2.7064033e-07
-9.796993e-08
2.6812152e-07
-9.8506427e-08
2.6553224e-07
-9.8980655e-08
2.6287598e-07
-9.9393072e-08
2.6015617e-07
-9.974415e-08
2.5737619e-07
-1.0003439e-07
2.5453936e-07
-1.0026431e-07
2.5164896e-07
-1.0043448e-07
2.4870821e-07
-1.005455e-07
2.4572029e-07
-1.0059801e-07
2.426883e-07
-1.0059273e-07
2.3961533e-07
-1.0053039e-07
2.3650439e-07
-1.0041183e-07
2.3335844e-07
-1.002379e-07
2.3018042e-07
-1.0000956e-07
2.2697318e-07
-9.9727808e-08
2.2373957e-07
-9.9393735e-08
2.2048236e-07
-9.9008513e-08
2.1720417e-07
-9.8574193e-08
2.1390738e-07
-9.8090719e-08
2.1059478e-07
-9.755956e-08
2.0726883e-07
-9.6982516e-08
2.0393191e-07
-9.6361065e-08
2.0058633e-07
-9.5696204e-08
1.9723446e-07
-9.4989673e-08
1.9387879e-07
-9.4243765e-08
1.9052124e-07
-9.3460307e-08
1.8716393e-07
-9.2640824e-08
1.8380891e-07
-9.1787139e-08
1.8045815e-07
-9.0901126e-08
1.7711354e-07
-8.9984719e-08
1.7377692e-07
-8.9039898e-08
1.7045002e-07
-8.8068678e-08
1.6713453e-07
-8.7073112e-08
1.6383203e-07
-8.6055274e-08
1.6054404e-07
-8.5017253e-08
2.963582e-07
-8.2579452e-08
2.9515023e-07
-8.392807e-08
2.9381898e-07
-8.5208018e-08
2.9236868e-07
-8.6420583e-08
2.9080804e-07
-8.7571428e-08
2.8914126e-07
-8.8661414e-08
2.8736143e-07
-8.968548e-08
2.8547443e-07
-9.0642372e-08
2.8349336e-07
-9.1539918e-08
2.8142041e-07
-9.2377422e-08
2.7925298e-07
-9.3151189e-08
2.7699764e-07
-9.386262e-08
2.7465986e-07
-9.4513839e-08
2.7224329e-07
-9.5105223e-08
2.6975157e-07
-9.5637087e-08
2.6718834e-07
-9.6109759e-08
2.6455714e-07
-9.6523597e-08
2.6186145e-07
-9.6878978e-08
2.591047e-07
-9.7176299e-08
2.5629024e-07
-9.7415984e-08
2.5342137e-07
-9.7598486e-08
2.5050132e-07
-9.7724296e-08
2.4753328e-07
-9.7793947e-08
2.4452036e-07
-9.7808021e-08
2.4146564e-07
-9.776715e-08
2.3837212e-07
-9.7672026e-08
2.3524276e-07
-9.7523397e-08
2.3208045e-07
-9.7322077e-08
2.2888805e-07
-9.7068943e-08
2.2566834e-07
-9.6764944e-08
2.2242406e-07
-9.641111e-08
2.1915789e-07
-9.6008548e-08
2.1587239e-07
-9.5559124e-08
2.1256997e-07
-9.5062816e-08
2.0925324e-07
-9.4521145e-08
2.059246e-07
-9.393574e-08
2.0258631e-07
-9.3307956e-08
1.9924062e-07
-9.2638702e-08
1.9588976e-07
-9.1929745e-08
1.9253619e-07
-9.1183307e-08
1.8918176e-07
-9.0401264e-08
1.858285e-07
-8.9584973e-08
1.8247838e-07
-8.8736176e-08
1.7913328e-07
-8.7856675e-08
1.7579501e-07
-8.6948336e-08
1.7246533e-07
-8.6013072e-08
1.6914589e-07
-8.5052834e-08
1.6583831e-07
-8.4069607e-08
1.625441e-07
-8.3065397e-08
-8.20422e-08
2.9598866e-07
-8.1512265e-08
2.9470554e-07
-8.2743431e-08
2.9330056e-07
-8.391029e-08
2.9178255e-07
-8.5018444e-08
2.9015582e-07
-8.6068926e-08
2.8841463e-07
-8.7057055e-08
2.865654e-07
-8.7982102e-08
2.8461954e-07
-8.8851362e-08
2.8257985e-07
-8.9663589e-08
2.8044461e-07
-9.0415613e-08
2.7822034e-07
-9.1109071e-08
2.7591256e-07
-9.174557e-08
2.7352502e-07
-9.2325514e-08
2.7106144e-07
-9.2849233e-08
2.6852549e-07
-9.3316997e-08
2.6592076e-07
-9.3729072e-08
2.6325079e-07
-9.4085737e-08
2.6051904e-07
-9.4387286e-08
2.5772888e-07
-9.4634037e-08
2.5488362e-07
-9.4826334e-08
2.5198652e-07
-9.4964553e-08
2.4904076e-07
-9.504911e-08
2.4604946e-07
-9.5080468e-08
2.4301567e-07
-9.5059134e-08
2.399424e-07
-9.4985675e-08
2.3683258e-07
-9.4860712e-08
2.3368909e-07
-9.4684929e-08
2.3051476e-07
-9.4459074e-08
2.2731233e-07
-9.4183959e-08
2.2408452e-07
-9.386047e-08
2.2083397e-07
-9.3489568e-08
2.1756325e-07
-9.3072299e-08
2.1427488e-07
-9.2610348e-08
2.1097123e-07
-9.2103758e-08