/*--------------------------------*- C++ -*----------------------------------*\
| =========                 |                                                 |
| \\      /  F ield         | OpenFOAM: The Open Source CFD Toolbox           |
|  \\    /   O peration     | Version:  2312                                  |
|   \\  /    A nd           | Website:  www.openfoam.com                      |
|    \\/     M anipulation  |                                                 |
\*---------------------------------------------------------------------------*/
FoamFile
{
    version     2.0;
    format      ascii;
    arch        "LSB;label=32;scalar=64";
    class       volScalarField;
    location    "0.05";
    object      Qdot;
}
// * * * * * * * * * * * * * * * * * * * * * * * * * * * * * * * * * * * * * //

dimensions      [1 -1 -3 0 0 0 0];

internalField   nonuniform List<scalar> 
3272
(
817.42389
964.78951
1132.7319
1323.0343
1537.4284
1777.5711
2045.0071
2341.1281
2667.1286
3023.9614
3412.2935
3832.4626
4284.4377
4767.7852
5281.6414
5814.8222
6378.2666
6971.1937
7585.6546
8207.3022
8850.9766
9505.9932
10165.523
10824.174
11476.189
12115.528
12735.95
13331.108
13894.649
14420.318
14902.069
15334.171
15711.324
16024.313
16275.534
16461.498
16577.434
16621.038
16592.698
16491.625
16321.089
16079.393
15770.317
15398.124
14967.295
14483.003
13951.013
13377.564
12769.251
12132.884
11475.362
10803.536
10124.081
874.2792
1031.1986
1209.8796
1412.1782
1639.8923
1894.7366
2178.304
2492.0222
2837.1078
3214.5198
3624.9126
4068.5908
4545.4667
5055.0274
5596.3164
6157.4293
6750.858
7374.0815
8019.4235
8671.9353
9347.8913
10034.889
10726.248
11416.302
12099.021
12768.085
13416.978
14039.078
14627.762
15176.511
15679.028
16129.348
16521.952
16847.221
17107.792
17299.876
17418.584
17461.561
17429.187
17320.645
17139.437
16883.588
16557.296
16164.941
15711.22
15201.553
14641.981
14039.048
13399.666
12730.993
12040.283
11334.727
10621.134
990.84128
1167.1245
1367.5144
1594.0075
1848.5268
2132.8946
2448.7905
2797.7051
3180.8908
3599.3108
4053.5881
4543.9517
5070.1834
5631.5796
6226.9845
6843.2035
7495.8249
8178.7236
8883.9887
9597.3754
10336.788
11086.512
11840.193
12591.656
13334.351
14061.437
14765.867
15440.492
16078.167
16671.868
17214.812
17700.581
18123.239
18472.363
18751.077
18955.009
19079.034
19120.693
19080.363
18957.166
18755.021
18471.413
18111.36
17679.465
17180.839
16621.377
16007.652
15346.778
14646.283
13913.955
13157.69
12385.319
11604.249
1179.1658
1386.1768
1620.9077
1885.5551
2182.2161
2512.8596
2879.2795
3283.044
3725.4422
4207.4299
4729.5717
5291.9724
5894.1755
6535.0225
7212.7695
7913.2668
8656.86
9432.8522
10221.278
11031.767
11867.167
12711.897
13559.679
14403.678
15236.621
16050.904
16838.707
17592.1
18303.17
18964.143
19567.521
20106.214
20573.668
20958.253
21263.842
21485.172
21616.764
21656.011
21603.297
21457.778
21223.652
20897.767
20486.385
19994.422
19427.595
18792.503
18096.504
17347.568
16554.135
15724.942
14868.86
13994.689
13110.767
1461.0744
1713.0005
1997.7263
2317.6989
2675.228
3072.4538
3511.2952
3993.394
4520.0581
5092.2055
5710.3094
6374.3254
7083.502
7835.6926
8625.9339
9444.1526
10313.272
11215.203
12127.675
13070.662
14036.355
15011.154
15987.745
16958.277
17914.457
18847.647
19748.981
20609.486
21420.219
22172.41
22857.604
23467.809
23995.65
24427.848
24769.334
25013.596
25154.661
25189.678
25118.85
24943.309
24663.849
24279.243
23796.678
23221.525
22560.298
21820.531
21010.638
20139.749
19217.54
18254.048
17259.476
16243.965
15217.144
1870.2325
2185.4374
2540.2555
2937.421
3379.4758
3868.7348
4407.2276
4996.6365
5638.2333
6332.8163
7080.6494
7881.3985
8734.0776
9637.1461
10570.298
11553.786
12586.479
13652.758
14730.307
15847.291
16983.83
18128.708
19273.349
20408.631
21524.966
22612.406
23660.759
24659.738
25599.1
26468.81
27259.204
27961.155
28566.234
29059.034
29445.919
29718.715
29870.847
29899.224
29803.978
29586.778
29246.937
28784.799
28208.061
27522.939
26736.971
25858.889
24898.461
23866.31
22773.712
21632.391
20454.289
19251.305
18034.777
2455.6267
2858.1764
3309.1961
3811.7183
4368.5083
4982.0268
5654.3658
6387.18
7181.6167
8038.2455
8956.9772
9936.9415
10976.201
12070.806
13198.861
14393.973
15639.715
16902.477
18199.586
19538.083
20892.237
22252.904
23610.132
24953.311
26271.297
27552.552
28785.278
29957.583
31057.643
32073.884
32995.165
33810.963
34511.563
35078.882
35521.163
35828.077
35992.314
36010.506
35882.622
35610.765
35192.641
34630.546
33932.676
33106.259
32160.087
31104.364
29950.537
28711.082
27399.283
26028.98
24614.317
23169.427
21707.845
3286.3999
3807.782
4388.8457
5032.894
5742.8631
6521.2856
7370.2208
8291.1823
9285.0686
10352.103
11491.8
12703.034
13984.535
15306.988
16692.786
18152.589
19659.223
21180.134
22755.001
24364.215
25988.174
27615.877
29235.571
30834.823
32400.632
33919.568
35377.933
36761.936
38057.878
39252.357
40332.473
41286.041
42101.798
42758.38
43266.44
43612.892
43789.552
43792.731
43622.16
43280.33
42762.859
42074.555
41224.109
40219.927
39072.275
37793.116
36395.913
34895.393
33307.285
31648.035
29934.496
28183.57
26411.529
4458.0586
5139.0456
5893.5381
6725.0229
7636.4954
8630.4246
9708.6808
10872.458
12122.203
13457.535
14877.137
16378.355
17955.555
19575.777
21288.279
23074.326
24881.667
26731.919
28647.855
30587.897
32540.096
34491.62
36428.715
38336.857
40200.902
42005.241
43733.979
45371.13
46900.827
48307.545
49576.335
50693.066
51644.658
52405.8
52990.156
53381.184
53569.667
53551.564
53326.293
52896.559
52255.286
51410.501
50371.312
49147.448
47750.863
46195.561
44497.374
42673.695
40743.179
38725.404
36640.505
34508.695
32349.182
6100.0077
6992.5385
7975.1344
9051.3029
10223.911
11495.156
12866.494
14338.563
15911.118
17583.044
19352.593
21218.356
23135.395
25139.168
27246.159
29416.75
31602.734
33864.665
36177.453
38512.666
40856.081
43192.524
45505.905
47779.323
49995.213
52135.511
54181.845
56115.753
57918.905
59573.361
61061.833
62367.951
63476.541
64357.628
65028.562
65468.532
65667.102
65619.84
65325.903
64787.543
63994.61
62959.096
61690.32
60199.443
58500.297
56609.194
54544.683
52327.252
49978.98
47523.163
44983.9
8384.2316
9553.0917
10831.205
12221.844
13727.471
15349.727
17089.355
18946.102
20918.599
23004.234
25198.882
27494.674
29842.415
32319.753
34894.415
37490.652
40150.245
42897.235
45677.818
48476.786
51277.645
54062.777
56813.56
59510.498
62133.374
64661.43
67073.571
69348.594
71465.439
73403.465
75142.745
76664.378
77950.812
78966.688
79733.769
80226.05
80431.618
80345.463
79967.583
79296.297
78320.968
77056.866
75513.359
73703.125
71642.025
69348.919
66845.394
64155.44
61305.049
58321.72
55233.602
11534.734
13058.722
14713.336
16501.251
18424.166
20482.804
22676.848
25004.831
27464.007
30050.581
32762.184
35531.117
38427.806
41450.425
44556.189
47674.865
50903.932
54194.072
57514.117
60846.18
64171.181
67468.876
70717.951
73896.152
76980.437
79947.169
82772.329
85431.753
87901.405
90157.672
92177.682
93939.673
95423.423
96587.613
97459.151
98005.832
98214.026
98077.831
97597.581
96766.298
95576.219
94042.535
92175.503
89989.307
87501.928
84734.947
81713.266
78464.751
75019.8
71410.79
67671.034
15837.098
17809.285
19934.767
22215.172
24650.979
27241.553
29985.061
32878.291
35916.123
39090.562
42390.843
45748.658
49290.039
52933.162
56598.547
60369.003
64234.18
68141.05
72070.733
76002.941
79916.038
83787.119
87592.114
91305.927
94902.596
98355.486
101637.51
104721.39
107579.91
110186.25
112514.25
114538.81
116236.44
117560.26
118542.73
119144.27
119349.55
119148.79
118546.97
117527.89
116087.94
114241.43
111999.4
109377.49
106395.8
103078.73
99454.707
95555.788
91417.209
87076.785
82573.816
21647.266
24173.903
26876.414
29754.853
32807.983
36033.303
39426.961
42983.542
46695.638
50553.498
54478.016
58587.602
62845.715
67119.818
71481.091
75986.828
80544.512
85135.421
89738.66
94331.614
98890.146
103388.72
107800.54
112097.67
116251.21
120231.47
124008.25
127551.05
130829.38
133813.06
136472.44
138778.24
140699.83
142192.11
143289.86
143944.52
144138.65
143860.03
143115.42
141879.39
140153.04
137949.09
135279.09
132159.94
128613.76
124667.76
120353.98
115708.9
110772.95
105589.87
100205.66
29398.411
32596.047
35990.141
39578.663
43358.207
47324
51469.824
55787.83
60268.336
64818.209
69556.412
74460.087
79476.383
84486.148
89665.839
94930.134
100238.93
105570
110899.8
116203.28
121453.85
126623.45
131682.65
136600.76
141346.01
145885.7
150186.48
154214.64
157936.38
161318.33
164328.12
166935.57
169067.97
170741.41
171957.06
172660.83
172833.96
172462.03
171553.01
170070.82
168021.26
165415.06
162264
158585.92
154404.73
149750.32
144658.31
139169.71
133330.37
127190.37
120803.08
39604.638
43595.059
47798.194
52209.523
56823.164
61631.842
66626.803
71797.671
77036.352
82462.715
88089.822
93839.846
99593.666
105505.28
111524.11
117597.75
123703.01
129815.6
135909.87
141958.62
147933.07
153802.87
159536.15
165099.63
170458.81
175578.06
180420.97
184950.52
189129.54
192921.06
196288.86
199198
201559.96
203411.36
204739.18
205483.76
205623.37
205141.93
204045.62
202290.28
199880.7
196828.3
193144.4
188847.27
183962.19
178521.43
172564.03
166135.46
159287.14
152075.77
144562.64
52860.239
57763.038
62887.867
68227.525
73773.591
79516.331
85444.516
91433.341
97599.514
104003.73
110537.66
117066.49
123756.41
130573.23
137448.74
144361.85
151288.96
158204.65
165081.78
171891.5
178603.2
185184.58
191601.63
197818.75
203798.86
209503.59
214893.48
219928.29
224567.32
228769.83
232495.45
235704.64
238296.78
240321.85
241753.24
242527.24
242617.01
242013.42
240705.39
238649.8
235845.29
232305.14
228039.54
223066.56
217412.31
211110.99
204204.75
196743.33
188783.66
180389.19
171629.72
69833.486
75756.231
81900.752
88257.314
94815.288
101562.94
108357.79
115312.67
122535.15
129890.3
137225.89
144719
152357.32
160055.89
167794.23
175550.07
183299.13
191015.18
198670.13
206233.95
213674.69
220958.48
228049.52
234910.16
241501.02
247781.13
253708.13
259238.56
264328.18
268932.38
273006.57
276506.67
279320.3
281509.44
283032.43
283822.32
283847.52
283099.14
281558.86
279178.27
275946.95
271881.18
266989.34
261288.64
254805.39
247575.14
239642.63
231061.54
221894.08
212210.45
202089.5
91254.133
98280.436
105516.42
112950.35
120570.23
128216.06
136006.01
144072.39
152269.85
160427.47
168739.19
177200.15
185720.33
194279.48
202856.33
211428.15
219970.35
228456.42
236857.77
245143.74
253281.51
261236.04
268970.13
276444.41
283617.43
290445.8
296884.4
302886.6
308404.63
313389.91
317793.57
321566.9
324585.69
326923.43
328521.84
329311
329254.02
328341.13
326547.43
323819.09
320132.34
315507.47
309950.27
303476.28
296111.22
287891.26
278863.15
269083.97
258620.81
247550.32
117894.49
126070.61
134430.97
142962.58
151486.67
160148
169068.32
178107.89
187080.92
196210.09
205472.37
214787.54
224136.78
233500.41
242857.59
252185.96
261461.29
270657.33
279745.59
288695.26
297473.08
306043.33
314367.71
322405.44
330113.23
337445.48
344354.38
350790.2
356701.59
362036
366740.1
370760.39
373960.93
376426
378079.43
378848.41
378690.36
377593.53
375526.11
372430.13
368263.07
363050.72
356795.32
349509.81
341218.39
331957.07
321773.79
310728.47
298892.98
286352.85
150544.42
159865.35
169331.56
178743.03
188287.46
198046.78
207905.29
217661.14
227581.92
237597.85
247653.34
257732.39
267818.07
277892.32
287935.7
297927.06
307843.24
317658.84
327345.99
336874.21
346210.25
355317.99
364158.41
372689.52
380866.42
388641.41
395964.08
402781.62
409039.07
414679.76
419645.77
423878.6
427230.95
429796.72
431480.88
432207.63
431929.46
430628.61
428268.16
424787.97
420120.02
414297.48
407317.96
399190.75
389937.61
379593.35
368206.3
355838.38
342565.57
328481.4
189981.21
200377.3
210663.54
221092.54
231612.35
242243.35
252719.85
263372.61
274063.56
284772.34
295487.39
306196
316884.14
327536.33
338135.38
348662.08
359094.97
369410.02
379580.44
389576.44
399365.1
408910.22
418172.23
427108.14
435671.54
443812.68
451478.63
458613.41
465158.39
471052.61
476233.36
480636.87
484105.3
486740.4
488427.78
489087.57
488673.34
487144.67
484472.81
480595.68
475411.16
468961.79
461239.5
452248.91
442008.27
430550.24
417922.46
404187.92
389425.77
373737.45
236937.25
248036.42
259305.03
270609.29
281727.36
292903.59
304180.52
315431.71
326668.68
337887.14
349080.43
360240.04
371355.69
382415.18
393404.23
404306.15
415101.61
425768.35
436280.94
446610.55
456724.78
466587.48
476158.64
485394.34
494246.7
502663.94
510590.49
517967.19
524731.55
530818.12
536158.98
540684.59
544228.43
546897.57
548558.36
549127.46
548555.97
546779.21
543775.17
539493
533782.2
526695.66
518219.28
508352.16
497108.01
484516.28
470622.87
455490.78
439200.76
291838.61
303772.8
315692.99
327331.07
339029.66
350714.41
362358.17
373950.19
385493.09
396987.38
408431.36
419821.16
431150.71
442411.59
453592.76
464680.37
475657.46
486503.71
497195.16
507704.01
517998.41
528042.24
537795.06
547211.92
556243.41
564835.61
572930.23
580464.77
587372.77
593584.05
599024.62
603616.9
607191.89
609856.94
611459.3
611912.33
611164.96
609133.05
605753.22
601068.33
594830.12
587101.56
577866.73
567118.15
554863.97
541129.36
525957.61
509411.64
491580.34
355726.29
367848.05
379904.5
391931.36
403819.17
415614.42
427325.69
438956.94
450514.62
462004.15
473428.93
484789.91
496085.36
507310.7
518458.24
529516.98
540472.29
551305.7
561994.62
572512.13
582826.76
592902.29
602697.61
612166.6
621258.08
629915.85
638078.69
645680.65
652651.28
658915.86
664393.69
668985.64
672547.36
675169.19
676680.14
676990.45
676044.98
673733.34
669990.33
664880.91
658115.3
649745.44
639754.35
628127.08
614865.22
599988.65
583536.94
565571.65
546187.81
428470.04
440645.86
452617.84
464432.72
476090.8
487618.63
499035.16
510354.88
521590.85
532754.18
543853.39
554894.1
565878.71
576806.25
587672.09
598467.73
609180.55
619793.58
630285.24
640629.15
650793.84
660742.62
670433.4
679818.56
688844.86
697453.47
705580.03
713154.95
720103.93
726349.47
731814.47
736302.54
739821.41
742361.4
743748.33
743888.15
742721.39
740115.52
736007.62
730467.65
723176.73
714170.45
703430.91
690934.6
676675.52
660667.11
642943.94
623564.8
602629.59
510772.26
522338.12
533673.93
544812.24
555778.09
566601.18
577308.03
587921.3
598462.16
608944.25
619382.31
629785.98
640161.21
650509.95
660829.99
671114.67
681352.73
691528.09
701619.56
711600.69
721439.49
731098.28
740533.48
749695.5
758528.62
766971
774954.76
782406.2
789246.47
795392.59
800758.8
805122.36
808540.48
810950.26
812177.06
812123.81
810708.97
807800.85
803324.02
797352.88
789542.62
779908.97
768433.9
755084.37
739845.84
722724.18
703747.7
682969.99
602489.21
612857.4
622983.54
632907.21
642667.29
652300.92
661841.56
671318.43
680756.74
690177.64
699598.06
709030.6
718483.61
727960.97
737464.17
746982.8
756508.27
766024.48
775509.8
784936.92
794272.59
803477.45
812505.81
821305.53
829817.87
837977.49
845712.48
852944.58
859589.57
865557.92
870754.87
874949.27
878216.22
880451.34
881484.1
881213.55
879530.89
876311.3
871462.4
865062.49
856742.34
846494.24
834301.06
820119.54
803925.74
785717.28
765516.54
743383.65
703502.92
712000.81
720284.12
728400.52
736398.44
744321.82
752209.61
760095.68
768008.96
775973.44
784008.14
792126.76
800338.57
808647.96
817054.11
825550.69
834126.03
842765.96
851441.2
860125.65
868783.92
877374.13
885847.75
894149.4
902216.71
909980.27
917363.62
924283.37
930649.45
936365.41
941328.35
945304.34
948372.09
950392.59
951198.96
950686.97
948720.56
945181.19
939958.74
933134.76
924317.07
913470.7
900580.67
885592.89
868473.35
849210.58
827819.42
804362.38
813493.62
819390.55
825151.59
830829.77
836479.41
842148.64
847879.33
853707.35
859662.82
865770.29
872048.78
878510.41
885163.6
892011.54
899051.77
906275.73
913669.44
921213.2
928881.1
936644.92
944458.37
952279.98
960057.54
967731.67
975235.71
982495.56
989429.66
995949
1001957.2
1007350.8
1012019.4
1015728.8
1018552.3
1020323.5
1020870.9
1020093.1
1017832.4
1013966.4
1008370.6
1001129.1
991828.54
980402.76
966840.23
951075.51
933063.95
912784.3
890242.96
865500.89
931954.76
934481.65
937011.74
939599.05
942299.42
945161.3
948225.89
951527.62
955094.53
958948.76
963107.66
967577.15
972363.34
977466.32
982880.17
988591.76
994583.32
1000831.3
1007305.6
1013969.9
1020781.3
1027694.9
1034644.4
1041570.4
1048401.2
1055057.4
1061451.8
1067489.2
1073066.8
1078073.7
1082392.1
1085789.8
1088326.8
1089810.3
1090080.3
1089013.3
1086448.9
1082251.1
1076283.6
1068632.9
1058866
1046881.8
1032673.5
1016163.9
997297.41
976042.23
952395.62
926414.79
1058208.8
1056577.8
1055157.3
1053996.4
1053147
1052653.1
1052550.6
1052868.3
1053628.3
1054846.3
1056538.9
1058696.1
1061322.7
1064413.3
1067956.8
1071932
1076316.3
1081081
1086189.8
1091600.9
1097266.4
1103130.8
1109137.5
1115205.6
1121263.2
1127225.1
1132997.9
1138479.8
1143561.1
1148123.3
1152041
1155086.7
1157302.5
1158459.4
1158434.5
1157062
1154185
1149652.6
1143317
1135266.7
1125051.4
1112531.2
1097705.6
1080485.5
1060803.5
1038617
1013913.6
986745.34
1191427.9
1184852
1178769.2
1173214.8
1168230.8
1163850.5
1160100
1156997.6
1154554.5
1152772.8
1151680.6
1151224.6
1151421.1
1152252.7
1153704.1
1155738.3
1158329.1
1161441.5
1165030.1
1169047
1173437.8
1178140.4
1183086.1
1188198.9
1193401.5
1198588.9
1203667.8
1208529.5
1213057
1217123.8
1220594.8
1223252.6
1225105.8
1225924.3
1225579.5
1223890.5
1220693.3
1215825.1
1209126.4
1200687.5
1190042.7
1177010.2
1161597.1
1143701.9
1123245.6
1100174.2
1074464.8
1046164.1
1330658.5
1318370.6
1306940.5
1296375.1
1286701
1277934.5
1270085.9
1263158.3
1257148.3
1252047.2
1247848.5
1244519.8
1242045
1240395.8
1239561.5
1239471
1240104
1241416.7
1243349.2
1245849
1248853.6
1252292.6
1256090.5
1260164.1
1264422.5
1268774.2
1273097.2
1277283.4
1281208.4
1284738
1287719.3
1289964.7
1291415.8
1291884.4
1291202
1289187.1
1285665.1
1280462
1273406.6
1264590.9
1253536.4
1240016
1224045.7
1205511.9
1184323.3
1160414.7
1133752
1104375.7
1474848.7
1456117.7
1438702.2
1422549.4
1407672.4
1394060.6
1381704.2
1370585.3
1360680.1
1351961.9
1344401.4
1337960.2
1332602.3
1328288.2
1324978.9
1322616.2
1321151.4
1320542.7
1320702
1321581.5
1323106.5
1325196.6
1327769.9
1330734.2
1333991.8
1337435.8
1340960
1344424.8
1347707.7
1350672.2
1353111.7
1354923.3
1355963.1
1356061.5
1355028.9
1352680.6
1348831.4
1343296
1335891.8
1326712
1315267.9
1301284.3
1284787.6
1265651.8
1243773.6
1219075.9
1191513.4
1161120
1622874.3
1597016.5
1573052.4
1550784.5
1530245.8
1511379
1494153.1
1478522.5
1464437
1451847.3
1440702.2
1430946.7
1422526.2
1415384.5
1409463.6
1404698.6
1401025.5
1398379.4
1396680.7
1395857.5
1395828.2
1396500
1397788.4
1399586.8
1401793.6
1404292.4
1406969.7
1409676.3
1412282.6
1414643.4
1416543.6
1417884.8
1418505.5
1418216.4
1416825.3
1414139.5
1409963.1
1404099.8
1396355.6
1386824.9
1375011.5
1360589.5
1343597.2
1323896.1
1301370.8
1275932.1
1247523.5
1216171.9
1773562.2
1739942.1
1708992.5
1680120
1653529.6
1629052.5
1606649.7
1586237.9
1567733.5
1551062
1536148
1522915.4
1511288.2
1501190.9
1492547.4
1485279
1479306.5
1474548.6
1470918.2
1468328.5
1466685.7
1465893.4
1465852
1466439.4
1467559
1469079.4
1470869.2
1472800.5
1474705
1476438.7
1477789.9
1478650.5
1478835.7
1478149.7
1476395.3
1473370.5
1468869.3
1462684.2
1454609.8
1444741.8
1432579.2
1417743.5
1400286
1380055.8
1356925.5
1330793.8
1301592.5
1269341.3
2070066.2
2018748
1970703.1
1925718.2
1883717
1845587.3
1809594.6
1776663.2
1746270.5
1718443.8
1693036.5
1669922.5
1649003.6
1630177.7
1613343.9
1598401.9
1585254.5
1573806.5
1563962.3
1555626.5
1548702.2
1543090.3
1538690
1535396.7
1533103.4
1531697
1531054.6
1531060.6
1531579.1
1532470.5
1533588.2
1534786.2
1535880.1
1536678.2
1537045.6
1536786.1
1535699.1
1533579.9
1530217.5
1525395.9
1518896.7
1510503
1500310.8
1487818.7
1472594.2
1454701.4
1433977.6
1410283.6
1383505.9
1353564.3
1320471.9
2253616.8
2190963.9
2132623.9
2078297
2027853.2
1981424.5
1938079.4
1898849.6
1862257.8
1828830.5
1798271.9
1770404
1745116.5
1722277.2
1701757.1
1683428.2
1667168.8
1652863.6
1640398.6
1629660.9
1620537.7
1612915.6
1606680.4
1601715.3
1597901.6
1595115.5
1593227.2
1592106.9
1591612.1
1591594.6
1591899.4
1592373.8
1592823.7
1593066.6
1592933.9
1592226
1590737.3
1588255
1584558.8
1579423.3
1572619.4
1563917.9
1553413.9
1540611.4
1525022.8
1506723.9
1485541.3
1461323.9
1433946.1
1403315.1
1369439.3
2437744.1
2363295.9
2294225.6
2230142.2
2170809.7
2116074.1
2065432
2019019.5
1975975.5
1937161.3
1901356.8
1868631.4
1838897
1811983.4
1787730.4
1765977.6
1746575.9
1729389.3
1714284.3
1701129.8
1689796.4
1680155.5
1672078.7
1665436.9
1660099.1
1655930.8
1652793.3
1650545
1649035.4
1648107.7
1647598.5
1647335.8
1647158
1646847.1
1646212.4
1645057.3
1643169.8
1640328.5
1636304.7
1630863.8
1623766.4
1614770.1
1603963.9
1590869.2
1574942.4
1556265.4
1534657.1
1509955.7
1482022.7
1450750.7
1416148
2621031.3
2534448
2454332.1
2380194.1
2311700.4
2248554.2
2190333.8
2136838.8
2087551.3
2042421.5
2001626.4
1964113.1
1929896.7
1898887
1870891.9
1845712.3
1823167.2
1803101.7
1785362.1
1769798.3
1756263.3
1744613
1734704.7
1726396
1719544.1
1714003.2
1709625
1706257
1703740.3
1701909.4
1700592.3
1699609.8
1698804.3
1697942.9
1696809.1
1695211.9
1692931.5
1689738.1
1685394.9
1679658.8
1672280.9
1663005.4
1651900.6
1638533
1622293.6
1603265.6
1581263.2
1556115.9
1527672.6
1495805.6
1460530.2
2802066.1
2703220.3
2611860.5
2527478.2
2449666.5
2378036.9
2312129.2
2251579
2195947
2145017.2
2098621.1
2055988.6
2017723.4
1982634.4
1950922.4
1922346
1896683.3
1873766.3
1853419.9
1835474.3
1819765
1806131.4
1794416.5
1784464.6
1776120.6
1769227.9
1763627.7
1759157.5
1755649.5
1752929.8
1750817.8
1749123.8
1747700.3
1746304.4
1744679.4
1742649
1739984.4
1736448
1731795.3
1725775.4
1718132.1
1708600.2
1697185.6
1683569.4
1667042.9
1647689.8
1625322.6
1599766.3
1570862.5
1538449.7
1502554.2
2978696
2867850.3
2765832.5
2671110.6
2583916.7
2503798.4
2430199.4
2362639.1
2300658.6
2243925.2
2192124.9
2144734.2
2101614.1
2062901.8
2027553.9
1995643.7
1966912.6
1941193.6
1918288.7
1898007.5
1880167.3
1864591.6
1851108.5
1839549.1
1829746.2
1821532.1
1814737.7
1809190.7
1804714.6
1801127.1
1798239.2
1795853.4
1793838.7
1791907
1789804.2
1787352.3
1784314.6
1780446.2
1775495.2
1769203.7
1761311
1751564.4
1739792.5
1725969.1
1709180.7
1689526.4
1666820.6
1640891.1
3152190.3
3027405.7
2914307.7
2810301.9
2713739.4
2625207.9
2543994.7
2469515.2
2401255.8
2338794.4
2281734.5
2229618.9
2182165.1
2139078.7
2100520.7
2065420.9
2033688
2005237.1
1979840.4
1957286.1
1937373.2
1919909.4
1904708.3
1891587.8
1880368.7
1870872.3
1862919.3
1856328
1850913.1
1846484.3
1842844.9
1839790.3
1837203.7
1834734.3
1832186.3
1829327.1
1825929.5
1821741.7
1816504.6
1809953.7
1801822
1791849.1
1779797.9
1765752.3
1748719.2
1728784.3
1705763.2
3320131.5
3182845.4
3057122.5
2943329.8
2838502.4
2741725.9
2653046.4
2571789.7
2497378.4
2429316.8
2367146
2310406
2258730.5
2211788.2
2169290.1
2131525.1
2096882.7
2065790.6
2037985.1
2013234.3
1991319.7
1972033.1
1955174.2
1940548
1927963.5
1917231.2
1908161.9
1900564.7
1894245.7
1889006.8
1884644.6
1880948.3
1877812.1
1874838.4
1871847.8
1868597.6
1864855
1860361.7
1854851.8
1848054
1839694.3
1829501.6
1817210.9
1802949.8
1785687.6
1765490.4
1742181.3
3481635.4
3332039
3195215.6
3070092.3
2956939.6
2852907
2756969.2
2669124.3
2588735.1
2515241.6
2448129.4
2386909.5
2331155.2
2280484.8
2234451.8
2193549.7
2156409.8
2122785.4
2092667.6
2065809.4
2041974.5
2020940
2002492
1986423.1
1972530.8
1960615.2
1950477.5
1941917.6
1934733.4
1928719.5
1923666.5
1919359.5
1915698.4
1912240.9
1908827.6
1905204.4
1901133.2
1896349.2
1890580.4
1883548.9
1874973.4
1864573.1
1852068.5
1837605.1
1820129.3
1799687.1
1776113.8
3635951.4
3474349.2
3326719.3
3191806.4
3068507.5
2958080.8
2855459.9
2761256.6
2675101
2596377.1
2524517
2458992.8
2399330.4
2345110.3
2295933.7
2251610.6
2212008.9
2176187.9
2143864.8
2114998.6
2089333.5
2066633.6
2046672.1
2029229.5
2014092.6
2001051.2
1989897.2
1980421.8
1972415
1965664
1959954.6
1955072.4
1950912.1
1946993.2
1943178.6
1939201.7
1934819.3
1929760.6
1923747.6
1916496
1907717.8
1897123.6
1884424.7
1869774
1852101.1
1831433.8
1807618
3782459.9
3609255.9
3451203.1
3306857.4
3174629.3
3056438.2
2948243.9
2847994.2
2756314.1
2672588.6
2596196.1
2526565.8
2463181.2
2405584
2353358.3
2306176.5
2263609.3
2225936.7
2191581.2
2160815.8
2133417.2
2109140.4
2087746.2
2069004
2052689.8
2038584.1
2026469.4
2016128.9
2007344.5
1999896.4
1993565.7
1988150.1
1983515.1
1979158.9
1974946.5
1970655.5
1965980.1
1960663.3
1954421.1
1946963.6
1937996.2
1927222.3
1914345.9
1899523.2
1881669.7
1860798
1836760.6
3920667.9
3736351.8
3568340.3
3415061.7
3275061.7
3148005.9
3034806.8
2929221.5
2832270.3
2743794.3
2663104.3
2589583.6
2522675.7
2461883.2
2406755.8
2356888.9
2311761.8
2271856.6
2235859.1
2203299.5
2174268.1
2148507.1
2125765.1
2105800.7
2088379.9
2073273.8
2060256.7
2049103.6
2039589
2031485
2024566.3
2018669.5
2013579.2
2008811.4
2004243.5
1999641.1
1994691.7
1989133.6
1982677.7
1975028.5
1965885.6
1954946
1941907.5
1926927.6
1908910
1887853.5
1863614.8
4050204.8
3855335.3
3677886.4
3516161.5
3368616.9
3233969.8
3114838.8
3004834.2
2902914.9
2809961.2
2725223.8
2648042.3
2577821.3
2514025.9
2456170.7
2403811.7
2356493.6
2314060.9
2276663.5
2242507.3
2211947.3
2184797.4
2160795.2
2139688.5
2121233.7
2105193.5
2091333.9
2079422.4
2069226.1
2060509.2
2053027.8
2046722.5
2041182.1
2036032.3
2031133.7
2026241.6
2021037.3
2015255.2
2008601.2
2000774.6
1991469.8
1980378.2
1967192
1952069.4
1933903.3
1912680.4
1888259.5
5552987.2
5219567.2
4917811.4
4644339.6
4396177.1
4170826.6
3966011.2
3779687.6
3610033.2
3455392.1
3314103.1
3188485.6
3074642.6
2968243.3
2871100.2
2782577.2
2701974.1
2628658.8
2562061.1
2501663
2446989.9
2397580.4
2353018.5
2313956
2278523.2
2246531.7
2218089.8
2192916.4
2170748.6
2151333.9
2134426.7
2119785.5
2107170.7
2096342.6
2087058.3
2079067.7
2072360.6
2066411.6
2060910.1
2055705.8
2050545.7
2045106
2039117.1
2032280.5
2024290.9
2014837.8
2003607.4
1990287.2
1975035.4
1956735.7
1935363.5
1910778.7
5732293.6
5381729.6
5064888.2
4778099.5
4518178.3
4282385.3
4068277.5
3873673.9
3696634.1
3535425.5
3388555.5
3255962.8
3138279
3028319
2927261.6
2835222
2751443.4
2675258.1
2606063.9
2543312.5
2486502.8
2435155.7
2388760.3
2347888.1
2311383.2
2278109.5
2248474.6
2222219.7
2199072.6
2178772.2
2161065.6
2145704
2132441.3
2121031.4
2111225.9
2102771.2
2095683.9
2089360.9
2083538.7
2078053.1
2072646.9
2066991.1
2060812.6
2053808.8
2045670.2
2036081.9
2024725.7
2011284.4
1995916.4
1977497.2
1955991.5
1931260
5897763.4
5531227.3
5200341.8
4901169.9
4630317.9
4384835.5
4162117.5
3959850
3775982
3608700.1
3456453.5
3318131.8
3196048.2
3083167.7
2978525.3
2883246.3
2796541.6
2717713.8
2646131
2581217.6
2522448.8
2469334.6
2421419.8
2378633.1
2341064.1
2306787.6
2276052.4
2248804.8
2224759.8
2203647.9
2185209.1
2169188.1
2155332.5
2143390.7
2133109.3
2124232.2
2116792.7
2110128.4
2104014.4
2098272.2
2092619.9
2086788.8
2080437.6
2073281.7
2065007.9
2055297.2
2043827.5
2030277.6
2014805.7
1996280.1
1974655.8
1949793.6
6049236.2
5667953.9
5324113.5
5013531.7
4732612.8
4478218.4
4247589.8
4038287.6
3848156.7
3675300.4
3518078
3374961.8
3248101.4
3132846.7
3025004.7
2926764.5
2837383.3
2756140.6
2682377.2
2615492.4
2554939.6
2500215.4
2450859.9
2406518.9
2367735.2
2332666.8
2300929.9
2272778.3
2247915.9
2226065.7
2206961.2
2190340.9
2175946.8
2163522.1
2152809.2
2143549.6
2135788.2
2128814.3
2122436.4
2116461.7
2110605.8
2104596.9
2098089.6
2090796.5
2082400.8
2072580.2
2061008.8
2047362
2031797.8
2013178.1
1991449.1
1966471.2
6186708.7
5791942
5436265.7
5115269.2
4825166.9
4562650.6
4324819.4
4109117.1
3913291.2
3735364.8
3573632.6
3426689
3294534
3177388.4
3066852
2965913.6
2874102.4
2790670.4
2714932.6
2646264.5
2584099.4
2527919.5
2477249.9
2431627.4
2391541.4
2355832.5
2323219.9
2294251.8
2268650.9
2246134.2
2226429.1
2209268.5
2194389.1
2181529.7
2170428.6
2160824.9
2152772.6
2145520.1
2138904.9
2132721.5
2126682.6
2120514.1
2113866.9
2106450.9
2097946.3
2088027.7
2076366
2062633.3
2046987.7
2028285.7
2006465
1981385.4
6310311.9
5903341.3
5536961.4
5206554.3
4908158.6
4638313.3
4393988.1
4172519
3971563.4
3789067.7
3623259
3472669.9
3336362.7
3216937.3
3104227.4
3000846.4
2906847.6
2821448.6
2743938.8
2673671.8
2610062.4
2552578.4
2500735.5
2454107.2
2412629.7
2376341
2343044
2313341
2287077.8
2263964.6
2243722.4
2226078.9
2210766.1
2197518.5
2186071.1
2176160.9
2167848.3
2160347.1
2153520.5
2147151.2
2140949.6
2134639.2
2127867.6
2120342.5
2111741.5
2101736.3
2089995
2076187
2060470.3
2041696.7
2019796.4
1994628.6
6420292.7
6002401.3
5626449.8
5287632.9
4981830.1
4705443.5
4455325.9
4228716.1
4023188.5
3836617.6
3667160.7
3513250.1
3373527.1
3251795.6
3137290.9
3031728
2935779.6
2848630.9
2769546.7
2697860.6
2632969.9
2574328.9
2521443.3
2473876.1
2431311.4
2394348.6
2360525.9
2330162.8
2303311.5
2279669.6
2258951.9
2240881
2225184.8
2211594
2199840.5
2189660.1
2181117.4
2173396.4
2166383.3
2159850.1
2153505
2147069.7
2140188.8
2132568
2123882.4
2113801.5
2101990.8
2088117.4
2072339.2
2053504.2
2031535.8
2006292.2
6516997
6089455.9
5705052.1
5358813.2
5046476.9
4764323.5
4509102.5
4277965.3
4068411.8
3878250.2
3705571.1
3548712.4
3406115.4
3282209.5
3166223.4
3058733.7
2961068
2872380.8
2791914
2718982.5
2652968.2
2593312.7
2539510.9
2491106.5
2447663
2410004.4
2375779.1
2344834
2317466.7
2293361.9
2272228
2253783.3
2237751.8
2223860.9
2211840
2201424.9
2192680.6
2184767.7
2177591.8
2170915.8
2164445.8
2157901.9
2150926
2143222.2
2134463.4
2124317.1
2112446.7
2098517.2
2082686.6
2063799.4
2041773.7
2016466.3
6600853.1
6164909.2
5773149.2
5420454.3
5102437.5
4815272.8
4555619.1
4320551
4107502.4
3914221.6
3738740.2
3579318.8
3434292.1
3308405.4
3191214.3
3082046.1
2982888.4
2892866.9
2811202.4
2737192.9
2670206.5
2609673.6
2555079.1
2505951.2
2461797.5
2423440
2388917.1
2357470.8
2329658.2
2305153.5
2283660.3
2264893.1
2248572.4
2234422.4
2222170.4
2211555.8
2202637.2
2194558.8
2187242.7
2180443.9
2173866.8
2167229.8
2160172.7
2152397.8
2143576.7
2133374.8