/*--------------------------------*- C++ -*----------------------------------*\
| =========                 |                                                 |
| \\      /  F ield         | OpenFOAM: The Open Source CFD Toolbox           |
|  \\    /   O peration     | Version:  2312                                  |
|   \\  /    A nd           | Website:  www.openfoam.com                      |
|    \\/     M anipulation  |                                                 |
\*---------------------------------------------------------------------------*/
FoamFile
{
    version     2.0;
    format      ascii;
    arch        "LSB;label=32;scalar=64";
    class       volVectorField;
    location    "0.05";
    object      U;
}
// * * * * * * * * * * * * * * * * * * * * * * * * * * * * * * * * * * * * * //

dimensions      [0 1 -1 0 0 0 0];

internalField   nonuniform List<vector> 
3272
(
(1.0450819 -0.78936368 0)
(1.0462709 -0.81264882 0)
(1.04718 -0.83565929 0)
(1.0477868 -0.85835916 0)
(1.0480708 -0.88071309 0)
(1.0480132 -0.90268644 0)
(1.0475963 -0.92424551 0)
(1.0468041 -0.94535761 0)
(1.0456222 -0.96599109 0)
(1.0440379 -0.98611537 0)
(1.04204 -1.005701 0)
(1.0396195 -1.0247197 0)
(1.0367699 -1.0431438 0)
(1.0334855 -1.0609446 0)
(1.0297507 -1.0780943 0)
(1.0255541 -1.0945767 0)
(1.0209023 -1.110377 0)
(1.0158103 -1.125475 0)
(1.0102755 -1.1398406 0)
(1.0042902 -1.1534605 0)
(0.99786661 -1.1663209 0)
(0.99101294 -1.1784019 0)
(0.98373059 -1.1896878 0)
(0.97602365 -1.2001678 0)
(0.96790041 -1.2098326 0)
(0.95937078 -1.2186742 0)
(0.95044566 -1.2266858 0)
(0.94113681 -1.2338623 0)
(0.93145689 -1.2402001 0)
(0.9214195 -1.2456973 0)
(0.91103915 -1.2503534 0)
(0.90033089 -1.2541693 0)
(0.88930835 -1.2571476 0)
(0.87798591 -1.259295 0)
(0.86638124 -1.2606199 0)
(0.85451409 -1.2611311 0)
(0.84240237 -1.2608368 0)
(0.83006212 -1.2597486 0)
(0.81751156 -1.2578803 0)
(0.80476985 -1.2552465 0)
(0.79185494 -1.2518627 0)
(0.77878466 -1.2477469 0)
(0.76557728 -1.2429179 0)
(0.75225096 -1.2373964 0)
(0.73882393 -1.2312042 0)
(0.7253141 -1.2243641 0)
(0.71173905 -1.2168999 0)
(0.69811612 -1.2088368 0)
(0.68446216 -1.2002005 0)
(0.67079371 -1.1910178 0)
(0.65712657 -1.1813162 0)
(0.64347608 -1.1711241 0)
(0.629858 -1.1604706 0)
(1.0555943 -0.75177248 0)
(1.0569274 -0.77451847 0)
(1.0579661 -0.79695318 0)
(1.0586876 -0.81904242 0)
(1.059072 -0.84075302 0)
(1.0591005 -0.86205278 0)
(1.0587556 -0.88291049 0)
(1.0580217 -0.90329596 0)
(1.0568846 -0.92318005 0)
(1.0553318 -0.94253475 0)
(1.0533519 -0.96133319 0)
(1.0509359 -0.97955017 0)
(1.0480776 -0.99716245 0)
(1.0447736 -1.0141497 0)
(1.0410106 -1.0304911 0)
(1.0367774 -1.046157 0)
(1.0320791 -1.0611294 0)
(1.0269308 -1.0753926 0)
(1.0213301 -1.0889317 0)
(1.0152699 -1.1017298 0)
(1.008764 -1.1137733 0)
(1.0018205 -1.1250473 0)
(0.9944397 -1.1355404 0)
(0.98662636 -1.1452432 0)
(0.97838965 -1.1541479 0)
(0.96974023 -1.1622479 0)
(0.96068954 -1.1695382 0)
(0.95124976 -1.1760151 0)
(0.9414339 -1.1816766 0)
(0.93125591 -1.1865224 0)
(0.92073068 -1.1905535 0)
(0.90987361 -1.1937727 0)
(0.89869827 -1.1961845 0)
(0.887219 -1.1977955 0)
(0.87545403 -1.1986142 0)
(0.86342384 -1.1986498 0)
(0.85114661 -1.1979129 0)
(0.83863826 -1.1964158 0)
(0.82591723 -1.1941725 0)
(0.81300313 -1.1911983 0)
(0.79991406 -1.1875097 0)
(0.78666796 -1.1831251 0)
(0.77328344 -1.1780638 0)
(0.75977889 -1.1723466 0)
(0.74617277 -1.1659952 0)
(0.73248318 -1.1590328 0)
(0.71872793 -1.1514831 0)
(0.70492449 -1.1433712 0)
(0.69109002 -1.1347228 0)
(0.67724116 -1.1255644 0)
(0.66339399 -1.1159232 0)
(0.64956378 -1.1058268 0)
(0.63576614 -1.0953035 0)
(1.0752146 -0.728851 0)
(1.0767612 -0.75124895 0)
(1.0779882 -0.77330807 0)
(1.0788734 -0.79499575 0)
(1.079397 -0.81628045 0)
(1.0795408 -0.83713166 0)
(1.0792883 -0.85751992 0)
(1.0786242 -0.87741671 0)
(1.0775351 -0.89679455 0)
(1.076009 -0.91562687 0)
(1.0740347 -0.93388834 0)
(1.0716016 -0.9515546 0)
(1.0687003 -0.9686064 0)
(1.0653276 -0.98504001 0)
(1.0614931 -1.0008494 0)
(1.0571883 -1.0159541 0)
(1.0523987 -1.0303462 0)
(1.0471351 -1.0440234 0)
(1.0414014 -1.0569808 0)
(1.0351959 -1.069202 0)
(1.0285322 -1.0806751 0)
(1.0214195 -1.091386 0)
(1.0138572 -1.1013247 0)
(1.0058513 -1.1104826 0)
(0.997412 -1.1188526 0)
(0.98855057 -1.1264291 0)
(0.97927912 -1.1332083 0)
(0.96961043 -1.1391877 0)
(0.95955806 -1.1443665 0)
(0.94913644 -1.1487452 0)
(0.93836095 -1.1523262 0)
(0.92724738 -1.1551132 0)
(0.91580951 -1.1571118 0)
(0.90406206 -1.1583291 0)
(0.89202398 -1.1587739 0)
(0.87971628 -1.1584559 0)
(0.86715742 -1.1573866 0)
(0.85436363 -1.1555788 0)
(0.84135371 -1.1530471 0)
(0.82814763 -1.1498071 0)
(0.81476371 -1.1458759 0)
(0.80122022 -1.1412719 0)
(0.78753615 -1.136015 0)
(0.77373029 -1.130126 0)
(0.75982134 -1.1236269 0)
(0.7458277 -1.1165407 0)
(0.73176742 -1.1088914 0)
(0.71765829 -1.1007039 0)
(0.70351768 -1.0920039 0)
(0.68936255 -1.0828178 0)
(0.67520923 -1.0731725 0)
(0.66107333 -1.0630954 0)
(0.64697058 -1.0526144 0)
(1.1030097 -0.70852576 0)
(1.1048112 -0.73058201 0)
(1.106259 -0.75227088 0)
(1.1073314 -0.77356158 0)
(1.1080094 -0.79442441 0)
(1.1082759 -0.81483078 0)
(1.1081153 -0.83475308 0)
(1.1075137 -0.85416462 0)
(1.106459 -0.87303949 0)
(1.1049405 -0.89135245 0)
(1.102949 -0.90907819 0)
(1.1004708 -0.92618991 0)
(1.0974716 -0.9426712 0)
(1.0939323 -0.95854796 0)
(1.0899746 -0.97386213 0)
(1.0855966 -0.9884026 0)
(1.0806775 -1.0022049 0)
(1.0752326 -1.0152953 0)
(1.0692903 -1.0276729 0)
(1.0628604 -1.0393226 0)
(1.0559582 -1.050229 0)
(1.0485951 -1.0603807 0)
(1.040769 -1.0697686 0)
(1.0324867 -1.0783849 0)
(1.023759 -1.0862232 0)
(1.0145978 -1.0932793 0)
(1.0050156 -1.0995504 0)
(0.99502603 -1.105035 0)
(0.98464318 -1.1097336 0)
(0.97388218 -1.1136478 0)
(0.962759 -1.1167809 0)
(0.95128998 -1.1191375 0)
(0.93948929 -1.1207241 0)
(0.92737224 -1.1215484 0)
(0.91495869 -1.1216198 0)
(0.90227011 -1.1209484 0)
(0.88932518 -1.1195464 0)
(0.87614068 -1.1174272 0)
(0.86273596 -1.1146058 0)
(0.84913115 -1.1110979 0)
(0.83534509 -1.1069214 0)
(0.82139645 -1.1020943 0)
(0.80730446 -1.0966372 0)
(0.79308844 -1.0905708 0)
(0.77876745 -1.0839175 0)
(0.76436019 -1.0767001 0)
(0.7498851 -1.0689427 0)
(0.73536023 -1.0606702 0)
(0.72080334 -1.051908 0)
(0.70623168 -1.0426825 0)
(0.69166192 -1.0330203 0)
(0.67711001 -1.0229486 0)
(0.66259188 -1.0124951 0)
(1.1381204 -0.69077601 0)
(1.1401952 -0.71248331 0)
(1.1418741 -0.73379424 0)
(1.1431366 -0.75468004 0)
(1.1439647 -0.77511313 0)
(1.1443427 -0.79506707 0)
(1.1442565 -0.81451651 0)
(1.1436941 -0.83343721 0)
(1.1426457 -0.85180594 0)
(1.1411044 -0.86960061 0)
(1.1390677 -0.88680003 0)
(1.1365171 -0.90338408 0)
(1.1333638 -0.91933293 0)
(1.1295165 -0.93462784 0)
(1.125377 -0.94925731 0)
(1.1209531 -0.9632066 0)
(1.1158497 -0.97645901 0)
(1.1101428 -0.98899881 0)
(1.1039119 -1.0008165 0)
(1.0971837 -1.0119049 0)
(1.0899709 -1.0222489 0)
(1.0822804 -1.0318428 0)
(1.0741122 -1.04068 0)
(1.0654743 -1.0487543 0)
(1.0563776 -1.0560609 0)
(1.0468345 -1.0625966 0)
(1.0368584 -1.0683598 0)
(1.0264634 -1.0733504 0)
(1.0156645 -1.0775695 0)
(1.0044775 -1.08102 0)
(0.99291905 -1.0837059 0)
(0.98100623 -1.0856328 0)
(0.96875369 -1.0868076 0)
(0.95617743 -1.087239 0)
(0.94329834 -1.0869367 0)
(0.93013826 -1.0859114 0)
(0.91671608 -1.0841758 0)
(0.90304917 -1.0817437 0)
(0.88915766 -1.0786304 0)
(0.87506181 -1.074852 0)
(0.86078126 -1.0704265 0)
(0.84633501 -1.0653723 0)
(0.83174207 -1.0597099 0)
(0.81702262 -1.0534604 0)
(0.80219612 -1.0466461 0)
(0.78728166 -1.0392898 0)
(0.772298 -1.0314157 0)
(0.75726362 -1.0230485 0)
(0.74219659 -1.0142134 0)
(0.72711455 -1.0049367 0)
(0.71203455 -0.99524489 0)
(0.69697284 -0.98516484 0)
(0.68194565 -0.97472383 0)
(1.179763 -0.67570039 0)
(1.1821077 -0.69704143 0)
(1.1840076 -0.71795731 0)
(1.1854436 -0.73842147 0)
(1.1863991 -0.75840859 0)
(1.1868598 -0.7778945 0)
(1.186813 -0.79685627 0)
(1.1862482 -0.81527215 0)
(1.1851564 -0.83312172 0)
(1.1835306 -0.85038587 0)
(1.1813653 -0.86704756 0)
(1.1786513 -0.88309294 0)
(1.1753557 -0.89850041 0)
(1.1714499 -0.91321006 0)
(1.1670705 -0.92715148 0)
(1.1622298 -0.94050726 0)
(1.1568003 -0.95320327 0)
(1.1507962 -0.96518769 0)
(1.1442427 -0.97644457 0)
(1.1371641 -0.98697056 0)
(1.1295788 -0.99675371 0)
(1.1214923 -1.0057915 0)
(1.11291 -1.0140798 0)
(1.1038421 -1.0216142 0)
(1.094301 -1.0283916 0)
(1.0842998 -1.03441 0)
(1.0738526 -1.0396691 0)
(1.0629747 -1.0441697 0)
(1.0516817 -1.0479139 0)
(1.0399904 -1.0509053 0)
(1.0279183 -1.0531489 0)
(1.015483 -1.0546509 0)
(1.0026998 -1.0554188 0)
(0.9895854 -1.055462 0)
(0.97616183 -1.0547905 0)
(0.96245129 -1.0534156 0)
(0.94847283 -1.0513502 0)
(0.93424448 -1.0486086 0)
(0.91978712 -1.0452062 0)
(0.9051214 -1.0411595 0)
(0.89026722 -1.0364864 0)
(0.87524397 -1.0312061 0)
(0.86007108 -1.0253387 0)
(0.84476917 -1.0189055 0)
(0.82935812 -1.0119286 0)
(0.81385739 -1.004431 0)
(0.79828617 -0.99643664 0)
(0.7826633 -0.98797007 0)
(0.76700722 -0.97905656 0)
(0.75133597 -0.96972195 0)
(0.73566693 -0.95999257 0)
(0.72001676 -0.94989508 0)
(0.70440196 -0.93945646 0)
(1.2272234 -0.66314029 0)
(1.2298148 -0.6840872 0)
(1.2319069 -0.70458081 0)
(1.2334823 -0.72459692 0)
(1.2345264 -0.74411256 0)
(1.2350266 -0.76310588 0)
(1.2349723 -0.7815562 0)
(1.2343548 -0.79944396 0)
(1.2331673 -0.81675065 0)
(1.2314048 -0.8334587 0)
(1.2290639 -0.8495509 0)
(1.2261403 -0.86501031 0)
(1.2226238 -0.87981834 0)
(1.2185063 -0.89394963 0)
(1.2138206 -0.90737363 0)
(1.2085856 -0.92014817 0)
(1.2027759 -0.93224102 0)
(1.1963865 -0.94363124 0)
(1.1894279 -0.95430782 0)
(1.1819248 -0.9642583 0)
(1.1738957 -0.97347477 0)
(1.165343 -0.98195441 0)
(1.156276 -0.98969372 0)
(1.1467074 -0.99668966 0)
(1.1366505 -1.0029403 0)
(1.1261197 -1.0084449 0)
(1.1151304 -1.0132041 0)
(1.1036984 -1.0172195 0)
(1.0918406 -1.0204943 0)
(1.0795745 -1.0230326 0)
(1.0669184 -1.0248402 0)
(1.0538907 -1.0259238 0)
(1.0405072 -1.0262916 0)
(1.0267855 -1.0259534 0)
(1.0127486 -1.0249196 0)
(0.99841915 -1.0232017 0)
(0.98381628 -1.0208131 0)
(0.96895876 -1.0177683 0)
(0.95386816 -1.0140828 0)
(0.93856541 -1.0097732 0)
(0.92307041 -1.0048575 0)
(0.90740315 -0.99935546 0)
(0.8915837 -0.99328695 0)
(0.87563296 -0.98667311 0)
(0.85957117 -0.97953602 0)
(0.8434182 -0.97189862 0)
(0.82719358 -0.9637846 0)
(0.81091654 -0.95521842 0)
(0.7946059 -0.9462251 0)
(0.77828 -0.93683027 0)
(0.76195665 -0.92705997 0)
(0.74565287 -0.91694065 0)
(0.72938551 -0.90649891 0)
(1.2798492 -0.65288707 0)
(1.2826458 -0.67340296 0)
(1.2848841 -0.69343867 0)
(1.2865488 -0.7129725 0)
(1.2876278 -0.73198388 0)
(1.2881108 -0.75045341 0)
(1.2879896 -0.76836273 0)
(1.2872579 -0.78569461 0)
(1.2859115 -0.80243285 0)
(1.2839488 -0.81856186 0)
(1.2813712 -0.83406554 0)
(1.2781787 -0.8489271 0)
(1.2743586 -0.86313381 0)
(1.2699088 -0.87667473 0)
(1.2648468 -0.88953575 0)
(1.2591922 -0.90171587 0)
(1.2529438 -0.91320925 0)
(1.246093 -0.92400581 0)
(1.238657 -0.93409756 0)
(1.2306603 -0.94346747 0)
(1.2221148 -0.95211379 0)
(1.2130261 -0.96003368 0)
(1.2034061 -0.9672242 0)
(1.1932689 -0.97368334 0)
(1.1826292 -0.97941024 0)
(1.1715026 -0.98440512 0)
(1.1599053 -0.98866939 0)
(1.1478544 -0.99220559 0)
(1.1353676 -0.99501748 0)
(1.1224633 -0.99711 0)
(1.1091606 -0.99848931 0)
(1.0954786 -0.99916282 0)
(1.0814338 -0.99913912 0)
(1.0670445 -0.99842826 0)
(1.0523347 -0.99704111 0)
(1.0373274 -0.99498931 0)
(1.0220418 -0.99228649 0)
(1.0064975 -0.98894727 0)
(0.99071665 -0.9849873 0)
(0.97472027 -0.9804232 0)
(0.95852818 -0.97527323 0)
(0.94216107 -0.96955696 0)
(0.92563968 -0.96329433 0)
(0.90898515 -0.95650631 0)
(0.89221802 -0.94921484 0)
(0.87535849 -0.94144267 0)
(0.85842646 -0.93321333 0)
(0.8414415 -0.92455099 0)
(0.82442275 -0.91548047 0)
(0.80738888 -0.90602706 0)
(0.79035802 -0.89621658 0)
(0.7733476 -0.88607517 0)
(0.75637495 -0.87562899 0)
(1.3370416 -0.6447169 0)
(1.3399846 -0.66475788 0)
(1.342307 -0.68429366 0)
(1.3439964 -0.70330513 0)
(1.3450433 -0.72177428 0)
(1.3454402 -0.73968412 0)
(1.3451815 -0.75701879 0)
(1.3442635 -0.77376359 0)
(1.3426851 -0.78990525 0)
(1.340449 -0.80543128 0)
(1.3375613 -0.82032701 0)
(1.3340206 -0.83457492 0)
(1.329816 -0.84817153 0)
(1.3249494 -0.86110446 0)
(1.3194445 -0.87336478 0)
(1.3133134 -0.88493839 0)
(1.3065537 -0.89582912 0)
(1.2991706 -0.90603073 0)
(1.2911888 -0.91552988 0)
(1.2826298 -0.92431684 0)
(1.2734995 -0.9323913 0)
(1.2638082 -0.93975107 0)
(1.25357 -0.94639404 0)
(1.2428003 -0.95231916 0)
(1.2315151 -0.95752643 0)
(1.2197311 -0.9620169 0)
(1.2074656 -0.9657927 0)
(1.1947368 -0.96885705 0)
(1.1815632 -0.97121432 0)
(1.1679641 -0.97287 0)
(1.1539593 -0.97383073 0)
(1.1395687 -0.97410433 0)
(1.1248093 -0.97369974 0)
(1.1097003 -0.97262725 0)
(1.0942666 -0.97089792 0)
(1.0785312 -0.96852358 0)
(1.0625137 -0.96551796 0)
(1.0462342 -0.96189575 0)
(1.0297154 -0.95767256 0)
(1.0129784 -0.95286521 0)
(0.99604284 -0.94749178 0)
(0.97893011 -0.94157181 0)
(0.9616616 -0.93512509 0)
(0.94425861 -0.92817243 0)
(0.92674195 -0.92073553 0)
(0.9091321 -0.91283693 0)
(0.89144929 -0.90449987 0)
(0.87371336 -0.89574826 0)
(0.85594376 -0.88660657 0)
(0.83815944 -0.87709979 0)
(0.82037871 -0.86725336 0)
(0.80261958 -0.85709329 0)
(0.78489976 -0.8466451 0)
(1.3982476 -0.63838887 0)
(1.4012627 -0.65790588 0)
(1.4035928 -0.67689514 0)
(1.4052289 -0.69534024 0)
(1.4061646 -0.7132257 0)
(1.4063956 -0.73053698 0)
(1.4059189 -0.74726046 0)
(1.4047331 -0.76338393 0)
(1.4028393 -0.7788979 0)
(1.4002461 -0.79379582 0)
(1.3969698 -0.80806669 0)
(1.3930025 -0.82168813 0)
(1.3883329 -0.83465533 0)
(1.3829733 -0.84696181 0)
(1.3769482 -0.8585937 0)
(1.3702667 -0.86955174 0)
(1.3629258 -0.87983401 0)
(1.3549461 -0.88943394 0)
(1.3463542 -0.89833487 0)
(1.3371636 -0.90653671 0)
(1.3273824 -0.91403896 0)
(1.3170246 -0.92083984 0)
(1.3061063 -0.92693811 0)
(1.294644 -0.93233356 0)
(1.282655 -0.93702694 0)
(1.270157 -0.94101998 0)
(1.2571685 -0.94431544 0)
(1.2437085 -0.94691709 0)
(1.2297965 -0.94882979 0)
(1.2154524 -0.95005948 0)
(1.2006968 -0.95061319 0)
(1.1855504 -0.95049904 0)
(1.1700306 -0.94972622 0)
(1.1541573 -0.94830519 0)
(1.1379563 -0.94624705 0)
(1.1214508 -0.94356374 0)
(1.1046604 -0.94026904 0)
(1.0876058 -0.93637759 0)
(1.0703099 -0.93190479 0)
(1.0527939 -0.92686788 0)
(1.0350775 -0.92128439 0)
(1.0171825 -0.91517381 0)
(0.99913086 -0.9085557 0)
(0.98094407 -0.90145062 0)
(0.96264308 -0.89388002 0)
(0.94424867 -0.88586612 0)
(0.92578126 -0.87743185 0)
(0.90726096 -0.86860077 0)
(0.88870749 -0.859397 0)
(0.87014001 -0.84984516 0)
(0.85157684 -0.83997034 0)
(1.4629544 -0.63365113 0)
(1.4659528 -0.65259174 0)
(1.4682012 -0.67098521 0)
(1.4696942 -0.68881785 0)
(1.4704293 -0.70607671 0)
(1.4704058 -0.72274945 0)
(1.4696237 -0.73882423 0)
(1.4680825 -0.7542905 0)
(1.4657816 -0.76914391 0)
(1.4627344 -0.78338983 0)
(1.4589768 -0.79702002 0)
(1.4545073 -0.81000156 0)
(1.449301 -0.82231932 0)
(1.4433778 -0.83397757 0)
(1.4367564 -0.84496878 0)
(1.4294424 -0.85530002 0)
(1.4214503 -0.86496585 0)
(1.4128095 -0.87395297 0)
(1.4035413 -0.88225422 0)
(1.3936528 -0.88987117 0)
(1.383158 -0.89680284 0)
(1.3720737 -0.90304803 0)
(1.3604173 -0.90860636 0)
(1.3482067 -0.91347837 0)
(1.3354601 -0.91766546 0)
(1.3221966 -0.92116994 0)
(1.3084356 -0.92399506 0)
(1.2941968 -0.92614504 0)
(1.2795005 -0.92762513 0)
(1.2643675 -0.92844158 0)
(1.248819 -0.92860168 0)
(1.232876 -0.92811382 0)
(1.2165568 -0.92698738 0)
(1.1998818 -0.92523282 0)
(1.1828776 -0.92286123 0)
(1.1655672 -0.91988453 0)
(1.1479705 -0.91631649 0)
(1.1301086 -0.9121717 0)
(1.1120042 -0.90746522 0)
(1.0936787 -0.90221429 0)
(1.0751523 -0.89643639 0)
(1.0564466 -0.89015049 0)
(1.0375842 -0.88337593 0)
(1.0185866 -0.87613297 0)
(0.99947503 -0.86844272 0)
(0.9802703 -0.86032706 0)
(0.96099308 -0.85180853 0)
(0.94166366 -0.8429103 0)
(0.92230193 -0.83365609 0)
(0.90292718 -0.8240701 0)
(0.88355814 -0.814177 0)
(1.5306838 -0.63024706 0)
(1.5335638 -0.64855729 0)
(1.5356292 -0.66630484 0)
(1.5368792 -0.68347884 0)
(1.5373154 -0.70006893 0)
(1.5369415 -0.71606504 0)
(1.5357615 -0.73145706 0)
(1.5337728 -0.74623567 0)
(1.5309633 -0.76040147 0)
(1.5273553 -0.77396783 0)
(1.5230249 -0.78693187 0)
(1.5179828 -0.7992464 0)
(1.5121736 -0.81089669 0)
(1.5056041 -0.82188886 0)
(1.4983025 -0.83223648 0)
(1.4902839 -0.84193601 0)
(1.4815777 -0.8509769 0)
(1.4722108 -0.85934701 0)
(1.462197 -0.86704914 0)
(1.4515478 -0.87408303 0)
(1.4402804 -0.88044752 0)
(1.4284132 -0.88614215 0)
(1.4159649 -0.89116729 0)
(1.4029546 -0.89552408 0)
(1.3894017 -0.89921446 0)
(1.3753261 -0.9022412 0)
(1.3607483 -0.90460794 0)
(1.3456887 -0.90631922 0)
(1.3301683 -0.90738054 0)
(1.3142084 -0.90779834 0)
(1.2978308 -0.90758006 0)
(1.281057 -0.90673424 0)
(1.2639058 -0.90527055 0)
(1.2463983 -0.90319924 0)
(1.2285616 -0.90053129 0)
(1.2104185 -0.89727859 0)
(1.1919887 -0.89345473 0)
(1.1732943 -0.88907426 0)
(1.1543575 -0.88415195 0)
(1.1351996 -0.87870438 0)
(1.115841 -0.87274943 0)
(1.0963036 -0.86630531 0)
(1.0766102 -0.85939106 0)
(1.0567825 -0.85202661 0)
(1.0368416 -0.8442327 0)
(1.0168085 -0.83603076 0)
(0.99670393 -0.82744292 0)
(0.97654836 -0.8184919 0)
(0.95636178 -0.80920098 0)
(0.9361636 -0.79959385 0)
(0.91597273 -0.78969463 0)
(1.600987 -0.62792035 0)
(1.6036357 -0.64554631 0)
(1.605407 -0.66259854 0)
(1.6063047 -0.67906921 0)
(1.6063352 -0.69495108 0)
(1.6055071 -0.71023738 0)
(1.603829 -0.72492182 0)
(1.6012951 -0.73899839 0)
(1.597883 -0.75246142 0)
(1.5936186 -0.7653079 0)
(1.5886272 -0.77754135 0)
(1.582931 -0.7891503 0)
(1.5764397 -0.80012267 0)
(1.5691406 -0.81045718 0)
(1.5610751 -0.82016071 0)
(1.5522862 -0.82922546 0)
(1.5428036 -0.83763659 0)
(1.5326449 -0.8453937 0)
(1.5218225 -0.85249985 0)
(1.5103542 -0.85895466 0)
(1.4982591 -0.86475765 0)
(1.4855568 -0.86990908 0)
(1.4722672 -0.87440992 0)
(1.4584105 -0.87826181 0)
(1.4440072 -0.88146711 0)
(1.4290782 -0.88402891 0)
(1.4136446 -0.88595114 0)
(1.3977276 -0.88723855 0)
(1.3813488 -0.88789677 0)
(1.36453 -0.8879323 0)
(1.3472933 -0.88735253 0)
(1.3296602 -0.88616601 0)
(1.3116504 -0.88438301 0)
(1.2932857 -0.88201332 0)
(1.2745933 -0.87906762 0)
(1.255596 -0.8755578 0)
(1.236313 -0.87149724 0)
(1.216767 -0.86690017 0)
(1.1969805 -0.86178107 0)
(1.1769737 -0.85615598 0)
(1.1567675 -0.85004265 0)
(1.1363842 -0.84345879 0)
(1.1158465 -0.83642307 0)
(1.0951759 -0.828955 0)
(1.0743938 -0.82107488 0)
(1.053521 -0.81280367 0)
(1.0325785 -0.80416303 0)
(1.0115866 -0.79517517 0)
(0.99056549 -0.78586285 0)
(0.96953464 -0.77624928 0)
(0.94851302 -0.76635797 0)
(1.6734416 -0.62641942 0)
(1.6757368 -0.64330852 0)
(1.677094 -0.65961737 0)
(1.677522 -0.67534113 0)
(1.6770313 -0.69047547 0)
(1.6756341 -0.7050167 0)
(1.6733427 -0.71896197 0)
(1.6701618 -0.73230853 0)
(1.6660822 -0.74504621 0)
(1.6611228 -0.75715805 0)
(1.6553836 -0.76864155 0)
(1.6489021 -0.77952984 0)
(1.6416106 -0.789818 0)
(1.6334974 -0.79949395 0)
(1.6246088 -0.80854622 0)
(1.6149922 -0.8169648 0)
(1.6046717 -0.82474591 0)
(1.593658 -0.83189342 0)
(1.5819701 -0.83840819 0)
(1.5696289 -0.84429015 0)
(1.5566553 -0.84953961 0)
(1.5430701 -0.85415745 0)
(1.5288944 -0.85814508 0)
(1.5141495 -0.86150448 0)
(1.4988569 -0.86423829 0)
(1.4830382 -0.86634987 0)
(1.466715 -0.86784327 0)
(1.4499094 -0.86872338 0)
(1.4326434 -0.86899587 0)
(1.4149392 -0.8686672 0)
(1.3968191 -0.86774454 0)
(1.3783041 -0.86623603 0)
(1.3594145 -0.86415275 0)
(1.3401737 -0.86150446 0)
(1.3206084 -0.85830095 0)
(1.3007409 -0.85455411 0)
(1.2805904 -0.85027711 0)
(1.26018 -0.84548359 0)
(1.239532 -0.84018775 0)
(1.2186661 -0.8344052 0)
(1.197603 -0.82815325 0)
(1.1763655 -0.8214492 0)
(1.154976 -0.81431128 0)
(1.133456 -0.80675854 0)
(1.1118268 -0.79881077 0)
(1.0901092 -0.79048842 0)
(1.0683241 -0.7818126 0)
(1.0464919 -0.772805 0)
(1.0246327 -0.76348781 0)
(1.002766 -0.75388369 0)
(0.98091085 -0.74401557 0)
(1.7476486 -0.62550168 0)
(1.749461 -0.64160411 0)
(1.7502794 -0.65712436 0)
(1.7501172 -0.67206013 0)
(1.7489896 -0.68640928 0)
(1.7469127 -0.70016965 0)
(1.7439029 -0.71333946 0)
(1.7399721 -0.72591856 0)
(1.7351229 -0.73790695 0)
(1.7293799 -0.74928816 0)
(1.7228142 -0.76005005 0)
(1.7154567 -0.7702235 0)
(1.707278 -0.77981989 0)
(1.698281 -0.78881922 0)
(1.68851 -0.79720548 0)
(1.6780023 -0.80497251 0)
(1.6667762 -0.8121266 0)
(1.6548486 -0.81866859 0)
(1.6422416 -0.82459825 0)
(1.6289778 -0.82991585 0)
(1.6150792 -0.83462212 0)
(1.600568 -0.83871826 0)
(1.5854663 -0.84220591 0)
(1.5697963 -0.84508728 0)
(1.5535803 -0.84736516 0)
(1.5368406 -0.849043 0)
(1.5195995 -0.85012493 0)
(1.5018793 -0.85061583 0)
(1.4837023 -0.85052131 0)
(1.4650915 -0.84984776 0)
(1.4460694 -0.84860222 0)
(1.4266555 -0.84679249 0)
(1.4068702 -0.84442932 0)
(1.3867394 -0.84152295 0)
(1.3662893 -0.83808243 0)
(1.3455411 -0.83411953 0)
(1.3245141 -0.82964707 0)
(1.3032319 -0.82467801 0)
(1.2817163 -0.81922622 0)
(1.2599862 -0.81330695 0)
(1.2380624 -0.80693682 0)
(1.2159676 -0.80013281 0)
(1.1937243 -0.79291269 0)
(1.1713537 -0.78529494 0)
(1.1488769 -0.7772988 0)
(1.1263148 -0.76894414 0)
(1.1036879 -0.76025152 0)
(1.0810167 -0.75124202 0)
(1.0583211 -0.74193727 0)
(1.0356208 -0.73235931 0)
(1.0129348 -0.72253051 0)
(1.8232289 -0.62493709 0)
(1.8244249 -0.64020755 0)
(1.8245762 -0.65489882 0)
(1.8237013 -0.66901073 0)
(1.8218206 -0.68254277 0)
(1.8189547 -0.69549403 0)
(1.8151224 -0.70786537 0)
(1.8103342 -0.71966407 0)
(1.8046084 -0.73089082 0)
(1.7979855 -0.7415281 0)
(1.7905141 -0.75156483 0)
(1.782209 -0.76102856 0)
(1.773071 -0.76992653 0)
(1.7631269 -0.77824063 0)
(1.7524099 -0.78595841 0)
(1.7409452 -0.7930825 0)
(1.7287538 -0.79961675 0)
(1.7158585 -0.80556106 0)
(1.7022832 -0.81091533 0)
(1.6880513 -0.81568002 0)
(1.6731861 -0.81985605 0)
(1.6577106 -0.82344474 0)
(1.641648 -0.82644785 0)
(1.6250211 -0.82886764 0)
(1.607853 -0.83070697 0)
(1.5901663 -0.83196926 0)
(1.5719837 -0.8326586 0)
(1.553328 -0.83277975 0)
(1.5342217 -0.83233821 0)
(1.5146878 -0.83134019 0)
(1.4947492 -0.8297927 0)
(1.4744245 -0.8277036 0)
(1.4537338 -0.82508245 0)
(1.4327043 -0.82193923 0)
(1.4113623 -0.81828306 0)
(1.3897277 -0.81412559 0)
(1.3678204 -0.80947926 0)
(1.3456638 -0.80435615 0)
(1.3232792 -0.79876957 0)
(1.3006848 -0.7927346 0)
(1.2779011 -0.78626711 0)
(1.254951 -0.7793838 0)
(1.2318565 -0.77210183 0)
(1.2086388 -0.76443909 0)
(1.1853187 -0.75641419 0)
(1.1619169 -0.74804645 0)
(1.1384538 -0.73935575 0)
(1.1149496 -0.73036262 0)
(1.0914243 -0.72108801 0)
(1.0678973 -0.71155341 0)
(1.0443877 -0.70178046 0)
(1.8998219 -0.62451068 0)
(1.9002651 -0.63890948 0)
(1.8996196 -0.65273703 0)
(1.8979094 -0.66599482 0)
(1.8951598 -0.67868375 0)
(1.8913942 -0.69080602 0)
(1.8866273 -0.70237086 0)
(1.8808789 -0.713384 0)
(1.8741876 -0.72383592 0)
(1.8665974 -0.73371179 0)
(1.8581322 -0.74301956 0)
(1.8488077 -0.75177552 0)
(1.8386539 -0.75997273 0)
(1.8277007 -0.76760121 0)
(1.8159715 -0.77466001 0)
(1.8034895 -0.78115156 0)
(1.7902805 -0.78707653 0)
(1.7763696 -0.79243486 0)
(1.7617819 -0.79722678 0)
(1.7465417 -0.80145291 0)
(1.7306733 -0.80511421 0)
(1.7142005 -0.80821203 0)
(1.6971472 -0.81074811 0)
(1.6795369 -0.81272469 0)
(1.6613928 -0.81414455 0)
(1.6427381 -0.81501101 0)
(1.6235958 -0.81532803 0)
(1.6039887 -0.81510019 0)
(1.5839395 -0.81433277 0)
(1.5634711 -0.81303181 0)
(1.5426063 -0.81120413 0)
(1.5213633 -0.80885747 0)
(1.499762 -0.80600064 0)
(1.4778304 -0.80264274 0)
(1.455594 -0.79879296 0)
(1.4330718 -0.7944628 0)
(1.4102845 -0.78966421 0)
(1.3872557 -0.78440876 0)
(1.3640053 -0.77870893 0)
(1.3405507 -0.77257938 0)
(1.3169122 -0.76603553 0)
(1.2931126 -0.75909364 0)
(1.2691739 -0.75177024 0)
(1.2451167 -0.74408256 0)
(1.2209618 -0.73604859 0)
(1.1967293 -0.72768698 0)
(1.1724397 -0.71901703 0)
(1.1481128 -0.71005855 0)
(1.1237683 -0.70083193 0)
(1.0994256 -0.69135792 0)
(1.0751036 -0.68165764 0)
(1.9770838 -0.62402447 0)
(1.9766377 -0.63751839 0)
(1.9750666 -0.65045361 0)
(1.9723999 -0.66283298 0)
(1.9686658 -0.67466074 0)
(1.9638836 -0.68594794 0)
(1.9580753 -0.69670304 0)
(1.9512799 -0.70691776 0)
(1.9435444 -0.71658079 0)
(1.9348949 -0.72569759 0)
(1.9253503 -0.7342797 0)
(1.9149479 -0.74232303 0)
(1.9037222 -0.74982149 0)
(1.8916969 -0.75677617 0)
(1.8788951 -0.76318915 0)
(1.8653438 -0.76906024 0)
(1.8510706 -0.77438927 0)
(1.8361017 -0.77917633 0)
(1.820463 -0.7834218 0)
(1.8041799 -0.78712628 0)
(1.7872772 -0.79029072 0)
(1.7697795 -0.79291634 0)
(1.7517111 -0.79500482 0)
(1.7330958 -0.79655825 0)
(1.7139572 -0.79757925 0)
(1.6943187 -0.79807095 0)
(1.6742032 -0.79803711 0)
(1.6536336 -0.79748205 0)
(1.6326326 -0.79641083 0)
(1.6112229 -0.79482916 0)
(1.5894268 -0.79274364 0)
(1.5672625 -0.79016167 0)
(1.5447498 -0.78709143 0)
(1.5219167 -0.78354128 0)
(1.4987878 -0.77952032 0)
(1.4753814 -0.7750396 0)
(1.4517185 -0.77011037 0)
(1.4278231 -0.76474398 0)
(1.4037139 -0.75895236 0)
(1.3794072 -0.75274941 0)
(1.3549229 -0.74615008 0)
(1.3302835 -0.7391702 0)
(1.305511 -0.7318256 0)
(1.2806258 -0.72413284 0)
(1.255648 -0.71610924 0)
(1.2305976 -0.70777281 0)
(1.2054946 -0.69914216 0)
(1.1803586 -0.69023647 0)
(1.1552091 -0.68107542 0)
(1.1300652 -0.67167912 0)
(1.1049458 -0.6620681 0)
(2.054687 -0.62329917 0)
(2.0532174 -0.63586191 0)
(2.0505949 -0.64788282 0)
(2.0468519 -0.65936799 0)
(2.0420126 -0.67033109 0)
(2.0361028 -0.68078221 0)
(2.0291655 -0.69071511 0)
(2.0212476 -0.70011855 0)
(2.0123776 -0.70899894 0)
(2.0025796 -0.71736845 0)
(1.991893 -0.72522133 0)
(1.9803568 -0.73255266 0)
(1.9679986 -0.73936518 0)
(1.9548429 -0.74566241 0)
(1.9409178 -0.7514442 0)
(1.9262521 -0.75670991 0)
(1.9108739 -0.76145937 0)
(1.8948104 -0.7656927 0)
(1.878088 -0.76941016 0)
(1.8607329 -0.77261227 0)
(1.8427704 -0.77529978 0)
(1.8242256 -0.77747379 0)
(1.8051229 -0.77913576 0)
(1.7854864 -0.78028758 0)
(1.7653398 -0.78093162 0)
(1.7447064 -0.78107076 0)
(1.7236091 -0.78070845 0)
(1.7020707 -0.77984876 0)
(1.6801135 -0.77849638 0)
(1.65776 -0.77665673 0)
(1.6350321 -0.77433602 0)
(1.6119476 -0.77154125 0)
(1.5885265 -0.76827998 0)
(1.5647963 -0.76456001 0)
(1.5407806 -0.76039022 0)
(1.5164972 -0.75578104 0)
(1.4919673 -0.75074289 0)
(1.4672145 -0.74528663 0)
(1.4422568 -0.73942405 0)
(1.4171094 -0.73316853 0)
(1.3917914 -0.72653433 0)
(1.3663252 -0.71953672 0)
(1.3407328 -0.71219078 0)
(1.3150341 -0.70451237 0)
(1.2892486 -0.69651815 0)
(1.2633961 -0.68822546 0)
(1.2374959 -0.67965225 0)
(1.2115676 -0.67081703 0)
(1.1856301 -0.66173879 0)
(1.1597025 -0.6524369 0)
(2.1323204 -0.62217499 0)
(2.1296971 -0.63378783 0)
(2.1259001 -0.64488194 0)
(2.1209574 -0.65547221 0)
(2.1148995 -0.66557238 0)
(2.1077739 -0.6751763 0)
(2.0996308 -0.68427496 0)
(2.0905001 -0.69287642 0)
(2.0804084 -0.70099073 0)
(2.0693994 -0.70861332 0)
(2.057514 -0.71573992 0)
(2.0447833 -0.72237364 0)
(2.0312358 -0.72851856 0)
(2.0169014 -0.73417526 0)
(2.0018099 -0.73934317 0)
(1.985991 -0.74402181 0)
(1.9694732 -0.74821099 0)
(1.9522844 -0.75191064 0)
(1.9344517 -0.75512086 0)
(1.9160014 -0.75784191 0)
(1.8969592 -0.76007432 0)
(1.8773505 -0.76181893 0)
(1.8571996 -0.76307692 0)
(1.8365307 -0.7638499 0)
(1.8153674 -0.76413991 0)
(1.7937329 -0.76394954 0)
(1.7716498 -0.7632819 0)
(1.7491405 -0.76214068 0)
(1.7262271 -0.76053022 0)
(1.7029315 -0.75845552 0)
(1.6792752 -0.75592238 0)
(1.6552757 -0.75293736 0)
(1.6309528 -0.74950741 0)
(1.6063335 -0.74563983 0)
(1.5814402 -0.74134327 0)
(1.5562904 -0.73662758 0)
(1.5309054 -0.7315019 0)
(1.505308 -0.72597646 0)
(1.4795151 -0.720063 0)
(1.453541 -0.71377522 0)
(1.4274042 -0.70712629 0)
(1.4011271 -0.70013068 0)
(1.3747314 -0.69280266 0)
(1.3482365 -0.68515741 0)
(1.3216612 -0.67721093 0)
(1.2950248 -0.66897989 0)
(1.2683464 -0.66048159 0)
(1.2416449 -0.65173387 0)
(1.2149392 -0.64275503 0)
(1.1882478 -0.63356371 0)
(2.2096885 -0.62051244 0)
(2.2057854 -0.63116705 0)
(2.200689 -0.64133752 0)
(2.194432 -0.65103569 0)
(2.187067 -0.66026322 0)
(2.1786483 -0.66901283 0)
(2.1692086 -0.67729053 0)
(2.1587786 -0.68510787 0)
(2.1474042 -0.69245917 0)
(2.1351277 -0.69934211 0)
(2.121983 -0.70576018 0)
(2.1080029 -0.71171682 0)
(2.09322 -0.71721303 0)
(2.077666 -0.72224857 0)
(2.0613717 -0.72682297 0)
(2.0443673 -0.73093574 0)
(2.0266818 -0.73458647 0)
(2.0083434 -0.73777482 0)
(1.9893795 -0.74050057 0)
(1.9698165 -0.74276369 0)
(1.9496805 -0.74456439 0)
(1.9289963 -0.74590316 0)
(1.9077886 -0.74678086 0)
(1.8860812 -0.74719872 0)
(1.8638974 -0.74715846 0)
(1.84126 -0.74666226 0)
(1.8181914 -0.74571286 0)
(1.7947135 -0.74431355 0)
(1.7708479 -0.74246824 0)
(1.7466159 -0.74018149 0)
(1.7220384 -0.73745861 0)
(1.6971325 -0.7343057 0)
(1.6719179 -0.73072915 0)
(1.6464205 -0.72673578 0)
(1.6206617 -0.72233408 0)
(1.5946592 -0.71753341 0)
(1.5684344 -0.71234145 0)
(1.5420083 -0.70676687 0)
(1.5153959 -0.70082134 0)
(1.4886112 -0.69452106 0)
(1.4616732 -0.6878771 0)
(1.4346036 -0.68090255 0)
(1.4074237 -0.67361094 0)
(1.3801521 -0.66601684 0)
(1.3528072 -0.65813562 0)
(1.3254076 -0.64998333 0)
(1.2979718 -0.64157659 0)
(1.2705185 -0.63293254 0)
(1.2430662 -0.62406885 0)
(1.215633 -0.6150034 0)
(2.2865096 -0.6181944 0)
(2.2812004 -0.62789785 0)
(2.2746926 -0.63715068 0)
(2.267034 -0.64594993 0)
(2.2582798 -0.65430129 0)
(2.2484763 -0.66221441 0)
(2.237658 -0.66969164 0)
(2.22587 -0.6767305 0)
(2.2131559 -0.68333027 0)
(2.1995523 -0.68949514 0)
(2.185096 -0.69522746 0)
(2.1698225 -0.7005281 0)
(2.1537658 -0.70539704 0)
(2.1369584 -0.70983387 0)
(2.1194318 -0.71383794 0)
(2.1012163 -0.71740853 0)
(2.0823414 -0.72054485 0)
(2.0628352 -0.72324621 0)
(2.0427253 -0.725512 0)
(2.0220381 -0.72734182 0)
(2.0007992 -0.72873546 0)
(1.9790336 -0.72969304 0)
(1.9567653 -0.73021501 0)
(1.9340179 -0.73030223 0)
(1.9108143 -0.72995596 0)
(1.8871768 -0.72917801 0)
(1.8631272 -0.72797067 0)
(1.8386869 -0.72633681 0)
(1.8138768 -0.72427988 0)
(1.7887178 -0.72180393 0)
(1.7632298 -0.71891373 0)
(1.7374295 -0.71561497 0)
(1.7113362 -0.71191344 0)
(1.6849747 -0.7078156 0)
(1.6583651 -0.70332969 0)
(1.631526 -0.69846463 0)
(1.6044793 -0.69322701 0)
(1.5772442 -0.68762324 0)
(1.5498301 -0.68166355 0)
(1.5222522 -0.67536984 0)
(1.4945326 -0.66874991 0)
(1.4666911 -0.66181456 0)
(1.4387483 -0.65457683 0)