/*--------------------------------*- C++ -*----------------------------------*\
| =========                 |                                                 |
| \\      /  F ield         | OpenFOAM: The Open Source CFD Toolbox           |
|  \\    /   O peration     | Version:  2312                                  |
|   \\  /    A nd           | Website:  www.openfoam.com                      |
|    \\/     M anipulation  |                                                 |
\*---------------------------------------------------------------------------*/
FoamFile
{
    version     2.0;
    format      ascii;
    arch        "LSB;label=32;scalar=64";
    class       volScalarField;
    location    "0.01";
    object      alphat;
}
// * * * * * * * * * * * * * * * * * * * * * * * * * * * * * * * * * * * * * //

dimensions      [1 -1 -1 0 0 0 0];

internalField   nonuniform List<scalar> 
3250
(
0.013216545
0.012959056
0.01270829
0.012465302
0.012231067
0.012006457
0.011792236
0.011589045
0.011397387
0.011217614
0.01104991
0.010894286
0.010750582
0.010618471
0.010497482
0.010387024
0.010286419
0.010194929
0.010111789
0.010036238
0.0099675388
0.0099049986
0.009847983
0.0097959228
0.0097483174
0.0097047327
0.0096647967
0.0096281921
0.0095946483
0.0095639326
0.0095358743
0.0095102479
0.0094868966
0.009465686
0.0094464759
0.0094291324
0.0094135265
0.0093995333
0.0093870317
0.0093759043
0.0093660374
0.0093573213
0.0093496504
0.0093429253
0.0093370872
0.0093320724
0.0093277468
0.0093240391
0.0093208804
0.013216866
0.012959425
0.012708715
0.012465794
0.012231625
0.012007079
0.011792917
0.011589782
0.011398176
0.01121845
0.011050788
0.010895203
0.010751532
0.01061945
0.010498485
0.010388049
0.01028746
0.010195984
0.010112856
0.010037313
0.0099686209
0.0099060862
0.0098490748
0.0097970182
0.009749416
0.0097058342
0.0096659011
0.0096292996
0.0095957592
0.0095650473
0.0095369931
0.0095113705
0.0094880238
0.0094668183
0.0094476134
0.0094302755
0.0094146754
0.0094006883
0.009388193
0.0093770719
0.0093672117
0.009358503
0.0093508416
0.0093441336
0.0093383063
0.0093332866
0.0093289652
0.0093252667
0.0093221224
0.013217057
0.012959755
0.012709194
0.012466426
0.012232409
0.012008007
0.011793984
0.011590978
0.011399492
0.011219877
0.011052317
0.010896823
0.010753234
0.010621224
0.010500323
0.010389941
0.010289399
0.010197961
0.010114866
0.010039351
0.0099706806
0.0099081648
0.0098511695
0.0097991269
0.0097515371
0.009707967
0.009668045
0.0096314544
0.0095979251
0.0095672245
0.0095391817
0.0095135697
0.0094902352
0.0094690419
0.0094498496
0.0094325245
0.0094169374
0.0094029634
0.0093904813
0.0093793736
0.0093695271
0.0093608327
0.0093531876
0.0093464989
0.0093406871
0.0093356737
0.0093313633
0.0093276812
0.0093245563
0.013217103
0.012960038
0.01270972
0.012467194
0.012233414
0.012009239
0.011795431
0.011592628
0.011401332
0.011221892
0.011054493
0.010899145
0.010755687
0.010623793
0.010502993
0.010392699
0.010292232
0.010200859
0.010117817
0.010042348
0.0099737166
0.0099112333
0.009854266
0.009802248
0.0097546802
0.0097111304
0.0096712277
0.009634656
0.0096011456
0.0095704642
0.0095424402
0.0095168457
0.0094935307
0.0094723572
0.0094531849
0.0094358798
0.0094203129
0.0094063592
0.0093938973
0.00938281
0.0093729841
0.0093643109
0.0093566882
0.0093500232
0.0093442321
0.0093392338
0.009334941
0.0093312808
0.0093281796
0.013216994
0.01296027
0.012710289
0.012468095
0.012234636
0.01201077
0.011797255
0.011594729
0.011403692
0.011224492
0.011057312
0.010902164
0.010758886
0.010627151
0.010506492
0.01039632
0.010295958
0.010204674
0.010121709
0.010046303
0.0099777265
0.0099152897
0.0098583625
0.0098063797
0.0097588437
0.0097153231
0.0096754482
0.0096389034
0.0096054197
0.0095747654
0.0095467676
0.0095211979
0.00949791
0.0094767637
0.0094576187
0.0094403411
0.0094248017
0.0094108754
0.009398441
0.009387381
0.0093775825
0.0093689371
0.009361343
0.0093547067
0.009348942
0.0093439666
0.0093396977
0.0093360644
0.0093329911
0.013216745
0.012960437
0.012710864
0.012469067
0.012235992
0.012012495
0.01179933
0.011597134
0.011406405
0.011227492
0.011060576
0.010905667
0.010762604
0.010631061
0.01051057
0.010400544
0.01030031
0.010209134
0.010126261
0.010050934
0.0099824237
0.0099200438
0.009863166
0.0098112266
0.0097637297
0.0097202453
0.0096804046
0.0096438928
0.0096104418
0.0095798207
0.0095518546
0.0095263152
0.00950306
0.0094819465
0.0094628343
0.0094455896
0.009430083
0.0094161894
0.0094037875
0.0093927599
0.0093829937
0.0093743808
0.0093668194
0.0093602154
0.0093544813
0.0093495341
0.0093452936
0.0093416905
0.0093386475
0.013216391
0.012960559
0.012711448
0.012470101
0.01223746
0.012014377
0.011801607
0.011599783
0.011409403
0.011230813
0.011064195
0.010909557
0.010766737
0.010635411
0.010515111
0.010405253
0.010305162
0.01021411
0.010131342
0.010056105
0.0099876704
0.0099253559
0.0098685347
0.0098166454
0.0097691937
0.0097257509
0.0096859495
0.0096494757
0.0096160621
0.0095854794
0.0095575492
0.0095320448
0.0095088268
0.0094877505
0.0094686756
0.009451468
0.0094359986
0.0094221419
0.0094097767
0.0093987856
0.0093890556
0.0093804789
0.0093729536
0.009366385
0.0093606848
0.0093557698
0.0093515613
0.0093479907
0.0093449799
0.013215907
0.012960647
0.01271209
0.01247128
0.012239155
0.012016567
0.011804268
0.011602888
0.011412923
0.011234719
0.011068455
0.01091414
0.010771611
0.010640545
0.010520474
0.010410814
0.010310896
0.010219992
0.010137351
0.010062221
0.009993879
0.0099316435
0.009874891
0.0098230624
0.0097756654
0.0097322732
0.0096925195
0.0096560917
0.0096227232
0.0095921877
0.0095642999
0.0095388382
0.0095156648
0.0094946332
0.009475603
0.00945844
0.0094430149
0.0094292023
0.0094168809
0.0094059332
0.0093962462
0.0093877122
0.0093802293
0.0093737022
0.0093680421
0.0093631656
0.009358995
0.0093554623
0.0093524887
0.013215294
0.012960706
0.0127128
0.012472619
0.012241101
0.012019093
0.011807344
0.011606484
0.011417006
0.011239255
0.011073407
0.010919471
0.010777284
0.010646521
0.010526719
0.010417295
0.01031758
0.010226851
0.010144358
0.010069356
0.010001123
0.009938981
0.00988231
0.0098305536
0.0097832218
0.0097398899
0.009700193
0.0096638198
0.0096305044
0.0096000265
0.0095721877
0.0095467772
0.0095236566
0.0095026777
0.0094837002
0.0094665897
0.0094512169
0.0094374562
0.0094251861
0.0094142893
0.0094046527
0.0093961685
0.0093887347
0.0093822558
0.0093766425
0.0093718112
0.009367685
0.0093641961
0.0093612651
0.013214551
0.012960743
0.012713592
0.012474139
0.012243321
0.012021983
0.011810872
0.011610613
0.011421699
0.01124447
0.011079104
0.010925607
0.010783815
0.010653406
0.010533915
0.010424763
0.010325284
0.010234758
0.01015244
0.010077586
0.01000948
0.0099474476
0.0098908722
0.0098392004
0.0097919452
0.009748684
0.0097090538
0.0096727448
0.0096394903
0.0096090832
0.009581299
0.0095559493
0.0095328903
0.0095119729
0.0094930568
0.0094760075
0.0094606955
0.0094469951
0.0094347847
0.0094239468
0.0094143685
0.0094059418
0.0093985646
0.0093921411
0.0093865817
0.0093818028
0.0093777279
0.0093742893
0.009371407
0.013213683
0.012960767
0.01271448
0.012475861
0.012245845
0.012025274
0.011814891
0.01161532
0.011427051
0.011250421
0.011085606
0.010932611
0.010791273
0.010661268
0.010542134
0.010433295
0.010334087
0.010243794
0.010161676
0.010086993
0.010019034
0.0099571282
0.0099006634
0.0098490897
0.0098019233
0.0097587442
0.0097191917
0.0096829573
0.0096497764
0.0096194455
0.0095917266
0.0095664482
0.0095434603
0.009522614
0.0095037688
0.00948679
0.009471548
0.009457917
0.0094457752
0.0094350051
0.0094254936
0.0094171327
0.0094098203
0.0094034601
0.0093979623
0.0093932434
0.0093892272
0.0093858459
0.0093830192
0.013212698
0.012960793
0.012715485
0.012477813
0.012248705
0.012029003
0.011819446
0.011620655
0.011433116
0.011257166
0.011092976
0.010940551
0.010799726
0.010670181
0.010551454
0.010442969
0.01034407
0.010254043
0.010172153
0.010097666
0.010029874
0.0099681132
0.0099117752
0.0098603143
0.0098132501
0.0097701655
0.0097307022
0.0096945539
0.0096614596
0.0096312123
0.0096035705
0.0095783739
0.0095554677
0.0095347029
0.0095159388
0.0094990407
0.0094838787
0.0094703269
0.0094582634
0.0094475706
0.0094381352
0.0094298492
0.0094226101
0.0094163218
0.0094108941
0.0094062435
0.0094022938
0.0093989775
0.0093962137
0.013211605
0.012960837
0.012716632
0.012480024
0.012251938
0.012033213
0.011824585
0.011626671
0.011439955
0.011264768
0.011101282
0.010949498
0.010809254
0.010680226
0.010561956
0.010453872
0.010355321
0.010265595
0.010183962
0.010109697
0.010042095
0.0099804994
0.0099243058
0.0098729734
0.0098260258
0.0097830492
0.0097436879
0.0097076375
0.0096746447
0.0096444891
0.0096169371
0.0095918339
0.0095690207
0.0095483486
0.0095296767
0.0095128703
0.0094977992
0.0094843373
0.0094723626
0.0094617573
0.009452408
0.0094442066
0.0094370505
0.0094308433
0.0094254947
0.0094209212
0.0094170468
0.0094138037
0.0094111107
0.013210419
0.012960922
0.012717949
0.012482529
0.012255586
0.012037952
0.011830362
0.011633428
0.01144763
0.011273298
0.011110598
0.010959533
0.010819936
0.010691487
0.01057373
0.010466096
0.010367935
0.010278546
0.010197203
0.010123187
0.0100558
0.0099943901
0.0099383598
0.0098871731
0.0098403578
0.0097975038
0.0097582583
0.0097223178
0.0096894449
0.009659388
0.0096319405
0.0096069429
0.009584235
0.0095636678
0.0095451004
0.0095283976
0.0095134292
0.0095000687
0.0094881942
0.0094776874
0.0094684351
0.0094603289
0.0094532661
0.00944715
0.0094418903
0.0094374036
0.0094336136
0.0094304526
0.0094278392
0.013209161
0.012961075
0.01271947
0.012485371
0.012259696
0.012043274
0.011836836
0.011640991
0.011456214
0.011282831
0.011121006
0.010970739
0.010831862
0.010704058
0.010586872
0.010479737
0.010382012
0.010292999
0.010211981
0.010138243
0.010071096
0.010009896
0.0099540493
0.0099030266
0.0098563607
0.0098136453
0.0097745309
0.0097387189
0.0097059737
0.0096760301
0.0096487023
0.009623824
0.0096012349
0.0095807859
0.0095623359
0.0095457498
0.0095308967
0.0095176503
0.0095058881
0.0094954921
0.0094863485
0.0094783489
0.0094713904
0.0094653764
0.0094602163
0.0094558265
0.009452131
0.0094490619
0.0094465374
0.013207859
0.012961331
0.012721239
0.012488598
0.012264322
0.01204924
0.011844075
0.011649433
0.011465784
0.01129345
0.011132592
0.010983207
0.010845129
0.010718038
0.010601483
0.010494903
0.01039766
0.010309065
0.010228407
0.01015498
0.010088102
0.010027135
0.009971494
0.0099206555
0.0098741574
0.0098315978
0.0097926307
0.0097569673
0.0097243592
0.0096945459
0.0096673532
0.0096426089
0.0096201532
0.0095998369
0.0095815187
0.0095650632
0.0095503394
0.0095372206
0.0095255841
0.0095153117
0.0095062896
0.009498409
0.0094915671
0.0094856668
0.0094806177
0.009476336
0.0094727458
0.009469779
0.0094673536
0.013206546
0.012961734
0.012723303
0.012492264
0.012269527
0.012055916
0.011852151
0.011658832
0.011476425
0.011305245
0.011145451
0.010997038
0.010859838
0.010733533
0.010617675
0.010511706
0.010414996
0.010326863
0.010246604
0.010173521
0.010106941
0.010046234
0.0099908223
0.0099401896
0.0098938793
0.0098514944
0.0098126905
0.0097772004
0.009744738
0.0097150747
0.0096880332
0.0096634391
0.0096411327
0.0096209648
0.0096027939
0.0095864843
0.0095719048
0.0095589282
0.009547432
0.0095372973
0.0095284104
0.0095206623
0.0095139499
0.0095081761
0.0095032503
0.0094990889
0.0094956155
0.0094927624
0.0094904471
0.013205273
0.012962336
0.012725723
0.012496435
0.01227538
0.01206338
0.011861148
0.011669278
0.01148823
0.011318315
0.011159687
0.011012339
0.010876101
0.010750659
0.010635566
0.010530268
0.010434144
0.010346519
0.0102667
0.010193996
0.010127746
0.010067328
0.010012172
0.009961768
0.0099156674
0.0098734782
0.009834862
0.0097995556
0.0097672576
0.009737765
0.0097108925
0.0096864662
0.0096643264
0.009644324
0.0096263172
0.0096101701
0.0095957511
0.0095829329
0.0095715924
0.0095616108
0.009552874
0.0095452729
0.0095387042
0.0095330707
0.0095282817
0.0095242534
0.0095209096
0.0095181823
0.0095159888
0.013204103
0.012963207
0.012728567
0.012501183
0.012281962
0.012071717
0.011871156
0.011680866
0.011501301
0.011332766
0.011175411
0.011029225
0.01089404
0.010769539
0.010655286
0.010550719
0.010455236
0.010368169
0.010288833
0.010216549
0.010150662
0.010090562
0.010035689
0.0099855399
0.0099396724
0.0098977013
0.009859299
0.0098241884
0.0097920782
0.0097627764
0.0097360924
0.0097118529
0.0096898987
0.0096700803
0.009652256
0.0096362894
0.0096220486
0.009609406
0.0095982382
0.0095884263
0.0095798557
0.0095724173
0.0095660077
0.0095605293
0.0095558916
0.0095520105
0.0095488099
0.0095462216
0.0095441627
0.013446978
0.013203136
0.012964421
0.012731914
0.012506595
0.012289362
0.012081023
0.011882278
0.011693705
0.011515752
0.011348718
0.011192747
0.011047826
0.010913784
0.010790309
0.010676972
0.0105732
0.010478418
0.010391961
0.010313154
0.010241328
0.010175842
0.010116093
0.010061532
0.010011665
0.0099660562
0.0099243257
0.0098861694
0.0098512654
0.0098193698
0.0097902802
0.0097638058
0.0097397741
0.0097180259
0.0096984119
0.00968079
0.0096650234
0.0096509799
0.0096385317
0.0096275551
0.0096179307
0.0096095439
0.0096022853
0.0095960512
0.0095907442
0.0095862734
0.0095825548
0.0095795121
0.0095770769
0.0095751662
0.013443905
0.013202423
0.012966061
0.012735853
0.012512765
0.012297684
0.012091407
0.011894627
0.011707914
0.011531706
0.011366298
0.011211827
0.011068276
0.010935475
0.01081311
0.010700746
0.01059786
0.010503843
0.01041805
0.010339821
0.010268497
0.010203449
0.010144087
0.01008987
0.010040315
0.0099949924
0.0099535375
0.0099156377
0.0098809698
0.0098493141
0.0098204602
0.0097942187
0.0097704175
0.0097488978
0.0097295102
0.0097121123
0.009696567
0.0096827416
0.0096705081
0.0096597426
0.0096503252
0.0096421412
0.0096350808
0.0096290403
0.009623922
0.0096196351
0.0096160954
0.0096132264
0.0096109598
0.0096092118
0.013440957
0.013202047
0.01296822
0.012740488
0.012519803
0.012307041
0.012102989
0.01190833
0.011723624
0.011549301
0.011385648
0.011232797
0.011090727
0.010959267
0.010838104
0.010726802
0.010624866
0.010531677
0.010446606
0.010369005
0.010298229
0.010233661
0.010174723
0.010120885
0.010071672
0.010026665
0.0099855266
0.0099478942
0.0099134963
0.0098821066
0.0098535142
0.0098275307
0.0098039848
0.0097827181
0.0097635808
0.0097464305
0.0097311295
0.0097175449
0.0097055483
0.0096950154
0.0096858261
0.0096778653
0.0096710232
0.0096651957
0.0096602851
0.0096562004
0.0096528574
0.0096501795
0.0096480979
0.0096465282
0.013438247
0.013202116
0.012971011
0.012745937
0.012527833
0.012317564
0.012115905
0.011923526
0.01174098
0.011568686
0.011406922
0.011255816
0.011115341
0.010985326
0.010865461
0.010755318
0.010654395
0.010562099
0.01047781
0.010400891
0.010330712
0.010266667
0.010208192
0.010154771
0.010105937
0.010061287
0.010020479
0.0099831479
0.0099490522
0.0099179572
0.0098896543
0.0098639564
0.0098406931
0.0098197058
0.0098008451
0.0097839679
0.0097689364
0.0097556171
0.0097438814
0.0097336045
0.0097246662
0.0097169509
0.0097103486
0.0097047552
0.0097000728
0.0096962102
0.0096930832
0.0096906152
0.0096887365
0.0096873614
0.013672986
0.013435919
0.013202754
0.012974563
0.012752335
0.012536997
0.012329399
0.012130306
0.011940373
0.011760144
0.011590026
0.01143029
0.011281056
0.011142294
0.011013832
0.010895362
0.010786462
0.010686633
0.010595301
0.010511857
0.010435677
0.010366145
0.010302671
0.010244703
0.010191737
0.010143316
0.010099075
0.010058609
0.010021622
0.0099878606
0.0099570916
0.0099291089
0.0099037268
0.0098807754
0.0098600967
0.009841541
0.0098249648
0.0098102301
0.0097972027
0.0097857539
0.0097757585
0.0097670959
0.0097596502
0.0097533113
0.0097479747
0.0097435426
0.0097399238
0.0097370338
0.0097347959
0.00973314
0.0097319772
0.013667964
0.013434102
0.013204103
0.012979024
0.012759836
0.012547453
0.012342711
0.01214636
0.011959044
0.011781292
0.011613503
0.011455936
0.011308706
0.011171778
0.01104498
0.010928007
0.010820436
0.010721784
0.010631489
0.010548956
0.010473575
0.010404744
0.01034189
0.010284474
0.01023201
0.010184053
0.010140237
0.010100158
0.010063553
0.010030161
0.0099997523
0.0099721233
0.0099470899
0.0099244829
0.0099041444
0.0098859245
0.0098696798
0.0098552713
0.0098425649
0.0098314314
0.0098217451
0.009813385
0.0098062351
0.0098001848
0.0097951299
0.0097909721
0.0097876203
0.0097849901
0.0097830047
0.0097815936
0.0097806648
0.013663394
0.013432954
0.013206329
0.012984564
0.012768616
0.012559382
0.012357684
0.012164256
0.01197973
0.01180462
0.011639315
0.011484063
0.01133897
0.011204
0.011078979
0.01096361
0.010857457
0.010760066
0.010670885
0.010589332
0.010514812
0.01044674
0.010384559
0.010327743
0.010275828
0.010228395
0.010185019
0.01014538
0.010109196
0.010076211
0.0100462
0.010018962
0.0099943129
0.0099720854
0.0099521216
0.0099342714
0.009918391
0.0099043411
0.0098919871
0.0098811996
0.0098718523
0.0098638238
0.009856998
0.0098512641
0.0098465175
0.0098426601
0.0098396006
0.0098372548
0.0098355461
0.0098344034
0.013659462
0.01343266
0.013209621
0.012991377
0.012778871
0.012572984
0.012374522
0.012184203
0.012002643
0.011830344
0.01166768
0.01151489
0.011372073
0.011239186
0.011116057
0.011002409
0.010897756
0.010801714
0.010713727
0.010633226
0.010559633
0.010492382
0.01043093
0.010374764
0.010323473
0.010276573
0.010233698
0.010194543
0.010158823
0.010126288
0.010096716
0.010069908
0.010045683
0.010023873
0.010004322
0.0099868781
0.009971398
0.0099577415
0.0099457744
0.0099353662
0.0099263904
0.0099187252
0.0099122542
0.0099068664
0.0099024571
0.0098989282
0.0098961884
0.0098941537
0.0098927475
0.0098918918
0.013656385
0.013433436
0.013214197
0.012999684
0.012790826
0.012588487
0.012393454
0.012206431
0.012028017
0.011858699
0.011698836
0.011548659
0.011408256
0.011277581
0.011156452
0.011044558
0.010941576
0.010846982
0.010760273
0.010680899
0.010608303
0.010541935
0.010481276
0.010425832
0.010375192
0.010328874
0.01028656
0.010247937
0.010212729
0.010180689
0.010151601
0.010125267
0.010101509
0.010080159
0.010061061
0.010044064
0.010029023
0.010015798
0.010004255
0.0099942625
0.0099856934
0.0099784259
0.0099723429
0.0099673336
0.0099632931
0.0099601232
0.0099577328
0.0099560381
0.0099549633
0.0099544228
0.01365441
0.013435529
0.013220303
0.013009734
0.012804731
0.012606141
0.012414735
0.012231197
0.012056109
0.011889943
0.011733045
0.011585631
0.011447783
0.011319451
0.011200452
0.011090474
0.010989206
0.010896146
0.010810798
0.01073263
0.010661102
0.010595684
0.010535882
0.010481243
0.010431279
0.010385612
0.010343913
0.010305875
0.010271229
0.010239735
0.010211179
0.010185368
0.010162123
0.010141279
0.010122679
0.010106172
0.010091613
0.010078862
0.010067783
0.010058245
0.010050121
0.010043288
0.01003763
0.010033034
0.010029396
0.010026618
0.010024609
0.010023286
0.010022572
0.010022378
0.013653819
0.013439219
0.01322822
0.013021804
0.012820865
0.012626227
0.012438645
0.012258781
0.012087201
0.011924359
0.011770587
0.011626089
0.011490939
0.011365083
0.011248346
0.011140397
0.011040935
0.010949499
0.010865598
0.010788718
0.010718336
0.010653934
0.010595092
0.010541274
0.010492062
0.010447111
0.010406086
0.010368691
0.010334663
0.010303769
0.0102758
0.010250563
0.010227883
0.010207595
0.010189541
0.010173572
0.010159542
0.010147309
0.010136738
0.010127698
0.010120061
0.010113703
0.010108508
0.010104364
0.010101166
0.010098816
0.010097223
0.010096304
0.010095983
0.010096167
0.013654929
0.01344482
0.013238259
0.013036207
0.012839538
0.012649055
0.012465492
0.012289492
0.012121601
0.011962256
0.011811771
0.011670341
0.01153803
0.011414781
0.011300453
0.01119461
0.011097067
0.011007354
0.010924991
0.010849484
0.010780331
0.010717043
0.010659199
0.010606265
0.01055789
0.010513721
0.010473434
0.010436744
0.010403396
0.010373162
0.010345837
0.010321232
0.010299173
0.010279495
0.010262041
0.010246662
0.01023321
0.010221544
0.01021153
0.010203035
0.010195929
0.01019009
0.010185401
0.01018175
0.010179031
0.010177148
0.010176009
0.010175531
0.010175638
0.010176235
0.013658094
0.013452683
0.013250767
0.013053287
0.012861092
0.012674965
0.012495616
0.012323667
0.012159645
0.012003966
0.011856931
0.011718719
0.011589386
0.011468861
0.011356923
0.01125343
0.011157934
0.011070047
0.010989316
0.010915271
0.010847433
0.010785365
0.010728551
0.010676596
0.010629132
0.010585815
0.010546336
0.010510419
0.010477818
0.01044831
0.010421693
0.010397782
0.010376405
0.010357397
0.010340601
0.010325867
0.010313049
0.010302005
0.010292599
0.010284698
0.010278173
0.010272901
0.010268764
0.010265651
0.010263456
0.010262081
0.010261436
0.010261438
0.010262011
0.01026306
0.013663706
0.013463195
0.01326613
0.013073425
0.012885905
0.01270433
0.012529386
0.012361673
0.012201695
0.01204985
0.011906424
0.011771581
0.011645372
0.011527727
0.011418382
0.011317254
0.011223902
0.01113794
0.011058935
0.010986447
0.010920053
0.010859221
0.010803548
0.010752656
0.010706182
0.010663795
0.010625201
0.010590131
0.010558349
0.010529638
0.010503799
0.010480651
0.010460022
0.010441749
0.010425674
0.010411648
0.010399523
0.010389159
0.010380418
0.010373167
0.010367276
0.010362622
0.010359087
0.01035656
0.010354935
0.010354115
0.010354009
0.010354535
0.010355615
0.010357155
0.013672199
0.013476786
0.013284769
0.013097037
0.012914388
0.012737556
0.012567203
0.012403905
0.012248145
0.012100299
0.011960636
0.011829309
0.011706363
0.01159178
0.011485129
0.011386458
0.011295353
0.011211421
0.011134233
0.01106345
0.010998528
0.010939032
0.010884603
0.010834862
0.010789463
0.010748091
0.010710463
0.010676323
0.01064544
0.010617603
0.010592619
0.010570308
0.0105505
0.010533032
0.010517748
0.010504496
0.010493129
0.010483508
0.010475494
0.010468952
0.010463753
0.010459774
0.010456896
0.010455008
0.010454005
0.010453789
0.01045427
0.010455365
0.010456998
0.010459073
0.01368405
0.013493924
0.013307146
0.013124576
0.012946986
0.012775083
0.012609502
0.012450793
0.012299417
0.01215573
0.012019981
0.011892309
0.011772735
0.01166113
0.011557478
0.011461432
0.011372695
0.011290905
0.01121567
0.011146642
0.011083279
0.011025241
0.010972152
0.010923657
0.010879426
0.010839161
0.01080259
0.010769467
0.01073957
0.010712694
0.010688648
0.010667255
0.010648347
0.010631761
0.010617342
0.010604937
0.010594401
0.010585592
0.010578371
0.010572603
0.01056816
0.010564916
0.010562754
0.010561563
0.010561238
0.01056168
0.010562801
0.010564516
0.010566751
0.010569409
0.01369978
0.013515118
0.01333376
0.013156534
0.012984183
0.012817385
0.012656746
0.012502794
0.012355962
0.012216587
0.0120849
0.011961031
0.011844994
0.011736584
0.011635933
0.011542617
0.011456361
0.011376824
0.011303683
0.011236456
0.011174787
0.011118308
0.011066665
0.011019517
0.010976555
0.010937496
0.01090208
0.010870072
0.010841256
0.010815432
0.010792415
0.010772029
0.010754107
0.010738488
0.010725016
0.010713538
0.010703909
0.010695987
0.010689632
0.010684709
0.010681089
0.010678648
0.010677267
0.010676835
0.010677247
0.010678407
0.010680224
0.010682616
0.010685507
0.0106888
0.013719949
0.013540919
0.01336515
0.013193438
0.013026494
0.012864967
0.012709435
0.012560396
0.01241826
0.012283343
0.012155859
0.012035932
0.01192365
0.011818563
0.011720957
0.011630475
0.011546813
0.011469696
0.011398665
0.011333395
0.011273534
0.011218727
0.011168637
0.011122947
0.011081364
0.011043619
0.011009466
0.010978677
0.010951045
0.010926375
0.010904486
0.010885203
0.010868362
0.010853801
0.010841364
0.0108309
0.010822262
0.010815309
0.010809899
0.010805898
0.010803176
0.010801609
0.010801079
0.010801474
0.010802691
0.010804632
0.010807208
0.010810336
0.010813942
0.010817927
0.013745161
0.013571915
0.013401891
0.013235849
0.013074469
0.012918368
0.012768093
0.012624116
0.01248682
0.012356498
0.012233343
0.01211744
0.01200871
0.011907347
0.011812998
0.011725483
0.011644597
0.011569919
0.011501146
0.011437964
0.011380031
0.011327015
0.011278598
0.011234485
0.0111944
0.011158087
0.011125312
0.011095858
0.011069522
0.011046117
0.011025463
0.011007388
0.01099173
0.010978326
0.010967022
0.010957665
0.01095011
0.010944214
0.010939835
0.010936839
0.010935096
0.010934482
0.010934879
0.010936176
0.01093827
0.010941062
0.010944465
0.010948396
0.010952779
0.01095752
0.013776057
0.013608731
0.013444591
0.013284362
0.013128688
0.012978154
0.012833276
0.012694497
0.012562174
0.012436579
0.012317894
0.012206201
0.012101339
0.012003581
0.011912583
0.011828223
0.011750134
0.011678036
0.011611663
0.011550696
0.011494819
0.011443721
0.011397106
0.011354701
0.011316242
0.01128149
0.011250219
0.011222224
0.011197307
0.011175286
0.011155984
0.011139232
0.011124867
0.011112729
0.011102662
0.011094516
0.011088143
0.0110834
0.011080146
0.011078246
0.01107757
0.011077995
0.011079402
0.011081681
0.011084729
0.01108845
0.011092753
0.011097559
0.011102791
0.011108354
0.01381331
0.013652024
0.013493891
0.0133396
0.013189759
0.013044919
0.012905565
0.012772108
0.012644881
0.012524134
0.012410046
0.012302806
0.012201884
0.012107781
0.012020317
0.011939139
0.011863972
0.011794611
0.011730769
0.011672154
0.011618469
0.011569429
0.011524759
0.011484197
0.011447504
0.01141445
0.011384822
0.011358421
0.011335056
0.011314549
0.011296726
0.011281421
0.01126847
0.011257715
0.011248999
0.011242174
0.011237091
0.011233606
0.011231578
0.011230872
0.011231359
0.011232915
0.011235424
0.011238773
0.011242862
0.011247593
0.011252878
0.011258637
0.011264794
0.011271254
0.013857626
0.013702477
0.013550456
0.013402211
0.013258314
0.013119279
0.01298556
0.012857538
0.012735519
0.01261972
0.012510258
0.012407093
0.012310674
0.01222052
0.012136662
0.012058773
0.011986704
0.011920217
0.011859048
0.011802926
0.011751582
0.011704749
0.011662172
0.011623607
0.011588832
0.011557627
0.01152979
0.011505128
0.011483459
0.011464607
0.011448401
0.011434676
0.01142327
0.011414025
0.011406785
0.011401401
0.011397724
0.01139561
0.011394918
0.011395514
0.011397268
0.011400056
0.011403764
0.01140828
0.011413502
0.011419334
0.01142569
0.011432488
0.011439654
0.011447093
0.01390973
0.013760797
0.013614972
0.013472862
0.013335
0.013201865
0.013073879
0.012951393
0.01283469
0.012723969
0.012619334
0.012520772
0.012428524
0.012342404
0.01226219
0.012187761
0.012118924
0.012055452
0.011997104
0.011943631
0.011894785
0.011850319
0.011809999
0.011773599
0.0117409
0.011711706
0.011685821
0.011663058
0.01164324
0.011626195
0.011611754
0.011599754
0.011590035
0.011582437
0.011576806
0.011572993
0.011570848
0.011570228
0.011570991
0.011573004
0.011576138
0.011580269
0.011585282
0.011591068
0.011597526
0.011604559
0.011612081
0.011620013
0.011628279
0.011636785
0.013970363
0.013827702
0.013688136
0.013552229
0.013420476
0.013293321
0.013171149
0.013054287
0.012942995
0.012837469
0.012737817
0.012643908
0.012556015
0.012473918
0.01239753
0.012326701
0.012261239
0.012200935
0.012145568
0.012094909
0.01204873
0.012006805
0.011968917
0.011934855
0.011904415
0.011877405
0.011853644
0.01183295
0.011815151
0.011800076
0.011787561
0.011777442
0.011769561
0.011763758
0.011759881
0.011757778
0.011757302
0.011758307
0.011760655
0.01176421
0.011768845
0.011774438
0.011780874
0.011788044
0.011795846
0.011804188
0.011812982
0.011822149
0.011831615
0.011841286
0.014040269
0.013903914
0.013770649
0.013640994
0.013515406
0.013394291
0.013278003
0.013166837
0.013061035
0.012960802
0.0128664
0.012777093
0.012693592
0.012615699
0.01254329
0.012476207
0.012414275
0.012357302
0.012305085
0.012257418
0.012214089
0.012174891
0.012139624
0.012108089
0.012080097
0.012055463
0.012034008
0.012015567
0.011999965
0.011987037
0.011976618
0.011968549
0.011962668
0.01195882
0.01195685
0.011956609
0.011957947
0.011960721
0.011964791
0.011970025
0.011976294
0.011983477
0.011991461
0.012000136
0.012009404
0.012019171
0.012029351
0.012039865
0.012050639
0.012061582
0.014120185
0.013990146
0.013863201
0.013739828
0.013620442
0.013505414
0.013395063
0.013289653
0.013189386
0.013094392
0.013004649
0.012920684
0.012841875
0.012768366
0.012700086
0.012636905
0.012578667
0.012525198
0.012476316
0.012431829
0.012391545
0.012355275
0.012322829
0.012294025
0.012268682
0.012246626
0.012227683
0.012211685
0.012198471
0.012187877
0.012179738
0.012173896
0.01217019
0.012168466
0.01216857
0.01217035
0.01217366
0.012178354
0.012184297
0.012191354
0.012199399
0.012208311
0.012217978
0.012228293
0.012239156
0.012250475
0.012262164
0.012274146
0.012286347
0.012298676
0.014210824
0.014087089
0.013966465
0.013849383
0.01373622
0.013627309
0.013522938
0.013423341
0.013328703
0.013239294
0.013155251
0.013075741
0.01300158
0.012932552
0.01286854
0.012809421
0.012755051
0.012705272
0.012659918
0.012618814
0.012581785
0.012548654
0.012519245
0.012493387
0.012470908
0.012451641
0.012435421
0.012422081
0.012411459
0.012403395
0.012397729
0.012394303
0.012392958
0.012393537
0.012395888
0.01239986
0.012405307
0.012412085
0.012420058
0.012429094
0.012439066
0.012449856
0.012461352
0.012473447
0.012486043
0.01249905
0.012512381
0.01252596
0.012539713
0.012553552
0.01431286
0.014195395
0.014081072
0.013970275
0.01386334
0.013760564
0.0136622
0.013568458
0.013479495
0.013395451
0.013316143
0.013242409
0.013173214
0.013108835
0.013049251
0.012994365
0.012944047
0.012898156
0.012856537
0.012819032
0.012785478
0.012755712
0.012729569
0.012706885
0.012687498
0.012671245
0.012657966
0.012647501
0.012639688
0.012634368
0.012631381
0.012630569
0.012631777
0.01263485
0.012639635
0.01264598
0.012653741
0.012662775
0.012672947
0.012684125
0.012696186
0.012709012
0.012722491
0.012736519
0.012750999
0.012765839
0.012780957
0.012796275
0.01281172
0.012827206
0.014426912
0.014315659
0.014207603
0.01410307
0.014002354
0.013905718
0.013813385
0.013725536
0.013642347
0.013563841
0.01349015
0.013421916
0.013357464
0.013297799
0.013242791
0.013192316
0.013146247
0.01310445
0.013066785
0.013033106
0.01300326
0.012977096
0.012954456
0.012935185
0.012919128
0.012906125
0.01289602
0.012888656
0.012883873
0.012881514
0.01288142
0.012883434
0.012887401
0.012893166
0.012900577
0.012909486
0.012919746
0.012931219
0.012943768
0.012957265
0.012971587
0.012986617
0.013002245
0.013018368
0.01303489
0.013051721
0.013068778
0.013085984
0.013103267
0.013120542
0.014661495
0.014553477
0.014448392
0.014346557