/*--------------------------------*- C++ -*----------------------------------*\
| =========                 |                                                 |
| \\      /  F ield         | OpenFOAM: The Open Source CFD Toolbox           |
|  \\    /   O peration     | Version:  2312                                  |
|   \\  /    A nd           | Website:  www.openfoam.com                      |
|    \\/     M anipulation  |                                                 |
\*---------------------------------------------------------------------------*/
FoamFile
{
    version     2.0;
    format      ascii;
    arch        "LSB;label=32;scalar=64";
    class       volScalarField;
    location    "0.01";
    object      CH4;
}
// * * * * * * * * * * * * * * * * * * * * * * * * * * * * * * * * * * * * * //

dimensions      [0 0 0 0 0 0 0];

internalField   nonuniform List<scalar> 
3250
(
0.01728026
0.014189122
0.011391538
0.0089110238
0.0067660369
0.0049661013
0.0035085652
0.0023762222
0.0015370389
0.00094677047
0.0005542787
0.00030817746
0.00016279191
8.1816861e-05
3.9210914e-05
1.797031e-05
7.9008959e-06
3.3437464e-06
1.3667985e-06
5.4142263e-07
2.0850353e-07
7.8295758e-08
2.8748902e-08
1.0348473e-08
3.660334e-09
1.2749086e-09
4.3811444e-10
1.4879693e-10
5.0014962e-11
1.6631731e-11
5.5493134e-12
1.836386e-12
6.005992e-13
1.9569216e-13
6.3607705e-14
2.066171e-14
6.7262795e-15
2.2059086e-15
7.3624785e-16
2.5511734e-16
9.5098099e-17
4.0091023e-17
1.9932233e-17
1.1686341e-17
7.7421335e-18
5.5362105e-18
4.1153943e-18
3.1198034e-18
2.3889061e-18
0.017271082
0.014181342
0.011385061
0.0089058085
0.0067620123
0.0049631392
0.0035065039
0.0023748818
0.0015362364
0.00094633755
0.00055407587
0.00030810185
0.00016277665
8.1824183e-05
3.9222842e-05
1.7980184e-05
7.9074045e-06
3.34751e-06
1.3687844e-06
5.4239944e-07
2.0895752e-07
7.849707e-08
2.8834702e-08
1.0383829e-08
3.6744901e-09
1.2804388e-09
4.4023e-10
1.4959198e-10
5.03094e-11
1.6739639e-11
5.5892741e-12
1.8503535e-12
6.0565285e-13
1.9752126e-13
6.4275645e-14
2.0911118e-14
6.8235466e-15
2.2467406e-15
7.5532279e-16
2.6524176e-16
1.0117006e-16
4.4095779e-17
2.2746677e-17
1.3743298e-17
9.2848925e-18
6.7023692e-18
5.0062518e-18
3.8045398e-18
2.9173265e-18
0.017250312
0.014163597
0.011370287
0.0088938737
0.0067527282
0.0049562301
0.0035016252
0.0023716447
0.0015342411
0.00094521083
0.00055350435
0.00030785027
0.00016268823
8.1806931e-05
3.9229873e-05
1.7991419e-05
7.9162842e-06
3.3531018e-06
1.3718837e-06
5.4397324e-07
2.0970564e-07
7.8834509e-08
2.8980496e-08
1.0444603e-08
3.699071e-09
1.2901307e-09
4.4396995e-10
1.5100926e-10
5.0838621e-11
1.6935411e-11
5.6624746e-12
1.8760908e-12
6.1506132e-13
2.0096445e-13
6.5549541e-14
2.1394779e-14
7.0163383e-15
2.3299394e-15
7.9541417e-16
2.871459e-16
1.1459785e-16
5.3075671e-17
2.9106343e-17
1.840827e-17
1.2781951e-17
9.3543194e-18
7.0341629e-18
5.363551e-18
4.1200561e-18
0.017217847
0.014135881
0.011347209
0.0088752151
0.0067381804
0.0049453678
0.003493921
0.0023665021
0.0015310443
0.00094338273
0.00055255814
0.0003074184
0.00016252383
8.1763399e-05
3.9231062e-05
1.8003529e-05
7.9273027e-06
3.360418e-06
1.3760528e-06
5.4612712e-07
2.1074175e-07
7.9306025e-08
2.9185681e-08
1.0530654e-08
3.7340633e-09
1.3039964e-09
4.493459e-10
1.5305592e-10
5.1606389e-11
1.7221222e-11
5.7698992e-12
1.9141053e-12
6.2903884e-13
2.0611808e-13
6.7475683e-14
2.2136625e-14
7.3180456e-15
2.463601e-15
8.6175837e-16
3.2440206e-16
1.3791587e-16
6.8879071e-17
4.0385316e-17
2.6716818e-17
1.9021846e-17
1.4094517e-17
1.0662254e-17
8.1540397e-18
6.2732415e-18
0.017173682
0.014098214
0.01131585
0.0088498528
0.0067183861
0.0049305652
0.0034833995
0.0023594581
0.001526647
0.00094085245
0.00055123571
0.00030680472
0.00016228226
8.1692818e-05
3.9225972e-05
1.8016296e-05
7.9403622e-06
3.3694211e-06
1.3812803e-06
5.4885891e-07
2.1206641e-07
7.9912561e-08
2.9450954e-08
1.0642395e-08
3.7796858e-09
1.3221437e-09
4.5640832e-10
1.5575468e-10
5.2622627e-11
1.76021e-11
5.9136337e-12
1.9653561e-12
6.4798258e-13
2.13157e-13
7.0136655e-14
2.3178895e-14
7.752198e-15
2.6619506e-15
9.6357828e-16
3.8332144e-16
1.7561414e-16
9.4787831e-17
5.9027311e-17
4.0512197e-17
2.9407864e-17
2.1997083e-17
1.6716624e-17
1.2813332e-17
9.8696248e-18
0.017121064
0.014053375
0.011278528
0.0088196666
0.0066948169
0.0049129259
0.0034708473
0.0023510406
0.0015213795
0.00093781055
0.00054963701
0.00030605588
0.00016198214
8.1600871e-05
3.9215272e-05
1.8028962e-05
7.9546155e-06
3.3795167e-06
1.3872204e-06
5.5198887e-07
2.135932e-07
8.0614964e-08
2.9759409e-08
1.077281e-08
3.8331209e-09
1.3434728e-09
4.6473826e-10
1.5894921e-10
5.3829836e-11
1.8058583e-11
6.0864387e-12
2.027495e-12
6.7108603e-13
2.2182067e-13
7.3457822e-14
2.450688e-14
8.3214995e-15
2.9314615e-15
1.1071243e-15
4.6902221e-16
2.3167188e-16
1.3384627e-16
8.7354823e-17
6.1569737e-17
4.5301818e-17
3.4109563e-17
2.600535e-17
1.9966044e-17
1.5392683e-17
0.017061773
0.014002879
0.011236506
0.0087856846
0.0066682812
0.0048930606
0.0034567035
0.0023415478
0.0015154313
0.0009343687
0.00054782246
0.00030520154
0.00016163643
8.1492382e-05
3.9200333e-05
1.804167e-05
7.9698903e-06
3.3905252e-06
1.3937536e-06
5.5545063e-07
2.15289e-07
8.1397912e-08
3.0104348e-08
1.0919098e-08
3.8932429e-09
1.3675452e-09
4.7416982e-10
1.6257822e-10
5.5205322e-11
1.8584609e-11
6.2857801e-12
2.0997619e-12
6.9812543e-13
2.3206234e-13
7.7443963e-14
2.6136369e-14
9.0411569e-15
3.2842889e-15
1.3015923e-15
5.8836426e-16
3.112114e-16
1.8990254e-16
1.2827931e-16
9.2106479e-17
6.8401191e-17
5.1736806e-17
3.9534607e-17
3.0389774e-17
2.3444205e-17
0.016991229
0.01394282
0.011186539
0.0087452862
0.006636737
0.0048694435
0.003439884
0.0023302531
0.0015083479
0.00093026419
0.00054565369
0.00030417667
0.0001612189
8.1359257e-05
3.9180188e-05
1.8055532e-05
7.9874561e-06
3.4033561e-06
1.4014213e-06
5.5953275e-07
2.1729633e-07
8.2327835e-08
3.0515351e-08
1.1093955e-08
3.9653364e-09
1.3965073e-09
4.8555707e-10
1.669758e-10
5.6876465e-11
1.923475e-11
6.5314736e-12
2.1896732e-12
7.3203649e-13
2.45068e-13
8.2600781e-14
2.8300545e-14
1.0029909e-14
3.7876615e-15
1.5888395e-15
7.6938446e-16
4.3398679e-16
2.7734348e-16
1.9250473e-16
1.4019782e-16
1.0485505e-16
7.959046e-17
6.0930201e-17
4.6882831e-17
3.6187999e-17
0.016908697
0.013872575
0.011128113
0.008698062
0.0065998702
0.0048418437
0.0034202269
0.0023170496
0.0015000628
0.0009254587
0.0005431105
0.00030297171
0.00016072573
8.1200368e-05
3.915479e-05
1.8070813e-05
8.0075895e-06
3.4182097e-06
1.4103466e-06
5.6430395e-07
2.1965084e-07
8.3422223e-08
3.1000633e-08
1.1301103e-08
4.0510404e-09
1.4310636e-09
4.9919738e-10
1.7226541e-10
5.8889373e-11
2.0039719e-11
6.8320759e-12
2.3010878e-12
7.744816e-13
2.6160178e-13
8.9305649e-14
3.1201988e-14
1.1406236e-14
4.5163997e-15
2.019089e-15
1.0473338e-15
6.2552341e-16
4.1505155e-16
2.9420651e-16
2.1659505e-16
1.6287667e-16
1.2397695e-16
9.5051756e-17
7.3199066e-17
5.6528315e-17
0.016813425
0.013791508
0.01106071
0.0086435997
0.0065573659
0.004810031
0.003397572
0.0023018318
0.0014905111
0.00091991514
0.00054017352
0.00030157768
0.00016015343
8.10148e-05
3.9124229e-05
1.808787e-05
8.0306222e-06
3.4353198e-06
1.4206728e-06
5.6984403e-07
2.2239408e-07
8.4701607e-08
3.156991e-08
1.1544984e-08
4.1523284e-09
1.4720716e-09
5.154565e-10
1.7860127e-10
6.1296094e-11
2.1047881e-11
7.1967153e-12
2.4390284e-12
8.2772131e-13
2.827443e-13
9.8112311e-14
3.5148312e-14
1.3355307e-14
5.5899999e-15
2.6737545e-15
1.4799105e-15
9.2785746e-16
6.3424443e-16
4.5687937e-16
3.3914734e-16
2.5611697e-16
1.9538597e-16
1.4998665e-16
1.1558776e-16
8.9301003e-17
0.01670465
0.013698979
0.010983805
0.0085814869
0.0065089114
0.0047737784
0.0033717627
0.0022844976
0.0014796304
0.0009135982
0.00053682453
0.00029998629
0.00015949893
8.0801896e-05
3.9088755e-05
1.8107157e-05
8.0569495e-06
3.4549593e-06
1.4325659e-06
5.7624579e-07
2.2557464e-07
8.6190162e-08
3.2234722e-08
1.1830922e-08
4.2715909e-09
1.5205809e-09
5.347875e-10
1.8617945e-10
6.4245151e-11
2.2238453e-11
7.6385235e-12
2.609878e-12
8.9489547e-13
3.1005641e-13
1.0984943e-13
4.0614965e-14
1.6170967e-14
7.2018005e-15
3.6863067e-15
2.1625201e-15
1.4108797e-15
9.8700984e-16
7.1981642e-16
5.3775275e-16
4.0746613e-16
3.1141969e-16
2.3931256e-16
1.8454396e-16
1.4262884e-16
0.016581599
0.013594344
0.010896877
0.0085113155
0.0064541996
0.004732865
0.0033426479
0.0022649496
0.0014673619
0.00090647503
0.00053304691
0.00029819021
0.00015875971
8.0561322e-05
3.9048813e-05
1.8129252e-05
8.0870422e-06
3.4774477e-06
1.4462195e-06
5.8361762e-07
2.2924963e-07
8.7916515e-08
3.3008857e-08
1.2165344e-08
4.4117445e-09
1.5778875e-09
5.5775598e-10
1.9524122e-10
6.7847276e-11
2.3671664e-11
8.1807316e-12
2.823113e-12
9.8052119e-13
3.4584344e-13
1.2578177e-13
4.8349676e-14
2.0326503e-14
9.6686179e-15
5.278022e-15
3.2545416e-15
2.1919239e-15
1.5610768e-15
1.1493402e-15
8.6295004e-16
6.5565597e-16
5.0188276e-16
3.8603028e-16
2.9785166e-16
2.3027804e-16
0.0164435
0.013476964
0.010799412
0.0084326864
0.0063929333
0.0046870792
0.003310085
0.002243097
0.0014536517
0.00089851608
0.00052882604
0.00029618329
0.00015793394
8.0293141e-05
3.9005087e-05
1.8154878e-05
8.1214625e-06
3.5031599e-06
1.4618605e-06
5.9208691e-07
2.3348654e-07
8.9914791e-08
3.390891e-08
1.2556066e-08
4.5763778e-09
1.6456064e-09
5.8507555e-10
2.0608611e-10
7.2276758e-11
2.5415095e-11
8.8532915e-12
3.092202e-12
1.0911932e-12
3.9357848e-13
1.4787655e-13
5.9548165e-14
2.6595169e-14
1.3516024e-14
7.8197794e-15
5.0249258e-15
3.4698743e-15
2.5055903e-15
1.8584296e-15
1.4009491e-15
1.0668185e-15
8.1769757e-16
6.2945431e-16
4.8591638e-16
3.7578792e-16
0.016289584
0.013346212
0.010690909
0.0083452159
0.0063248301
0.0046362234
0.0032739427
0.0022188581
0.0014384522
0.00088969603
0.00052414997
0.00029396093
0.00015702068
7.999792e-05
3.8958555e-05
1.8184939e-05
8.1608835e-06
3.5325392e-06
1.479756e-06
6.0180427e-07
2.3836574e-07
9.222597e-08
3.4955007e-08
1.3012676e-08
4.769948e-09
1.725771e-09
6.176583e-10
2.1907889e-10
7.781355e-11
2.7544128e-11
9.6968131e-12
3.4363603e-12
1.2366969e-12
4.5859536e-13
1.7924952e-13
7.6152993e-14
3.6257488e-14
1.9626195e-14
1.1939802e-14
7.9320127e-15
5.5850366e-15
4.0764442e-15
3.0412886e-15
2.3001308e-15
1.7548785e-15
1.3466404e-15
1.0373786e-15
8.0118151e-16
6.1976302e-16
0.016119103
0.013201482
0.010570892
0.0082485429
0.006249629
0.0045801182
0.0032341049
0.0021921625
0.001421724
0.00087999489
0.00051900996
0.00029152042
0.00015602005
7.9676839e-05
3.8910559e-05
1.8220558e-05
8.2061139e-06
3.5661117e-06
1.5002229e-06
6.1294903e-07
2.439836e-07
9.4899647e-08
3.6171771e-08
1.3547045e-08
4.9980478e-09
1.8209716e-09
6.5669072e-10
2.3507277e-10
8.4475369e-11
3.0158191e-11
1.0764957e-11
3.8834559e-12
1.4318408e-12
5.4924429e-13
2.2492133e-13
1.0136723e-13
5.1461158e-14
2.9496462e-14
1.8713052e-14
1.2764356e-14
9.1250485e-15
6.7166261e-15
5.0346954e-15
3.8181198e-15
2.9178011e-15
2.2413232e-15
1.727714e-15
1.3348772e-15
1.0328436e-15
0.015931337
0.013042199
0.010438916
0.008142337
0.0061670964
0.0045186078
0.0031904745
0.0021629542
0.0014034378
0.00086939914
0.00051340128
0.00028886137
0.00015493348
7.9331829e-05
3.8862879e-05
1.8263125e-05
8.2581276e-06
3.6045051e-06
1.5236394e-06
6.2573621e-07
2.5045657e-07
9.7996347e-08
3.7589597e-08
1.4174015e-08
5.267772e-09
1.9345475e-09
7.0367099e-10
2.5489218e-10
9.2644693e-11
3.3442327e-11
1.2138739e-11
4.4753434e-12
1.6995326e-12
6.7884494e-13
2.9311443e-13
1.4054594e-13
7.5851404e-14
4.5695178e-14
2.9996753e-14
2.0891054e-14
1.5113609e-14
1.1199641e-14
8.4276533e-15
6.4059919e-15
4.9024711e-15
3.7692958e-15
2.907238e-15
2.2470168e-15
1.7389336e-15
0.015725617
0.012867833
0.010294581
0.0080263081
0.0060770341
0.0044515662
0.0031429778
0.0021311944
0.0013835762
0.00085790309
0.00050732394
0.00028598615
0.000153764
7.8965728e-05
3.8817835e-05
1.8314359e-05
8.3181016e-06
3.6484727e-06
1.5504594e-06
6.4042548e-07
2.5792651e-07
1.0159058e-07
3.9246363e-08
1.4912345e-08
5.5882272e-09
2.0708737e-09
7.6048011e-10
2.7990073e-10
1.027668e-10
3.7640903e-11
1.3938511e-11
5.2760329e-12
2.0759046e-12
8.6901806e-13
3.974986e-13
2.027572e-13
1.1568398e-13
7.2671522e-14
4.9029064e-14
3.4709847e-14
2.534909e-14
1.8887261e-14
1.4258677e-14
1.0859903e-14
8.3215783e-15
6.4033359e-15
4.9414339e-15
3.8204586e-15
2.9570615e-15
0.015501346
0.012677905
0.010137543
0.0079002162
0.0059792874
0.0043789034
0.0030915695
0.0020968653
0.0013621359
0.00084551021
0.00050078352
0.0002829004
0.00015251649
7.858246e-05
3.8778391e-05
1.8376375e-05
8.3874614e-06
3.6989227e-06
1.5812319e-06
6.5733274e-07
2.6656759e-07
1.0577489e-07
4.1189757e-08
1.5786002e-08
5.971247e-09
2.2358093e-09
8.3115791e-10
3.1054779e-10
1.1543427e-10
4.3088972e-11
1.6344416e-11
6.385172e-12
2.6189881e-12
1.1554279e-12
5.6111451e-13
3.0353767e-13
1.8180495e-13
1.1820407e-13
8.1504356e-14
5.845434e-14
4.3015829e-14
3.2195555e-14
2.4372883e-14
1.8595738e-14
1.4265432e-14
1.0985104e-14
8.4810845e-15
6.5588959e-15
5.0772444e-15
0.015258024
0.012472008
0.0099675184
0.0077638806
0.0058737536
0.0043005721
0.003036237
0.002059973
0.0013391303
0.00083223461
0.00049379213
0.00027961357
0.00015119805
7.8187238e-05
3.8748289e-05
1.8451771e-05
8.467938e-06
3.7569559e-06
1.6166244e-06
6.7684528e-07
2.7659562e-07
1.1066539e-07
4.3480468e-08
1.6825984e-08
6.4323941e-09
2.4370499e-09
9.1998655e-10
3.4885074e-10
1.3174053e-10
5.0298342e-11
1.9634232e-11
7.9609844e-12
3.4235882e-12
1.5977744e-12
8.2328451e-13
4.6979184e-13
2.9319526e-13
1.9600781e-13
1.375158e-13
9.9656369e-14
7.3793779e-14
5.5442057e-14
4.2071765e-14
3.2149193e-14
2.4687768e-14
1.9023283e-14
1.4692891e-14
1.1365341e-14
8.7986533e-15
0.01799783
0.014995223
0.012249846
0.0097843089
0.0076171931
0.0057603918
0.0042165749
0.0029770065
0.0020205514
0.0013145917
0.00081810248
0.00048636922
0.00027613949
0.00014981834
7.7786798e-05
3.87322e-05
1.8543734e-05
8.5616396e-06
3.8239131e-06
1.6574545e-06
6.9944164e-07
2.882803e-07
1.1640916e-07
4.619663e-08
1.8072891e-08
6.9924361e-09
2.6847862e-09
1.0340219e-09
3.9727057e-10
1.5317968e-10
6.0049812e-11
2.4243851e-11
1.0259127e-11
4.6470007e-12
2.2973198e-12
1.2518709e-12
7.485569e-13
4.8335329e-13
3.304509e-13
2.3508238e-13
1.7180797e-13
1.2788217e-13
9.6392754e-14
7.330077e-14
5.6090262e-14
4.3111489e-14
3.3238979e-14
2.5681314e-14
1.9868537e-14
1.5382241e-14
0.017669778
0.014712555
0.012011215
0.0095878121
0.0074601307
0.005639233
0.0041269724
0.0029139477
0.0019786657
0.0012885735
0.00080315361
0.00047854263
0.00027249695
0.00014838999
7.7389671e-05
3.8735894e-05
1.8656166e-05
8.6711408e-06
3.9014363e-06
1.7047307e-06
7.2571804e-07
3.0196191e-07
1.2319455e-07
4.9440077e-08
1.958061e-08
7.6795782e-09
2.9997194e-09
1.176527e-09
4.6001714e-10
1.8187e-10
7.3543351e-11
3.0868389e-11
1.3699265e-11
6.5538309e-12
3.4278376e-12
1.9651458e-12
1.2227638e-12
8.1184016e-13
5.6512478e-13
4.0657835e-13
2.9922548e-13
2.2370357e-13
1.6909704e-13
1.2882731e-13
9.8701172e-14
7.5923805e-14
5.856662e-14
4.5262573e-14
3.5021665e-14
2.7114011e-14
0.017317863
0.0144098
0.011756032
0.009378039
0.0072927694
0.0055103903
0.00403189
0.0028471793
0.0019344159
0.0012611524
0.00078744281
0.00047034943
0.00026871038
0.000146929
7.7006495e-05
3.8766532e-05
1.8793862e-05
8.7995971e-06
3.9915474e-06
1.7597055e-06
7.5642359e-07
3.1807405e-07
1.3126542e-07
5.3345328e-08
2.1421634e-08
8.5309898e-09
3.4076228e-09
1.3580365e-09
5.4333532e-10
2.2112654e-10
9.2673792e-11
4.0635701e-11
1.8980277e-11
9.5946292e-12
5.2905634e-12
3.1709874e-12
2.0396899e-12
1.3852364e-12
9.7846412e-13
7.104871e-13
5.259614e-13
3.9470096e-13
2.9909536e-13
2.2824425e-13
1.7506172e-13
1.3475795e-13
1.0399435e-13
8.0387398e-14
6.2202418e-14
4.8155984e-14
0.016942001
0.01408689
0.011484351
0.0091551301
0.0071152975
0.0053740693
0.0039315257
0.0027768739
0.0018879402
0.0012324309
0.00077104133
0.00046183693
0.00026481044
0.00014545527
7.6650361e-05
3.8832912e-05
1.8962685e-05
8.9508859e-06
4.0967498e-06
1.8239461e-06
7.925079e-07
3.3717484e-07
1.4094101e-07
5.8092693e-08
2.3695262e-08
9.621304e-09
3.9229348e-09
1.5950448e-09
6.5609059e-10
2.7608305e-10
1.204757e-10
5.5402337e-11
2.728056e-11
1.4544515e-11
8.4121331e-12
5.2373451e-12
3.4624519e-12
2.3952615e-12
1.7122668e-12
1.252922e-12
9.3215431e-13
7.0182511e-13
5.329954e-13
4.0733575e-13
3.1272713e-13
2.4087605e-13
1.8594994e-13
1.4375752e-13
1.1123488e-13
8.6109623e-14
0.019568503
0.016542164
0.013743988
0.011196408
0.0089193767
0.0069280301
0.0052305783
0.0038261568
0.0027032626
0.0018394176
0.0012025389
0.00075403802
0.00045306351
0.00026083471
0.00014399306
7.633721e-05
3.8945646e-05
1.9169802e-05
9.1297876e-06
4.2201616e-06
1.8994286e-06
8.3518561e-07
3.5999032e-07
1.5264377e-07
6.3927857e-08
2.6532838e-08
1.1044735e-08
4.5857745e-09
1.9131414e-09
8.1212754e-10
3.5486803e-10
1.6188166e-10
7.8262826e-11
4.0607823e-11
2.2748298e-11
1.371952e-11
8.8191088e-12
5.963286e-12
4.18815e-12
3.0237803e-12
2.2270308e-12
1.6640194e-12
1.2564683e-12
9.5607241e-13
7.3162038e-13
5.6216843e-13
4.3322709e-13
3.3452371e-13
2.5863179e-13
2.001006e-13
1.5488402e-13
0.019082415
0.01611866
0.013381474
0.010892636
0.0086712392
0.0067314224
0.0050803375
0.0037161464
0.0026266389
0.0017890707
0.001171635
0.00073654049
0.00044409944
0.0002568284
0.00014257159
7.6086325e-05
3.9117702e-05
1.9424007e-05
9.3422231e-06
4.3656912e-06
1.9886643e-06
8.8602458e-07
3.8747547e-07
1.6693769e-07
7.1194422e-08
3.0195065e-08
1.2858397e-08
5.4610634e-09
2.3483198e-09
1.0329277e-09
4.7050439e-10
2.2500621e-10
1.1442829e-10
6.2411161e-11
3.6554392e-11
2.2852596e-11
1.5086446e-11
1.0392385e-11
7.3907613e-12
5.3806841e-12
3.9850161e-12
2.9887513e-12
2.2624919e-12
1.7245424e-12
1.3211904e-12
1.0159199e-12
7.8322048e-13
6.0487187e-13
4.6762723e-13
3.6172735e-13
2.7994096e-13
0.018568855
0.01567206
0.012999976
0.010573687
0.0084113633
0.0065260815
0.0049238868
0.0036019475
0.0025473614
0.0017371668
0.001139908
0.00071867581
0.00043502766
0.00025284501
0.00014122571
7.5920899e-05
3.9364838e-05
1.9736108e-05
9.595559e-06
4.5382681e-06
2.09487e-06
9.4706647e-07
4.2090176e-07
1.8457806e-07
8.0363367e-08
3.5012983e-08
1.5209496e-08
6.6476063e-09
2.9566126e-09
1.3524551e-09
6.4411112e-10
3.2333096e-10
1.7274387e-10
9.8651885e-11
6.0082057e-11
3.8721542e-11
2.6134766e-11
1.8282603e-11
1.3139067e-11
9.6336776e-12
7.1692707e-12
5.394629e-12
4.0929204e-12
3.1244792e-12
2.3960596e-12
1.8435273e-12
1.4216785e-12
1.0980069e-12
8.4875153e-13
6.5633866e-13
0.018028684
0.015203237
0.012600388
0.010240448
0.0081405939
0.0063127754
0.0047618912
0.0034841065
0.0024658549
0.0016840189
0.001107577
0.00070059112
0.00042594438
0.00024894705
0.00013999657
7.5868695e-05
3.9706184e-05
2.0119419e-05
9.899001e-06
4.7441505e-06
2.2221986e-06
1.0209906e-06
4.6198836e-07
2.0657305e-07
9.2397446e-08
4.1174258e-08
1.8350783e-08
8.285109e-09
3.8246885e-09
1.8248924e-09
9.1024405e-10
4.7941789e-10
2.683047e-10
1.5967178e-10
1.0057321e-10
6.6496707e-11
4.5717231e-11
3.239649e-11
2.3489807e-11
1.7328225e-11
1.2949669e-11
9.7723644e-12
7.4289652e-12
5.678635e-12
4.3583706e-12
3.3548749e-12
2.5876424e-12
1.9984133e-12
1.544383e-12
1.1937282e-12
0.017463109
0.014713403
0.012183905
0.0098940631
0.0078599857
0.0060924396
0.0045951436
0.0033632636
0.0023826105
0.0016299851
0.0010748912
0.0006824537
0.0004169596
0.0002452068
0.00013893248
7.5962515e-05
4.0164949e-05
2.0590376e-05
1.0264101e-05
4.9913305e-06
2.376054e-06
1.1113291e-06
5.1311696e-07
2.3496734e-07
1.077911e-07
4.920236e-08
2.2632491e-08
1.0589684e-08
5.0887265e-09
2.5374334e-09
1.3258087e-09
7.311975e-10
4.2694439e-10
2.6343435e-10
1.7075892e-10
1.1535404e-10
8.0543718e-11
5.770051e-11
4.2155955e-11
3.1262782e-11
2.3449111e-11
1.7740609e-11
1.3509656e-11
1.033824e-11
7.9399442e-12
6.1137742e-12
4.7158375e-12
3.6413881e-12
2.8131032e-12
2.1732652e-12
0.016873729
0.014204128
0.011752031
0.0095359362
0.0075708086
0.0058661785
0.0044245644
0.0032401506
0.002298183
0.0015754665
0.001042129
0.00066445076
0.00040819742
0.00024170699
0.00013808989
7.6242392e-05
4.0769494e-05
2.1169337e-05
1.0705404e-05
5.2900715e-06
2.5635291e-06
1.2227142e-06
5.7744371e-07
2.7225742e-07
1.2769368e-07
6.0031275e-08
2.8578387e-08
1.3894755e-08
6.9639239e-09
3.6310959e-09
1.9848298e-09
1.1425414e-09
6.9287498e-10
4.4109826e-10
2.9296267e-10
2.0152145e-10
1.4255959e-10
1.0308075e-10
7.5805586e-11
5.6476546e-11
4.24974e-11
3.2222955e-11
2.4574385e-11
1.8822922e-11
1.446361e-11
1.1138962e-11
8.5912712e-12
6.6319056e-12
5.1210109e-12
3.9538244e-12
0.016262559
0.013677354
0.011306594
0.009167742
0.0072745479
0.005635262
0.0042511951
0.0031155854
0.0022131859
0.001520904
0.0010095956
0.00064678862
0.00039979622
0.00023854152
0.00013753425
7.6755229e-05
4.1554111e-05
2.1881493e-05
1.1241248e-05
5.6536142e-06
2.7940574e-06
1.361139e-06
6.6168121e-07
3.1973303e-07
1.5404217e-07
7.4861124e-08
3.6975109e-08
1.871592e-08
9.7912869e-09
5.3343345e-09
3.0426846e-09
1.8208445e-09
1.1415369e-09
7.4648008e-10
5.0612009e-10
3.5352196e-10
2.5288586e-10
1.8431962e-10
1.3632081e-10
1.0197e-10
7.6945538e-11
5.8454138e-11
4.4634492e-11
3.4213006e-11
2.6298144e-11
2.0253592e-11
1.5617661e-11
1.2050678e-11
9.2997784e-12
7.1749348e-12
0.015632049
0.013135401
0.010849745
0.0087914185
0.0069728956
0.0054011146
0.0040761888
0.0029904622
0.0021282841
0.001466773
0.00097762045
0.00062969138
0.00039190851
0.00023581604
0.00013734099
7.755624e-05
4.2560346e-05
2.2758048e-05
1.1894737e-05
6.0990756e-06
3.0805234e-06
1.5392488e-06
7.687036e-07
3.809631e-07
1.8959346e-07
9.547234e-08
4.9013375e-08
2.5852142e-08
1.4111172e-08
8.0166403e-09
4.755296e-09
2.9458145e-09
1.9008614e-09
1.2718475e-09
8.7757641e-10
6.2103326e-10
4.4850434e-10
3.2916137e-10
2.446495e-10
1.8364204e-10
1.3891046e-10
1.0569845e-10
8.0790244e-11
6.1959519e-11
4.7633063e-11
3.6679527e-11
2.8273091e-11
2.1803268e-11
1.6813879e-11
1.2961088e-11
0.014985081
0.012580968
0.010383947
0.0084091533
0.0066677333
0.0051652987
0.003900793
0.0028657379
0.0020441831
0.0014135757
0.00094655235
0.00061339885
0.00038470045
0.00023364852
0.00013759557
7.8710827e-05
4.3838615e-05
2.383768e-05
1.2694782e-05
6.6484402e-06
3.4391226e-06
1.7714778e-06
9.053277e-07
4.6258322e-07
2.3823353e-07
1.245042e-07
6.6494924e-08
3.6538875e-08
2.077658e-08
1.2272375e-08
7.541259e-09
4.8156372e-09
3.1856963e-09
2.1736935e-09
1.5224612e-09
1.0895083e-09
7.9332953e-10
5.8572229e-10
4.3721008e-10
3.2917762e-10
2.4951069e-10
1.9010805e-10
1.4541936e-10
1.1156035e-10
8.5762281e-11
6.6020058e-11
5.0861854e-11
3.9194795e-11
3.0199401e-11
2.3256349e-11
0.014324968
0.012017114
0.0099119535
0.0080233565
0.0063611048
0.0049294871
0.0037263266
0.0027424131
0.0019616152
0.0013618323
0.0009167541
0.00059816355
0.00037835081
0.00023216986
0.00013839851
8.0296534e-05
4.5450017e-05
2.5168357e-05
1.367693e-05
7.330136e-06
3.9063213e-06
2.0619179e-06
1.0839295e-06
5.7241419e-07
3.0550506e-07
1.6583598e-07
9.2129923e-08
5.2673874e-08
3.1123241e-08
1.9048518e-08
1.2077722e-08
7.9189963e-09
5.3519966e-09
3.7136027e-09
2.6345833e-09
1.903589e-09
1.3959931e-09
1.0360263e-09
7.7621034e-10
5.8592426e-10
4.44884e-10
3.39323e-10
2.5969401e-10
1.9924895e-10
1.5313881e-10
1.178291e-10
9.0711846e-11
6.9842645e-11
5.37589e-11
4.1352577e-11
0.013655432
0.011447225
0.0094367697
0.0076366198
0.0060551758
0.0046954281
0.00355415
0.002621509
0.0018813222
0.0013120691
0.00088859497
0.00058424654
0.00037304882
0.00023152265
0.00013986154
8.2403218e-05
4.7467983e-05
2.6809991e-05
1.4882673e-05
8.2113827e-06
4.4877576e-06
2.4320007e-06
1.319974e-06
7.214225e-07
3.9931736e-07
2.2512668e-07
1.2995582e-07
7.7139917e-08
4.7216558e-08
2.9832748e-08
1.9443269e-08
1.3043495e-08
8.9790859e-09
6.3206994e-09
4.5338808e-09
3.3031993e-09
2.4373275e-09
1.8169521e-09
1.365624e-09
1.0330835e-09
7.8549276e-10
5.9957343e-10
4.5900005e-10
3.5212734e-10
2.7052455e-10
2.0800947e-10
1.5999869e-10
1.2306217e-10
9.461256e-11
7.2685579e-11
0.012980556
0.010874959
0.0089615923
0.0072516595
0.0057521821
0.0044648996
0.0033856279
0.0025040381
0.0018040346
0.0012648037
0.00086244129
0.00057191166
0.00036899093
0.00023185741
0.00014210693
8.5133737e-05
4.997981e-05
2.884055e-05
1.6414544e-05
9.3020531e-06
5.2100093e-06
2.9124711e-06
1.6339527e-06
9.2480519e-07
5.3083551e-07
3.1052484e-07
1.8589937e-07
1.142455e-07
7.2194182e-08
4.6918001e-08
3.1321268e-08
2.1431461e-08
1.4988798e-08
1.0682645e-08
7.735878e-09
5.676543e-09
4.2107967e-09
3.1510719e-09
2.3747088e-09
1.7996401e-09
1.3697859e-09
1.0460837e-09
8.0085408e-10
6.1418497e-10
4.7156124e-10
3.6228016e-10
2.7837223e-10
2.1385346e-10
1.6419871e-10
1.2596644e-10
0.012304699
0.010304161
0.0084897307
0.0068712429
0.0054543642
0.0042396544
0.0032220853
0.0023909709
0.0017304465
0.0012205277
0.00083864448
0.00056141764
0.0003663765
0.00023333564
0.00014526974
8.8603997e-05
5.3085241e-05
3.1340228e-05
1.8367337e-05
1.0641025e-05
6.1349845e-06
3.5395791e-06
2.0532563e-06
1.203226e-06
7.1553152e-07
4.3353805e-07
2.684827e-07
1.7028973e-07
1.1071263e-07
7.375232e-08
5.0271978e-08
3.4990457e-08
2.4807671e-08
1.7870225e-08
1.3047164e-08
9.6331411e-09
7.178284e-09
5.389208e-09
4.0704293e-09
3.0890352e-09
2.3529525e-09
1.7973083e-09
1.3756958e-09
1.0544692e-09
8.0894697e-10
6.2083817e-10
4.7646963e-10
3.6554424e-10
2.802586e-10
2.1466929e-10
0.011632379
0.0097387558
0.0080245066
0.006498098
0.0051638899
0.0040213564
0.0030647564
0.0022831968
0.0016611872
0.0011796859
0.00081752589
0.00055300688
0.00036539889
0.00023612068
0.00014949011
9.2940383e-05
5.689832e-05
3.4539607e-05
2.0702277e-05
1.2318797e-05
7.3182087e-06
4.3584353e-06
2.6132892e-06
1.5840349e-06
9.742986e-07
6.0999492e-07
3.8962874e-07
2.5422256e-07
1.6947973e-07
1.1536274e-07
8.006656e-08
5.6554331e-08
4.0569662e-08
2.9493948e-08
2.1685852e-08
1.6096165e-08
1.2040654e-08
9.0642141e-09
6.8583525e-09
5.2101948e-09
3.9704137e-09
3.0326825e-09
2.3202737e-09
1.7771596e-09
1.362003e-09
1.044031e-09
8.0015917e-10
6.1295847e-10
4.6919732e-10
3.5878665e-10
0.010968129
0.0091826155
0.0075691351
0.0061348104
0.0048827672
0.0038115094
0.0029147291
0.0021814812
0.0015967878
0.001142651
0.00079935783
0.00054689078
0.00036622697
0.00024035745
0.00015490101
9.8274068e-05
6.1775021e-05
3.8329098e-05
2.3551689e-05
1.4418268e-05
8.826886e-06
5.4243219e-06
3.3584472e-06
2.1022664e-06
1.3344221e-06
8.6093466e-07
5.6544185e-07
3.7830824e-07
2.5780495e-07
1.7880313e-07
1.2604605e-07
9.0167458e-08
6.5338976e-08
4.7877299e-08
3.5415367e-08
2.6405153e-08
1.9816217e-08
1.4950656e-08
1.132786e-08
8.6116594e-09
6.5635019e-09
5.0118825e-09
3.8320475e-09
2.9323068e-09
2.2446592e-09
1.7182779e-09
1.3149192e-09
1.0056461e-09
7.6845948e-10
5.8657221e-10
0.01031633
0.008639408
0.0071265915
0.0057837095
0.0046127496
0.0036113807
0.0027728841
0.0020864174
0.0015376441
0.0011096936
0.00078434021
0.0005432348
0.00036901355
0.0002461774
0.0001616018
0.00010511816
6.7503529e-05
4.2839293e-05
2.7039195e-05
1.7029783e-05
1.0738632e-05
6.8023283e-06
4.3421173e-06
2.8009144e-06
1.8300202e-06
1.2131184e-06
8.1672345e-07
5.5860564e-07
3.8802406e-07
2.7351603e-07
1.9542117e-07
1.4132787e-07
1.0330386e-07
7.6209047e-08
5.6662765e-08
4.240701e-08
3.1910129e-08
2.4117327e-08
1.8291626e-08
1.3911074e-08
1.0601363e-08
8.0910039e-09
6.1810769e-09
4.724524e-09
3.611776e-09
2.7606457e-09
2.1091334e-09
1.6102435e-09
1.2282115e-09
9.3573298e-10
0.0096810335
0.0081124361
0.0066994715
0.0054467498
0.0043552394
0.0034219232
0.0026398329
0.001998377
0.0014839745
0.0010809475
0.00077256975
0.00054213256
0.00037386987
0.00025372632
0.0001701506
0.00011311563
7.4128029e-05
4.8241708e-05
3.127003e-05
2.0248609e-05
1.3137437e-05
8.5646126e-06
5.6248555e-06
3.7297894e-06
2.501387e-06
1.6986998e-06
1.1688508e-06
8.1496917e-07
5.7556442e-07
4.1142537e-07
2.9737054e-07
2.1707891e-07
1.5985618e-07
1.1860907e-07
8.8571224e-08
6.6496693e-08
5.0145148e-08
3.7950011e-08
2.8802104e-08
2.1906889e-08
1.6689075e-08
1.2728054e-08
9.7136255e-09
7.4152615e-09
5.6605015e-09
4.3195889e-09
3.2944274e-09
2.5105582e-09
1.9112759e-09
1.4532826e-09
0.0090657723
0.0076044748
0.006289852
0.0051253962
0.0041111939
0.0032437002
0.002515856
0.0019174577
0.0014357754
0.0010563678
0.00076400064
0.00054355797
0.0003808491
0.00026319725
0.0001805043
0.00012210092
8.1899889e-05
5.46328e-05
3.6339032e-05
2.4164726e-05
1.6105749e-05
1.078436e-05
7.2698462e-06
4.9421668e-06
3.3925607e-06
2.3534878e-06
1.6505494e-06
1.1701883e-06
8.3834387e-07
6.0651619e-07
4.4274517e-07
3.2579949e-07
2.4144046e-07
1.8001789e-07
1.349178e-07
1.0155489e-07
7.6713665e-08
5.8114049e-08
4.4122017e-08
3.3554909e-08
2.554893e-08
1.9467974e-08
1.4840169e-08
1.1313212e-08
8.6226096e-09
6.568847e-09
5.0008248e-09
3.8037358e-09
2.8901112e-09
2.1931704e-09
0.0084733879
0.0071176192
0.0058991648
0.0048205215
0.0038810436
0.0030768191
0.0024008484
0.0018434351
0.001392775
0.001035687
0.00075840087
0.00054733134
0.0003897539
0.00027519602
0.00019179631
0.00013244739
9.0867476e-05
6.207109e-05
4.2312341e-05
2.8847524e-05
1.9711968e-05
1.3525734e-05
9.3349407e-06
6.4885648e-06
4.5465223e-06
3.2132788e-06
2.2911137e-06
1.6478931e-06
1.1951975e-06
8.7365442e-07
6.4318267e-07
4.7653802e-07
3.5505177e-07
2.6581694e-07
1.9982529e-07
1.5072864e-07
1.1401021e-07
8.6426128e-08
6.5626031e-08
4.9892794e-08
3.7962406e-08
2.8898032e-08
2.2001109e-08
1.6747976e-08
1.2744295e-08
9.6919617e-09
7.3649008e-09
5.5912132e-09
4.239915e-09
3.211036e-09
0.0079058773
0.0066531596
0.0055280969
0.0045323279
0.003664631
0.0029208824
0.0022942765
0.0017757219
0.0013543911
0.0010183708
0.00075530633
0.00055306043
0.0004015811
0.00028792567
0.0002043868
0.00014405324
0.00010098532
7.0546113e-05
4.9203149e-05
3.4325645e-05
2.3993575e-05
1.6829884e-05
1.1861209e-05
8.407503e-06
5.9978278e-06
4.3080478e-06
3.1158703e-06
2.2690366e-06
1.6631666e-06
1.2265065e-06
9.0951602e-07
6.7779803e-07
5.0731028e-07
3.8112401e-07
2.872261e-07
2.1702364e-07
1.6432144e-07
1.246187e-07
9.4621797e-08
7.1904191e-08
5.4667103e-08
4.1569707e-08
3.1607637e-08
2.4025348e-08
1.8252404e-08
1.3856814e-08
1.0510611e-08
7.9643094e-09
6.027814e-09
4.5561133e-09
0.0073642862
0.0062115009