/*--------------------------------*- C++ -*----------------------------------*\
| =========                 |                                                 |
| \\      /  F ield         | OpenFOAM: The Open Source CFD Toolbox           |
|  \\    /   O peration     | Version:  2312                                  |
|   \\  /    A nd           | Website:  www.openfoam.com                      |
|    \\/     M anipulation  |                                                 |
\*---------------------------------------------------------------------------*/
FoamFile
{
    version     2.0;
    format      ascii;
    arch        "LSB;label=32;scalar=64";
    class       volScalarField;
    location    "0.01";
    object      CO2;
}
// * * * * * * * * * * * * * * * * * * * * * * * * * * * * * * * * * * * * * //

dimensions      [0 0 0 0 0 0 0];

internalField   nonuniform List<scalar> 
3250
(
0.1170157
0.11482646
0.11211776
0.10885064
0.10500009
0.1005637
0.095570362
0.090086315
0.084215489
0.078091963
0.071865095
0.065681102
0.059666631
0.053918757
0.04850267
0.043455296
0.038791753
0.034512008
0.030606307
0.027059006
0.023851071
0.020961627
0.018368936
0.016051022
0.013986112
0.012152934
0.010530948
0.009100482
0.0078427978
0.0067400478
0.0057896578
0.0049567256
0.0042269133
0.0035955704
0.0030509052
0.0025823284
0.0021803388
0.0018364338
0.0015430313
0.0012933963
0.0010815691
0.00090229753
0.00075097442
0.00062354416
0.00051646161
0.00042699942
0.00035219661
0.00028983147
0.00023798621
0.11699649
0.11480648
0.11209702
0.10882923
0.10497821
0.10054161
0.09554837
0.090064781
0.084194776
0.078072393
0.071846914
0.065664458
0.059651577
0.053905265
0.048490662
0.043444667
0.038782383
0.03450378
0.030599106
0.027052725
0.023845609
0.020956894
0.018364846
0.016047501
0.013983088
0.012150348
0.010528746
0.0090986254
0.0078412642
0.0067388281
0.0057887067
0.0049556693
0.0042260637
0.0035948742
0.0030503305
0.0025818532
0.0021799461
0.00183611
0.001542765
0.0012931779
0.0010813909
0.00090215346
0.00075086076
0.0006234748
0.00051645661
0.00042695013
0.00035214748
0.0002897873
0.0002379471
0.11695662
0.1147646
0.1120532
0.10878369
0.10493134
0.10049394
0.09550062
0.090017755
0.084149303
0.078029222
0.071806624
0.065627415
0.059617929
0.053874987
0.048463604
0.043420619
0.038761103
0.034485018
0.03058262
0.027038287
0.023833004
0.020945923
0.018355327
0.016039266
0.013975987
0.012144244
0.010523523
0.0090941915
0.0078375679
0.0067358451
0.0057863211
0.0049531518
0.0042240098
0.0035931741
0.003048916
0.0025806753
0.0021789662
0.0018352963
0.001542091
0.0012926213
0.0010809329
0.00090177858
0.00075055604
0.00062323717
0.00051629561
0.00042679626
0.00035201541
0.00028967702
0.00023785407
0.11689601
0.11470076
0.11198625
0.10871395
0.10485937
0.1004206
0.095426981
0.089945082
0.084078889
0.077962244
0.071744003
0.065569736
0.059565448
0.053827683
0.048421266
0.043382934
0.038727702
0.034455525
0.030556667
0.027015521
0.023813098
0.02092857
0.018340246
0.016026199
0.013964698
0.012134523
0.010515187
0.0090870959
0.0078316313
0.0067310421
0.005782422
0.0049491434
0.0042207149
0.0035904344
0.0030466292
0.0025787658
0.0021773737
0.0018339708
0.0015409904
0.0012917099
0.0010801807
0.00090116055
0.00075005063
0.00062282936
0.00051598262
0.0004265299
0.00035179363
0.00028949478
0.00023770302
0.1168146
0.11461493
0.11189613
0.10861997
0.10476229
0.10032156
0.095327444
0.089846752
0.083983525
0.077871447
0.071659031
0.065491399
0.059494104
0.05376332
0.048363622
0.043331573
0.038682144
0.034415265
0.030521209
0.026984395
0.023785858
0.020904805
0.018319575
0.016008272
0.013949198
0.012121163
0.010503716
0.009077312
0.0078234246
0.0067244218
0.0057769648
0.0049436572
0.0042161774
0.0035866493
0.0030434633
0.0025761182
0.0021751626
0.0018321281
0.0015394583
0.0012904395
0.0010791306
0.00090029588
0.00074934156
0.00062225172
0.00051552221
0.00042614875
0.00035147967
0.00028923809
0.00023749229
0.11671813
0.11451318
0.11178925
0.10850847
0.10464706
0.10020394
0.095209188
0.089729879
0.083870124
0.077763424
0.071557885
0.0653981
0.059409089
0.053686583
0.048294851
0.043270275
0.038627745
0.03436717
0.030478831
0.026947174
0.02375327
0.02087636
0.01829482
0.015986792
0.013930616
0.012105137
0.010489943
0.0090655427
0.0078135229
0.0067165045
0.0057703133
0.0049371143
0.0042107366
0.003582098
0.0030396506
0.0025729262
0.0021724947
0.0018299029
0.0015376069
0.001288903
0.0010778592
0.00089924754
0.00074848031
0.00062154735
0.00051495229
0.00042568077
0.00035109597
0.00028892492
0.00023723642
0.11660954
0.11439861
0.1116689
0.10838288
0.10451727
0.10007144
0.095075949
0.089598174
0.083742307
0.077641638
0.07144382
0.065292852
0.059313154
0.05359996
0.048217191
0.043201033
0.038566276
0.034312805
0.030430913
0.026905075
0.023716397
0.020844163
0.018266791
0.015962464
0.013909561
0.012086972
0.010474321
0.0090521676
0.0078022214
0.0067076088
0.0057626597
0.0049297385
0.0042045758
0.0035769328
0.0030353182
0.0025692963
0.0021694589
0.0018273694
0.0015354977
0.0012871517
0.0010764092
0.00089805075
0.00074749593
0.0006207406
0.00051429539
0.00042514262
0.00035065545
0.00028856577
0.00023694381
0.11648013
0.1142621
0.11152549
0.10823325
0.10436262
0.09991358
0.094917215
0.089441272
0.083590029
0.077496533
0.071307896
0.06516741
0.059198784
0.053496665
0.048124562
0.043118423
0.038492923
0.034247914
0.030373703
0.026854797
0.023672351
0.020805693
0.018233292
0.015933379
0.013884385
0.012065242
0.010455623
0.0090361263
0.0077885605
0.0066971627
0.0057533405
0.0049209663
0.0041972178
0.003570751
0.0030301275
0.0025649443
0.0021658173
0.0018243291
0.0015329657
0.0012850483
0.0010746667
0.00089661156
0.00074631104
0.00061976822
0.00051350085
0.00042449218
0.00035012345
0.000288132
0.00023659075
0.11632817
0.1141018
0.11135713
0.10805761
0.10418113
0.099728357
0.094730999
0.089257231
0.083411428
0.077326347
0.071148467
0.065020258
0.059064599
0.053375451
0.048015843
0.043021442
0.03840679
0.0341717
0.030306496
0.026795723
0.023620587
0.020760472
0.018193905
0.015899175
0.013854769
0.012039676
0.010433614
0.009017206
0.0077722007
0.0066853046
0.0057421013
0.0049107112
0.0041885746
0.0035634753
0.0030240125
0.0025598143
0.0021615228
0.0018207424
0.0015299774
0.001282565
0.0010726085
0.00089491072
0.00074490965
0.000618617
0.00051255828
0.00042372059
0.00034949257
0.00028761755
0.00023617212
0.11615174
0.11391575
0.11116175
0.10785384
0.10397065
0.099513617
0.094515173
0.08904398
0.083204519
0.077129206
0.070963791
0.064849792
0.058909136
0.053234993
0.047889841
0.042909024
0.038306927
0.034083323
0.030228547
0.026727194
0.023560525
0.020707992
0.018148186
0.015859465
0.01382038
0.012009981
0.010408044
0.0089952049
0.0077525929
0.0066724647
0.0057285585
0.0048988747
0.0041785486
0.0035550227
0.0030169026
0.0025538465
0.0021565249
0.0018165668
0.0015264973
0.0012796721
0.00107021
0.00089292763
0.00074327468
0.00061727283
0.00051145633
0.00042281832
0.00034875491
0.00028701594
0.00023568254
0.11594878
0.11370176
0.11093713
0.10761968
0.10372887
0.099267052
0.094267463
0.088799311
0.082967192
0.076903124
0.070752019
0.064654313
0.058730848
0.053073893
0.047745299
0.042780042
0.038192333
0.033981889
0.030139067
0.026648512
0.023491553
0.020647715
0.018095666
0.015813839
0.013780859
0.011975848
0.01037865
0.0089699974
0.0077313471
0.0066566113
0.005712588
0.0048852725
0.0041670305
0.0035453041
0.0030087226
0.0025469774
0.0021507701
0.0018117572
0.0015224878
0.0012763379
0.0010674448
0.00089064032
0.00074138792
0.00061572066
0.00051018277
0.00042177519
0.00034790204
0.00028632023
0.00023511629
0.115717
0.1134575
0.11068085
0.10735265
0.1034533
0.098986183
0.093985434
0.088520872
0.082697206
0.076645996
0.070511199
0.064432029
0.0585281
0.052890673
0.047580889
0.042633308
0.038061944
0.033866457
0.030037221
0.026558941
0.023413022
0.020579072
0.018035846
0.015761862
0.013735829
0.011936948
0.010345139
0.0089412884
0.0077080264
0.0066376637
0.0056942572
0.0048697653
0.0041539062
0.0035342246
0.0029993923
0.0025391391
0.0021442011
0.0018062656
0.0015179083
0.0012725288
0.0010642845
0.00088802538
0.00073922992
0.00061394442
0.00050872444
0.00042058031
0.00034692493
0.00028552303
0.0002344673
0.11545392
0.1131804
0.11039028
0.10705007
0.10314127
0.09866835
0.093666488
0.08820616
0.082392185
0.076355595
0.070239269
0.064181046
0.058299173
0.052683775
0.047395208
0.042467567
0.037914643
0.033736031
0.029922128
0.026457702
0.023324246
0.020501461
0.0179682
0.015703075
0.01368489
0.011892933
0.010307189
0.0089086047
0.007682565
0.006615393
0.0056735306
0.0048522251
0.0041390575
0.0035216836
0.0029888267
0.0025302596
0.0021367572
0.0018000407
0.0015127159
0.0012682087
0.0010606994
0.00088505782
0.00073677997
0.00061192698
0.00050706726
0.00041922204
0.00034581397
0.00028461644
0.0002337291
0.11515684
0.11286767
0.11006257
0.10670908
0.10278987
0.098310702
0.09330785
0.087852513
0.082049612
0.076029569
0.069934055
0.063899375
0.058042253
0.052451563
0.047186784
0.0422815
0.037749253
0.033589565
0.029792858
0.026343974
0.023224502
0.020414248
0.017892171
0.015636995
0.013627622
0.011843435
0.010264475
0.0088711586
0.007655451
0.0065892805
0.0056503501
0.0048325176
0.0041223603
0.0035075745
0.0029769351
0.0025202625
0.0021283739
0.0017930283
0.0015068651
0.0012633394
0.0010566573
0.00088171106
0.00073401598
0.00060965006
0.00050519617
0.00041768794
0.0003445589
0.00028359201
0.00023289477
0.11482277
0.11251627
0.10969462
0.10632653
0.10239601
0.097910188
0.092906564
0.087457108
0.081666825
0.07566544
0.069593271
0.063584924
0.057755443
0.05219232
0.046954072
0.042073723
0.037564538
0.033425959
0.029648437
0.026216895
0.023113029
0.020316763
0.017807177
0.015563111
0.013563582
0.011788076
0.010216774
0.0088312316
0.0076238689
0.0065590744
0.0056244538
0.0048104848
0.004103682
0.0034917843
0.0029636219
0.0025090665
0.0021189825
0.0017851707
0.0015003074
0.0012578804
0.0010521245
0.00087795684
0.00073091449
0.00060709421
0.00050309511
0.00041596475
0.00034314876
0.00028244074
0.00023195693
0.11444845
0.11212288
0.10928307
0.10589908
0.10195635
0.097463545
0.092459486
0.087016956
0.08124102
0.075260605
0.069214522
0.063235505
0.057436754
0.051904248
0.046695455
0.041842787
0.037359204
0.033244062
0.029487843
0.026075562
0.022989031
0.020208307
0.017712604
0.015480892
0.01349231
0.011726443
0.0101635
0.0087883583
0.0075873623
0.00652519
0.0055956172
0.0047859581
0.0040828816
0.0034741937
0.0029487856
0.002496586
0.0021085106
0.0017764067
0.0014929913
0.0012517886
0.0010470649
0.00087376514
0.00072745053
0.00060423875
0.00050074697
0.00041403833
0.00034157191
0.00028115305
0.00023090772
0.11403033
0.11168388
0.10882428
0.10542307
0.1014673
0.09696729
0.091963275
0.0865289
0.080769247
0.074812333
0.068795304
0.062848835
0.057084115
0.051585478
0.046409244
0.041587182
0.037131904
0.033042673
0.029310009
0.025919028
0.022851674
0.020088147
0.017607811
0.015389779
0.013413329
0.011658136
0.010103576
0.0087430171
0.0075452141
0.0064877086
0.0055636516
0.0047587629
0.0040598107
0.0034546765
0.0029323193
0.0024827302
0.0020968817
0.0017666718
0.0014848628
0.0012450185
0.0010414405
0.00086910421
0.0007235977
0.00060106176
0.00049813361
0.00041189369
0.00033981597
0.00027971876
0.00022973881
0.11356451
0.11119534
0.10831431
0.1048946
0.10092503
0.096417711
0.091414395
0.085989612
0.080248411
0.074317776
0.068333008
0.062422539
0.056695375
0.051234064
0.046093685
0.04130534
0.036881234
0.032820541
0.029113824
0.025746311
0.022700088
0.019955518
0.01749213
0.015289193
0.013326145
0.011582944
0.010039961
0.0086914045
0.0074970452
0.0064463437
0.0055283442
0.0047287158
0.0040343132
0.0034331001
0.0029141104
0.0024674038
0.0020840152
0.0017558981
0.0014758645
0.0012375222
0.001035211
0.00086394054
0.00071932807
0.00059754005
0.00049523583
0.00040951495
0.00033786783
0.00027812707
0.00022844134
0.11304681
0.11065297
0.10774889
0.10430946
0.10032544
0.095810868
0.090809113
0.085395601
0.079675282
0.073773967
0.067824928
0.061954159
0.056268307
0.050848001
0.045746954
0.040995643
0.036605747
0.032576374
0.028898139
0.025556391
0.022533374
0.019809629
0.017364867
0.015178522
0.0132302
0.011500189
0.009972002
0.008632629
0.0074436765
0.0064007874
0.0054894673
0.0046956247
0.0040062256
0.0034093254
0.0028940409
0.0024505069
0.0020698265
0.0017440142
0.0014659365
0.0012292491
0.0010283344
0.00085823884
0.00071461226
0.00059364921
0.00049203338
0.00040688536
0.00033571365
0.0002763666
0.00022700597
0.11441932
0.11247298
0.11005221
0.10712342
0.10366312
0.099664136
0.095142583
0.090143499
0.084743215
0.079046498
0.073177835
0.067268272
0.061441162
0.055800621
0.05042523
0.045367155
0.040656432
0.036303951
0.03230884
0.028661769
0.025348217
0.022350601
0.019649659
0.017225304
0.015057131
0.013124888
0.011408587
0.0099005325
0.0085654403
0.0073853061
0.0063507951
0.0054467883
0.0046592897
0.0039753775
0.0033832077
0.0028719877
0.002431935
0.0020542272
0.0017309456
0.0014550159
0.0012201466
0.0010207663
0.00085196215
0.00070941945
0.00058936359
0.00048850498
0.00040398728
0.00033333885
0.00027442532
0.0002254229
0.1138137
0.11183762
0.10938804
0.10643295
0.10295074
0.09893648
0.09440845
0.089413435
0.08402865
0.078358581
0.072526214
0.066660167
0.06088095
0.055289974
0.049963669
0.044952929
0.040286034
0.035974318
0.032016573
0.028403498
0.02512071
0.022150815
0.019474767
0.017072707
0.014924367
0.013009739
0.011312282
0.0098191403
0.0084909519
0.0073214045
0.0062960764
0.005400065
0.0046195038
0.0039415923
0.0033545962
0.0028478228
0.0024115797
0.0020371256
0.0017166146
0.0014430373
0.0012101596
0.0010124606
0.00084507189
0.00070371745
0.00058465639
0.00048462836
0.00040080225
0.00033072817
0.00027229063
0.00022368188
0.11314286
0.11113519
0.10865497
0.10567212
0.10216717
0.098137542
0.093603835
0.088614622
0.083247967
0.077607945
0.07181586
0.065997686
0.060270877
0.054733968
0.049461098
0.04450166
0.039882641
0.035615283
0.031698183
0.028122089
0.024872773
0.021933042
0.019284095
0.016906334
0.014779526
0.012883198
0.011211615
0.0097265686
0.0084097798
0.007251661
0.0062363417
0.0053490487
0.004576054
0.0039046878
0.0033233359
0.0028214142
0.0023893287
0.0020184265
0.0017009409
0.001429933
0.0011992312
0.0010033696
0.00083752803
0.00069747281
0.00057949976
0.00048038038
0.00039731107
0.00032786565
0.00026994931
0.00022177223
0.11240106
0.11035975
0.10784716
0.10483524
0.10130691
0.097262127
0.092723894
0.087742606
0.082397109
0.076790926
0.071043474
0.065277857
0.059608269
0.054130189
0.04891532
0.044011306
0.03944448
0.035225272
0.031352266
0.027816292
0.024603293
0.021696296
0.019076769
0.016725468
0.014622117
0.012750389
0.011098679
0.0096239806
0.0083214056
0.0071757298
0.0061712958
0.0052934858
0.0045287223
0.0038644775
0.0032892675
0.0027926262
0.0023650668
0.0019980322
0.0016838418
0.0014156333
0.0011873026
0.00099344382
0.00082928925
0.000690651
0.0005738649
0.00047573708
0.00039349384
0.00032473475
0.00026738754
0.00021968275
0.11322278
0.11158226
0.10950498
0.10695831
0.10391622
0.10036416
0.096304789
0.091763592
0.086792792
0.081471929
0.075903803
0.070205723
0.064497696
0.058890445
0.053476227
0.048324191
0.043480264
0.038969831
0.034802717
0.030977416
0.027484852
0.024311153
0.02143958
0.018851892
0.016529407
0.014450209
0.012611741
0.010971472
0.009512653
0.0082254419
0.0070932649
0.0061006401
0.0052331192
0.0044772879
0.0038207721
0.0032522289
0.0027613208
0.0023386765
0.0019758431
0.0016652331
0.0014000668
0.0011743138
0.00098263289
0.0008203132
0.00068321661
0.00056772226
0.00047067384
0.00038933009
0.00032131843
0.00026459081
0.00021740096
0.11235804
0.11067916
0.10856397
0.1059817
0.10290861
0.099332826
0.095259856
0.090717734
0.085760484
0.080468224
0.074942831
0.069299274
0.063654228
0.058114745
0.052769697
0.047685556
0.042906573
0.038456973
0.034346066
0.030572243
0.027126524
0.023995242
0.021161899
0.018608494
0.016317939
0.014270038
0.012457165
0.010831768
0.009392031
0.0081214815
0.0070039188
0.0060240753
0.0051676906
0.0044215284
0.0037733807
0.0032120571
0.0027273586
0.0023100392
0.0019517584
0.0016450292
0.0013831614
0.0011602039
0.00097088553
0.00081055687
0.00067513362
0.00056104174
0.00046516559
0.000384799
0.00031759937
0.00026154406
0.0002149105
0.11140346
0.10968419
0.10752932
0.10491019
0.1018056
0.098206541
0.094121464
0.089581004
0.084640928
0.079381774
0.073904282
0.06832083
0.062744527
0.05727856
0.052008266
0.046997273
0.042288336
0.037904215
0.033853799
0.030135382
0.026740083
0.023654464
0.020862282
0.018345244
0.016089424
0.014082233
0.01228421
0.01068106
0.0092616998
0.0080091307
0.0069073482
0.0059413042
0.0050969435
0.0043612228
0.0037221132
0.0031685889
0.0026906004
0.0022790362
0.0019256772
0.0016231445
0.0013648446
0.0011449118
0.00095815022
0.00079997698
0.00066636572
0.00055379299
0.00045918704
0.00037987957
0.0003135603
0.00025823294
0.110351
0.1085893
0.10639317
0.10373626
0.1006001
0.09697872
0.092883613
0.088348022
0.083429359
0.078208398
0.072784494
0.067267175
0.061765752
0.056379369
0.051189703
0.046257182
0.04162376
0.037309928
0.033324447
0.029665518
0.026324341
0.023287745
0.020539962
0.018060333
0.015853301
0.013872832
0.012096678
0.010518551
0.0091212
0.0078880038
0.0068032184
0.0058520364
0.0050206265
0.0042961539
0.0036667829
0.0031216643
0.002650909
0.0022455505
0.0018974997
0.0015994944
0.0013450447
0.0011283766
0.0009443758
0.00078853049
0.00065687682
0.00054594579
0.00045271293
0.00037455079
0.00030918427
0.00025464911
0.10919191
0.10738589
0.10514721
0.10245202
0.099284746
0.09564262
0.091540235
0.087013412
0.082121076
0.076944014
0.071579926
0.066135223
0.060715191
0.055414771
0.050311992
0.045465201
0.040911262
0.03667256
0.032756616
0.029161411
0.025878161
0.022893971
0.020194965
0.017763019
0.015596945
0.013641182
0.011895142
0.010343817
0.0089701172
0.0077577349
0.0066912089
0.0057559928
0.0049384974
0.0042261124
0.0036072091
0.0030711279
0.0026081513
0.0022094682
0.0018671291
0.0015739964
0.0013236915
0.0011105393
0.00092951222
0.00077617521
0.00064663144
0.0005374704
0.00044571837
0.00036879178
0.00030445295
0.00025077416
0.10791686
0.10606491
0.1037828
0.10104932
0.097852028
0.094191432
0.090085277
0.085571886
0.080711517
0.075584711
0.070287224
0.064922077
0.059590309
0.054382482
0.049372762
0.044616612
0.040148884
0.035990619
0.032149004
0.028621934
0.025400504
0.022471517
0.019824958
0.017453928
0.015314687
0.013392707
0.011679074
0.010156437
0.0088080686
0.0076179829
0.0065710193
0.0056529107
0.0048503276
0.0041509001
0.0035432209
0.0030168324
0.0025622009
0.0021706811
0.0018344727
0.0015465716
0.0013007183
0.0010913429
0.00091351141
0.00076287058
0.00063559545
0.00052833814
0.00043817936
0.0003625826
0.00029935044
0.00024659305
0.10651602
0.1046169
0.10229097
0.099519856
0.096294358
0.092618383
0.088512813
0.08401835
0.079196357
0.074126838
0.068903297
0.063625099
0.058388827
0.053280498
0.0483702
0.043710852
0.03933527
0.035262801
0.031500428
0.028046133
0.024890749
0.022018198
0.019443235
0.017114873
0.015010251
0.013127124
0.01144804
0.0099560231
0.0086347053
0.0074684372
0.0064423754
0.0055425498
0.0047559077
0.0040703353
0.0034746608
0.002958642
0.0025129408
0.0021290887
0.0017994445
0.0015171467
0.0012760623
0.0010707344
0.0008963283
0.0007485785
0.0006237367
0.00051852196
0.00043007318
0.00035590423
0.000293861
0.00024209254
0.10497915
0.10303214
0.10066262
0.09785526
0.094604231
0.090916885
0.08681718
0.082348025
0.077571616
0.072567097
0.067425403
0.062241979
0.05710878
0.052107166
0.047302604
0.042747091
0.038469329
0.034487993
0.030809786
0.027433208
0.024349645
0.021546818
0.019033015
0.016743917
0.014685736
0.012843965
0.011201649
0.0097422307
0.0084497212
0.0073088261
0.0063050373
0.0054246995
0.0046550534
0.0039842573
0.0034013893
0.0028964359
0.0024602668
0.0020846014
0.0017619677
0.0014856555
0.0012496671
0.0010486656
0.00087792205
0.00073326433
0.00061102587
0.00050799711
0.00042137901
0.00034873915
0.00028796984
0.00023726056
0.10329579
0.10130077
0.098888663
0.096047319
0.092774399
0.089080695
0.084993132
0.080556592
0.075833789
0.070902656
0.065851239
0.060770818
0.055748579
0.050861407
0.046172334
0.041724571
0.037550178
0.033665273
0.030075925
0.02678193
0.023774527
0.021058419
0.018586239
0.016349732
0.014340762
0.012542868
0.010939581
0.009514777
0.0082528651
0.0071389268
0.0061588078
0.0052991858
0.0045476122
0.0038925326
0.00332329
0.0028301128
0.002404091
0.0020371431
0.0017219765
0.0014520418
0.0012214846
0.0010250952
0.00085825734
0.00071689799
0.00059743744
0.00049674198
0.00041207855
0.00034107192
0.00028166387
0.00023208639
0.10145543
0.099413042
0.09696023
0.094088177
0.090798082
0.087104127
0.083036027
0.078640355
0.073979986
0.069131274
0.064179053
0.059210202
0.054306951
0.049541323
0.044973163
0.040641801
0.036577131
0.032794052
0.029297526
0.026091218
0.023183996
0.020526784
0.018110651
0.015932049
0.013975055
0.01222358
0.01066161
0.0092734587
0.0080439557
0.0069585771
0.0060035425
0.0051658807
0.0044334705
0.0037950611
0.0032402749
0.0027595956
0.002344346
0.0019866552
0.0016794201
0.0014162614
0.0011914764
0.00099999022
0.00083730591
0.00069945526
0.00058295069
0.00048473891
0.00040215681
0.00033288983
0.00027493225
0.00022656102
0.099447803
0.097359575
0.094868976
0.091970612
0.088669226
0.084982278
0.080942039
0.07659643
0.072008096
0.067251433
0.062407759
0.057559358
0.052783365
0.048146023
0.043706494
0.039498656
0.035550127
0.031874568
0.028472518
0.025381874
0.02255122
0.019956508
0.017608139
0.015490637
0.013588464
0.011885973
0.010367618
0.0090181697
0.0078228956
0.0067676882
0.0058391605
0.0050247107
0.0043125621
0.0036917832
0.0031522903
0.0026848365
0.0022809892
0.0019330998
0.0016342649
0.0013782848
0.0011596168
0.00097332829
0.00081504817
0.00068091915
0.00056755093
0.00047197522
0.00039160288
0.00032418352
0.00026776696
0.00022067765
0.097263213
0.095131715
0.092607402
0.089688353
0.086382801
0.082711305
0.07870839
0.074422941
0.069916955
0.065262485
0.060537057
0.05581824
0.051178455
0.04668132
0.042374045
0.038295561
0.034469679
0.030909546
0.027620257
0.024631072
0.021869612
0.019355299
0.017078628
0.015025491
0.013181009
0.011530068
0.01005762
0.0087489174
0.0075896867
0.0065662574
0.0056656555
0.0048756667
0.0041848759
0.0035826865
0.0030593233
0.002605822
0.0022140075
0.0018764641
0.0015864989
0.0013381005
0.001125895
0.00094509935
0.00079147497
0.00066128136
0.00055123069
0.00045844422
0.00038041083
0.00031494773
0.00026016338
0.00021443227
0.09489296
0.092721934
0.090169247
0.087236449
0.083935135
0.080288718
0.076333616
0.072119251
0.067706536
0.063164815
0.058567537
0.053987335
0.049491469
0.045140344
0.040974923
0.037032727
0.033335667
0.029896045
0.026742764
0.023826762
0.02115485
0.018723994
0.016522473
0.014536863
0.012752909
0.011156054
0.0097317782
0.008465839
0.007344444
0.0063543806
0.0054831067
0.0047188138
0.0040504649
0.0034678137
0.0029614081
0.0025225793
0.0021434218
0.0018167643
0.0015361341
0.0012957178
0.0010903177
0.00091530813
0.0007665895
0.00064054389
0.00053399107
0.00044414638
0.00036858062
0.00030518212
0.0002521209
0.00020782415
0.092329843
0.090124318
0.087549949
0.084611681
0.081324283
0.077713701
0.073817836
0.069686188
0.065378155
0.060960024
0.056500946
0.052068408
0.047723095
0.043525439
0.03951013
0.035711003
0.032148723
0.02886113
0.025802399
0.022983731
0.02040729
0.01806332
0.015940276
0.014025259
0.012304598
0.010764309
0.0093904205
0.0081692171
0.0070874102
0.0061322648
0.0052916903
0.0045543011
0.0039094545
0.0033472701
0.0028586323
0.0024351812
0.0020692925
0.00175405
0.0014832114
0.0012511695
0.0010529117
0.0008839763
0.00074040917
0.00061872066
0.00051584313
0.00042909042
0.00035611911
0.00029489201
0.00024364366
0.00020085646
0.089568725
0.087335099
0.084747128
0.081813011
0.078550418
0.074987451
0.071163039
0.067126289
0.062934671
0.05865111
0.054340366
0.050065378
0.045884755
0.041842257
0.037981777
0.034331954
0.030939024
0.027763975
0.024814362
0.022104655
0.019627747
0.017374213
0.0153329
0.013491441
0.011836747
0.010355419
0.0090340574
0.0078594954
0.006818969
0.0059002411
0.0050916903
0.0043823712
0.0037620515
0.0032212308
0.0027511439
0.0023437521
0.0019917238
0.0016884084
0.0014278031
0.0012045161
0.0010137268
0.00085114479
0.00071296758
0.00059583913
0.00049680925
0.00041329451
0.00034304101
0.00028408927
0.00023474119
0.00019353682
0.086607166
0.084353241
0.081761121
0.078842039
0.07561623
0.072113516
0.06837337
0.064444042
0.060380681
0.056242573
0.052089796
0.047979961
0.043967736
0.0400913
0.03639084
0.032928299
0.029668407
0.026612041
0.023787008
0.021190953
0.018817561
0.016657959
0.014701521
0.012936456
0.011350278
0.0099301953
0.0086633992
0.0075372936
0.0065396592
0.0056587757
0.0048835089
0.0042033699
0.0036085516
0.003089948
0.0026391572
0.0022484734
0.0019108689
0.0016199682
0.0013700172
0.0011558475
0.000972838
0.00081687599
0.00068431635
0.00057194193
0.00047692453
0.00039678745
0.00032936986
0.00027279311
0.0002254291
0.0001858779
0.083446071
0.08118103
0.078595506
0.075703469
0.072527319
0.069098123
0.065455404
0.061646106
0.057722733
0.05374076
0.049755418
0.045817223
0.041982092
0.038280276
0.034766681
0.031467063
0.02833484
0.025419024
0.022723
0.02024477
0.017978617
0.015916257
0.014047663
0.012361659
0.010846392
0.0094896941
0.008279373
0.0072034224
0.0062501873
0.0054084822
0.0046676767
0.0040177542
0.0034493474
0.0029537577
0.0025229587
0.0021495887
0.0018269339
0.0015489035
0.0013100004
0.0011052868
0.00093034831
0.00078125579
0.00065452697
0.00054708835
0.00045623799
0.00037960969
0.00031513895
0.00026103082
0.00021572972
0.0001778979
0.080090346
0.077824654
0.0752576
0.072405531
0.069292554
0.06595048
0.062418391
0.058741513
0.054969441
0.051153906
0.04734645
0.043596913
0.039940132
0.03642102
0.033104382
0.029936061
0.026959852
0.024188673
0.021625596
0.019268893
0.017113348
0.015151266
0.013373244
0.011768751
0.010326588
0.0090352382
0.0078831403
0.0068588987
0.0059514403
0.0051501316
0.004444862
0.0038261011
0.0032849353
0.0028130855
0.0024029122
0.002047408
0.0017401823
0.0014754374
0.0012479408
0.0010529925
0.00088639068
0.00074439545
0.00062369226
0.00052135565
0.00043481377
0.00036181431
0.0003003921
0.00024883849
0.00020567269
0.00016962111
0.07654948
0.074294712
0.071758898
0.068960341
0.065924367
0.06268302
0.059274466
0.055741825
0.052131508
0.048491227
0.044867981
0.041306374
0.037841086
0.03454028
0.031369324
0.028365907
0.025548786
0.022925559
0.020498757
0.018266759
0.016224766
0.014365642
0.012680611
0.011159806
0.0097926979
0.0085684377
0.0074761146
0.0065049595
0.0056444979
0.0048846633
0.004215879
0.0036291146
0.0031159218
0.0026684524
0.0022794635
0.0019423117
0.0016509376
0.0013998443
0.0011840706
0.00099916033
0.00084112976
0.00070643304
0.00059192771
0.00049484014
0.00041273199
0.0003434678
0.00028518434
0.00023626153
0.00019529541
0.00016107824
0.072838017
0.070606603
0.068115385
0.06538416
0.062438965
0.059311579
0.05603881
0.05266134
0.049222203
0.045764997
0.042331958
0.038964804
0.035727384
0.032591672
0.029594331
0.026762711
0.024107509
0.021634989
0.019347179
0.017242498
0.0153165
0.013562578
0.01197258
0.010537304
0.0092469049
0.0080912117
0.0070599782
0.0061430763
0.0053306434
0.0046131933
0.0039816957
0.0034276316
0.0029430282
0.0025204781
0.0021531439
0.0018347535
0.0015595863
0.0013224523
0.0011186676
0.00094402491
0.00079476307
0.00066753447
0.00055937227
0.00046765792
0.00039008937
0.00032465054
0.00026958229
0.00022335507
0.00018464332
0.00015230668
0.068975834
0.066780733
0.064347681
0.061697487
0.0588564
0.05585546
0.052729713
0.049517107
0.046257207
0.042989717
0.039749955
0.036616427
0.033560136
0.030604051
0.027790711
0.025133821
0.02264284
0.020323142
0.018176369
0.016200974
0.014392833
0.012745846
0.011252469
0.0099041635
0.0086917709
0.0076058066
0.0066366974
0.005774966
0.0050113728
0.0043370217
0.0037434389
0.0032226257
0.0027670938
0.0023698838
0.0020245711
0.0017252614
0.0014665783
0.0012436439
0.0010520559
0.00088786005
0.00074752144
0.00062789375
0.00052618862
0.00043994503
0.00036699941
0.00030545697
0.00025366436
0.000210184
0.00017377006
0.00014335062
0.064988152
0.062842473
0.060480959
0.057924961
0.05520047
0.052337364
0.04936856
0.046328906
0.043254287
0.040183384
0.037182542
0.034234911
0.031356934
0.028595715
0.025968596
0.023488139
0.021162777
0.018997185
0.016992703
0.015147826
0.013458737
0.011919818
0.010524118
0.0092637541
0.0081302496
0.0071148068
0.0062085296
0.005402597
0.0046883981
0.0040576345
0.0035023949
0.0030152078
0.0025890753
0.0022174916
0.0018944496
0.0016144373
0.0013724264
0.0011638548
0.00098460485
0.00083097816
0.0006996683
0.00058773248
0.00049256269
0.00041185708
0.00034359204
0.0002859953
0.00023752045
0.00019682284
0.00016273721
0.00013426088
0.060905223
0.05882182
0.056544586
0.054094996
0.051498373
0.048783123
0.045979799
0.043119603
0.040231464
0.037389195
0.03458184
0.031820198
0.029145381
0.026579812
0.024139521
0.021835905
0.019676465
0.017665277
0.015803427
0.014089463
0.01251986
0.01108946
0.0097918871
0.0086198964
0.007565683
0.0066211313
0.0057780197
0.0050281836
0.0043636427
0.0037766982
0.003260005
0.0028066213
0.0024100427
0.0020642199
0.0017635658
0.0015029528
0.001277703
0.0010835715
0.00091672691
0.0007737279
0.00065149776
0.00054729814
0.00045870221
0.00038356803
0.00032001256
0.00026638663
0.00022125123
0.00018335509
0.0001516139
0.00012509451
0.056761625
0.054752711
0.052571452
0.050239115
0.047780037
0.045221026
0.042590646
0.03991836
0.037234543
0.034602333
0.03198289
0.02941772
0.026942371
0.024570863
0.022316285
0.020188505
0.018194064
0.016336471
0.014616582
0.013033001
0.011582477
0.010260292
0.0090606165
0.0079768266
0.0070017725
0.006128008
0.0053479776
0.0046541672
0.0040392234
0.003496045
0.0030178511
0.0025982293
0.0022311679
0.0019110739
0.0016327798
0.0013915424
0.0011830335
0.0010033254
0.00084887251
0.00071649021
0.00060333119
0.00050686119
0.00042483427
0.00035526809
0.00029641992
0.00024676348
0.00020496695
0.00016987226
0.00014047587
0.00011591408
0.052595241
0.050671971