/*--------------------------------*- C++ -*----------------------------------*\
| =========                 |                                                 |
| \\      /  F ield         | OpenFOAM: The Open Source CFD Toolbox           |
|  \\    /   O peration     | Version:  2312                                  |
|   \\  /    A nd           | Website:  www.openfoam.com                      |
|    \\/     M anipulation  |                                                 |
\*---------------------------------------------------------------------------*/
FoamFile
{
    version     2.0;
    format      ascii;
    arch        "LSB;label=32;scalar=64";
    class       volScalarField;
    location    "0.01";
    object      H2O;
}
// * * * * * * * * * * * * * * * * * * * * * * * * * * * * * * * * * * * * * //

dimensions      [0 0 0 0 0 0 0];

internalField   nonuniform List<scalar> 
3250
(
0.095799728
0.094007413
0.091789828
0.08911506
0.085962647
0.082330616
0.078242615
0.073752874
0.068946481
0.063933204
0.058835321
0.05377254
0.048848546
0.044142812
0.039708709
0.035576469
0.031758467
0.028254678
0.025057115
0.022152971
0.019526662
0.0171611
0.015038486
0.013140831
0.011450307
0.0099495002
0.0086215942
0.0074504846
0.0064208296
0.0055180179
0.0047399419
0.0040580276
0.0034605368
0.0029436619
0.0024977492
0.0021141295
0.0017850242
0.0015034722
0.0012632662
0.0010588922
0.00088547109
0.00073870305
0.00061481616
0.00051049012
0.00042282258
0.00034958067
0.00028834027
0.00023728248
0.00019483721
0.095784
0.093991057
0.091772841
0.089097536
0.085944739
0.08231253
0.07822461
0.073735244
0.068929523
0.063917182
0.058820437
0.053758915
0.048836222
0.044131766
0.039698879
0.035567766
0.031750796
0.028247942
0.025051219
0.022147828
0.019522191
0.017157225
0.015035138
0.013137948
0.011447831
0.0099473828
0.0086197918
0.0074489646
0.006419574
0.0055170193
0.0047391633
0.0040571629
0.0034598412
0.0029430919
0.0024972788
0.0021137405
0.0017847027
0.0015032071
0.0012630482
0.0010587134
0.00088532525
0.0007385851
0.0006147231
0.00051043334
0.00042281849
0.00034954032
0.00028830005
0.00023724631
0.00019480519
0.095751357
0.093956768
0.091736967
0.089060254
0.085906362
0.082273507
0.078185517
0.073696744
0.068892294
0.063881838
0.058787452
0.053728587
0.048808675
0.044106978
0.039676726
0.035548079
0.031733374
0.028232581
0.025037722
0.022136008
0.019511871
0.017148243
0.015027345
0.013131206
0.011442017
0.0099423855
0.0086155154
0.0074453346
0.0064165479
0.0055145772
0.0047372102
0.0040551019
0.0034581597
0.0029417
0.0024961207
0.0021127762
0.0017839004
0.0015025409
0.0012624963
0.0010582577
0.00088495024
0.00073827819
0.00061447363
0.00051023879
0.00042268668
0.00034941435
0.00028819192
0.00023715603
0.00019472904
0.095701738
0.093904507
0.091682158
0.089003157
0.085847446
0.08221346
0.078125231
0.073637247
0.068834647
0.063827004
0.058736184
0.053681367
0.048765709
0.044068251
0.039642064
0.035517226
0.031706029
0.028208435
0.025016474
0.02211737
0.019495574
0.017134036
0.015014998
0.013120508
0.011432775
0.0099344273
0.0086086909
0.0074395255
0.0064116877
0.005510645
0.004734018
0.0040518202
0.0034554622
0.0029394571
0.0024942486
0.0021112129
0.0017825967
0.0015014557
0.0012615953
0.0010575115
0.00088433441
0.00073777222
0.00061405986
0.00050990492
0.00042243044
0.00034919628
0.00028801035
0.00023700683
0.00019460537
0.095635086
0.093834233
0.091608378
0.088926216
0.08576797
0.082132375
0.07804374
0.073556746
0.068756574
0.063752669
0.058666618
0.053617232
0.0487073
0.044015558
0.039594872
0.035475178
0.031668731
0.028175475
0.024987446
0.022091887
0.019473273
0.01711458
0.014998075
0.013105831
0.011420086
0.0099234897
0.0085992998
0.0074315155
0.0064049689
0.005505225
0.0047295503
0.0040473286
0.0034517473
0.0029363582
0.0024916567
0.0021090453
0.0017807865
0.0014999471
0.001260341
0.0010564715
0.00088347471
0.00073706432
0.00061347934
0.00050943202
0.0004220535
0.00034888423
0.00028775331
0.00023679668
0.00019443285
0.095556109
0.09375093
0.091520879
0.088834927
0.08567363
0.082036084
0.077946925
0.073461063
0.068663733
0.063664231
0.058583811
0.053540849
0.048637699
0.043952734
0.03953857
0.035424994
0.031624195
0.0281361
0.024952751
0.022061415
0.019446593
0.017091292
0.014977808
0.013088246
0.011404873
0.0099103695
0.0085880244
0.0074218801
0.0063968625
0.0054987432
0.0047241047
0.0040419721
0.003447293
0.0029326321
0.0024885352
0.0021064321
0.0017786023
0.0014981254
0.0012588252
0.0010552136
0.00088243385
0.00073620605
0.00061277425
0.00050885535
0.00042158691
0.0003485011
0.00028743918
0.0002365403
0.00019422337
0.095467202
0.093657138
0.091422348
0.088732114
0.085567367
0.081927608
0.077837843
0.073353237
0.06855909
0.063564526
0.058490428
0.053454684
0.048559157
0.043881816
0.03947499
0.035368306
0.031573871
0.028091592
0.024913521
0.022026948
0.019416406
0.017064933
0.014954861
0.013068329
0.011387636
0.0098954975
0.0085752347
0.00741093
0.0063876101
0.0054914603
0.0047178388
0.0040359335
0.0034422492
0.0029284034
0.0024849884
0.0021034603
0.0017761169
0.0014960513
0.0012570985
0.0010537798
0.00088124671
0.00073522625
0.00061196834
0.00050819487
0.00042104911
0.00034806053
0.00028707854
0.00023624626
0.00019398381
0.095361259
0.093545375
0.09130494
0.088609608
0.085440758
0.081798369
0.077707889
0.073224783
0.068434422
0.06344573
0.058379147
0.053351985
0.048465524
0.043797249
0.039399156
0.035300674
0.031513817
0.028038466
0.024866683
0.021985786
0.019380346
0.017033438
0.014927435
0.013044517
0.011367024
0.0098777078
0.0085599269
0.0073977972
0.006376426
0.0054829082
0.0047102093
0.0040287518
0.0034362253
0.0029233424
0.0024807388
0.0020998974
0.0017731356
0.0014935622
0.0012550255
0.0010520578
0.00087982014
0.000734048
0.00061099828
0.00050739879
0.00042039863
0.00034752802
0.00028664299
0.00023589113
0.00019369477
0.095236849
0.093414144
0.091167101
0.088465811
0.085292173
0.081646729
0.077555436
0.07307411
0.068288203
0.0633064
0.058248624
0.053231513
0.048355668
0.043698012
0.039310148
0.035221276
0.031443301
0.027976071
0.024811662
0.021937423
0.019337967
0.016996416
0.01489519
0.013016515
0.011342778
0.0098567766
0.0085419079
0.0073823073
0.0063630324
0.0054732001
0.0047010079
0.0040203561
0.0034291492
0.0029173859
0.0024757324
0.0020956975
0.0017696197
0.0014906258
0.001252579
0.0010500247
0.00087813518
0.00073265553
0.00060985098
0.0005064563
0.00041962696
0.00034689632
0.00028612649
0.00023546996
0.00019335204
0.095092411
0.093261819
0.091007148
0.088298993
0.085119856
0.081470923
0.077378741
0.072899523
0.068118808
0.063145003
0.058097431
0.053091954
0.048228392
0.043583021
0.039206992
0.03512924
0.031361545
0.027903717
0.024747846
0.021881318
0.019288795
0.016953451
0.01485776
0.012984005
0.011314623
0.0098324656
0.0085209738
0.0073642952
0.0063469796
0.0054626882
0.0046899204
0.0040106656
0.003420941
0.0029104659
0.0024699116
0.0020908117
0.001765528
0.0014872073
0.00124973
0.0010476563
0.00087617155
0.000731032
0.00060851245
0.00050535584
0.0004187248
0.00034615764
0.00028552258
0.00023497742
0.00019295122
0.094926243
0.093086632
0.090823254
0.088107286
0.084921914
0.081269063
0.077175943
0.072699215
0.067924511
0.062959912
0.057924056
0.052931918
0.048082428
0.04345113
0.039088657
0.035023644
0.031267727
0.027820674
0.024674589
0.021816902
0.019232328
0.016904103
0.014814763
0.012946651
0.011282268
0.0098045215
0.0084969095
0.007343658
0.0063295859
0.0054497092
0.0046768456
0.0039995296
0.0034115112
0.0029025093
0.0024632147
0.002085188
0.0017608166
0.0014832697
0.0012464473
0.0010449266
0.00087390764
0.0007291594
0.00060696777
0.00050408509
0.00041768215
0.00034530364
0.00028482434
0.00023440785
0.00019248764
0.094736487
0.092886658
0.090613439
0.087888668
0.08469631
0.081039118
0.076945049
0.07247126
0.067703476
0.062749403
0.057726899
0.052749935
0.047916441
0.043301129
0.038954055
0.034903514
0.031160979
0.02772617
0.024591209
0.021743571
0.019168035
0.016847906
0.014765789
0.012904098
0.011245402
0.0097726747
0.0084694746
0.0073201542
0.0063104934
0.0054341969
0.0046618383
0.0039868341
0.0034007665
0.0028934386
0.0024555761
0.0020787708
0.0017554386
0.0014787737
0.0012426981
0.0010418081
0.0008713204
0.00072701857
0.00060520103
0.0005026309
0.00041648823
0.0003443254
0.00028402439
0.0002337552
0.00019195632
0.094521111
0.0926598
0.090375551
0.087640954
0.084440847
0.08077891
0.07668393
0.072213607
0.067453758
0.062511654
0.057504272
0.052544458
0.04772902
0.043131743
0.03880204
0.034767824
0.031040385
0.027619392
0.024496983
0.021660688
0.019095355
0.016784366
0.014710407
0.01285597
0.011203699
0.0097366394
0.008438405
0.0072933963
0.0062896484
0.0054159641
0.0046448696
0.003972474
0.00338861
0.0028831714
0.0024469261
0.0020715013
0.0017493444
0.0014736775
0.0012384472
0.0010382713
0.00086838525
0.00072458906
0.00060319528
0.00050097924
0.00041513151
0.0003432134
0.00028311486
0.00023301298
0.00019135196
0.09427789
0.092403771
0.090107255
0.087361782
0.084153163
0.080486107
0.076390316
0.07192408
0.067173296
0.062244739
0.057254396
0.052313856
0.047518682
0.042941634
0.038631405
0.034615492
0.030904982
0.027499482
0.024391151
0.02156758
0.019013695
0.016712965
0.014648163
0.01280187
0.011156814
0.0096961163
0.0084034358
0.0072627396
0.0062674504
0.005394586
0.0046258919
0.0039563396
0.0033749402
0.0028716204
0.0024371906
0.0020633167
0.001742481
0.0014679365
0.0012336572
0.0010342849
0.00086507608
0.0007218491
0.00060093243
0.00049911515
0.00041359966
0.00034195745
0.00028208734
0.00023217428
0.0001906689
0.094004389
0.092116081
0.089806017
0.087048598
0.083830713
0.08015821
0.076061787
0.071600365
0.066859912
0.06194663
0.056975399
0.052056418
0.047283873
0.042729393
0.038440886
0.034445387
0.030753757
0.027365539
0.024272915
0.021463542
0.018922434
0.016633155
0.014578579
0.012741382
0.011104385
0.0096507943
0.008364383
0.0072300516
0.0062415945
0.0053698565
0.0046046908
0.0039383016
0.0033596483
0.0028586931
0.0024262912
0.0020541507
0.0017347923
0.0014615035
0.0012282884
0.0010298156
0.00086136509
0.00071877554
0.00059839326
0.00049702269
0.00041187954
0.00034054668
0.00028093287
0.00023123175
0.00018990109
0.093697943
0.091794014
0.089469087
0.086698643
0.083470766
0.079792548
0.075695768
0.071240017
0.066511309
0.061615195
0.056665321
0.051770352
0.047022966
0.042493552
0.038229158
0.034256321
0.030585652
0.027216622
0.024141438
0.021347833
0.018820918
0.016544363
0.014501153
0.01267407
0.011046036
0.009600336
0.0083207683
0.0071949517
0.0062117068
0.0053421156
0.0045810826
0.0039182218
0.0033426193
0.0028442919
0.0024141449
0.002043933
0.0017262191
0.0014543285
0.0012222989
0.0010248283
0.00085722284
0.00071534383
0.00059555735
0.00049468495
0.00040995714
0.00033896954
0.00027964192
0.00023017753
0.00018904212
0.093355629
0.09143461
0.089093483
0.086308943
0.083070388
0.079386268
0.075289524
0.070840449
0.066125072
0.061248199
0.056322111
0.051453789
0.046734263
0.042232577
0.03799484
0.03404706
0.030399563
0.027051746
0.023995846
0.02121968
0.018708464
0.016445989
0.01441536
0.012599477
0.010981374
0.0095444136
0.0082717086
0.0071578312
0.0061772004
0.00531143
0.0045549126
0.0038959573
0.0033237313
0.0028283133
0.002400664
0.0020325894
0.0017166986
0.0014463587
0.0012156441
0.0010192857
0.00085261816
0.00071152798
0.00059240307
0.00049208398
0.00040781761
0.00033721374
0.00027820434
0.00022900329
0.00018808514
0.092974264
0.091034644
0.088675976
0.08587629
0.082626437
0.078936333
0.074840162
0.070398939
0.065698668
0.06084331
0.055943633
0.051104784
0.046416005
0.041944878
0.037736494
0.033816319
0.030194342
0.026869888
0.023835232
0.021078278
0.018584363
0.016337407
0.014320653
0.012517128
0.010909998
0.0094828542
0.0082196276
0.0071155764
0.006137765
0.0052775649
0.0045260068
0.0038713581
0.0033028567
0.0028106488
0.0023857565
0.0020200418
0.0017061649
0.0014375383
0.0012082773
0.0010131485
0.00084751817
0.00070730052
0.00058890757
0.00048920079
0.00040544522
0.00033526629
0.00027660942
0.00022770019
0.00018702291
0.09255043
0.090590612
0.088213071
0.085397237
0.082135552
0.078439515
0.074344623
0.069912628
0.065229453
0.060398098
0.055527673
0.050721325
0.046066368
0.041628811
0.037452629
0.033562772
0.029968804
0.026669991
0.023658652
0.020922792
0.018447875
0.016217969
0.014216464
0.012426523
0.010831448
0.0094151033
0.0081639903
0.0070674575
0.0060940725
0.0052402684
0.0044941786
0.0038442667
0.0032798617
0.0027911848
0.0023693258
0.0020062085
0.0016945487
0.0014278091
0.0012001493
0.0010063754
0.00084188831
0.00070263259
0.00058504678
0.00048601539
0.0004028234
0.00033311346
0.00027484581
0.0002262589
0.00018584779
0.093674089
0.092080642
0.090098781
0.087701005
0.084868083
0.081594152
0.077892396
0.07379969
0.069378525
0.064714673
0.05991005
0.055071942
0.050301339
0.045683478
0.041282692
0.03714169
0.033285063
0.029721726
0.026450963
0.023465138
0.020752362
0.018298241
0.016087003
0.014102205
0.012327141
0.01074523
0.0093401097
0.0081054789
0.0070124506
0.0060462851
0.0051993401
0.0044592377
0.0038145195
0.0032546066
0.0027698024
0.002351271
0.0019910038
0.0016817778
0.0014171099
0.0011912087
0.00099892326
0.00083569237
0.00069749392
0.00058079547
0.00048250678
0.00039993473
0.00033074083
0.00027290159
0.00022466959
0.00018455175
0.093178277
0.091560473
0.089555023
0.087135717
0.084284867
0.080998427
0.077291368
0.073201993
0.068793517
0.064151481
0.059376573
0.054574093
0.049842698
0.045265415
0.040904816
0.036802568
0.032981822
0.029451858
0.026211687
0.023253694
0.020566105
0.018134678
0.015943821
0.013977275
0.012218448
0.010650959
0.009261266
0.0080388438
0.0069514676
0.0059939695
0.0051545424
0.0044209857
0.0037819472
0.0032269469
0.0027463784
0.0023314875
0.0019743391
0.0016677768
0.0014053773
0.001181402
0.00099074701
0.0008288926
0.00069185293
0.00057612729
0.00047865304
0.00039676098
0.00032813328
0.00027076424
0.00022292194
0.00018312639
0.092629062
0.090985399
0.088954872
0.086512838
0.083643362
0.080344343
0.076632636
0.072548012
0.068154379
0.063536942
0.058795013
0.054031725
0.049343237
0.044810218
0.040493366
0.036433118
0.032651568
0.029157919
0.025951024
0.023023307
0.020363121
0.017956389
0.015787719
0.013841067
0.012099868
0.010547361
0.0091788505
0.0079630562
0.0068850128
0.0059368711
0.0051056381
0.0043792191
0.0037463751
0.0031967335
0.0027207859
0.002309867
0.0019561224
0.001652468
0.0013925453
0.0011706736
0.00098180002
0.00082144984
0.00068567684
0.00057101486
0.00047443136
0.00039328319
0.00032527508
0.00026842072
0.00022100513
0.00018156298
0.092021761
0.090350556
0.08829352
0.085827692
0.082939075
0.079627648
0.075912237
0.0718341
0.067457788
0.062868056
0.058162668
0.053442408
0.048800766
0.04431591
0.040046542
0.036031669
0.032292849
0.02883862
0.025667824
0.022772954
0.020142499
0.017762566
0.015617983
0.013692994
0.011970998
0.010438631
0.0090863906
0.0078790683
0.0068126616
0.0058747069
0.0050523856
0.0043337303
0.0037076251
0.0031638138
0.0026928943
0.0022862985
0.0019362594
0.0016357714
0.0013785465
0.0011589665
0.0009720342
0.00081332372
0.00067893181
0.0005654299
0.00046981815
0.00038948176
0.00032214994
0.00026585748
0.00021890783
0.00017985234
0.092694491
0.091351418
0.089650765
0.087565824
0.085075297
0.082167255
0.078843884
0.075126046
0.071056495
0.066700352
0.062141776
0.057476808
0.052803696
0.048213089
0.043780517
0.03956259
0.03559691
0.031904258
0.028492678
0.025360938
0.022501607
0.019903327
0.017552395
0.015433878
0.01353248
0.011830259
0.010325121
0.0089822472
0.0077879254
0.006734097
0.0058071936
0.0049945404
0.0042843087
0.0036655162
0.0031280325
0.0026625712
0.0022606691
0.0019146539
0.0016176054
0.0013633117
0.0011462224
0.0009614004
0.00080447291
0.0006715832
0.00055934343
0.00046478922
0.00038533653
0.00031874112
0.00026306057
0.00021661817
0.00017798425
0.091986536
0.090612056
0.088880369
0.086766283
0.08425037
0.081322912
0.077988406
0.074269811
0.070211354
0.065878627
0.061355037
0.056734706
0.052113156
0.04757803
0.043202087
0.039039746
0.035127234
0.031484386
0.028118822
0.025029227
0.022208247
0.019644694
0.017325061
0.01523461
0.013359353
0.011682754
0.010198571
0.0088678735
0.0076891732
0.0066489855
0.0057340467
0.0049318574
0.0042307429
0.0036198664
0.0030892336
0.0026296829
0.0022328645
0.0018912088
0.0015978874
0.0013467709
0.0011323821
0.00094984875
0.00079485545
0.00066359579
0.00055272595
0.00045931993
0.00038082698
0.00031503156
0.00026001581
0.00021412382
0.00017594533
0.091205036
0.089797485
0.08803331
0.085889051
0.083347347
0.080400832
0.077056415
0.07333918
0.069294783
0.06498916
0.060504786
0.055933663
0.051368392
0.046893454
0.04257871
0.038476254
0.034621089
0.031031848
0.027715807
0.024671572
0.021891871
0.019365702
0.017079767
0.01501909
0.01317227
0.011529001
0.010056975
0.00874449
0.0075824722
0.0065570049
0.0056549853
0.0048640935
0.0041728229
0.0035704947
0.0030472613
0.0025940959
0.0022027709
0.0018658269
0.001576535
0.0013288541
0.0011173863
0.00093732918
0.00078442916
0.00065493412
0.00054554776
0.00045338546
0.00037593239
0.00031100406
0.00025670906
0.00021141304
0.090343393
0.088901102
0.08710315
0.084927961
0.082360414
0.079395625
0.076042997
0.072329749
0.068302882
0.064028528
0.059588025
0.055071045
0.050567078
0.046157294
0.04190856
0.037870348
0.034077006
0.03054531
0.027282432
0.024286899
0.021551507
0.019065472
0.016815886
0.014785836
0.012978958
0.011357565
0.0099034435
0.0086114454
0.0074674462
0.0064578393
0.0055697351
0.0047910108
0.0041103428
0.0035172234
0.0030019629
0.0025556791
0.0021702759
0.0018384124
0.0015534663
0.001309492
0.0011011762
0.00092379203
0.00077315216
0.00064556297
0.00053777927
0.00044696102
0.00037063209
0.00030664143
0.00025312644
0.00020847899
0.089394456
0.087915881
0.086083099
0.083876565
0.081283549
0.078301772
0.074943185
0.071237115
0.067231803
0.062993388
0.058601856
0.054144325
0.049706993
0.045367586
0.041189985
0.03722196
0.033493691
0.030023503
0.026817554
0.023874191
0.021186223
0.018743092
0.01653344
0.014542427
0.012769082
0.011167916
0.0097384486
0.008468392
0.0073437561
0.0063511893
0.0054780339
0.0047123807
0.0040431044
0.003459881
0.0029531904
0.0025143054
0.0021352705
0.0018088722
0.0015286021
0.001288617
0.0010836946
0.00090918876
0.00076098348
0.00063544782
0.00052939148
0.00044002229
0.00036490571
0.00030192659
0.00024925295
0.0002053066
0.088350584
0.086834406
0.084966064
0.082728192
0.080110595
0.077113697
0.073752024
0.070056951
0.066077809
0.061880539
0.057543532
0.053151134
0.048786062
0.04452246
0.040421046
0.036527228
0.032869539
0.029465203
0.026320107
0.023432526
0.02079517
0.018397233
0.016230518
0.014289377
0.012537999
0.010964492
0.0095615553
0.0083149857
0.0072110883
0.0062367756
0.0053796357
0.0046279882
0.0039709205
0.0033983054
0.0029008038
0.0024698542
0.0020976513
0.0017771175
0.0015018666
0.0012661646
0.0010648866
0.00089347286
0.00074788375
0.00062455544
0.00052035641
0.00043254579
0.00035873359
0.00029684319
0.00024507557
0.00020188356
0.087203726
0.085648938
0.083744718
0.081476031
0.078835344
0.075825856
0.072464662
0.068785084
0.064837361
0.06068699
0.056410523
0.052089309
0.047802419
0.043620275
0.039600257
0.03578569
0.03220344
0.028869345
0.025789123
0.022961122
0.020377837
0.018026105
0.015918005
0.014011796
0.012288761
0.010747061
0.0093724098
0.0081509086
0.0070691573
0.0061143439
0.0052743161
0.0045376368
0.0038936198
0.0033323477
0.0028446742
0.0024222142
0.0020573225
0.0017430662
0.0014731894
0.0012420746
0.0010447009
0.00087660081
0.0007338161
0.00061285464
0.00051064775
0.00042450937
0.00035209713
0.00029137566
0.00024058141
0.00019819903
0.085945506
0.084351508
0.082411605
0.080113241
0.077451652
0.074432854
0.071076462
0.067417604
0.0635072
0.059410044
0.055200584
0.050956961
0.046754456
0.042659678
0.038726226
0.034996667
0.031494502
0.028235016
0.025223701
0.022459326
0.01993484
0.017640191
0.015582162
0.013708097
0.012023083
0.010515241
0.0091706916
0.0079758786
0.0069177124
0.0059836717
0.0051618786
0.0044411538
0.0038110513
0.0032618764
0.0027846875
0.0023712866
0.0020141988
0.0017066448
0.0014425074
0.0012162931
0.0010230915
0.00085853328
0.00071874706
0.00060031706
0.00050024151
0.00041589277
0.00034497929
0.00028550967
0.00023575837
0.00019424314
0.084567354
0.082934051
0.080959279
0.078633095
0.075953585
0.072929582
0.06958313
0.065950973
0.062084456
0.058047381
0.053911831
0.049752534
0.045640872
0.041639786
0.037800884
0.034159539
0.030742001
0.027561463
0.024622895
0.02192613
0.019463996
0.017240343
0.01521639
0.013385382
0.011740656
0.010268736
0.0089561391
0.0077896642
0.0067565481
0.0058445766
0.0050421618
0.0043383968
0.0037230901
0.0031867822
0.0027207483
0.0023169885
0.0019682081
0.0016677912
0.001409767
0.0011887738
0.0010000187
0.00083923639
0.00070264774
0.00058691808
0.00048911678
0.00040667829
0.00033736509
0.00027923258
0.00023059573
0.00019000709
0.083060669
0.081388583
0.079380488
0.077029163
0.074335591
0.071311383
0.067980865
0.064382167
0.060566764
0.056597166
0.052542827
0.048474872
0.044460623
0.040559045
0.036819133
0.033273085
0.029945375
0.026848202
0.023985627
0.021360651
0.018980533
0.016805097
0.014827031
0.013043428
0.011441255
0.010007337
0.0087285661
0.0075920991
0.0065855158
0.0056969258
0.0049150475
0.0042292611
0.0036296433
0.0031069832
0.0026527845
0.0022592567
0.0019192955
0.0016264571
0.0013749264
0.0011594807
0.00097545124
0.0008186832
0.00068549499
0.00057263787
0.00047725661
0.00039685148
0.00032924225
0.00027253398
0.00022508462
0.00018548351
0.081417042
0.079707428
0.077668397
0.075295532
0.072592715
0.069574244
0.066266535
0.062708823
0.058952395
0.055058157
0.051092684
0.04712334
0.043213276
0.039416726
0.035782122
0.032337203
0.029104576
0.026095428
0.0233102
0.020779917
0.018462485
0.016338218
0.014415628
0.012682048
0.011124756
0.0097309419
0.0084878776
0.0073830962
0.0064045358
0.0055406468
0.0047804694
0.0041136865
0.0035306567
0.0030224304
0.0025807524
0.002198052
0.0018674258
0.0015826118
0.0013379583
0.0011283896
0.00094936809
0.00079685531
0.00066727277
0.00055746252
0.00046464896
0.00038640196
0.00032060184
0.00026540619
0.00021921846
0.00018066685
0.079628537
0.077883498
0.075816865
0.073427066
0.070720839
0.067715018
0.064437867
0.060929408
0.057240396
0.053429823
0.049561156
0.045697902
0.041899351
0.038217587
0.034691258
0.031352239
0.028220023
0.025305373
0.022612461
0.020165242
0.017904459
0.015846013
0.013982123
0.012301237
0.010791176
0.0094395653
0.008234085
0.0071626618
0.0062136098
0.0053757372
0.0046384223
0.0039916655
0.0034261211
0.0029331139
0.0025046411
0.0021333636
0.0018125885
0.0015362446
0.0012988527
0.0010954911
0.00092176036
0.00077374453
0.0006479736
0.00054138523
0.00045128772
0.00037532425
0.000311439
0.00025784494
0.00021299347
0.00017555381
0.077688032
0.075910632
0.07382077
0.071419714
0.068716957
0.065731667
0.062493661
0.059043397
0.055430746
0.051712479
0.047948728
0.044198957
0.040518231
0.036956003
0.033545809
0.030318368
0.027291617
0.024475629
0.021894066
0.019506761
0.01731929
0.015329169
0.013526803
0.011901202
0.010440694
0.0091333631
0.0079673213
0.006930908
0.0060128317
0.0052022755
0.0044889713
0.0038632514
0.00331608
0.0028390686
0.0024244788
0.0020652135
0.0017548006
0.001487369
0.0012576195
0.0010607927
0.00089263353
0.00074935471
0.00062760009
0.00052440765
0.00043717379
0.00036361874
0.00030175371
0.00024984992
0.00020640917
0.00017014381
0.075589631
0.073783987
0.071676373
0.069270839
0.066579475
0.063623524
0.060434013
0.057051469
0.053524521
0.049907436
0.046256828
0.042627948
0.039070479
0.035633894
0.032346596
0.029236284
0.026319877
0.023628353
0.021124197
0.018816579
0.016707269
0.014788281
0.013050163
0.011482356
0.010073667
0.0088126451
0.0076878547
0.0066880662
0.0058024004
0.0050204313
0.0043322603
0.0037285662
0.0032006361
0.0027403806
0.0023403371
0.0019936614
0.0016941116
0.0014360253
0.0012142921
0.0010243215
0.00086200958
0.00072370362
0.00060616648
0.00050654116
0.00042231623
0.00035129255
0.00029155158
0.0002414255
0.00019946893
0.00016443942
0.073329128
0.071500478
0.069381729
0.066979592
0.064308536
0.061391567
0.058260554
0.054955703
0.051524062
0.048017148
0.04448798
0.040988085
0.037565446
0.034255888
0.031095347
0.028107269
0.025329507
0.022730122
0.0203153
0.018096887
0.016069064
0.014224115
0.012552911
0.011045324
0.009690641
0.0084778905
0.0073961033
0.0064344998
0.0055826299
0.0048304755
0.0041685221
0.0035878088
0.0030799585
0.0026371933
0.0022523373
0.0019188092
0.0016306068
0.0013822851
0.0011689298
0.0009861267
0.00082992921
0.00069682476
0.00058370029
0.00048780825
0.00040673337
0.00033836058
0.00028084466
0.00023258139
0.00019218055
0.0001584469
0.070904525
0.069059257
0.066937111
0.064547284
0.061906342
0.059038701
0.055976676
0.05275977
0.049433133
0.0460453
0.042645458
0.039280772
0.035995999
0.032822395
0.029792861
0.026958109
0.024289264
0.021787044
0.019474214
0.017348847
0.015405772
0.013637724
0.012036006
0.010590962
0.0092923731
0.0081297636
0.0070926487
0.006170716
0.0053539615
0.0046327899
0.0039980858
0.0034412619
0.0029542895
0.0025297133
0.0021606548
0.0018408054
0.0015644115
0.0013262537
0.0011216211
0.00094628214
0.00079645391
0.00066876919
0.00056024378
0.00046824383
0.00039045392
0.0003248464
0.00026965221
0.00022333332
0.00018455682
0.0001521766
0.068316565
0.066462196
0.064345449
0.061977765
0.059377479
0.056570026
0.053587763
0.050469125
0.047257094
0.043997088
0.040734324
0.037510158
0.03437037
0.031339725
0.028463176
0.025761808
0.023197484
0.020810332
0.01860312
0.016574216
0.014718935
0.0130305
0.011500698
0.010120382
0.0088798454
0.0077691291
0.0067782499
0.0058973786
0.0051169734
0.0044278768
0.0038213859
0.0032893
0.0028239504
0.0024182154
0.0020655241
0.0017598494
0.0014956947
0.0012680737
0.0010724858
0.00090488858
0.00076166798
0.00063960725
0.00053585547
0.00044789642
0.00037351803
0.00031078312
0.00025800149
0.00021370363
0.00017661602
0.00014564345
0.065569262
0.06371436
0.061612735
0.059277772
0.056729205
0.053993078
0.051101388
0.04809116
0.045002998
0.041879253
0.038762123
0.035692409
0.032698635
0.029817569
0.027102266
0.02450839
0.022071794
0.019803054
0.017704685
0.015775273
0.014010547
0.012404208
0.010948557
0.0096349729
0.0084542869
0.0073970701
0.0064538577
0.00561532
0.0048723919
0.0042163675
0.0036389694
0.0031323954
0.0026893477
0.0023030484
0.0019672431
0.0016761949
0.0014246719
0.0012079276
0.0010216781
0.00086207569
0.00072568025
0.00060943001
0.00051061137
0.00042682928
0.00035597821
0.0002962142
0.00024592837
0.00020372188
0.00016838242
0.00013886731
0.062670386
0.060824428
0.058748379
0.056457225
0.0539717
0.051318037
0.048527484
0.045635342
0.042679607
0.039699341
0.036733021
0.033817165
0.030980164
0.028277823
0.025681789
0.023222919
0.020916566
0.018768954
0.016782152
0.014954835
0.013283073
0.011761025
0.010381505
0.0091364346
0.0080171957
0.0070149046
0.0061206293
0.0053255531
0.0046211008
0.0039990309
0.003451503
0.0029711243
0.0025509778
0.0021846385
0.0018661768
0.0015901535
0.0013516081
0.0011460402
0.00096938817
0.00081800378
0.00068862553
0.00057835052
0.00048460601
0.00040512127
0.00033790005
0.00028119407
0.00023347791
0.00019342524
0.00015988663
0.00013187334
0.059631844
0.057805005
0.055765467
0.053529437
0.051118232
0.048557868
0.045878481
0.043113376
0.040297785
0.037467401
0.034656802
0.031900142
0.029249695
0.026682516
0.024228619
0.021910396
0.019736605
0.017712375
0.015839365
0.014116282
0.012539484
0.011103564
0.0098018459
0.0086267981
0.0075703597
0.0066242039
0.0057799421
0.0050292825
0.0043641509
0.0037767808
0.0032597793
0.0028061718
0.0024094313
0.0020634932
0.0017627599
0.0015020966
0.0012768196
0.0010826801
0.00091584332
0.00077286489
0.00065066554
0.0005465046
0.00045795316
0.00038286743
0.00031936274
0.00026578854
0.00022070465
0.00018285883
0.00015116586
0.00012469214
0.056469909
0.054672799
0.052680881
0.05051119
0.048185217
0.045728374
0.043169353
0.04053922
0.037870368
0.035195303
0.032542939
0.029977547
0.027475388
0.025055268
0.022752011
0.020576839
0.018537494
0.016638377
0.014880833
0.013263595
0.011783286
0.010434912
0.0092122972
0.0081084515
0.0071158764
0.006226807
0.0054334058
0.0047279139
0.0041027668
0.0035506816
0.0030647205
0.0026383353
0.0022653953
0.001940203
0.0016574986
0.0014124564
0.0012006747
0.0010181603
0.00086130888
0.00072688322
0.00061198923
0.00051405109
0.000430786
0.00036017913
0.00030045919
0.00025007494
0.00020767278
0.00017207579
0.00014226402
0.0001173599
0.053205229
0.05144858
0.049515229
0.047422656
0.045192139
0.04284814
0.040417606
0.037929068
0.035411904
0.032897783
0.03044102
0.028027821
0.025671646
0.023411061
0.021260261
0.019229533
0.01732578
0.015552828
0.013911776
0.012401392
0.011018549
0.0097586499
0.0086160026
0.0075841541
0.0066561638
0.0058248297
0.0050828686
0.0044230586
0.0038383503
0.0033219496
0.0028673799
0.0024685241
0.0021196532
0.0018154409
0.0015509692
0.0013217256
0.0011235934
0.00095283768
0.00080608733
0.00068031451
0.00057281228
0.00048117141
0.00040325674
0.00033718377
0.00028129578
0.00023414184
0.0001944559
0.00016113713
0.00013323153
0.00010991821
0.04986257
0.048156907
0.046292555
0.044287098
0.042161265
0.039938314
0.037643257
0.03530164
0.032937146
0.030610205
0.028311848
0.026050917
0.023861067
0.021760658
0.019762813
0.017876863
0.016108949
0.014462407
0.012938126
0.01153492
0.010249899
0.0090788437
0.0080165319
0.0070570334
0.0061939581
0.005420662
0.0047304139
0.0041165297
0.0035724759
0.0030919496
0.0026689374
0.0022977562
0.0019730808
0.0016899587
0.0014438158
0.0012304543
0.0010460442
0.00088711043
0.00075051626
0.00063344423
0.00053337549
0.00044806818
0.00037553547
0.00031402378
0.00026199147
0.00021808839
0.00018113643
0.0001501112
0.00012412497
0.00010241377
0.046470244
0.044825563
0.043039785
0.041130322
0.039117096
0.037022056
0.034868588
0.03268081
0.030483593
0.028328626
0.02618411
0.024084028
0.022057482
0.02011595
0.018270146
0.016528152
0.014895321
0.013374525
0.011966467
0.010670003
0.0094824718
0.0084000105
0.007417847
0.0065305578
0.0057322896
0.0050169463
0.0043783423
0.0038103258