/*--------------------------------*- C++ -*----------------------------------*\
| =========                 |                                                 |
| \\      /  F ield         | OpenFOAM: The Open Source CFD Toolbox           |
|  \\    /   O peration     | Version:  2312                                  |
|   \\  /    A nd           | Website:  www.openfoam.com                      |
|    \\/     M anipulation  |                                                 |
\*---------------------------------------------------------------------------*/
FoamFile
{
    version     2.0;
    format      ascii;
    arch        "LSB;label=32;scalar=64";
    class       volScalarField;
    location    "0.01";
    object      Ma;
}
// * * * * * * * * * * * * * * * * * * * * * * * * * * * * * * * * * * * * * //

dimensions      [0 0 0 0 0 0 0];

internalField   nonuniform List<scalar> 
3250
(
0.0034587698
0.0033223377
0.003191881
0.0030672361
0.0029482364
0.0028347197
0.0027265242
0.0026234902
0.0025254588
0.0024322717
0.0023437687
0.0022597853
0.0021801506
0.0021046861
0.0020332065
0.0019655204
0.0019014328
0.001840747
0.0017832668
0.0017287985
0.001677152
0.0016281429
0.0015815932
0.0015373323
0.0014951981
0.0014550371
0.0014167049
0.0013800667
0.0013449963
0.0013113785
0.0012791071
0.0012480688
0.0012181774
0.0011893562
0.001161525
0.001134614
0.0011085589
0.0010833015
0.0010587888
0.0010349726
0.0010118094
0.00098925925
0.0009672864
0.00094585838
0.00092494535
0.00090451867
0.00088455486
0.00086503156
0.00084592702
0.0034592927
0.0033228761
0.0031924312
0.0030677945
0.0029487989
0.0028352832
0.0027270863
0.0026240486
0.0025260119
0.0024328181
0.0023443072
0.002260315
0.0021806709
0.0021051965
0.0020337065
0.0019660097
0.0019019113
0.0018412146
0.0017837234
0.001729244
0.0016775865
0.0016285664
0.0015820057
0.0015377341
0.0014955892
0.0014554176
0.001417075
0.0013804265
0.001345346
0.0013117183
0.001279437
0.0012483891
0.0012184883
0.0011896579
0.0011618176
0.0011348978
0.001108834
0.0010835681
0.0010590472
0.001035223
0.001012052
0.00098949434
0.00096751433
0.00094607937
0.00092515919
0.00090472592
0.00088475564
0.00086522603
0.00084611581
0.0034602832
0.0033239038
0.0031934862
0.003068868
0.0029498834
0.0028363725
0.0027281752
0.0026251328
0.0025270878
0.0024338828
0.0023453585
0.0022613511
0.0021816902
0.002106198
0.0020346893
0.0019669733
0.0019028551
0.0018421383
0.001784627
0.0017301274
0.0016784497
0.0016294096
0.0015828291
0.0015385378
0.0014963735
0.0014561829
0.0014178215
0.0013811547
0.001346056
0.0013124107
0.0012801121
0.0012490472
0.0012191303
0.0011902838
0.0011624281
0.0011354931
0.0011094147
0.0010841346
0.0010595999
0.0010357624
0.0010125786
0.00099000868
0.0009680169
0.00094657055
0.0009256393
0.00090519558
0.00088521525
0.00086567597
0.00084655662
0.0034617408
0.0033254199
0.0031950452
0.0030704563
0.0029514895
0.0028379873
0.0027297907
0.0026267425
0.0025286863
0.0024354658
0.0023469224
0.0022628931
0.0021832081
0.0021076901
0.0020361544
0.0019684103
0.0019042633
0.0018435174
0.0017859766
0.0017314475
0.0016797404
0.0016306711
0.0015840616
0.0015397417
0.0014975493
0.001457331
0.0014189426
0.0013822492
0.0013471243
0.0013134537
0.0012811303
0.001250041
0.0012201011
0.0011912319
0.0011633541
0.0011363977
0.0011102986
0.0010849986
0.0010604446
0.0010365887
0.001013387
0.00099080006
0.00096879194
0.00094732987
0.00092638351
0.00090592555
0.00088593156
0.00086637917
0.00084724743
0.0034636533
0.003327412
0.0031970959
0.0030725474
0.002953606
0.0028401165
0.002731922
0.0026288671
0.0025307971
0.0024375569
0.0023489891
0.0022649316
0.0021852154
0.0021096638
0.0020380927
0.001970312
0.0019061275
0.0018453434
0.0017877641
0.0017331964
0.0016814507
0.001632343
0.0015856956
0.0015413383
0.0014991091
0.0014588546
0.0014204307
0.0013837027
0.0013485436
0.0013148399
0.0012824843
0.0012513635
0.0012213936
0.001192495
0.0011645887
0.0011376048
0.0011114791
0.0010861535
0.0010615748
0.0010376951
0.0010144707
0.00099186201
0.00096983305
0.000948351
0.00092738561
0.00090690964
0.00088689848
0.00086732967
0.00084818235
0.0034659656
0.0033298187
0.0031995719
0.0030750712
0.0029561595
0.0028426846
0.002734492
0.0026314284
0.002533341
0.0024400763
0.0023514783
0.0022673859
0.0021876312
0.0021120382
0.0020404235
0.0019725976
0.0019083668
0.0018475356
0.0017899089
0.0017352937
0.0016835008
0.0016343462
0.0015876524
0.0015432494
0.0015009752
0.0014606767
0.0014222098
0.00138544
0.0013502396
0.0013164963
0.0012841019
0.0012529433
0.0012229376
0.0011940039
0.0011660638
0.0011390472
0.00111289
0.0010875341
0.0010629263
0.0010390188
0.0010157677
0.00099313344
0.0009710801
0.00094957479
0.00092858727
0.00090809038
0.00088805932
0.00086847158
0.00084930635
0.0034689752
0.0033329237
0.0032027441
0.0030782863
0.0029593969
0.002845927
0.002737725
0.0026346398
0.0025365208
0.0024432164
0.0023545719
0.0022704279
0.0021906175
0.0021149657
0.0020432899
0.0019754012
0.0019111067
0.0018502114
0.0017925207
0.0017378417
0.0016859857
0.001636769
0.0015900141
0.0015455514
0.0015032189
0.0014628637
0.0014243416
0.0013875184
0.001352266
0.0013184726
0.0012860295
0.001254824
0.0012247738
0.0011957968
0.0011678151
0.0011407586
0.0011145632
0.0010891706
0.0010645278
0.0010405868
0.0010173037
0.00099463906
0.00097255672
0.00095102382
0.00093001016
0.00090948856
0.0008894341
0.00086982414
0.00085063791
0.003472886
0.0033369409
0.0032068341
0.0030824199
0.0029635494
0.0028500775
0.0027418557
0.002638736
0.0025405703
0.002447209
0.0023584997
0.0022742844
0.0021943976
0.0021186657
0.002046907
0.0019789338
0.0019145538
0.0018535727
0.0017957964
0.0017410327
0.0016890932
0.0016397944
0.0015929592
0.0015484181
0.0015060095
0.0014655803
0.0014269867
0.0013900945
0.0013547751
0.0013209176
0.0012884121
0.0012571468
0.0012270399
0.0011980082
0.0011699741
0.0011428674
0.001116624
0.0010911856
0.0010664991
0.0010425163
0.0010191937
0.00099649129
0.00097437313
0.00095280623
0.00093176041
0.00091120845
0.00089112529
0.00087148818
0.00085227638
0.0034776065
0.0033417835
0.0032117593
0.0030873936
0.0029685425
0.0028550653
0.0027468172
0.0026436537
0.0025454295
0.0024519977
0.0023632083
0.002278905
0.0021989243
0.0021230939
0.0020512335
0.0019831565
0.0019186716
0.0018575854
0.0017997044
0.001744837
0.0016927953
0.0016433963
0.0015964633
0.0015518268
0.0015093255
0.0014688064
0.0014301261
0.0013931504
0.0013577502
0.0013238155
0.0012912345
0.0012598975
0.0012297225
0.0012006252
0.0011725284
0.0011453618
0.0011190611
0.0010935682
0.0010688297
0.0010447975
0.0010214279
0.00099868091
0.00097652044
0.00095491347
0.0009338298
0.00091324213
0.00089312528
0.00087345639
0.00085421469
0.0034830501
0.0033473696
0.0032174424
0.0030931346
0.0029743076
0.0028608258
0.0027525486
0.0026493355
0.0025510446
0.0024575321
0.0023686503
0.0022842456
0.0022041561
0.0021282116
0.0020562333
0.0019880357
0.0019234288
0.0018622202
0.0018042174
0.0017492294
0.0016970688
0.0016475531
0.0016005061
0.0015557585
0.0015131493
0.0014725257
0.0014337446
0.0013966717
0.0013611779
0.001327154
0.0012944849
0.001263065
0.001232811
0.0012036379
0.0011754687
0.0011482329
0.0011218663
0.0010963105
0.0010715123
0.0010474233
0.0010239997
0.0010012016
0.00097899266
0.00095733986
0.00093621293
0.00091558451
0.00089542925
0.00087572424
0.00085644862
0.0034891172
0.0033536047
0.0032237942
0.0030995582
0.0029807648
0.0028672834
0.0027589787
0.0026557143
0.0025573524
0.0024637524
0.0023747698
0.0022902535
0.0022100439
0.0021339728
0.0020618631
0.001993531
0.0019287878
0.0018674423
0.0018093027
0.0017541792
0.001701885
0.0016522381
0.0016050627
0.00156019
0.0015174593
0.0014767178
0.0014378231
0.0014006409
0.0013650419
0.0013309165
0.0012981484
0.0012666354
0.0012362923
0.0012070339
0.0011787831
0.0011514695
0.0011250288
0.0010994024
0.0010745371
0.0010503844
0.0010269004
0.001004045
0.00098178188
0.00096007787
0.00093890267
0.0009182288
0.0008980308
0.00087828565
0.00085897246
0.0034957008
0.0033603876
0.0032307185
0.0031065736
0.002987828
0.002874357
0.0027660308
0.0026627179
0.0025642848
0.0024705948
0.0023815067
0.0022968722
0.0022165346
0.0021403277
0.0020680765
0.001999599
0.0019347079
0.0018732133
0.0018149247
0.0017596532
0.0017072127
0.001657422
0.0016101058
0.0015650957
0.0015222314
0.0014813602
0.0014423404
0.0014050378
0.0013693232
0.0013350854
0.0013022083
0.0012705927
0.0012401514
0.0012107988
0.0011824581
0.0011550588
0.0011285364
0.0011028323
0.0010778931
0.0010536703
0.0010301198
0.0010072015
0.00098487885
0.00096311868
0.0009418906
0.00092116701
0.00090092232
0.00088113343
0.00086177937
0.0035026838
0.0033676071
0.00323811
0.0031140811
0.0029954028
0.0028819571
0.0027736204
0.0026702664
0.0025717664
0.0024779881
0.0023887939
0.0023040389
0.0022235691
0.0021472208
0.0020748213
0.0020061905
0.0019411429
0.0018794901
0.0018210429
0.0017656133
0.0017130164
0.0016630714
0.0016156039
0.0015704459
0.0015274376
0.0014864264
0.0014472716
0.0014098389
0.0013739995
0.0013396394
0.0013066447
0.001274918
0.0012443699
0.0012149153
0.0011864772
0.0011589849
0.001132374
0.0011065856
0.0010815664
0.0010572676
0.0010336452
0.0010106588
0.0009882719
0.00096645113
0.00094516605
0.00092438892
0.00090409407
0.00088425828
0.00086486051
0.0035099396
0.0033751428
0.0032458546
0.0031219722
0.0030033865
0.0028899866
0.0027816553
0.0026782727
0.002579715
0.0024858547
0.0023965583
0.0023116844
0.0022310822
0.0021545907
0.0020820397
0.0020132512
0.0019480418
0.0018862246
0.0018276118
0.0017720168
0.0017192555
0.0016691483
0.0016215211
0.0015762067
0.0015330459
0.0014918862
0.0014525879
0.0014150167
0.0013790449
0.0013445537
0.001311434
0.0012795886
0.0012489265
0.0012193629
0.0011908206
0.0011632289
0.0011365233
0.0011106449
0.0010855401
0.0010611603
0.0010374611
0.0010144021
0.00099194676
0.0009700615
0.00094871584
0.00092788192
0.00090753395
0.00088764862
0.00086820483
0.0035173321
0.0033828649
0.0032538287
0.0031301295
0.0030116676
0.0028983395
0.0027900355
0.0026866418
0.0025880406
0.0024941095
0.0024047193
0.0023197327
0.0022390021
0.0021623697
0.0020896678
0.0020207208
0.0019553475
0.0018933629
0.0018345807
0.0017788157
0.0017258849
0.0016756096
0.0016278166
0.0015823396
0.0015390197
0.0014977045
0.0014582562
0.0014205404
0.0013844282
0.0013497994
0.0013165487
0.0012845781
0.0012537958
0.0012241172
0.0011954649
0.0011677684
0.0011409628
0.0011149894
0.0010897945
0.0010653291
0.001041549
0.0010184136
0.00099588621
0.00097393324
0.00095252405
0.00093163071
0.00091122729
0.0008912904
0.00087179886
0.003524715
0.0033906341
0.0032618997
0.003138427
0.0030201261
0.0029069019
0.0027986525
0.0026952709
0.0025966458
0.0025026601
0.0024131895
0.0023281009
0.0022472504
0.0021704836
0.0020976352
0.0020285325
0.001962997
0.0019008454
0.0018418931
0.0017859564
0.0017328536
0.0016824071
0.0016344446
0.0015888008
0.0015453175
0.001503842
0.0014642385
0.0014263737
0.0013901149
0.0013553437
0.0013219571
0.0012898561
0.0012589486
0.00122915
0.0012003832
0.0011725772
0.0011456675
0.001119595
0.0010943059
0.0010697515
0.0010458871
0.0010226722
0.00100007
0.00097804684
0.00095657192
0.00093561723
0.00091515672
0.00089516695
0.00087562663
0.0035319328
0.0033983017
0.0032699257
0.0031467292
0.0030286331
0.0029155511
0.0028073895
0.0027040491
0.0026054251
0.0025114064
0.0024218738
0.0023366988
0.0022557417
0.0021788513
0.0021058652
0.0020366136
0.0019709212
0.0019086063
0.0018494866
0.0017933796
0.0017401053
0.0016894872
0.001641354
0.0015955415
0.0015518926
0.0015102542
0.0014704923
0.0014324759
0.0013960657
0.0013611491
0.0013276231
0.0012953878
0.0012643514
0.0012344293
0.0012055442
0.0011776255
0.0011506083
0.0011244336
0.0010990476
0.0010744014
0.0010504503
0.0010271538
0.0010044749
0.00098237977
0.00096083773
0.00093982057
0.00091930216
0.00089925898
0.00087966964
0.0035388202
0.0034057098
0.0032777558
0.0031548922
0.0030370511
0.0029241558
0.0028161216
0.0027128573
0.0026142652
0.0025202405
0.0024306697
0.002345429
0.0022643831
0.0021873849
0.002114274
0.0020448842
0.0019790442
0.0019165738
0.0018572925
0.00180102
0.0017475776
0.0016967903
0.0016484878
0.0016025076
0.0015586933
0.0015168917
0.0014769709
0.0014387999
0.0014022367
0.0013671735
0.001333506
0.0013011341
0.0012699664
0.0012399185
0.001210913
0.0011828792
0.0011557524
0.0011294736
0.0011039889
0.0010792492
0.0010552101
0.0010318307
0.001009074
0.00098690636
0.00096529673
0.00094421693
0.0009236407
0.0009035445
0.00088390681
0.0035452031
0.0034126929
0.0032852308
0.0031627632
0.003045234
0.0029325764
0.0028247154
0.0027215682
0.0026230447
0.0025290468
0.0024394669
0.0023541864
0.0022730747
0.0021959888
0.002122771
0.002053258
0.0019872838
0.0019246692
0.001865236
0.001808806
0.0017552022
0.0017042512
0.0016557836
0.0016096388
0.0015656619
0.0015236995
0.0014836214
0.0014452946
0.0014085793
0.0013733697
0.0013395601
0.0013070512
0.0012757514
0.0012455768
0.00121645
0.0011883003
0.0011610632
0.0011346794
0.0011090953
0.0010842618
0.0010601342
0.0010366719
0.0010138377
0.00099159773
0.00096992112
0.00094877951
0.00092814662
0.0009079988
0.00088831446
0.0036876698
0.0035509015
0.0034190763
0.0032921827
0.0031701812
0.0030530272
0.002940665
0.0028330294
0.0027300465
0.0026316344
0.0025377019
0.0024481476
0.0023628584
0.0022817087
0.0022045603
0.0021312582
0.0020616419
0.001995551
0.0019328074
0.0018732357
0.0018166597
0.0017629045
0.0017117982
0.0016631725
0.0016168694
0.0015727354
0.0015306167
0.0014903857
0.0014519036
0.0014150394
0.0013796853
0.0013457351
0.0013130902
0.0012816594
0.0012513588
0.0012221113
0.0011938463
0.0011664993
0.0011400113
0.0011143285
0.001089402
0.0010651869
0.0010416428
0.0010187323
0.00099642164
0.00097467982
0.00095347847
0.00093279119
0.00091259438
0.00089286623
0.003691583
0.0035557246
0.0034246765
0.0032984351
0.0031769763
0.0030602678
0.0029482653
0.0028409137
0.0027381488
0.0026398969
0.0025460743
0.002456586
0.0023713247
0.0022901697
0.0022129881
0.002139628
0.0020699362
0.0020037498
0.0019408963
0.001881203
0.0018244962
0.0017706032
0.0017193534
0.0016705797
0.0016241273
0.0015798444
0.0015375778
0.0014971975
0.0014585656
0.0014215573
0.0013860624
0.0013519751
0.0013191973
0.0012876381
0.0012572141
0.0012278482
0.0011994701
0.0011720154
0.0011454252
0.0011196459
0.0010946285
0.0010703284
0.0010467049
0.0010237209
0.0010013424
0.00097953851
0.00095828075
0.00093754275
0.00091730085
0.00089753306
0.0036943129
0.0035594739
0.0034293018
0.0033038035
0.0031829711
0.0030667851
0.0029552129
0.0028482106
0.0027457235
0.0026476869
0.0025540246
0.0024646487
0.0023794574
0.0022983354
0.0022211544
0.0021477721
0.0020780347
0.0020117769
0.0019488363
0.0018890425
0.001832224
0.0017782101
0.0017268321
0.0016779237
0.0016313343
0.0015869132
0.0015445097
0.001503986
0.0014652129
0.0014280674
0.0013924378
0.001358219
0.0013253133
0.0012936304
0.0012630872
0.001233607
0.0012051197
0.0011775611
0.0011508726
0.0011250005
0.0010998961
0.0010755148
0.001051816
0.0010287626
0.0010063207
0.00098445931
0.00096315004
0.00094236642
0.00092208481
0.00090228305
0.0036956483
0.0035619445
0.0034327537
0.0033080961
0.0031879804
0.0030724005
0.002961336
0.0028547545
0.0027526115
0.0026548513
0.002561406
0.0024721944
0.0023871212
0.0023060769
0.002228939
0.0021555706
0.0020858172
0.0020195199
0.0019565204
0.0018966513
0.001839744
0.0017856301
0.0017341426
0.0016851163
0.0016384052
0.0015938611
0.0015513302
0.0015106749
0.0014717718
0.0014344981
0.0013987422
0.0013643995
0.0013313732
0.0012995734
0.0012689173
0.0012393288
0.0012107381
0.0011830813
0.0011562999
0.0011303407
0.0011051548
0.0010806979
0.0010569295
0.0010338126
0.0010113134
0.00098940083
0.00096804653
0.00094722407
0.00092690995
0.00090708144
0.0038320973
0.0036953742
0.0035629264
0.0034348276
0.0033111148
0.0031918124
0.0030769283
0.0029664552
0.0028603723
0.0027586458
0.0026612294
0.0025680634
0.0024790742
0.0023941731
0.0023132564
0.0022362075
0.0021628921
0.0020931604
0.0020268597
0.0019638338
0.001903919
0.0018469497
0.0017927604
0.0017411858
0.0016920623
0.0016452476
0.0016005989
0.0015579526
0.0015171814
0.0014781614
0.0014407712
0.0014048998
0.0013704436
0.0013373061
0.0013053983
0.0012746379
0.0012449493
0.001216263
0.0011885156
0.0011616489
0.0011356099
0.00111035
0.0010858251
0.0010619947
0.0010388221
0.0010162734
0.00099431783
0.00097292692
0.00095207436
0.00093173648
0.0009118905
0.0038284264
0.0036932709
0.003562204
0.003435314
0.0033126553
0.0031942686
0.0030801763
0.0029703844
0.002864884
0.0027636524
0.0026666529
0.0025738346
0.0024851316
0.002400462
0.0023197285
0.0022428181
0.0021696003
0.0020999339
0.0020336696
0.0019706542
0.0019107275
0.0018537272
0.0017994907
0.0017478554
0.0016986597
0.0016517645
0.0016070268
0.0015642844
0.0015234151
0.001484294
0.0014468019
0.0014108287
0.0013762715
0.0013430349
0.0013110304
0.0012801765
0.0012503981
0.0012216264
0.0011937983
0.001166856
0.0011407467
0.0011154224
0.001090839
0.0010669564
0.0010437378
0.0010211497
0.00099916127
0.0009777442
0.00095687219
0.00093652189
0.00091666974
0.0038225662
0.0036891159
0.0035595584
0.0034339985
0.0033125086
0.0031951455
0.0030819465
0.0029729312
0.002868103
0.0027674504
0.0026709467
0.0025785501
0.0024902025
0.0024058294
0.0023253391
0.0022486216
0.0021755513
0.0021059983
0.0020398155
0.0019768519
0.0019169512
0.0018599548
0.0018057035
0.0017540369
0.0017047977
0.0016578492
0.0016130406
0.0015702255
0.0015292783
0.0014900751
0.0014524986
0.0014164399
0.0013817971
0.0013484759
0.0013163886
0.0012854545
0.0012555992
0.0012267545
0.0011988578
0.0011718519
0.0011456844
0.0011203075
0.0010956775
0.0010717545
0.0010485021
0.0010258869
0.0010038781
0.00098244757
0.00096156936
0.00094121963
0.003814291
0.0036826844
0.0035547682
0.0034306639
0.0033104618
0.0031942351
0.0030820359
0.0029738977
0.0028698367
0.0027698526
0.0026739292
0.0025820335
0.0024941156
0.0024101082
0.0023299257
0.0022534616
0.002180594
0.0021112078
0.0020451556
0.0019822895
0.0019224569
0.0018655034
0.0018112735
0.0017596085
0.0017103609
0.0016633822
0.0016185309
0.0015756684
0.0015346664
0.0014954029
0.0014577624
0.0014216374
0.0013869274
0.0013535388
0.0013213853
0.001290387
0.0012604703
0.0012315676
0.0012036171
0.0011765621
0.0011503507
0.0011249356
0.0011002734
0.0010763246
0.0010530529
0.0010304253
0.0010084112
0.00098698249
0.00096611335
0.00094578033
0.0038033742
0.0036737521
0.0035476114
0.0034250913
0.0033062996
0.0031913259
0.0030802375
0.0029730818
0.0028698878
0.0027706668
0.0026754129
0.0025841023
0.0024966931
0.0024131246
0.0023333173
0.0022571663
0.0021845723
0.0021154101
0.0020495414
0.001986822
0.0019271037
0.0018702363
0.0018160682
0.001764444
0.0017152181
0.0016682408
0.0016233798
0.0015804976
0.0015394673
0.0015001684
0.0014624875
0.0014263185
0.0013915622
0.0013581267
0.0013259264
0.0012948825
0.0012649226
0.0012359798
0.001207993
0.0011809062
0.001154668
0.0011292318
0.0011045545
0.001080597
0.0010573235
0.001034701
0.0010126994
0.00099129055
0.00097044919
0.00095015134
0.0037895936
0.0036620964
0.0035378668
0.0034170615
0.0032998057
0.003186205
0.003076342
0.0029702781
0.0028680551
0.0027696961
0.0026752056
0.0025845692
0.0024977527
0.0024147012
0.0023353409
0.0022595815
0.0021873255
0.0021184462
0.0020528168
0.0019902974
0.0019307436
0.0018740088
0.001819946
0.0017684062
0.0017192344
0.0016722972
0.0016274607
0.0015845904
0.0015435614
0.0015042552
0.0014665606
0.0014303729
0.0013955947
0.0013621353
0.0013299107
0.0012988431
0.0012688612
0.001239899
0.0012118963
0.0011847979
0.0011585531
0.0011331157
0.0011084435
0.0010844975
0.0010612425
0.0010386458
0.0010166775
0.00099530975
0.00097451743
0.0009542772
0.0037727306
0.0036474985
0.003525316
0.0034063572
0.0032907644
0.0031786591
0.0030701389
0.0029652792
0.0028641348
0.0027667404
0.0026731112
0.0025832422
0.0024971072
0.0024146569
0.0023358238
0.0022605272
0.0021886748
0.0021201455
0.0020548174
0.0019925562
0.0019332213
0.0018766684
0.0018227631
0.0017713445
0.001722271
0.0016754146
0.0016306399
0.0015878164
0.0015468217
0.0015075398
0.0014698612
0.0014336835
0.0013989108
0.001365454
0.0013332306
0.0013021642
0.0012721845
0.0012432269
0.0012152319
0.0011881452
0.0011619171
0.0011365018
0.0011118578
0.0010879469
0.001064734
0.0010421869
0.0010202761
0.00099897404
0.00097825602
0.00095809836
0.0037525746
0.0036297457
0.0035097456
0.003392765
0.0032789628
0.0031684764
0.0030614182
0.0029578776
0.002857922
0.0027615978
0.0026689309
0.0025799256
0.0024945635
0.002412801
0.0023345793
0.0022598184
0.0021884432
0.0021203342
0.0020553737
0.0019934329
0.0019343753
0.001878061
0.0018243579
0.0017731078
0.001724182
0.0016774488
0.0016327763
0.0015900381
0.0015491142
0.0015098912
0.001472262
0.0014361261
0.0014013895
0.0013679651
0.0013357718
0.0013047347
0.001274785
0.001245859
0.0012178986
0.0011908504
0.0011646655
0.0011392991
0.0011147101
0.0010908611
0.0010677174
0.0010452475
0.0010234221
0.001002214
0.00098159859
0.00096155309
0.0037289244
0.0036086348
0.0034909499
0.0033760776
0.0032641932
0.0031554493
0.0030499732
0.0029478676
0.0028492127
0.0027540664
0.0026624648
0.0025744218
0.0024899253
0.0024089378
0.0023314015
0.0022572721
0.0021864519
0.0021188359
0.0020543117
0.0019927564
0.0019340363
0.0018780218
0.0018245681
0.0017735423
0.0017248126
0.0016782486
0.0016337224
0.0015911111
0.001550298
0.001511172
0.0014736287
0.0014375697
0.0014029034
0.0013695444
0.0013374134
0.0013064372
0.0012765484
0.0012476849
0.0012197895
0.0011928101
0.0011666986
0.0011414113
0.0011169078
0.0010931513
0.001070108
0.0010477466
0.0010260382
0.0010049562
0.0009844765
0.00096457585
0.0037015943
0.0035839744
0.0034687338
0.0033560971
0.0032462554
0.0031393765
0.0030356019
0.0029350477
0.0028378062
0.0027439464
0.002653515
0.0025665349
0.0024829997
0.0024028775
0.002326129
0.0022527123
0.0021825222
0.0021154715
0.0020514535
0.0019903504
0.0019320379
0.0018763727
0.0018232313
0.0017724852
0.0017240029
0.0016776573
0.0016333245
0.0015908852
0.0015502258
0.0015112383
0.0014738206
0.0014378772
0.0014033186
0.0013700614
0.0013380284
0.0013071483
0.0012773551
0.0012485882
0.0012207919
0.0011939153
0.0011679113
0.0011427373
0.0011183537
0.0010947244
0.0010718164
0.0010495989
0.0010280437
0.0010071243
0.00098681686
0.00096709909
0.0036704164
0.0035555896
0.0034429164
0.0033326376
0.00322496
0.003120066
0.0030181107
0.002919223
0.002823507
0.0027310426
0.0026418868
0.0025560717
0.0024735978
0.0023944432
0.0023185663
0.0022459392
0.002176464
0.0021100573
0.0020466169
0.0019860433
0.0019281938
0.0018729434
0.0018201783
0.0017697689
0.0017215882
0.0016755132
0.0016314239
0.0015892047
0.0015487452
0.0015099405
0.0014726917
0.0014369057
0.0014024954
0.00136938
0.0013374843
0.0013067388
0.0012770794
0.0012484472
0.0012207879
0.0011940519
0.0011681935
0.0011431709
0.0011189457
0.0010954827
0.0010727493
0.0010507156
0.0010293538
0.0010086379
0.00098854478
0.0009690515
0.0036352457
0.0035233248
0.0034133339
0.003305529
0.0032001317
0.0030973383
0.0029973168
0.0029002085
0.0028061285
0.0027151673
0.0026273912
0.002542841
0.002461523
0.0023834123
0.0023085156
0.0022367681
0.0021680927
0.0021024105
0.0020396267
0.0019796452
0.001922326
0.0018675623
0.0018152357
0.0017652224
0.0017174004
0.0016716509
0.0016278578
0.0015859094
0.0015456989
0.0015071247
0.0014700908
0.0014345071
0.0014002893
0.0013673589
0.0013356431
0.0013050744
0.0012755908
0.0012471351
0.0012196546
0.0011931011
0.0011674303
0.0011426016
0.0011185777
0.0010953241
0.0010728092
0.0010510037
0.0010298804
0.0010094139
0.00098958095
0.00097035974
0.0035959609
0.0034870475
0.0033798438
0.0032746205
0.0031716129
0.0030710301
0.0029730525
0.0028778327
0.0027854963
0.0026961434
0.0026098505
0.0025266644
0.0024465953
0.0023696433
0.0022958162
0.0022250262
0.0021572288
0.002092348
0.0020303026
0.0019709761
0.0019142637
0.0018600534
0.0018082293
0.0017586737
0.0017112697
0.0016659026
0.0016224608
0.0015808366
0.0015409266
0.001502633
0.0014658631
0.0014305297
0.0013965515
0.0013638526
0.0013323626
0.0013020165
0.0012727542
0.0012445204
0.0012172644
0.0011909393
0.0011655024
0.0011409143
0.0011171388
0.0010941425
0.0010718945
0.0010503665
0.0010295316
0.0010093648
0.00098984394
0.00097094629
0.00355247
0.0034466516
0.0033423288
0.0032397849
0.0031392678
0.0030409986
0.0029451689
0.0028519416
0.0027614519
0.0026738096
0.0025891017
0.0025073843
0.002428675
0.0023529608
0.0022802678
0.0022105278
0.0021436929
0.0020797025
0.0020184563
0.0019598673
0.0019038327
0.0018502428
0.0017989865
0.0017499516
0.0017030263
0.0016581004
0.0016150667
0.0015738217
0.001534266
0.0014963055
0.001459851
0.0014248185
0.0013911298
0.0013587119
0.001327497
0.0012974224
0.0012684305
0.0012404679
0.0012134857
0.0011874389
0.0011622863
0.0011379897
0.0011145142
0.0010918276
0.0010698997
0.001048703
0.0010282112
0.0010084001
0.00098924707
0.00097073069
0.0035047126
0.0034020627
0.0033007013
0.0032009233
0.0031029878
0.0030071263
0.0029135408
0.0028224035
0.0027338586
0.0026480245
0.0025649967
0.0024848347
0.0024075412
0.0023331759
0.0022617117
0.0021931086
0.0021273288
0.0020642917
0.0020039271
0.0019461515
0.0018908645
0.0018379623
0.0017873393
0.0017388885
0.0016925031
0.001648078
0.0016055103
0.001564701
0.001525555
0.0014879819
0.0014518961
0.0014172174
0.0013838705
0.0013517856
0.0013208977
0.0012911467
0.0012624773
0.0012348385
0.0012081832
0.0011824684
0.0011576543
0.0011337044
0.0011105849
0.0010882646
0.0010667146
0.0010459078
0.0010258188
0.0010064235
0.00098770027
0.00096962678
0.0034526664
0.0033532424
0.0032549091
0.0031579707
0.003062696
0.0029693262
0.0028780719
0.0027891144
0.0027026062
0.002618674
0.0025374136
0.0024588817
0.0023831179
0.0023101809
0.0022400183
0.0021726365
0.0021079711
0.0020459671
0.0019865623
0.001929671
0.0018752001
0.0018230522
0.001773127
0.001725323
0.0016795387
0.0016356738
0.0015936304
0.0015533138
0.0015146335
0.001477503
0.0014418408
0.0014075701
0.0013746193
0.0013429215
0.0013124148
0.0012830419
0.0012547501
0.0012274905
0.0012012184
0.0011758926
0.001151475
0.0011279306
0.001105227
0.0010833341
0.0010622239
0.0010418701
0.0010222478
0.0010033337
0.00098510581
0.00096754267
0.0033963532
0.0033001962
0.0032049416
0.0031109018
0.0030183541
0.0029275474
0.0028387001
0.0027520006
0.0026676087
0.0025856591
0.0025062535
0.002429452
0.0023552736
0.0022838145
0.0022150534
0.0021489622
0.0020854884
0.0020245981
0.0019662226
0.0019102835
0.0018566947
0.0018053651
0.0017562003
0.0017091042
0.0016639805
0.0016207342
0.0015792724
0.0015395052
0.0015013464
0.0014647139
0.0014295303
0.0013957227
0.0013632229
0.0013319675
0.0013018978
0.0012729594
0.0012451021
0.0012182797
0.0011924496
0.0011675726
0.0011436124
0.0011205357
0.0010983113
0.0010769103
0.0010563057
0.001036472
0.0010173848
0.0009990208
0.00098135899
0.00096437679
0.0033358473
0.003242979
0.0031508366
0.0030597387
0.0029699691
0.0028817831
0.0027954049
0.002711027
0.0026288125
0.0025489044
0.0024714205
0.002396384
0.0023239086
0.0022540174
0.0021867261
0.0021219881
0.0020597851
0.0020000732
0.001942791
0.0018878671
0.0018352223
0.0017847714
0.0017364259
0.0016900953
0.001645689
0.0016031173
0.0015622923
0.0015231291
0.0014855462
0.0014494661
0.0014148154
0.0013815253
0.0013495314
0.001318774
0.0012891974
0.0012607505
0.0012333858
0.0012070598
0.0011817321
0.0011573656
0.001133926
0.0011113814
0.0010897022
0.0010688606
0.0010488304
0.0010295867
0.0010111058
0.00099336483
0.00097634211
0.00096001584
0.0032712812
0.0031817042
0.003092689
0.0030045586
0.0029176021
0.0028320796
0.0027482202
0.0026662197
0.0025862428
0.0025084373
0.0024329276
0.0023597876
0.0022890673
0.0022207868
0.0021549866
0.0020916645
0.0020307873
0.0019723108
0.0019161794
0.0018623277
0.0018106825
0.0017611649
0.0017136922
0.00166818
0.0016245432
0.0015826977
0.0015425609
0.0015040529
0.0014670972
0.0014316208
0.0013975549
0.0013648348
0.0013334001
0.0013031947
0.0012741665
0.0012462674
0.0012194531
0.0011936826
0.001168918
0.0011451244
0.0011222693
0.0011003225
0.0010792558
0.0010590423
0.0010396569
0.0010210753
0.0010032741
0.00098623038
0.00096992293
0.00095432867
0.0032028561
0.003116552
0.0030306594
0.0029455036
0.0028613769
0.0027785438
0.0026972384
0.0026176633
0.0025399902
0.0024643556
0.0023908718
0.0023196155
0.0022506619
0.0021840404
0.0021198097
0.0020579601
0.0019984596
0.0019412684
0.0018863368
0.0018336055
0.0017830074
0.0017344697
0.0016879161
0.0016432679
0.0016004461
0.0015593721
0.0015199689
0.0014821618
0.0014458794
0.0014110535
0.0013776198
0.0013455181
0.001314692
0.0012850894
0.0012566617
0.0012293643
0.0012031558
0.0011779981
0.0011538557
0.001130696
0.0011084884
0.0010872043
0.0010668168
0.0010473002
0.00102863
0.0010107825
0.0009937344
0.00097746303
0.00096194631
0.00094716126
0.0031308511
0.0030477802
0.0029649849
0.0028827903
0.0028014901
0.0027213504
0.0026426095
0.0025654772
0.0024901231
0.0024166657
0.0023452201
0.0022758647
0.0022087237
0.0021438367
0.002081237
0.0020209059
0.001962822
0.0019069542
0.0018532598
0.0018016858
0.0017521714
0.00170465
0.0016590513
0.0016153032
0.0015733325
0.0015330664
0.0014944337
0.001457365
0.0014217941
0.0013876579
0.0013548969
0.0013234553
0.0012932811
0.0012643261
0.0012365457
0.0012098986
0.0011843465
0.0011598543
0.0011363892
0.0011139206
0.0010924199
0.0010718603
0.0010522159
0.0010334621
0.001015575
0.00099853128
0.00098230763
0.00096688106
0.00095222921
0.00093832776
0.0030556345
0.0029757362
0.0028959923
0.0028167253
0.0027382267
0.0026607608
0.0025845642
0.0025098438
0.0024367731
0.0023654872
0.0022961169
0.0022288051
0.0021635336
0.0021003918
0.0020394198
0.0019806161
0.0019239647
0.0018694401
0.0018170047
0.0017666106
0.0017182025
0.00167172
0.0016270993
0.0015842743
0.0015431783
0.0015037445
0.0014659074
0.0014296033
0.0013947712
0.0013613533
0.001329295
0.0012985453
0.0012690565
0.0012407848
0.0012136894
0.0011877325
0.0011628794
0.0011390977
0.0011163573
0.0010946299
0.0010738889
0.0010541089
0.0010352652
0.0010173342
0.0010002924
0.00098411647
0.00096878309
0.00095426875
0.00094055008
0.00092760182
0.0029776776
0.0029008712
0.0028241136
0.002747722
0.0026719843
0.0025971614