/*--------------------------------*- C++ -*----------------------------------*\
| =========                 |                                                 |
| \\      /  F ield         | OpenFOAM: The Open Source CFD Toolbox           |
|  \\    /   O peration     | Version:  2312                                  |
|   \\  /    A nd           | Website:  www.openfoam.com                      |
|    \\/     M anipulation  |                                                 |
\*---------------------------------------------------------------------------*/
FoamFile
{
    version     2.0;
    format      ascii;
    arch        "LSB;label=32;scalar=64";
    class       volScalarField;
    location    "0.01";
    object      nut;
}
// * * * * * * * * * * * * * * * * * * * * * * * * * * * * * * * * * * * * * //

dimensions      [0 2 -1 0 0 0 0];

internalField   nonuniform List<scalar> 
3250
(
0.033944984
0.033436131
0.032936988
0.03245
0.031977555
0.031521845
0.031084839
0.030668233
0.030273405
0.029901381
0.029552808
0.029227938
0.028926633
0.028648382
0.028392342
0.028157383
0.027942157
0.027745166
0.027564834
0.02739958
0.02724787
0.027108273
0.026979492
0.026860383
0.026749965
0.026647411
0.02655204
0.026463296
0.026380723
0.02630395
0.026232663
0.026166588
0.026105479
0.026049103
0.025997233
0.025949643
0.025906104
0.025866385
0.025830249
0.025797462
0.025767789
0.025740997
0.025716863
0.025695156
0.025675672
0.025658331
0.02564282
0.025628996
0.025616735
0.033943358
0.033434736
0.032935813
0.032449038
0.0319768
0.031521285
0.031084461
0.030668022
0.030273348
0.029901463
0.029553015
0.029228254
0.028927045
0.028648876
0.028392904
0.028158001
0.02794282
0.027745864
0.027565558
0.027400322
0.027248625
0.027109035
0.026980258
0.02686115
0.026750731
0.026648175
0.026552802
0.026464054
0.026381479
0.026304704
0.026233415
0.02616734
0.02610623
0.026049853
0.025997984
0.025950395
0.025906858
0.02586714
0.025831007
0.025798222
0.025768551
0.025741762
0.025717633
0.025695939
0.025676474
0.02565911
0.025643596
0.025629768
0.025617502
0.033939652
0.033431493
0.032933032
0.032446701
0.031974888
0.031519776
0.031083329
0.030667241
0.03027289
0.029901301
0.029553118
0.029228595
0.028927595
0.028649607
0.028393789
0.028159015
0.02794394
0.027747068
0.027566829
0.027401644
0.027249984
0.027110422
0.026981663
0.026862568
0.026752157
0.026649607
0.026554238
0.026465494
0.026382921
0.026306149
0.026234864
0.026168793
0.026107688
0.026051318
0.025999455
0.025951872
0.025908342
0.025868631
0.025832505
0.025799728
0.025770064
0.025743284
0.025719162
0.025697481
0.025678033
0.025660662
0.025645149
0.025631323
0.025619056
0.033933837
0.033426394
0.032928634
0.032442977
0.031971808
0.031517306
0.031081431
0.030665877
0.030272019
0.029900881
0.029553107
0.029228949
0.028928271
0.028650563
0.028394986
0.028160414
0.027945505
0.027748769
0.027568638
0.027403536
0.027251939
0.027112424
0.0269837
0.026864629
0.026754236
0.0266517
0.026556341
0.026467606
0.026385042
0.026308278
0.026237002
0.026170941
0.026109848
0.026053488
0.026001637
0.025954068
0.02591055
0.025870852
0.025834739
0.025801974
0.025772323
0.025745555
0.025721446
0.025699779
0.025680349
0.025662981
0.025647475
0.025633655
0.02562139
0.033925909
0.033419437
0.032922619
0.032437865
0.031967558
0.031513872
0.031078765
0.030663926
0.03027073
0.029900198
0.029552974
0.029229309
0.028929066
0.028651738
0.028396486
0.02816219
0.027947509
0.027750959
0.027570975
0.027405989
0.027254482
0.027115034
0.02698636
0.026867327
0.026756961
0.026654446
0.026559104
0.026470385
0.026387835
0.026311086
0.026239825
0.02617378
0.026112702
0.026056361
0.026004527
0.025956976
0.025913477
0.025873797
0.025837702
0.025804956
0.025775323
0.025748572
0.02572448
0.025702831
0.025683419
0.025666061
0.025650566
0.025636756
0.0256245
0.033916448
0.033411133
0.03291543
0.032431743
0.031962452
0.031509728
0.031075527
0.030661533
0.030269119
0.029899305
0.029552731
0.02922965
0.028929923
0.028653046
0.028398182
0.028164213
0.027949805
0.027753477
0.027573672
0.027408826
0.027257427
0.027118061
0.026989449
0.026870463
0.026760133
0.026657645
0.026562327
0.026473627
0.026391097
0.026314367
0.026243125
0.0261771
0.026116044
0.026059724
0.026007913
0.025960385
0.025916909
0.025877252
0.025841179
0.025808455
0.025778843
0.025752114
0.025728043
0.025706413
0.025687021
0.025669678
0.025654197
0.025640401
0.025628156
0.033905778
0.033401765
0.032907312
0.03242482
0.031956668
0.031505023
0.031071835
0.030658789
0.030267252
0.029898242
0.029552399
0.029229973
0.028930826
0.028654456
0.028400028
0.028166429
0.027952328
0.027756251
0.027576648
0.027411962
0.027260686
0.027121415
0.026992875
0.026873942
0.026763654
0.0266612
0.026565909
0.026477233
0.026394726
0.026318019
0.0262468
0.026180799
0.026119768
0.026063474
0.026011689
0.025964187
0.025920737
0.025881107
0.02584506
0.025812361
0.025782774
0.025756069
0.02573202
0.025710414
0.025691043
0.025673718
0.025658254
0.025644474
0.025632243
0.033893073
0.033390606
0.032897634
0.03241656
0.031949756
0.031499388
0.031067403
0.030655479
0.030264982
0.029896926
0.029551949
0.0292303
0.028931843
0.028656075
0.028402165
0.028169005
0.027955271
0.027759494
0.027580132
0.027415636
0.027264509
0.027125352
0.026996899
0.026878033
0.026767795
0.026665382
0.026570125
0.026481481
0.026399002
0.026322323
0.026251134
0.026185162
0.026124161
0.026067898
0.026016146
0.025968676
0.025925259
0.02588566
0.025849644
0.025816975
0.025787418
0.025760741
0.025736721
0.02571514
0.025695795
0.025678492
0.025663048
0.025649288
0.025637075
0.033878198
0.033377536
0.032886292
0.03240687
0.03194164
0.031492761
0.031062177
0.030651562
0.030262278
0.029895335
0.029551369
0.029230628
0.028932976
0.028657912
0.028404608
0.028171962
0.027958656
0.027763231
0.027584152
0.027419881
0.027268929
0.027129907
0.027001556
0.026882769
0.026772594
0.02667023
0.026575015
0.026486408
0.026403965
0.02632732
0.026256166
0.02619023
0.026129266
0.026073041
0.026021326
0.025973895
0.025930516
0.025890955
0.025854976
0.025822343
0.025792821
0.025766178
0.025742189
0.02572064
0.025701323
0.025684047
0.025668627
0.02565489
0.0256427
0.033861015
0.03336243
0.032873178
0.032395658
0.031932238
0.031485074
0.031056103
0.030646995
0.030259108
0.029893448
0.029550647
0.029230952
0.028934227
0.028659975
0.02840737
0.028175318
0.027962507
0.027767488
0.027588738
0.027424727
0.027273978
0.027135113
0.027006883
0.026888189
0.026778087
0.026675781
0.026580616
0.026492054
0.026409653
0.02633305
0.026261937
0.026196044
0.026135123
0.026078943
0.026027274
0.025979888
0.025936553
0.025897037
0.025861101
0.02582851
0.025799028
0.025772424
0.025748473
0.025726959
0.025707676
0.02569043
0.02567504
0.02566133
0.025649165
0.033841383
0.033345164
0.032858178
0.032382827
0.031921469
0.031476257
0.031049124
0.030641735
0.030255439
0.02989124
0.029549767
0.029231265
0.028935599
0.028662272
0.028410466
0.02817909
0.027966846
0.027772292
0.027593916
0.027430204
0.027279689
0.027141005
0.027012915
0.026894329
0.026784311
0.026682075
0.026586969
0.026498459
0.026416108
0.026339553
0.02626849
0.026202646
0.026141777
0.026085649
0.026034032
0.025986698
0.025943416
0.025903951
0.025868065
0.025835523
0.025806088
0.025779528
0.02575562
0.025734147
0.025714902
0.025697692
0.025682335
0.025668656
0.025656521
0.033819155
0.033325608
0.032841181
0.032368276
0.031909247
0.031466241
0.031041183
0.030635733
0.030251235
0.029888687
0.029548715
0.029231561
0.02893709
0.02866481
0.028413907
0.028183298
0.027971693
0.027777665
0.027599716
0.027436342
0.027286093
0.027147616
0.027019685
0.026901224
0.026791304
0.026689148
0.02659411
0.026505661
0.026423368
0.026346871
0.026275865
0.026210079
0.026149269
0.026093201
0.026041645
0.025994371
0.025951149
0.025911742
0.025875914
0.025843427
0.025814045
0.025787537
0.025763678
0.02574225
0.025723049
0.02570588
0.02569056
0.025676918
0.025664816
0.033794184
0.033303629
0.032822068
0.032351906
0.031895486
0.03145495
0.031032219
0.030628943
0.03024646
0.029885763
0.029547473
0.029231831
0.028938701
0.028667594
0.028417703
0.028187954
0.027977069
0.027783633
0.027606162
0.02744317
0.027293221
0.027154977
0.027027228
0.026908908
0.026799101
0.026697036
0.026602077
0.0265137
0.026431474
0.026355043
0.026284103
0.026218384
0.026157642
0.026101642
0.026050155
0.026002951
0.025959797
0.025920457
0.025884693
0.025852269
0.025822948
0.025796497
0.025772693
0.025751318
0.025732166
0.025715042
0.025699766
0.025686164
0.0256741
0.033766321
0.033279095
0.032800724
0.032333613
0.031880097
0.031442312
0.03102217
0.030621314
0.030241075
0.029882439
0.029546022
0.029232063
0.028940427
0.028670628
0.028421865
0.028193075
0.027982992
0.027790215
0.027613279
0.027450714
0.027301101
0.02716312
0.027035575
0.026917415
0.026807735
0.026705776
0.026610907
0.026522611
0.026440463
0.026364108
0.026293243
0.026227601
0.026166936
0.026111015
0.026059606
0.02601248
0.025969403
0.025930138
0.025894448
0.025862095
0.025832841
0.025806456
0.025782713
0.025761396
0.025742299
0.025725228
0.02571
0.025696444
0.025684422
0.033735415
0.033251873
0.032777028
0.032313293
0.031862991
0.031428249
0.031010973
0.030612795
0.03023504
0.029878684
0.029544341
0.029232245
0.028942263
0.028673911
0.028426398
0.02819867
0.027989476
0.027797431
0.027621089
0.027458998
0.027309759
0.027172071
0.027044755
0.026926775
0.026817239
0.026715399
0.026620633
0.026532431
0.026450371
0.026374102
0.026303323
0.026237768
0.026177191
0.026121358
0.026070039
0.026023001
0.02598001
0.02594083
0.025905222
0.025872948
0.025843771
0.025817458
0.025793784
0.025772533
0.025753497
0.025736483
0.025721309
0.025707803
0.02569583
0.033701315
0.033221828
0.032750863
0.032290842
0.031844076
0.031412684
0.030998562
0.030603333
0.030228311
0.029874467
0.029542407
0.029232362
0.028944201
0.028677444
0.028431307
0.028204749
0.027996534
0.027805297
0.027629609
0.027468043
0.027319219
0.027181856
0.027054795
0.026937016
0.026827642
0.026725937
0.026631287
0.026543191
0.026461232
0.026385061
0.026314379
0.026248922
0.026188445
0.026132711
0.026081491
0.026034552
0.025991659
0.025952574
0.025917057
0.025884872
0.025855779
0.025829547
0.025805949
0.02578477
0.025765802
0.025748852
0.025733738
0.025720289
0.025708368
0.033663872
0.033188828
0.032722111
0.032266156
0.031823262
0.031395539
0.030984871
0.030592873
0.030220846
0.029869753
0.029540194
0.029232397
0.02894623
0.02868122
0.028436591
0.028211315
0.028004174
0.027813823
0.027638856
0.027477865
0.027329499
0.027192496
0.027065717
0.026948162
0.026838969
0.026737415
0.026642897
0.02655492
0.026473075
0.026397014
0.026326443
0.026261097
0.026200731
0.026145109
0.026094001
0.026047172
0.026004386
0.025965407
0.025929992
0.025897905
0.025868906
0.025842763
0.02581925
0.02579815
0.025779258
0.025762378
0.02574733
0.025733942
0.025722079
0.033622944
0.033152744
0.032690656
0.032239132
0.031800458
0.031376735
0.030969835
0.030581358
0.030212598
0.029864505
0.029537673
0.029232327
0.028948335
0.02868523
0.028442246
0.02821837
0.028012401
0.027823018
0.027648837
0.027488478
0.027340613
0.027204005
0.027077539
0.026960232
0.026851241
0.026749856
0.026655485
0.026567644
0.026485926
0.026409991
0.026339543
0.026274321
0.02621408
0.026158583
0.026107599
0.026060892
0.026018227
0.025979364
0.025944063
0.025912083
0.025883188
0.025857143
0.025833723
0.025812711
0.025793901
0.025777099
0.025762123
0.025748804
0.025737004
0.033578405
0.033113447
0.032656383
0.032209666
0.031775574
0.031356193
0.030953384
0.030568732
0.030203519
0.029858684
0.029534813
0.029232128
0.028950498
0.028689462
0.028448264
0.028225907
0.028021213
0.027832881
0.027659557
0.027499887
0.027352569
0.027216395
0.027090271
0.026973238
0.026864472
0.026763275
0.02666907
0.026581381
0.026499807
0.026424011
0.026353703
0.026288619
0.026228517
0.026173159
0.026122313
0.026075742
0.02603321
0.025994475
0.025959298
0.025927438
0.025898656
0.02587272
0.025849402
0.025828486
0.025809766
0.025793048
0.025778151
0.025764906
0.025753176
0.03399472
0.033530161
0.033070821
0.03261918
0.032177659
0.031748519
0.031333835
0.03093545
0.030554936
0.030193558
0.029852247
0.029531578
0.029231771
0.028952695
0.028693894
0.028454628
0.028233915
0.0280306
0.027843408
0.027671012
0.027512089
0.027365368
0.027229667
0.027103919
0.026987188
0.026878669
0.026777683
0.026683663
0.026596143
0.02651473
0.026439091
0.026368938
0.026304009
0.026244062
0.026188858
0.026138164
0.026091743
0.026049357
0.026010764
0.025975724
0.025943995
0.025915337
0.025889519
0.025866312
0.025845501
0.025826879
0.025810254
0.025795443
0.025782278
0.025770624
0.03393637
0.033478041
0.033024745
0.032578938
0.032143011
0.031719206
0.031309582
0.030915963
0.030539907
0.030182662
0.029845147
0.029527928
0.02923122
0.028954894
0.028698502
0.028461316
0.028242375
0.028040545
0.027854582
0.02768319
0.027525076
0.027379001
0.027243815
0.027118478
0.027002078
0.026893833
0.02679308
0.026699266
0.026611935
0.026530702
0.026455238
0.026385257
0.026320501
0.026260725
0.026205692
0.026155166
0.026108911
0.026066685
0.026028248
0.025993357
0.02596177
0.025933249
0.025907559
0.025884474
0.025863777
0.025845262
0.025828735
0.025814018
0.025800941
0.025789368
0.033873506
0.033421908
0.032975102
0.032535552
0.032105626
0.031687548
0.031283355
0.030894854
0.030523583
0.030170774
0.029837332
0.029523815
0.029230433
0.028957057
0.028703249
0.028468295
0.028251255
0.028051022
0.02786638
0.027696067
0.027538825
0.027393449
0.027258821
0.027133932
0.027017895
0.026909951
0.026809456
0.026715872
0.026628752
0.026547718
0.026472449
0.026402661
0.026338096
0.02627851
0.026223665
0.026173324
0.026127249
0.026085199
0.026046932
0.026012205
0.025980774
0.025952401
0.02592685
0.025903897
0.025883323
0.025864923
0.025848504
0.025833887
0.025820904
0.025809419
0.033806036
0.03336164
0.032921779
0.032488921
0.032065413
0.03165346
0.031255076
0.030872049
0.030505897
0.030157833
0.029828747
0.029519188
0.02922936
0.028959139
0.028708093
0.028475525
0.028260517
0.028061991
0.027878764
0.027709608
0.027553303
0.027408681
0.027274657
0.027150253
0.027034613
0.026926999
0.02682679
0.02673346
0.026646574
0.026565764
0.026490711
0.026421136
0.026356783
0.026297406
0.026242768
0.02619263
0.026146754
0.026104896
0.026066815
0.026032265
0.026001003
0.02597279
0.025947391
0.025924579
0.025904138
0.025885863
0.02586956
0.025855051
0.025842169
0.025830779
0.034172473
0.033733885
0.033297138
0.032864677
0.032438949
0.032022282
0.031616857
0.031224667
0.030847476
0.030486778
0.030143771
0.029819327
0.029513984
0.029227943
0.02896108
0.028712975
0.028482948
0.028270107
0.028073401
0.027891683
0.027723764
0.027568462
0.027424649
0.027291276
0.0271674
0.027052191
0.026944941
0.026845046
0.026751997
0.026665372
0.026584808
0.026509996
0.026440658
0.026376537
0.026317391
0.02626298
0.026213066
0.026167406
0.026125758
0.026087878
0.026053521
0.026022443
0.025994403
0.025969167
0.025946508
0.02592621
0.025908068
0.025891889
0.025877495
0.02586472
0.025853433
0.034087162
0.03365693
0.033228302
0.032803699
0.032385546
0.031976146
0.031577657
0.031192048
0.030821056
0.030466153
0.030128516
0.029809
0.029508133
0.029226109
0.02896281
0.028717827
0.028490496
0.028279953
0.02808518
0.027905067
0.027738466
0.027584236
0.027441289
0.027308617
0.027185311
0.027070573
0.02696372
0.026864171
0.026771433
0.026685096
0.026604807
0.026530261
0.026461183
0.02639732
0.026338428
0.026284266
0.026234595
0.026189171
0.026147751
0.02611009
0.026075941
0.026045061
0.026017208
0.025992148
0.025969654
0.025949509
0.025931509
0.025915462
0.025901191
0.025888529
0.025877349
0.033996448
0.033575079
0.033155046
0.032738762
0.032328628
0.031926923
0.031535779
0.031157137
0.030792708
0.03044394
0.030111985
0.029797683
0.029501549
0.029223774
0.028964243
0.028722559
0.02849808
0.028289967
0.02809724
0.027918829
0.027753626
0.027600538
0.027458517
0.027326597
0.027203907
0.02708968
0.026983262
0.026884093
0.026791699
0.02670568
0.026625695
0.026551443
0.026482654
0.026419074
0.026360459
0.02630657
0.026257164
0.026211997
0.026170824
0.026133399
0.026099477
0.02606881
0.026041158
0.026016286
0.025993967
0.025973986
0.025956138
0.025940232
0.02592609
0.025913547
0.03390028
0.033488259
0.033077296
0.032669789
0.032268116
0.031874532
0.03149114
0.03111985
0.030762346
0.030420047
0.030094085
0.029785279
0.029494132
0.029220834
0.028965273
0.028727066
0.028505589
0.028300039
0.02810947
0.027932856
0.027769135
0.027617258
0.027476224
0.02734511
0.027223083
0.027109412
0.027003469
0.026904717
0.026812701
0.026727034
0.026647385
0.026573458
0.026504986
0.026441717
0.026383408
0.026329815
0.026280698
0.026235809
0.026194904
0.026157736
0.026124056
0.026093619
0.026066182
0.026041511
0.02601938
0.025999574
0.025981887
0.02596613
0.025952125
0.025939712
0.033798614
0.033396416
0.032994987
0.03259671
0.032203938
0.031818895
0.031443655
0.031080096
0.030729873
0.030394375
0.030074708
0.029771675
0.029485767
0.029217167
0.028965772
0.028731212
0.028512889
0.02831003
0.028121731
0.02794701
0.027784853
0.027634259
0.027494276
0.027364024
0.027242711
0.027129641
0.027024216
0.026925921
0.026834322
0.026749044
0.026669766
0.026596197
0.026528074
0.026465147
0.02640717
0.026353902
0.026305098
0.026260511
0.026219895
0.026183003
0.026149584
0.026119392
0.026092186
0.02606773
0.026045799
0.026026177
0.026008662
0.025993062
0.025979201
0.025966924
0.033691424
0.033299509
0.032908068
0.032519465
0.03213602
0.031759931
0.031393235
0.031037779
0.030695182
0.030366806
0.030053731
0.029756739
0.02947631
0.029212626
0.028965586
0.028734839
0.028519815
0.028319774
0.028133855
0.027961121
0.02780061
0.027651373
0.027512505
0.027383174
0.027262628
0.027150209
0.027045348
0.026947555
0.026856414
0.026771566
0.026692696
0.026619522
0.026551783
0.026489229
0.026431616
0.026378701
0.026330237
0.026285976
0.026245673
0.026209076
0.026175938
0.026146009
0.026119048
0.026094821
0.026073102
0.026053676
0.026036341
0.026020907
0.026007198
0.025995062
0.033578698
0.03319751
0.032816497
0.032437995
0.032064294
0.031697556
0.031339783
0.030992787
0.030658152
0.030337208
0.030031008
0.029740315
0.029465597
0.029207034
0.028964533
0.028737759
0.028526172
0.028329071
0.028145637
0.027974985
0.027816203
0.027668395
0.02753071
0.02740236
0.027282639
0.027170924
0.027066677
0.026969434
0.026878797
0.026794422
0.026716002
0.026643263
0.026575944
0.026513799
0.026456583
0.02640405
0.026355954
0.026312046
0.026272079
0.026235801
0.026202962
0.026173314
0.026146615
0.02612263
0.026101135
0.026081916
0.02606477
0.026049511
0.026035961
0.026023973
0.03346044
0.033090404
0.032720237
0.032352246
0.031988685
0.031631679
0.031283192
0.030944996
0.03061864
0.030305421
0.030006365
0.029722215
0.029453427
0.02920018
0.02896239
0.028739741
0.028531725
0.02833768
0.028156834
0.027988355
0.027831384
0.027685082
0.027548648
0.027421344
0.027302507
0.027191553
0.027087975
0.026991334
0.026901252
0.026817397
0.026739473
0.02666721
0.026600353
0.026538655
0.02648187
0.026429753
0.026382055
0.026338528
0.026298922
0.026262985
0.026230466
0.026201117
0.026174695
0.026150968
0.02612971
0.026110708
0.026093762
0.026078684
0.026065301
0.026053465
0.033336666
0.032978181
0.032619255
0.03226216
0.031909113
0.031562197
0.031223335
0.03089426
0.030576481
0.030271262
0.0299796
0.029702218
0.029439564
0.029191813
0.028958894
0.028740511
0.028536192
0.028345314
0.028167157
0.028000941
0.027845866
0.027701144
0.027566032
0.027439841
0.027321953
0.027211822
0.027108972
0.027012991
0.026923517
0.026840234
0.026762856
0.026691117
0.026624765
0.026563554
0.026507238
0.026455572
0.026408303
0.026365186
0.026325969
0.026290397
0.026258219
0.026229187
0.02620306
0.026179604
0.026158596
0.026139823
0.026123085
0.026108198
0.026094989
0.02608331
0.033207402
0.032860836
0.032513515
0.032167673
0.031825484
0.031488989
0.031160066
0.030840405
0.030531476
0.030234507
0.029950468
0.029680062
0.029423725
0.029181635
0.028953731
0.028739749
0.028539243
0.028351639
0.028176266
0.028012402
0.027859304
0.027716241
0.027582525
0.027457518
0.027340648
0.027231407
0.02712935
0.02703409
0.026945285
0.026862631
0.026785851
0.026714687
0.026648887
0.026588208
0.026532403
0.026481224
0.02643442
0.026391744
0.026352942
0.02631776
0.026285945
0.026257251
0.026231436
0.026208266
0.02618752
0.026168987
0.026152467
0.026137778
0.026124749
0.026113233
0.033072676
0.032738361
0.032402973
0.032068706
0.031737686
0.031411908
0.031093206
0.030783223
0.030483388
0.030194894
0.029918681
0.029655433
0.029405579
0.029169298
0.028946543
0.028737077
0.028540493
0.028356261
0.028183765
0.028022338
0.027871299
0.027729975
0.027597734
0.027473988
0.027358211
0.027249931
0.027148738
0.027054266
0.026966194
0.026884232
0.02680811
0.026737575
0.02667238
0.026612279
0.026557028
0.026506376
0.026460073
0.026417871
0.026379515
0.026344749
0.026313322
0.026284985
0.026259499
0.026236631
0.026216161
0.026197878
0.026181587
0.026167104
0.026154261
0.026142914
0.032932515
0.032610738
0.032287569
0.031965156
0.031645578
0.031330777
0.03102254
0.030722463
0.030431934
0.030152107
0.029883896
0.029627965
0.029384735
0.029154391
0.028936901
0.028732057
0.028539493
0.028358726
0.028189194
0.028030291
0.027881394
0.027741892
0.027611207
0.027488804
0.027374199
0.02726696
0.027166707
0.027073098
0.026985831
0.026904628
0.026829228
0.026759382
0.026694846
0.026635376
0.026580725
0.026530644
0.026484882
0.026443189
0.026405309
0.026370987
0.026339971
0.026312014
0.026286875
0.026264325
0.026244144
0.026226124
0.02621007
0.026195802
0.026183152
0.026171978
0.032786932
0.03247793
0.032167218
0.031856894
0.031548982
0.031245375
0.030947806
0.030657825
0.030376775
0.030105774
0.029845708
0.029597224
0.029360736
0.029136431
0.028924308
0.028724181
0.028535725
0.028358509
0.028192027
0.028035733
0.027889064
0.027751468
0.027622429
0.027501455
0.027388109
0.027281997
0.027182767
0.027090103
0.027003719
0.026923348
0.02684874
0.026779649
0.026715833
0.026657048
0.026603049
0.026553584
0.026508405
0.026467259
0.026429889
0.026396041
0.026365462
0.026337906
0.026313135
0.02629092
0.026271042
0.026253297
0.026237491
0.026223445
0.026210996
0.0262
0.032635917
0.032339873
0.0320418
0.031743744
0.031447674
0.031155428
0.030868684
0.030588945
0.030317507
0.030055454
0.029803643
0.029562706
0.029333054
0.02911488
0.028908201
0.028712867
0.028528599
0.028355015
0.028191666
0.028038065
0.027893714
0.027758121
0.027630815
0.027511365
0.027399373
0.027294481
0.027196366
0.027104736
0.027019319
0.026939862
0.026866121
0.026797855
0.026734825
0.026676786
0.026623494
0.026574695
0.026530144
0.026489584
0.02645276
0.026419417
0.026389302
0.026362172
0.02633779
0.026315927
0.026296369
0.026278912
0.026263364
0.026249551
0.026237309
0.026226499
0.032479427
0.032196458
0.031911146
0.031625481
0.031341372
0.0310606
0.030784789
0.030515388
0.030253653
0.03000063
0.029757149
0.029523829
0.02930108
0.029089098
0.028887928
0.028697456
0.028517446
0.02834757
0.028187435
0.028036617
0.027894677
0.027761181
0.02763571
0.027517886
0.027407351
0.027303782
0.027206884
0.027116384
0.027032028
0.026953573
0.026880782
0.026813418
0.026751244
0.026694017
0.02664149
0.026593413
0.026549538
0.026509608
0.026473368
0.026440563
0.026410944
0.026384265
0.026360294
0.026338804
0.026319582
0.026302427
0.026287151
0.02627358
0.026261555
0.026250937
0.032317368
0.032047524
0.03177503
0.031501814
0.031229725
0.030960482
0.030695656
0.030436644
0.030184656
0.029940703
0.029705593
0.029479928
0.029264112
0.02905837
0.028862759
0.028677206
0.028501519
0.028335422
0.028178585
0.02803064
0.027891208
0.027759912
0.027636386
0.027520303
0.027411338
0.027309204
0.027213631
0.027124368
0.027041175
0.026963819
0.026892068
0.026825691
0.02676445
0.026708105
0.026656407
0.026609111
0.026565965
0.026526712
0.026491098
0.026458869
0.026429776
0.026403578
0.026380043
0.026358947
0.02634008
0.026323244
0.026308254
0.026294939
0.026283141
0.026272724
0.032149585
0.031892843
0.031633151
0.031372375
0.0311123
0.030854584
0.030600739
0.030352111
0.030109869
0.029874988
0.029648254
0.029430258
0.02922139
0.029021901
0.028831881
0.028651291
0.028479986
0.028317744
0.028164289
0.028019313
0.027882496
0.027753515
0.02763206
0.027517831
0.02741056
0.027309984
0.027215857
0.027127948
0.027046029
0.026969876
0.026899264
0.026833964
0.026773741
0.026718355
0.026667557
0.026621105
0.026578745
0.026540221
0.026505278
0.026473665
0.026445135
0.02641945
0.026396378
0.026375702
0.026357212
0.026340715
0.026326028
0.026312983
0.026301425
0.026291221
0.031975849
0.031732107
0.031485128
0.031236713
0.030988579
0.030742322
0.030499397
0.030261098
0.030028551
0.029802697
0.0295843
0.029373947
0.029172023
0.028978799
0.028794395
0.02861881
0.028451944
0.02829363
0.028143647
0.028001744
0.027867657
0.027741116
0.027621857
0.02750962
0.027404181
0.027305297
0.027212749
0.027126321
0.027045796
0.026970961
0.026901595
0.026837472
0.026778359
0.026724016
0.026674196
0.026628657
0.026587145
0.026549405
0.026515184
0.026484232
0.026456306
0.026431169
0.026408594
0.026388366
0.026370279
0.026354143
0.02633978
0.026327023
0.026315723
0.026305747
0.031795843
0.03156492
0.031330488
0.031094281
0.030857947
0.03062302
0.030390896
0.030162819
0.02993987
0.02972296
0.029512829
0.029310061
0.029115065
0.028928104
0.028749331
0.028578786
0.028416419
0.028262111
0.028115697
0.027976981
0.027845751
0.027721786
0.027604869
0.027494784
0.027391312
0.027294269
0.027203444
0.027118634
0.027039637
0.026966244
0.02689824
0.026835402
0.026777498
0.02672429
0.026675533
0.026630983
0.026590388
0.026553495
0.026520051
0.026489811
0.026462534
0.026437986
0.026415945
0.026396198
0.026378546
0.026362799
0.026348784
0.02633634
0.026325318
0.02631559
0.031609154
0.031390787
0.03116866
0.030944436
0.030719695
0.030495907
0.03027441
0.030056398
0.029842913
0.029634836
0.029432887
0.029237643
0.029049512
0.028868787
0.028695653
0.028530186
0.02837238
0.028222166
0.028079428
0.027944025
0.027815791
0.027694554
0.027580136
0.027472357
0.027371034
0.027275984
0.027187038
0.027103999
0.027026673
0.026954858
0.026888343
0.026826907
0.026770321
0.026718348
0.026670745
0.026627269
0.026587666
0.026551688
0.026519085
0.026489614
0.026463038
0.026439127
0.026417663
0.026398438
0.026381256
0.026365933
0.026352298
0.026340195
0.026329479
0.026320023
0.031415272
0.031209118
0.030998977
0.030786442
0.030573023
0.030360125
0.030149029
0.029940882
0.029736691
0.029537312
0.029343441
0.029155604
0.028974272
0.028799761
0.028632278
0.028471934
0.028318761
0.028172737
0.028033798
0.027901847
0.027776767
0.027658425
0.027546681
0.027441386
0.027342388
0.027249519
0.027162613
0.027081508
0.027006009
0.026935918
0.026871029
0.026811124
0.026755974
0.026705345
0.026658997
0.026616685
0.02657816
0.026543175
0.026511483
0.026482846
0.02645703
0.026433812
0.026412976
0.02639432
0.026377653
0.026362795
0.02634958
0.026337854
0.026327478
0.026318328
0.031213592
0.031019231
0.030820687
0.03061948
0.030417051
0.03021474
0.030013772
0.029815246
0.029620126
0.029429238
0.029243269
0.029062779
0.028888219
0.02871992
0.028558113
0.028402943
0.028254487
0.028112767
0.027977763
0.027849422
0.027727667
0.027612405
0.027503526
0.027400911
0.027304426
0.027213931
0.027129266
0.027050263
0.026976755
0.026908548
0.026845434
0.026787197
0.026733613
0.026684447
0.026639464
0.026598418
0.026561064
0.026527157
0.026496456
0.026468727
0.026443741
0.02642128
0.026401133
0.026383102
0.026367003
0.02635266
0.026339912
0.02632861
0.026318618
0.026309813
0.031003429
0.030820372
0.030632971
0.030442672
0.030250849
0.030058777
0.029867625
0.029678442
0.029492156
0.029309568
0.029131363
0.028958131
0.028790297
0.028628196
0.028472088
0.028322156
0.028178515
0.028041226
0.027910311
0.027785755
0.027667519
0.027555539
0.027449735
0.027350009
0.027256249
0.027168327
0.027086099
0.027009407
0.026938072
0.026871913
0.02681073
0.026754312
0.026702432
0.026654859
0.026611357
0.026571686
0.026535604
0.026502871
0.026473251
0.026446513
0.026422435
0.026400804
0.026381414
0.026364076
0.026348606
0.026334837
0.026322612
0.026311786
0.026302227
0.026293817
0.030784041
0.030611741
0.030434973
0.030255116
0.030073472
0.029891256
0.02970958
0.029529449
0.029351753
0.029177277
0.029006704
0.028840652
0.02867949
0.028523572
0.028373195
0.028228579
0.028089869
0.02795716
0.027830509
0.027709934
0.027595426
0.027486949
0.027384446
0.027287838
0.027197028
0.027111899
0.027032318
0.026958132
0.026889172
0.026825253
0.026766177
0.026711734
0.026661707
0.026615867
0.026573979
0.026535807
0.026501112
0.026469659
0.02644122
0.026415568
0.026392487
0.026371771
0.026353222
0.026336653
0.02632189
0.02630877
0.02629714
0.02628686
0.026277804
0.026269855
0.030554678
0.030392537
0.030225854
0.030055934
0.029884015
0.02971125
0.029538702
0.029367333
0.029198007
0.029031496
0.02886847
0.028709434
0.028554876
0.028405129
0.028260538
0.028121341
0.027987701
0.027859742
0.027737549
0.027621171
0.027510621
0.027405887
0.027306928
0.027213681
0.027126061
0.02704396
0.026967251
0.026895786
0.026829401
0.026767914
0.02671113
0.02665884
0.02661083
0.026566874
0.026526744
0.026490205
0.026457026
0.026426977
0.026399834
0.026375379
0.026353403
0.026333704
0.026316092
0.026300387
0.02628642
0.026274035
0.026263083
0.026253431
0.026244954
0.026237541
0.030461423
0.030314645
0.030162028
0.030004849
0.029844342
0.029681678
0.029517952
0.029354177
0.029191275
0.029030076
0.028871316
0.028715629
0.028563555
0.028415652
0.028272111
0.028133404
0.027999763
0.027871356
0.027748336
0.027630817
0.027518869
0.027412526
0.027311789
0.027216633
0.027127004
0.027042826
0.026963998
0.026890398
0.026821881
0.026758287
0.026699436
0.026645136
0.026595182
0.02654936
0.026507452
0.026469234
0.026434475
0.02640295
0.026374437
0.026348718
0.026325581
0.026304825
0.026286256
0.026269691
0.026254956
0.026241888
0.026230337
0.02622016
0.026211229
0.026203424
0.026196636
0.030201357
0.030063353
0.029919617
0.029771354
0.029619728
0.029465847
0.029310749
0.029155397
0.029000671
0.028847366
0.028696189
0.028547758
0.028402601