/*--------------------------------*- C++ -*----------------------------------*\
| =========                 |                                                 |
| \\      /  F ield         | OpenFOAM: The Open Source CFD Toolbox           |
|  \\    /   O peration     | Version:  2312                                  |
|   \\  /    A nd           | Website:  www.openfoam.com                      |
|    \\/     M anipulation  |                                                 |
\*---------------------------------------------------------------------------*/
FoamFile
{
    version     2.0;
    format      ascii;
    arch        "LSB;label=32;scalar=64";
    class       volScalarField;
    location    "0.01";
    object      omega;
}
// * * * * * * * * * * * * * * * * * * * * * * * * * * * * * * * * * * * * * //

dimensions      [0 0 -1 0 0 0 0];

internalField   nonuniform List<scalar> 
3250
(
567.18556
557.13597
547.01287
536.83619
526.63095
516.4262
506.25514
496.15489
486.16602
476.33186
466.69755
457.30887
448.21094
439.44687
431.05628
423.07414
415.52959
408.44521
401.83652
395.71177
390.07209
384.91198
380.21985
375.97892
372.1681
368.76294
365.73662
363.06079
360.70641
358.64447
356.84653
355.28525
353.93468
352.77057
351.77054
350.9141
350.18272
349.55975
349.03039
348.58152
348.20166
347.88076
347.61012
347.38242
347.19107
347.02894
346.89322
346.77957
346.68414
567.13309
557.08639
546.96607
536.79216
526.58975
516.38784
506.21964
496.12225
486.13626
476.30499
466.67355
457.28773
448.19264
439.43134
431.04348
423.06397
415.52195
408.44
401.83359
395.71098
390.07331
384.91503
380.22459
375.9852
372.17576
368.77185
365.74664
363.07179
360.71828
358.6571
356.85983
355.29913
353.94906
352.7854
351.78575
350.92964
350.19855
349.57584
349.0467
348.59803
348.21833
347.89759
347.62705
347.39931
347.20785
347.0462
346.91067
346.79723
346.70201
567.02455
556.98338
546.86868
536.7004
526.50366
516.30747
506.14503
496.05346
486.07332
476.24794
466.6224
457.24247
448.15322
439.3977
431.01549
423.04148
415.50477
408.42788
401.82629
395.70821
390.07475
384.92039
380.23353
375.9974
372.19093
368.78968
365.76684
363.0941
360.74246
358.68291
356.88708
355.32764
353.97867
352.81595
351.81713
350.96174
350.23128
349.60911
349.08044
348.63219
348.25286
347.93243
347.66216
347.43459
347.24322
347.08198
346.94673
346.83354
346.73862
566.8597
556.8269
546.72065
536.56083
526.37261
516.18501
506.03123
495.9484
485.97708
476.16057
466.54395
457.17293
448.09255
439.34578
430.97216
423.0065
415.47786
408.40871
401.81446
395.70329
390.07629
384.9279
380.24654
376.01542
372.21348
368.81632
365.79713
363.12764
360.77887
358.72185
356.92824
355.37073
354.02344
352.8622
351.86465
351.01038
350.28087
349.65954
349.1316
348.68399
348.30521
347.98527
347.71543
347.4882
347.2971
347.1363
347.00139
346.88853
346.79396
566.63862
556.61708
546.52212
536.37358
526.19671
516.02055
505.87832
495.80716
485.84762
476.04298
466.43828
457.07918
448.01066
439.27562
430.9135
422.95906
415.44126
408.38249
401.79809
395.69621
390.07789
384.93754
380.26358
376.03921
372.24339
368.85173
365.83746
363.17235
360.82745
358.77385
356.98323
355.42834
354.08333
352.92407
351.92824
351.07546
350.34726
349.72706
349.2001
348.75335
348.37532
348.05603
347.78678
347.56004
347.36936
347.20906
347.07459
346.96213
346.86797
566.3774
556.3692
546.28754
536.15229
525.98879
515.8261
505.69747
495.64006
485.6944
475.90375
466.31311
456.96808
447.91356
439.19236
430.84384
422.90265
415.39764
408.35114
401.77841
395.68752
390.07946
384.94863
380.28342
376.06705
372.27847
368.89333
365.8849
363.22498
360.88467
358.83511
357.04804
355.49625
354.15394
352.99704
352.00325
351.15225
350.42558
349.80672
349.28093
348.83519
348.45806
348.13954
347.87097
347.64484
347.45469
347.29493
347.16095
347.04895
346.95523
566.08433
556.09111
546.02434
535.90399
525.75545
515.60784
505.49445
495.45242
485.52231
475.74734
466.17246
456.8432
447.80438
439.09871
430.76544
422.8391
415.34846
408.31572
401.75608
395.67752
390.081
384.96086
380.30548
376.09808
372.31763
368.93982
365.93795
363.28386
360.94872
358.9037
357.12062
355.57231
354.23305
353.07878
352.0873
351.23828
350.51334
349.89599
349.37151
348.92691
348.55077
348.23313
347.96533
347.73988
347.55035
347.39117
347.25773
347.14622
347.05297
565.73665
555.76118
545.71206
535.60936
525.47854
515.3488
505.25345
495.22967
485.31798
475.5616
466.0054
456.69484
447.67463
438.98738
430.67219
422.76348
415.28988
408.27348
401.72937
395.66545
390.08261
384.97516
380.33145
376.13471
372.36392
368.99481
366.00073
363.35357
361.02455
358.98494
357.20659
355.66243
354.32677
353.17564
352.18688
351.34023
350.61735
350.00177
349.47884
349.03559
348.66064
348.34404
348.07716
347.85252
347.66371
347.50522
347.37241
347.26147
347.16875
565.33057
555.3758
545.34726
535.26514
525.15499
515.04609
504.9718
494.9693
485.07912
475.34443
465.81004
456.52132
447.52285
438.8571
430.56304
422.67492
415.22123
408.22392
401.69795
395.65113
390.08428
384.99165
380.36158
376.1773
372.41781
369.05886
366.07388
363.43482
361.11297
359.07967
357.30686
355.76754
354.4361
353.28864
352.30306
351.45917
350.73868
350.12519
349.60407
349.1624
348.78882
348.47343
348.20762
347.98393
347.79597
347.63827
347.50618
347.3959
347.30379
564.86209
554.93115
544.92631
534.8679
524.78158
514.69669
504.64666
494.6687
484.80333
475.09366
465.58442
456.32089
447.3475
438.70656
430.43687
422.57251
415.14178
408.16649
401.66146
395.63438
390.08598
385.01046
380.39614
376.22622
372.47977
369.13256
366.15808
363.52837
361.21479
359.18878
357.42236
355.88862
354.56204
353.41881
352.4369
351.5962
350.87847
350.26738
349.74834
349.30849
348.9365
348.6225
348.35791
348.13532
347.94834
347.79153
347.66026
347.55073
347.45931
564.32707
554.42327
544.44544
534.41407
524.35492
514.29744
504.27511
494.32515
484.4881
474.80698
465.32648
456.09171
447.14696
438.53436
430.2925
422.45527
415.05078
408.10065
401.61953
395.61499
390.08767
385.0317
380.43535
376.28186
372.55029
369.2165
366.25402
363.63498
361.33085
359.31316
357.55404
356.02667
354.70566
353.56725
352.58953
351.75246
351.03788
350.42952
349.91286
349.47507
349.10489
348.79247
348.52928
348.30793
348.12206
347.96626
347.83591
347.72722
347.63658
563.72115
553.84803
543.90072
533.89993
523.87152
513.84504
503.85404
493.9358
484.13079
474.48203
465.03406
455.83186
446.91955
438.33904
430.12872
422.32222
414.94744
408.0258
401.57176
395.59276
390.08931
385.05547
380.47949
376.3446
372.62989
369.31128
366.36239
363.75544
361.46202
359.45375
357.7029
356.18274
354.86801
353.73507
352.76209
351.92912
351.2181
350.61282
350.09884
349.66339
349.29524
348.98461
348.72299
348.50303
348.31841
348.16374
348.03442
347.92667
347.83688
563.03984
553.20111
543.28805
533.32159
523.3277
513.33605
503.38028
493.49767
483.7287
474.1163
464.70491
455.53935
446.66352
438.1191
429.94424
422.1723
414.83093
407.94133
401.51775
395.56745
390.09084
385.0819
380.52882
376.41483
372.71908
369.41754
366.48393
363.89057
361.60917
359.6115
357.86992
356.35788
355.0502
353.9234
352.95573
352.12737
351.42035
350.81852
350.30754
349.8747
349.50883
349.20019
348.94032
348.72191
348.53869
348.38526
348.25708
348.15036
348.06153
562.27845
552.47808
542.6032
532.67503
522.71968
512.76693
502.85049
493.0077
483.279
473.70725
464.33674
455.21212
446.37706
437.87299
429.73775
422.00443
414.70041
407.8466
401.45706
395.53884
390.09222
385.11108
380.58358
376.49296
372.81839
369.53591
366.61936
364.04118
361.77321
359.78737
358.05615
356.55315
355.25336
354.13339
353.17166
352.34843
351.64584
351.04787
350.54023
350.11028
349.74693
349.4405
349.18258
348.96589
348.78419
348.63215
348.50521
348.39962
348.31182
561.43216
551.67433
541.84178
531.95612
522.04354
512.13399
502.26126
492.46272
482.77878
473.2522
463.92715
454.84805
446.05832
437.5991
429.5079
421.81752
414.555
407.74098
401.38925
395.50669
390.09339
385.14314
380.64406
376.57939
372.92834
369.66705
366.76944
364.20812
361.95506
359.98234
358.26262
356.76966
355.4786
354.36622
353.41106
352.59351
351.89584
351.30213
350.79817
350.37142
350.01085
349.70686
349.45106
349.23626
349.05624
348.9057
348.78012
348.67576
348.58909
560.49598
550.78512
540.99929
531.16056
521.29526
511.43347
501.60907
491.85947
482.22505
472.74846
463.47371
454.44497
445.7054
437.29579
429.25333
421.61043
414.39382
407.6238
401.31389
395.47074
390.09428
385.17819
380.71053
376.67454
373.04949
369.8116
366.93493
364.39222
362.15564
360.19741
358.49039
357.00851
355.72709
354.62306
353.67514
352.86386
352.1716
351.58256
351.08265
350.6594
350.30189
350.00055
349.74709
349.53434
349.35615
349.20723
349.08312
348.98009
348.89464
559.4648
549.8056
540.07112
530.284
520.47071
510.66149
500.89032
491.19463
481.61476
472.19326
462.97392
454.00068
445.31636
436.96141
428.97263
421.38204
414.21597
407.4944
401.23054
395.43077
390.09486
385.21636
380.78327
376.77883
373.18238
369.97023
367.11658
364.59435
362.37588
360.43357
358.7405
357.27079
355.99994
354.90509
353.96511
353.16069
352.47435
351.89043
351.39493
350.97552
350.62132
350.32288
350.07194
349.86142
349.68519
349.53804
349.4155
349.3139
349.22973
558.33342
548.73079
539.05255
529.32198
519.5657
509.81413
500.10136
490.46483
480.94483
471.58379
462.42527
453.51294
444.88927
436.5943
428.66441
421.13119
414.02057
407.35213
401.13874
395.38654
390.09507
385.25776
380.86256
376.89269
373.32757
370.14362
367.31517
364.81536
362.6167
360.69181
359.014
357.55759
356.29831
355.21348
354.28216
353.48521
352.80533
352.22697
351.73628
351.32101
350.97041
350.67509
350.42689
350.21876
350.04464
349.89936
349.7785
349.67841
349.59562
557.09668
547.5556
537.9388
528.26995
518.57596
508.8874
499.23847
489.66664
480.21214
470.91723
461.82525
452.97953
444.42218
436.19279
428.32729
420.85678
413.80673
407.19633
401.03809
395.33783
390.09489
385.30255
380.94869
377.01655
373.48561
370.33242
367.53147
365.05609
362.87903
360.97313
359.31193
357.87001
356.6233
355.54936
354.62745
353.83862
353.16574
352.5934
352.1079
351.69711
351.35038
351.05841
350.81313
350.60756
350.43569
350.2924
350.17332
350.07483
349.99347
565.12981
555.74982
546.27509
536.72503
527.12335
517.49719
507.87729
498.29795
488.79666
479.41356
470.19076
461.17133
452.39824
443.91316
435.75525
427.95989
420.55768
413.57361
407.0264
400.92817
395.28444
390.09429
385.35086
381.04197
377.15085
373.65706
370.53729
367.76622
365.31739
363.16376
361.27847
359.6353
358.20907
356.976
355.91385
355.00212
354.22206
353.55672
352.99087
352.51095
352.10497
351.76238
351.474
351.23183
351.02897
350.85949
350.7183
350.60109
350.50425
350.4244
563.59517
554.28695
544.8841
535.40639
525.8776
516.32509
506.77979
497.27608
487.85147
478.54602
469.40161
460.46103
451.76688
443.36035
435.28007
427.56089
420.23284
413.32038
406.84174
400.80862
395.22618
390.09327
385.40287
381.14269
377.29601
373.84246
370.75888
368.02016
365.60004
363.47178
361.60876
359.98506
358.5758
357.35743
356.30799
355.40722
354.6366
353.97937
353.42048
352.94653
352.54568
352.2075
351.92293
351.68405
351.48405
351.31707
351.17808
351.06281
350.96769
350.88938
561.93256
552.70253
543.37749
533.97802
524.52813
515.05539
505.59092
496.16921
486.82773
477.60645
468.54705
459.69196
451.08335
442.76193
434.76573
427.12902
419.88126
413.04628
406.64181
400.67908
395.16291
390.09186
385.45873
381.25118
377.45247
374.04236
370.99783
368.29399
365.90484
363.8039
361.96488
360.36215
358.97112
357.76856
356.73278
355.84376
355.08324
354.43468
353.88321
353.41563
353.02022
352.68672
352.40616
352.17074
351.97374
351.80936
351.67265
351.55938
351.46603
351.38927
560.13683
550.99112
541.75013
532.43511
523.07042
513.68388
504.30679
494.97373
485.72217
476.59194
467.62444
458.86178
450.34564
442.11616
434.21079
426.66313
419.502
412.75061
406.42612
400.53928
395.09451
390.09009
385.51863
381.36773
377.62065
374.25726
371.25473
368.58839
366.2325
364.16091
362.34764
360.76739
359.39591
358.21027
357.18909
356.31263
355.56288
354.92354
354.37996
353.91911
353.52946
353.20087
352.92452
352.69272
352.49884
352.33715
352.20278
352.09156
351.99999
351.92476
567.14621
558.20311
549.1476
539.99703
530.77295
521.50006
512.20645
502.92362
493.68621
484.53166
475.49964
466.6313
457.9683
449.55184
441.42146
433.61392
426.16214
419.09423
412.43275
406.19425
400.38897
395.0209
390.08803
385.58278
381.49266
377.80095
374.48766
371.53014
368.90396
366.58368
364.54349
362.75776
361.20154
359.85093
358.68333
357.67769
356.81459
356.07627
355.44671
354.91147
354.45771
354.0741
353.75066
353.47869
353.25064
353.05996
352.90103
352.76904
352.65989
352.57011
352.49635
564.97187
556.12558
547.16685
538.11335
528.98698
519.8128
510.61918
501.43778
492.30333
483.25322
474.32693
465.56528
457.00951
448.70024
440.67636
432.97392
425.62509
418.65723
412.09218
405.94586
400.22796
394.94205
390.08577
385.65137
381.62626
377.99376
374.73401
371.82455
369.24125
366.95897
364.95226
363.19587
361.66523
360.3368
359.18837
358.19923
357.35026
356.62403
356.00477
355.47829
355.03196
354.65465
354.33656
354.06912
353.84492
353.65751
353.50138
353.37179
353.2647
353.1767
353.10436
562.64135
553.89897
545.0439
536.09442
527.07285
518.0046
508.91833
499.84588
490.82203
481.8841
473.07136
464.42427
455.98357
447.78929
439.8796
432.28978
425.05119
418.19038
411.72847
405.68069
400.05616
394.85797
390.08343
385.7246
381.76881
378.19941
374.99669
372.1384
369.60071
367.35883
365.3877
363.66245
362.15893
360.85401
359.72586
358.75413
357.92007
357.20656
356.5981
356.08077
355.64219
355.27142
354.95883
354.69604
354.47576
354.29166
354.13833
354.01111
353.90605
353.8198
560.14979
551.51835
542.77407
533.93584
525.02645
516.07167
507.10044
498.14478
489.23951
480.42183
471.73077
463.2064
454.88892
446.81768
439.03011
431.56067
424.43979
417.69324
411.34134
405.3986
399.87352
394.76871
390.08116
385.80269
381.92056
378.41821
375.27601
372.47201
369.98267
367.78361
365.85013
364.15782
362.68296
361.40283
360.29604
359.34263
358.52421
357.82401
357.22682
356.71901
356.28844
355.9244
355.61746
355.35939
355.14305
354.96225
354.81168
354.68679
354.58369
354.49903
557.49242
548.97912
540.35301
531.63358
522.84404
514.01059
505.16242
496.33171
487.55329
478.86426
470.30332
461.91012
453.72426
445.78438
438.12708
430.78593
423.79045
417.16552
410.93063
405.09952
399.68007
394.67438
390.07909
385.88581
382.08173
378.65035
375.57219
372.82559
370.38735
368.23347
366.3397
364.6821
363.23739
361.98332
360.89894
359.9647
359.16261
358.47627
357.89078
357.3928
356.97047
356.6133
356.31209
356.05877
355.84636
355.66881
355.52092
355.39823
355.29697
355.21375
554.66483
546.27711
537.77681
529.18397
520.5223
511.81833
503.10156
494.40428
485.76132
477.20961
468.78753
460.53422
452.48864
444.68864
437.16995
429.96518
423.10294
416.60712
410.49631
404.78351
399.47591
394.57511
390.07738
385.97412
382.25245
378.89594
375.88532
373.19919
370.81474
368.70839
366.85636
365.23517
363.82206
362.59525
361.53427
360.62001
359.83489
359.1629
358.58947
358.10158
357.68766
357.33746
357.04199
356.7934
356.58485
356.41044
356.26508
356.14445
356.04484
355.96286
551.66308
543.40864
535.04204
526.58391
518.05838
509.49237
500.91564
492.36058
483.86199
475.45657
467.18235
459.0779
451.18147
443.5301
436.15854
429.0984
422.37729
416.0181
410.03853
404.45072
399.26121
394.47106
390.07616
386.06771
382.43277
379.155
376.21533
373.59269
371.26466
369.2081
367.39975
365.81662
364.43648
363.23808
362.20142
361.30787
360.5403
359.88308
359.322
358.8444
358.43898
358.09578
357.80602
357.56206
357.35723
357.18579
357.04278
356.92397
356.82576
356.7448
548.48382
540.37061
532.14589
523.83083
515.45004
507.03077
498.60302
490.19926
481.85422
473.60434
465.48721
457.54079
449.80259
442.30872
435.09294
428.18575
421.61373
415.39876
409.55754
404.1014
399.03618
394.36237
390.07551
386.16657
382.62259
379.42733
376.56196
374.00573
371.73664
369.73206
367.96923
366.42572
365.07984
363.91089
362.89938
362.02719
361.27765
360.63553
360.08703
359.61983
359.22294
358.88668
358.60253
358.36303
358.16173
357.99302
357.85208
357.73481
357.6377
357.55744
545.12443
537.16064
529.08623
520.92291
512.69571
504.43225
496.16269
487.91959
479.73754
471.65266
463.70207
455.92304
448.35226
441.02488
433.97356
427.22769
420.81275
414.74953
409.05376
403.7359
398.80106
394.24919
390.07544
386.27061
382.82169
379.71258
376.9247
374.43766
372.22993
370.27938
368.56379
367.06133
365.75089
364.61231
363.62668
362.7764
362.04529
361.41851
360.88271
360.42592
360.03751
359.70806
359.4293
359.19403
358.99596
358.82967
358.69047
358.57437
358.47798
358.39806
541.58311
533.77719
525.86176
517.85909
509.79462
501.69628
493.5944
485.52155
477.51213
469.60193
461.82747
454.22531
446.83124
439.67935
432.80116
426.22499
419.97506
414.07107
408.52772
403.35459
398.55608
394.13158
390.07586
386.37954
383.02962
380.01012
377.30275
374.88753
372.74339
370.84875
369.18199
367.72188
366.44789
365.34051
364.38136
363.55341
362.84098
362.22968
361.70659
361.26014
360.88004
360.55716
360.28353
360.05215
359.85695
359.69267
359.55479
359.43943
359.34331
359.26326
537.85906
530.21964
522.47211
514.63923
506.74685
498.82319
490.89869
483.00588
475.17894
467.4532
459.86458
452.44884
445.24078
438.27341
431.57704
425.17877
419.10164
413.36417
407.98003
402.95791
398.30146
394.00952
390.07652
386.49289
383.24565
380.31901
377.69497
375.35397
373.27547
371.43845
369.82191
368.40526
367.16861
366.09306
365.16086
364.35553
363.6619
363.06609
362.55561
362.11931
361.74724
361.43061
361.1617
360.93379
360.74099
360.57823
360.44116
360.32601
360.22962
360.14893
533.95255
526.48848
518.91794
511.2642
503.55349
495.81424
488.077
480.37417
472.73964
465.20826
457.81523
450.59545
443.58267
436.80873
430.30268
424.09039
418.19364
412.62976
407.41137
402.54625
398.0373
393.88284
390.07694
386.6099
383.46877
380.63795
378.09979
375.83518
373.82411
372.04619
370.48106
369.10879
367.91016
366.86693
365.96197
365.17939
364.50455
363.92409
363.42599
362.99951
362.63508
362.32425
362.05958
361.83458
361.64362
361.4818
361.34493
361.22938
361.13211
361.05014
529.86514
522.58538
515.20109
507.73601
500.21668
492.67173
485.13172
477.6289
470.19678
462.86964
455.68192
448.66754
441.85916
435.28732
428.97995
422.96147
417.25239
411.86886
406.82243
402.11994
397.76358
393.75115
390.0764
386.72949
383.69755
380.9652
378.51516
376.32881
374.38672
372.66912
371.15635
369.82915
368.66902
367.65838
366.78077
366.0209
365.36467
364.79927
364.31318
363.89607
363.53876
363.23315
362.97209
362.74937
362.55958
362.39801
362.26063
362.14398
362.04511
361.96115
525.59975
518.51337
511.32469
504.05786
496.73972
489.39902
482.06628
474.77351
467.55376
460.44067
453.46782
446.66813
440.07309
433.71188
427.6111
421.79385
416.27934
411.08252
406.21382
401.67917
397.48007
393.6138
390.07381
386.85018
383.93012
381.29851
378.93848
376.83193
374.96004
373.3037
371.84396
370.56228
369.44089
368.46292
367.61255
366.87516
366.23719
365.68641
365.21179
364.80345
364.45261
364.15152
363.89335
363.67214
363.48272
363.3206
363.18191
363.06334
362.96207
362.87532
521.16081
514.27691
507.29323
500.2343
493.12718
486.00067
478.88518
471.8124
464.81485
457.92543
451.1768
444.60078
438.22765
432.08514
426.19851
420.58951
415.27602
410.27174
405.58603
401.22394
397.18625
393.46976
390.06768
386.97
384.16406
381.63505
379.36654
377.34096
375.54014
373.94568
372.53934
371.30337
370.22071
369.27523
368.4518
367.73644
367.1162
366.57942
366.11558
365.71527
365.3701
365.07269
364.81653
364.59596
364.40602
364.24244
364.10153
363.98013
363.87554
363.78511
516.55439
509.88203
503.11269
496.27125
489.38489
482.48241
475.59402
468.75098
461.98522
455.32882
448.81343
442.46966
436.3264
430.41024
424.74482
419.35053
414.24391
409.43742
404.93938
400.75394
396.88123
393.31759
390.056
387.08642
384.39636
381.97134
379.7954
377.85156
376.12231
374.59
373.23714
372.04674
371.00254
370.08913
369.29212
368.59812
367.99489
367.47131
367.0174
366.6242
366.28377
365.98907
365.73395
365.51299
365.32152
365.15547
365.01133
364.88609
364.77719
364.68207
511.78831
505.33641
498.79062
492.17609
485.52005
478.85122
472.19949
465.59565
459.07092
452.65647
446.3829
440.27958
434.37372
428.6907
423.25282
418.079
413.18439
408.58026
404.27387
400.26852
396.56369
393.15533
390.0362
387.1963
384.62333
382.30318
380.22039
378.35862
376.70105
375.23077
373.93111
372.78587
371.77955
370.89753
370.12616
369.45268
368.86552
368.35417
367.90916
367.52203
367.18525
366.89217
366.63696
366.41451
366.22038
366.05073
365.90223
365.77205
365.65774
365.55687
506.87223
500.64946
494.33618
487.9577
481.54124
475.11531
468.70942
462.35376
456.07875
449.91456
443.89061
438.035
432.37346
426.92993
421.72525
416.7769
412.09869
407.7007
403.58916
399.76656
396.23179
392.98042
390.00507
387.29579
384.84053
382.62559
380.63604
378.8562
377.26998
375.86126
374.61416
373.51332
372.54404
371.69247
370.94569
370.29167
369.71948
369.2192
368.78191
368.39963
368.06528
367.77258
367.51605
367.29087
367.09286
366.91839
366.76434
366.62802
366.50713
366.39934
501.81772
495.83238
489.76017
483.62646
477.45836
471.28408
465.13265
459.03354
453.0163
447.10997
441.34268
435.74125
430.3302
425.1316
420.16486
415.44606
410.98773
406.79877
402.88443
399.24642
395.88309
392.78968
389.95871
387.38033
385.04278
382.93279
381.03604
379.33751
377.82188
376.47382
375.27831
374.22079
373.2874
372.46508
371.74165
371.10579
370.54725
370.05672
369.62581
369.24705
368.91377
368.62012
368.36092
368.13168
367.92846
367.74787
367.58697
367.44323
367.3145
367.19857
496.63831
490.89817
485.07503
479.19424
473.28267
467.36813
461.47905
455.64412
449.89189
444.25027
438.74602
433.40455
428.24873
423.29929
418.57416
414.08802
409.85207
405.87407
402.15835
398.70588
395.51451
392.57922
389.89247
387.44457
385.22407
383.21822
381.41327
379.79495
378.34869
377.06002
375.91473
374.89915
374.00022
373.20569
372.50412
371.88495
371.33858
370.8563
370.4303
370.05357
369.71991
369.42385
369.16056
368.92583
368.71601
368.52791
368.3588
368.20631
368.06844
367.94307
491.34947
485.86161
480.29482
474.67432
469.02666
463.3791
457.75939
452.19532
446.71443
441.34346
436.10772
431.03024
426.13331
421.43625
416.95541
412.70396
408.69183
404.9257
401.40901
398.14208
395.1223
392.34445
389.80099
387.48242
385.37768
383.47452
381.75985
380.22013
378.8416
377.61063
376.51388
375.53852
374.67235
373.90391
373.22252
372.61837
372.08253
371.60689
371.18418
370.80792
370.47233
370.17232
369.90342
369.66173
369.44384
369.2468
369.06807
368.90546
368.75708
368.62096
485.96857
480.73919
475.43513
470.08136
464.70397
459.32961
453.98517
448.69745
443.49274
438.3964
433.43234
428.62275
423.98796
419.54563
415.3106
411.29471
407.5067
403.95225
400.63396
397.55157
394.7021
392.08015
389.67825
387.48714
385.49618
383.69367
382.06721
380.60401
379.29114
378.11582
377.06558
376.12845
375.29309
374.54883
373.88577
373.29483
372.76773
372.29699
371.87589
371.49843
371.15928
370.85374
370.57768
370.3275
370.10005
369.89262
369.70284
369.52871
369.36846
369.22025
480.5148
475.54904
470.51297
465.43123
460.32932
455.23313
450.1686
445.1614
440.23653
435.41796
430.7283
426.18876
421.81756
417.63066
413.64152
409.86073
406.29592
402.95179
399.8302
396.93035
394.24895
391.7805
389.51764
387.4514
385.5716
383.86713
382.3263
380.93708
379.68739
378.56532
377.55927
376.65814
375.85141
375.12925
374.4825
373.90283
373.38261
372.91497
372.49372
372.11336
371.76899
371.4563
371.17151
370.91131
370.67282
370.45353
370.25129
370.06424
369.89078
369.72915
475.009
470.3108
465.54671
460.74097
455.91837
451.10393
446.32253
441.59863
436.95588
432.41685
428.00288
423.73419
419.62645
415.69415
411.94957
408.40211
405.05832
401.922
398.99431
396.27399
393.75749
391.43929
389.31217
387.36752
385.59564
383.98605
382.52777
381.20958
380.02024
378.94871
377.98428
377.11669
376.33627
375.63397
375.00144
374.43102
373.91575
373.44935
373.02618
372.6412
372.28997
371.96854
371.67348
371.40176
371.15077
370.91821
370.70213
370.50082
370.31283
370.13652
469.47357
465.04544
460.55589
456.02863
451.48767
446.95702
442.46049
438.02126
433.66171
429.40312
425.26533
421.26529
417.41882
413.73856
410.23579
406.91864
403.79249
400.86029
398.12262
395.57781
393.22215
391.05013
389.05473
387.22772
385.55994
384.04156
382.66233
381.41185
380.27973
379.25578
378.33017
377.49351
376.73695
376.05222
375.43173
374.86851
374.35626
373.88926
373.46241
373.07115
372.71145
372.37976
372.07294
371.78828
371.5234
371.27624
371.04502
370.82821
370.62447
370.43229
468.01148
463.93286
459.77534
455.56117
451.31321
447.05452
442.80806
438.59641
434.44145
430.3641
426.38398
422.51899
418.78506
415.19778
411.76594
408.50117
405.41012
402.49699
399.76407
397.21147
394.83722
392.63747
390.60678
388.7384
387.0245
385.45649
384.0252
382.72115
381.53474
380.45643
379.47691
378.58719
377.77874
377.04352
376.37404
375.76342
375.20539
374.69426
374.22489
373.79269
373.39357
373.02391
372.68051
372.36058
372.06167
371.78165
371.51868
371.27116
371.03771
370.81712
370.60802
462.22576
458.41152
454.52379
450.58414
446.61453
442.63698
438.67326
434.74465
430.87165
427.07364
423.36865
419.77301
416.30113
412.96524
409.77865
406.74724
403.87674
401.17069
398.63105
396.2576
394.04806
391.9985
390.10362
388.35692
386.75105
385.27802
383.92934
382.69629
381.57008
380.54201
379.60362
378.74678
377.96379
377.24739
376.59086
375.988
375.43322
374.92142
374.44803
374.00894
373.60053
373.21955
372.86319
372.52894
372.21465
371.91841
371.63859
371.37377
371.12273
370.88438
370.65746
456.48867
452.93591
449.31525
445.6474
441.95331
438.25385
434.56952
430.92025
427.32503
423.80175
420.3669
417.0353
413.82002
410.73233
407.78214
404.97617
402.31889
399.81286
397.45964
395.25856
393.20709
391.30132
389.5361
387.90521
386.40183
385.01861
383.74775
382.58129
381.51124
380.52972
379.62913
378.80214
378.04186
377.34181
376.69601
376.09894
375.54561
375.03152
374.55263
374.10531
373.68636
373.29294
372.92255
372.57301
372.24241
371.92909
371.63161
371.34872
371.07934
370.82253
370.57711
450.82956
447.53349
444.17524
440.77454
437.3512
433.92485
430.51465
427.13906
423.81562
420.5607
417.38923
414.3146
411.34849
408.50081
405.77949
403.19006
400.73719
398.42378
396.24964
394.21347
392.31274
390.54369
388.90148
387.37993
385.97307
384.6742
383.47617
382.37175
381.35373
380.41506
379.54892
378.7488
378.00859
377.32254
376.68538
376.09227
375.5388
375.02103
374.53539
374.07874
373.64828
373.24153
372.85633
372.49077
372.14322
371.81222
371.49653
371.19505
370.90686
370.63113
370.36679
445.27883
442.23281
439.13041
435.99025
432.83093
429.67076
426.52747
423.41807
420.35857
417.36381
414.44723
411.62075
408.89466
406.27754
403.77615
401.39546
399.1389
397.00829
395.00372
393.12368
391.36544
389.72547
388.19912
386.77994
385.46339
384.24325
383.11296
382.06597
381.09585
380.19633
379.36138
378.58527
377.86261
377.18839
376.55799
375.9672
375.41221
374.8896
374.39628
373.92949
373.48684
373.06619
372.66569
372.28372
371.91886
371.56989
371.23574
370.91547
370.60829
370.31347
370.03007
439.86811
437.06365
434.20862
431.32051
428.41657
425.51373
422.62827
419.77569
416.97048
414.22597
411.55411
408.96544
406.46891
404.07188
401.78008
399.59767
397.52728
395.5701
393.72567
391.99229
390.36752
388.84766
387.42839
386.10614
384.87437
383.72743
382.65971
381.66552
380.7392
379.87524
379.06835
378.31354
377.60612
376.94175
376.31646
375.72663
375.169
374.64064
374.13894
373.66155
373.20637
372.7716
372.35567
371.95722
371.57507
371.20818
370.85565
370.51671
370.19068
369.87693
369.57463
434.63034
432.05716
429.43926
426.79283
424.13379
421.47759
418.83904
416.23214
413.66986
411.16404
408.72521
406.36255
404.08377
401.89511
399.80134
397.80579
395.91043
394.1159
392.42157
390.82577
389.32595
387.91872
386.60019
385.36627
384.2119
383.13203
382.12165
381.17572
380.2892
379.45732
378.67553
377.93952
377.24526
376.58906
375.96753
375.37761
374.81653
374.28183
373.77131
373.28303
372.81529
372.36654
371.93542
371.52079
371.12171
370.73732
370.36687
370.00972
369.66531
369.33313
369.01242
429.60001
427.2462
424.85344
422.43661
420.01018
417.58817
415.18389
412.80984
410.47751
408.19728
405.97833
403.82854
401.75446
399.76131
397.85297
396.03204
394.29991
392.65683
391.10198
389.63368
388.24946
386.94621
385.72038
384.56805
383.48486
382.46639
381.50822
380.60592
379.75529
378.95222
378.19279
377.47333
376.79045
376.14103
375.52225
374.93149
374.36647
373.82517
373.30577
372.80668
372.32652
371.86407
371.41827
370.98815
370.5729
370.17178
369.7842
369.40966
369.0477
368.69789
368.35959
424.81349
422.66559
420.48438
418.28338
416.07563
413.8737
411.68941
409.53379
407.41689
405.34771
403.33412
401.38281
399.49927
397.68775
395.95136
394.29205
392.71073
391.20733
389.78091
388.42977
387.15158
385.94347
384.80222
383.72429
382.70591
381.74324
380.83245
379.96978
379.1516
378.37439
377.63488
376.92998
376.25689
375.61303
374.99607
374.40393
373.83474
373.28685
372.75879
372.2493
371.75728
371.28176
370.82192
370.37703
369.94643
369.52961
369.12605
368.73531
368.35699
367.99072
367.63596
420.30943
418.35254
416.36778
414.36727
412.36268
410.36512
408.38497
406.43183
404.51439
402.64034
400.81634
399.04798
397.33974
395.69506
394.11633
392.60496
391.16145
389.7855
388.47606
387.23146
386.04952
384.92765
383.86295
382.8523
381.89244
380.98007
380.11192
379.28481
378.49566
377.74156
377.01978
376.32779
375.66331
375.02424
374.40873
373.8151
373.24186
372.68771
372.15152
371.63232
371.12925
370.64159
370.16872
369.71008
369.26519
368.83363
368.41504
368.00909
367.61555
367.23415
366.86433
416.12936
414.34719
412.54227
410.72543
408.90692
407.09647
405.30308
403.535
401.79964
400.10348
398.45207
396.84999
395.30085
393.80733
392.37121
390.99346
389.67423
388.41305
387.2088
386.05988
384.96427
383.91966
382.92346
381.97297
381.0654
380.19793
379.36781
378.57238
377.80909
377.07555
376.36954
375.68903
375.03219
374.39736
373.78309
373.18809
372.61121
372.05146
371.50802
370.98014
370.46722
369.96874
369.48423
369.0133
368.55561
368.11086
367.67878