/*--------------------------------*- C++ -*----------------------------------*\
| =========                 |                                                 |
| \\      /  F ield         | OpenFOAM: The Open Source CFD Toolbox           |
|  \\    /   O peration     | Version:  2312                                  |
|   \\  /    A nd           | Website:  www.openfoam.com                      |
|    \\/     M anipulation  |                                                 |
\*---------------------------------------------------------------------------*/
FoamFile
{
    version     2.0;
    format      ascii;
    arch        "LSB;label=32;scalar=64";
    class       surfaceScalarField;
    location    "0.01";
    object      phi;
}
// * * * * * * * * * * * * * * * * * * * * * * * * * * * * * * * * * * * * * //

dimensions      [1 0 -1 0 0 0 0];

oriented        oriented;

internalField   nonuniform List<scalar> 
6383
(
6.1113466e-08
1.7873849e-09
5.8613369e-08
1.6746337e-09
5.6229097e-08
1.5667848e-09
5.3957154e-08
1.4638426e-09
5.179407e-08
1.3657067e-09
4.9736411e-08
1.2723828e-09
4.7780799e-08
1.1838414e-09
4.5923917e-08
1.1000356e-09
4.4162489e-08
1.020897e-09
4.2493237e-08
9.4633712e-10
4.091282e-08
8.7624417e-10
3.9417779e-08
8.1048604e-10
3.8004499e-08
7.4890788e-10
3.666921e-08
6.9133815e-10
3.5408017e-08
6.3758715e-10
3.4216946e-08
5.8746265e-10
3.3091995e-08
5.4075053e-10
3.2029184e-08
4.972401e-10
3.1024594e-08
4.5671668e-10
3.0074405e-08
4.189667e-10
2.9174922e-08
3.8377868e-10
2.8322594e-08
3.5094682e-10
2.7514035e-08
3.2027165e-10
2.6746036e-08
2.9156245e-10
2.6015568e-08
2.64638e-10
2.5319794e-08
2.3932732e-10
2.4656065e-08
2.1547016e-10
2.4021922e-08
1.9291496e-10
2.3415093e-08
1.7152917e-10
2.2833515e-08
1.5115925e-10
2.2275156e-08
1.3172422e-10
2.1738122e-08
1.1306837e-10
2.122097e-08
9.5157405e-11
2.0722206e-08
7.7869924e-11
2.024047e-08
6.1132093e-11
1.9774531e-08
4.4872027e-11
1.9323271e-08
2.902733e-11
1.8885677e-08
1.3541392e-11
1.846083e-08
-1.634788e-12
1.8047898e-08
-1.6545381e-11
1.7646126e-08
-3.1227678e-11
1.7254828e-08
-4.5715269e-11
1.6873393e-08
-6.0026772e-11
1.6501278e-08
-7.4198082e-11
1.6137958e-08
-8.8291233e-11
1.5782959e-08
-1.0229414e-10
1.5435862e-08
-1.1620255e-10
1.5096268e-08
-1.301003e-10
-1.4400297e-10
6.1117868e-08
3.5407521e-09
5.8618512e-08
3.3153854e-09
5.6234912e-08
3.0997217e-09
5.3963557e-08
2.8937264e-09
5.1800972e-08
2.6973183e-09
4.9743732e-08
2.5104975e-09
4.7788467e-08
2.3332129e-09
4.5931867e-08
2.1653754e-09
4.4170665e-08
2.0068536e-09
4.2501588e-08
1.8574743e-09
4.0921302e-08
1.7170196e-09
3.942635e-08
1.5852294e-09
3.8013122e-08
1.4618017e-09
3.6677855e-08
1.3463995e-09
3.5416655e-08
1.2386532e-09
3.4225553e-08
1.1381786e-09
3.310055e-08
1.0445633e-09
3.2037667e-08
9.5739216e-10
3.1032989e-08
8.7624474e-10
3.0082698e-08
8.0070228e-10
2.9183101e-08
7.303517e-10
2.833065e-08
6.6479056e-10
2.752196e-08
6.0362997e-10
2.6753821e-08
5.4649796e-10
2.6023209e-08
4.9304174e-10
2.5327286e-08
4.4292907e-10
2.4663404e-08
3.9584878e-10
2.4029105e-08
3.5150911e-10
2.3422117e-08
3.0965085e-10
2.2840379e-08
2.6997122e-10
2.2281857e-08
2.3233251e-10
2.1744663e-08
1.9642777e-10
2.1227348e-08
1.6218718e-10
2.0728422e-08
1.2938107e-10
2.0246524e-08
9.786613e-11
1.9780423e-08
6.7505607e-11
1.9329002e-08
3.8179783e-11
1.8891247e-08
9.7811381e-12
1.846624e-08
-1.7784713e-11
1.8053149e-08
-4.4602088e-11
1.765122e-08
-7.0743982e-11
1.725977e-08
-9.627579e-11
1.6878187e-08
-1.2125089e-10
1.6505918e-08
-1.4573564e-10
1.6142441e-08
-1.6979839e-10
1.5787289e-08
-1.934467e-10
1.544004e-08
-2.1670576e-10
1.5100302e-08
-2.3966272e-10
-2.6237163e-10
6.1125305e-08
5.2920655e-09
5.8627606e-08
4.9543484e-09
5.6245459e-08
4.631074e-09
5.3975363e-08
4.3222154e-09
5.1813857e-08
4.0277114e-09
4.9757532e-08
3.7475532e-09
4.7803034e-08
3.4816671e-09
4.594707e-08
3.229923e-09
4.4186385e-08
2.9921276e-09
4.2517719e-08
2.768024e-09
4.093775e-08
2.5572894e-09
3.944303e-08
2.3595372e-09
3.8029961e-08
2.174319e-09
3.6694784e-08
2.0011339e-09
3.5433617e-08
1.8394332e-09
3.4242495e-08
1.6886411e-09
3.3117426e-08
1.5481482e-09
3.2054439e-08
1.4173359e-09
3.1049624e-08
1.2955787e-09
3.0099166e-08
1.1822534e-09
2.9199378e-08
1.0767458e-09
2.8346715e-08
9.7845744e-10
2.7537795e-08
8.8681046e-10
2.6769414e-08
8.0125205e-10
2.6038548e-08
7.2125821e-10
2.5342361e-08
6.4633575e-10
2.4678209e-08
5.7602272e-10
2.4043634e-08
5.0988843e-10
2.3436366e-08
4.4754668e-10
2.2854345e-08
3.8854837e-10
2.2295536e-08
3.326935e-10
2.175806e-08
2.7953023e-10
2.1240463e-08
2.2894589e-10
2.0741254e-08
1.806077e-10
2.0259074e-08
1.3430217e-10
1.9792694e-08
8.9827851e-11
1.9340995e-08
4.7007631e-11
1.8902965e-08
5.6830543e-12
1.8477687e-08
-3.4285719e-11
1.8064327e-08
-7.3023298e-11
1.7662134e-08
-1.1063874e-10
1.7270424e-08
-1.4722986e-10
1.6888586e-08
-1.8288268e-10
1.651606e-08
-2.1768984e-10
1.6152328e-08
-2.5173191e-10
1.5796924e-08
-2.8504019e-10
1.544943e-08
-3.176657e-10
1.5109451e-08
-3.4970038e-10
-3.812247e-10
6.1135806e-08
7.0402147e-09
5.8640677e-08
6.5905436e-09
5.6260765e-08
6.1599917e-09
5.39926e-08
5.7485699e-09
5.1832752e-08
5.3562408e-09
4.9777836e-08
4.9829883e-09
4.7824524e-08
4.6287175e-09
4.5969545e-08
4.2932581e-09
4.4209666e-08
3.9763567e-09
4.2541646e-08
3.6776744e-09
4.0962178e-08
3.3967855e-09
3.9467832e-08
3.1331782e-09
3.8055021e-08
2.8862599e-09
3.6720002e-08
2.6553666e-09
3.5458903e-08
2.439775e-09
3.426777e-08
2.2387149e-09
3.3142622e-08
2.0513829e-09
3.2079496e-08
1.8769591e-09
3.1074489e-08
1.7146136e-09
3.0123798e-08
1.5635195e-09
2.9223738e-08
1.4228628e-09
2.8370772e-08
1.2918496e-09
2.7561524e-08
1.1697139e-09
2.6792794e-08
1.0557228e-09
2.6061561e-08
9.4918144e-10
2.5364996e-08
8.4943635e-10
2.4700455e-08
7.5587484e-10
2.4065482e-08
6.6792938e-10
2.345781e-08
5.850863e-10
2.2875385e-08
5.0675536e-10
2.2316163e-08
4.3266407e-10
2.1778284e-08
3.6222618e-10
2.1260283e-08
2.9527553e-10
2.076067e-08
2.3138375e-10
2.0278089e-08
1.702662e-10
1.9811311e-08
1.1165683e-10
1.9359219e-08
5.5321132e-11
1.89208e-08
1.0496449e-12
1.8495136e-08
-5.1342966e-11
1.8081398e-08
-1.0202172e-10
1.7678832e-08
-1.5113197e-10
1.7286756e-08
-1.9880412e-10
1.6904556e-08
-2.4515516e-10
1.6531671e-08
-2.9030177e-10
1.6167584e-08
-3.3434106e-10
1.5811833e-08
-3.7733023e-10
1.5463995e-08
-4.1934252e-10
1.5123679e-08
-4.6047795e-10
-5.0083404e-10
6.1149207e-08
8.7840951e-09
5.8657558e-08
8.2229966e-09
5.6280665e-08
7.6856247e-09
5.4015109e-08
7.1720482e-09
5.1857499e-08
6.6822603e-09
4.9804488e-08
6.2162409e-09
4.7852781e-08
5.7738769e-09
4.599914e-08
5.3549596e-09
4.4240357e-08
4.9591779e-09
4.2573218e-08
4.5861129e-09
4.0994439e-08
4.2352386e-09
3.9500609e-08
3.9059203e-09
3.8088161e-08
3.5974238e-09
3.6753368e-08
3.3089245e-09
3.5492376e-08
3.0395266e-09
3.4301243e-08
2.7882626e-09
3.3176003e-08
2.5541449e-09
3.2112703e-08
2.3361496e-09
3.1107456e-08
2.1332443e-09
3.0156463e-08
1.9444001e-09
2.9256053e-08
1.7686043e-09
2.8402695e-08
1.6048691e-09
2.7593021e-08
1.4522413e-09
2.6823836e-08
1.3098084e-09
2.6092127e-08
1.1767059e-09
2.5395067e-08
1.0521204e-09
2.4730019e-08
9.352886e-10
2.4094527e-08
8.2550912e-10
2.3486329e-08
7.2213932e-10
2.2903377e-08
6.2445845e-10
2.2343619e-08
5.3210189e-10
2.1805217e-08
4.4436571e-10
2.128669e-08
3.6101825e-10
2.0786553e-08
2.8154331e-10
2.0303453e-08
2.0558435e-10
1.9836159e-08
1.3281084e-10
1.9383558e-08
6.2930738e-11
1.8944636e-08
-4.3163829e-12
1.8518477e-08
-6.9161412e-11
1.810425e-08
-1.3180984e-10
1.7701203e-08
-1.9244334e-10
1.7308654e-08
-2.5122492e-10
1.6925989e-08
-3.0830127e-10
1.6552644e-08
-3.6381247e-10
1.6188104e-08
-4.1787471e-10
1.5831907e-08
-4.7057134e-10
1.5483631e-08
-5.2199646e-10
1.5142882e-08
-5.7225952e-10
-6.2147034e-10
5.4158735e-08
1.0323739e-08
5.1956171e-08
9.6645284e-09
4.9854727e-08
9.0330597e-09
4.7851432e-08
8.4294637e-09
4.5943324e-08
7.8537702e-09
4.4127482e-08
7.3059574e-09
4.2401023e-08
6.7859e-09
4.0761111e-08
6.2933578e-09
3.9204937e-08
5.8279707e-09
3.7729682e-08
5.3892518e-09
3.6332461e-08
4.9765881e-09
3.5010276e-08
4.5892392e-09
3.3759988e-08
4.2263471e-09
3.2578315e-08
3.8869472e-09
3.1461861e-08
3.5699881e-09
3.0407154e-08
3.2743477e-09
2.9410694e-08
2.9988594e-09
2.8468996e-08
2.7423247e-09
2.7578627e-08
2.5035347e-09
2.6736239e-08
2.2812831e-09
2.5938587e-08
2.0743826e-09
2.5182555e-08
1.881675e-09
2.4465168e-08
1.7020424e-09
2.3783605e-08
1.5344146e-09
2.3135203e-08
1.3777772e-09
2.2517465e-08
1.2311763e-09
2.192806e-08
1.0937145e-09
2.1364814e-08
9.6457646e-10
2.082573e-08
8.4300119e-10
2.0309e-08
7.281708e-10
1.98128e-08
6.1960684e-10
1.9335523e-08
5.1652589e-10
1.8875845e-08
4.1862749e-10
1.8432453e-08
3.2532157e-10
1.8004152e-08
2.3618933e-10
1.7589853e-08
1.5084238e-10
1.718857e-08
6.8937922e-11
1.6799408e-08
-9.8296607e-12
1.6421554e-08
-8.5731605e-11
1.6054274e-08
-1.5900924e-10
1.5696903e-08
-2.298764e-10
1.5348836e-08
-2.9852484e-10
1.5009528e-08
-3.6512683e-10
1.467848e-08
-4.2984294e-10
1.4355237e-08
-4.9280804e-10
1.4039388e-08
-5.5412781e-10
1.3730561e-08
-6.1391433e-10
1.3428407e-08
-6.7228708e-10
-7.2936288e-10
5.5680554e-08
1.1901009e-08
5.3421093e-08
1.1141601e-08
5.1264982e-08
1.0413998e-08
4.9209225e-08
9.7183984e-09
4.7250834e-08
9.0548756e-09
4.538685e-08
8.4234113e-09
4.3614355e-08
7.8238711e-09
4.193047e-08
7.2559852e-09
4.0332345e-08
6.7193455e-09
3.8817113e-08
6.2133978e-09
3.7381837e-08
5.7374429e-09
3.6023465e-08
5.2906337e-09
3.4738794e-08
4.8719883e-09
3.3524473e-08
4.4804005e-09
3.2377032e-08
4.1146635e-09
3.1292923e-08
3.7734935e-09
3.0268567e-08
3.4555469e-09
2.9300398e-08
3.1594473e-09
2.8384904e-08
2.8838055e-09
2.7518655e-08
2.6272353e-09
2.6698329e-08
2.3883718e-09
2.5920735e-08
2.1658831e-09
2.5182824e-08
1.9584837e-09
2.4481703e-08
1.7649422e-09
2.3814645e-08
1.5840915e-09
2.3179089e-08
1.414834e-09
2.2572645e-08
1.2561346e-09
2.1993079e-08
1.1070639e-09
2.1438345e-08
9.6673766e-10
2.090659e-08
8.3425744e-10
2.0395931e-08
7.0899006e-10
1.9904739e-08
5.9010142e-10
1.943164e-08
4.7720462e-10
1.8975288e-08
3.6964252e-10
1.8534456e-08
2.6693014e-10
1.8108025e-08
1.6862024e-10
1.7694984e-08
7.4317739e-11
1.7294411e-08
-1.6329362e-11
1.6905473e-08
-1.0363376e-10
1.6527415e-08
-1.8787361e-10
1.6159551e-08
-2.6929575e-10
1.5801264e-08
-3.4812132e-10
1.5451989e-08
-4.2454848e-10
1.5111214e-08
-4.9875918e-10
1.4778473e-08
-5.7090814e-10
1.4453341e-08
-6.4112339e-10
1.4135436e-08
-7.0953478e-10
1.3824396e-08
-7.7627297e-10
-8.414621e-10
5.7255661e-08
1.3516006e-08
5.4938468e-08
1.2654395e-08
5.2726788e-08
1.182869e-08
5.0617614e-08
1.1039166e-08
4.8607937e-08
1.0285943e-08
4.6694774e-08
9.5690121e-09
4.4875177e-08
8.8882344e-09
4.3146235e-08
8.2433125e-09
4.150506e-08
7.6337925e-09
3.9948747e-08
7.059054e-09
3.8474314e-08
6.5183121e-09
3.7078655e-08
6.0106134e-09
3.575851e-08
5.5348516e-09
3.4510464e-08
5.0897784e-09
3.3330978e-08
4.6740308e-09
3.2216428e-08
4.2861599e-09
3.1163161e-08
3.9246451e-09
3.0167531e-08
3.5879296e-09
2.9225947e-08
3.2744417e-09
2.8334902e-08
2.9826125e-09
2.7490997e-08
2.7108971e-09
2.6690963e-08
2.4577872e-09
2.5931679e-08
2.2218265e-09
2.5210183e-08
2.0016201e-09
2.452368e-08
1.7958452e-09
2.3869544e-08
1.6032577e-09
2.3245328e-08
1.4226808e-09
2.2648739e-08
1.2530718e-09
2.2077675e-08
1.0934184e-09
2.1530238e-08
9.427592e-10
2.1004485e-08
8.0026081e-10
2.0498769e-08
6.6507399e-10
2.0011663e-08
5.3670455e-10
1.9541783e-08
4.1443473e-10
1.9087871e-08
2.9770998e-10
1.8648779e-08
1.8602311e-10
1.8223466e-08
7.8925236e-11
1.7810987e-08
-2.3983182e-11
1.7410484e-08
-1.2305749e-10
1.7021181e-08
-2.1861359e-10
1.6642375e-08
-3.1093227e-10
1.6273427e-08
-4.0026464e-10
1.5913758e-08
-4.8683538e-10
1.5562842e-08
-5.7084854e-10
1.5220197e-08
-6.5247992e-10
1.488539e-08
-7.3187974e-10
1.4558021e-08
-8.0919548e-10
1.4237722e-08
-8.8457011e-10
-9.5813589e-10
5.8884363e-08
1.516867e-08
5.6508723e-08
1.4202943e-08
5.4240679e-08
1.3277256e-08
5.2077226e-08
1.239196e-08
5.0015346e-08
1.1547229e-08
4.805204e-08
1.0743071e-08
4.618434e-08
9.9793448e-09
4.4409312e-08
9.25573e-09
4.2724041e-08
8.5717288e-09
4.1125585e-08
7.9266565e-09
3.9610927e-08
7.3196435e-09
3.8176913e-08
6.7496313e-09
3.6820229e-08
6.2153891e-09
3.5537403e-08
5.7155266e-09
3.4324827e-08
5.2485241e-09
3.3178811e-08
4.8127652e-09
3.2095625e-08
4.4065526e-09
3.1071548e-08
4.0281472e-09
3.0102914e-08
3.6757931e-09
2.9186137e-08
3.347737e-09
2.8317741e-08
3.0422513e-09
2.7494385e-08
2.7576493e-09
2.6712873e-08
2.4923017e-09
2.5970174e-08
2.2446471e-09
2.5263425e-08
2.0132048e-09
2.4589937e-08
1.7965822e-09
2.3947203e-08
1.5934563e-09
2.3332869e-08
1.4026734e-09
2.2744783e-08
1.2230876e-09
2.2180991e-08
1.0536821e-09
2.1639492e-08
8.9339165e-10
2.1118627e-08
7.413933e-10
2.0616908e-08
5.9704899e-10
2.0132917e-08
4.5959292e-10
1.966536e-08
3.2839748e-10
1.921306e-08
2.0289424e-10
1.8774946e-08
8.2579179e-11
1.8350047e-08
-3.2996055e-11
1.7937481e-08
-1.4423055e-10
1.7536451e-08
-2.5147899e-10
1.7146231e-08
-3.5505694e-10
1.6766167e-08
-4.5524625e-10
1.6395661e-08
-5.5229873e-10
1.6034172e-08
-6.4644151e-10
1.5681204e-08
-7.378723e-10
1.533631e-08
-8.2676341e-10
1.4999079e-08
-9.1328003e-10
1.4669129e-08
-9.9757836e-10
-1.0798e-09
6.0566954e-08
1.6858761e-08
5.8132288e-08
1.5787118e-08
5.580721e-08
1.4759667e-08
5.3588725e-08
1.3776841e-08
5.147382e-08
1.283887e-08
4.9459494e-08
1.1945789e-08
4.7542766e-08
1.1097459e-08
4.5720689e-08
1.0293539e-08
4.3990329e-08
9.5334906e-09
4.2348719e-08
8.816568e-09
4.0792809e-08
8.1418185e-09
3.9319405e-08
7.5080799e-09
3.7925148e-08
6.9139977e-09
3.6606508e-08
6.3580399e-09
3.5359819e-08
5.8385305e-09
3.4181323e-08
5.3536842e-09
3.3067219e-08
4.9016271e-09
3.2013716e-08
4.4804373e-09
3.1017071e-08
4.0881734e-09
3.0073624e-08
3.7228961e-09
2.9179824e-08
3.3826938e-09
2.8332256e-08
3.0656993e-09
2.7527653e-08
2.7701083e-09
2.6762912e-08
2.4941907e-09
2.6035104e-08
2.2363063e-09
2.5341477e-08
1.9949114e-09
2.4679464e-08
1.7685334e-09
2.4046652e-08
1.5559137e-09
2.3440837e-08
1.355763e-09
2.2859998e-08
1.1669971e-09
2.2302083e-08
9.8832145e-10
2.1765426e-08
8.1896873e-10
2.1248472e-08
6.5812407e-10
2.0749766e-08
5.0497591e-10
2.0267981e-08
3.5882453e-10
1.9801907e-08
2.1903924e-10
1.9350444e-08
8.5059658e-11
1.8912593e-08
-4.3612587e-11
1.8487449e-08
-1.6742142e-10
1.8074189e-08
-2.8676133e-10
1.767207e-08
-4.0198358e-10
1.7280414e-08
-5.1340146e-10
1.689861e-08
-6.212947e-10
1.6526098e-08
-7.259144e-10
1.6162369e-08
-8.2748101e-10
1.5806961e-08
-9.2618884e-10
1.5459451e-08
-1.022221e-09
1.5119445e-08
-1.1157478e-09
-1.2069211e-09
6.2303399e-08
1.8585833e-08
5.9809289e-08
1.7406604e-08
5.7426647e-08
1.6275726e-08
5.5152508e-08
1.5193713e-08
5.2983874e-08
1.4160863e-08
5.0917752e-08
1.3177241e-08
4.8951163e-08
1.2242715e-08
4.7081158e-08
1.1356932e-08
4.530479e-08
1.0519316e-08
4.3619078e-08
9.7290613e-09
4.2020946e-08
8.9851357e-09
4.0507168e-08
8.2862753e-09
3.9074343e-08
7.6310034e-09
3.7718893e-08
7.0176479e-09
3.6437095e-08
6.4443766e-09
3.5225129e-08
5.9092348e-09
3.4079129e-08
5.4101732e-09
3.2995233e-08
4.945087e-09
3.1969628e-08
4.5118486e-09
3.099858e-08
4.1083321e-09
3.0078465e-08
3.7324405e-09
2.9205796e-08
3.3821249e-09
2.8377234e-08
3.0554043e-09
2.7589608e-08
2.7503781e-09
2.6839922e-08
2.4652456e-09
2.612536e-08
2.1983101e-09
2.54433e-08
1.9479449e-09
2.4791264e-08
1.7127925e-09
2.4166996e-08
1.4914131e-09
2.3568396e-08
1.2826261e-09
2.2993391e-08
1.0849687e-09
2.2440282e-08
8.9767485e-10
2.1907454e-08
7.1977475e-10
2.1393415e-08
5.5040034e-10
2.0896801e-08
3.8877996e-10
2.041637e-08
2.3421974e-10
1.9950992e-08
8.6101895e-11
1.949964e-08
-5.6123214e-11
1.9061383e-08
-1.9294541e-10
1.8635375e-08
-3.2480005e-10
1.822085e-08
-4.5207493e-10
1.7817112e-08
-5.7511564e-10
1.7423531e-08
-6.9423058e-10
1.7039529e-08
-8.0969581e-10
1.6664584e-08
-9.2175511e-10
1.6298219e-08
-1.0306249e-09
1.5939996e-08
-1.1365064e-09
1.5589509e-08
-1.239585e-09
-1.3400241e-09
6.4093404e-08
2.0349209e-08
6.1539612e-08
1.9060876e-08
5.9099044e-08
1.7825042e-08
5.6768776e-08
1.6642306e-08
5.4545843e-08
1.551304e-08
5.2427271e-08
1.443735e-08
5.0410099e-08
1.3415119e-08
4.8491381e-08
1.2445981e-08
4.6668175e-08
1.1529329e-08
4.493749e-08
1.0664305e-08
4.3296234e-08
9.849798e-09
4.1741157e-08
9.0844453e-09
4.0268823e-08
8.366651e-09
3.8875611e-08
7.6946046e-09
3.7557746e-08
7.0663194e-09
3.6311354e-08
6.4796696e-09
3.5132505e-08
5.932434e-09
3.4017273e-08
5.4223253e-09
3.2961774e-08
4.9470298e-09
3.1962206e-08
4.5042347e-09
3.1014874e-08
4.0916571e-09
3.0116219e-08
3.7070653e-09
2.9262833e-08
3.3483008e-09
2.8451477e-08
3.0132908e-09
2.7679089e-08
2.700074e-09
2.6942789e-08
2.406799e-09
2.6239904e-08
2.1316795e-09
2.5567893e-08
1.8732654e-09
2.4924432e-08
1.6299602e-09
2.4307349e-08
1.4004584e-09
2.3714564e-08
1.1831968e-09
2.3144328e-08
9.7734234e-10
2.2594972e-08
7.818008e-10
2.2064963e-08
5.9563645e-10
2.1552903e-08
4.1800527e-10
2.1057516e-08
2.4814924e-10
2.0577641e-08
8.5391996e-11
2.0112221e-08
-7.0868459e-11
1.9660299e-08
-2.2116894e-10
1.9221006e-08
-3.6598668e-10
1.8793553e-08
-5.0574693e-10
1.8377224e-08
-6.4082841e-10
1.7971368e-08
-7.7156902e-10
1.7575393e-08
-8.9827062e-10
1.7188759e-08
-1.021201e-09
1.6810975e-08
-1.1405988e-09
1.6441588e-08
-1.256684e-09
1.6080181e-08
-1.3696575e-09
-1.4796951e-09
6.5936342e-08
2.214796e-08
6.3322833e-08
2.0749177e-08
6.0824162e-08
1.940701e-08
5.8437462e-08
1.812215e-08
5.6159815e-08
1.6895054e-08
5.3988282e-08
1.5725877e-08
5.1919929e-08
1.4614519e-08
4.9951832e-08
1.3560613e-08
4.808106e-08
1.2563526e-08
4.6304624e-08
1.1622348e-08
4.4619427e-08
1.0735897e-08
4.30222e-08
9.902715e-09
4.150948e-08
9.1210895e-09
4.0077611e-08
8.3890751e-09
3.8722772e-08
7.704533e-09
3.7441039e-08
7.0651635e-09
3.6228424e-08
6.4685795e-09
3.508094e-08
5.9123123e-09
3.3994639e-08
5.3938629e-09
3.296565e-08
4.9107317e-09
3.1990213e-08
4.4604497e-09
3.1064697e-08
4.0406026e-09
3.0185628e-08
3.6488533e-09
2.9349701e-08
3.2829557e-09
2.8553786e-08
2.9407895e-09
2.7794945e-08
2.6203462e-09
2.7070453e-08
2.3196755e-09
2.6377705e-08
2.0372377e-09
2.5714305e-08
1.7712759e-09
2.5078006e-08
1.5203341e-09
2.446674e-08
1.2828148e-09
2.3878689e-08
1.0577507e-09
2.3312136e-08
8.4395021e-10
2.2765509e-08
6.4040184e-10
2.223737e-08
4.4618852e-10
2.1726411e-08
2.6048682e-10
2.1231439e-08
8.2560798e-11
2.0751367e-08
-8.8245091e-11
2.0285213e-08
-2.5251568e-10
1.9832081e-08
-4.1077112e-10
1.939116e-08
-5.6347499e-10
1.8961712e-08
-7.1104004e-10
1.8543069e-08
-8.5383443e-10
1.8134618e-08
-9.921868e-10
1.7735806e-08
-1.1263895e-09
1.7346123e-08
-1.2567035e-09
1.6965105e-08
-1.383368e-09
1.6592319e-08
-1.5066004e-09
-1.6265896e-09
6.7831224e-08
2.3980878e-08
6.5158195e-08
2.247049e-08
6.2601455e-08
2.1020786e-08
6.0158213e-08
1.9632557e-08
5.7825613e-08
1.8306356e-08
5.5600767e-08
1.7042392e-08
5.3480784e-08
1.5840594e-08
5.1462773e-08
1.4700599e-08
4.9543828e-08
1.3621753e-08
4.7720974e-08
1.2603103e-08
4.5991116e-08
1.1643399e-08
4.4350976e-08
1.0741092e-08
4.2797073e-08
9.8943585e-09
4.1325721e-08
9.1011227e-09
3.993306e-08
8.3590971e-09
3.8615123e-08
7.6658027e-09
3.736787e-08
7.0186963e-09
3.6187258e-08
6.4151294e-09
3.5069279e-08
5.8524191e-09
3.4009997e-08
5.3278796e-09
3.3005586e-08
4.8388569e-09
3.2052352e-08
4.3827535e-09
3.1146753e-08
3.9570542e-09
3.0285422e-08
3.5593381e-09
2.946516e-08
3.1873295e-09
2.8682974e-08
2.8388607e-09
2.793609e-08
2.5118165e-09
2.7221842e-08
2.2045597e-09
2.653775e-08
1.9151785e-09
2.5881498e-08
1.6420299e-09
2.5251037e-08
1.3835754e-09
2.4644474e-08
1.1386227e-09
2.4060043e-08
9.0591358e-10
2.3496133e-08
6.8435611e-10
2.295127e-08
4.7295896e-10
2.2424109e-08
2.70832e-10
2.1913424e-08
7.7178629e-11
2.1418102e-08
-1.0871134e-10
2.093713e-08
-2.874718e-10
2.0469588e-08
-4.596668e-10
2.0014642e-08
-6.2579919e-10
1.9571532e-08
-7.8631655e-10
1.913957e-08
-9.416182e-10
1.8718125e-08
-1.0920603e-09
1.8306626e-08
-1.2379603e-09
1.790455e-08
-1.3796021e-09
1.7511415e-08
-1.5172444e-09
1.7126776e-08
-1.6511216e-09
-1.7814368e-09
6.977667e-08
2.5846451e-08
6.704457e-08
2.4223514e-08
6.4430031e-08
2.2665262e-08
6.1930353e-08
2.1172595e-08
5.9542759e-08
1.974617e-08
5.726443e-08
1.838626e-08
5.5092534e-08
1.7092829e-08
5.3024229e-08
1.5865529e-08
5.1056644e-08
1.4703692e-08
4.918683e-08
1.3606328e-08
4.7411705e-08
1.2572124e-08
4.5727993e-08
1.159945e-08
4.4132202e-08
1.0686373e-08
4.2620624e-08
9.8306939e-09
4.1189365e-08
9.0299824e-09
3.9834426e-08
8.2815709e-09
3.855172e-08
7.5827745e-09
3.7337153e-08
6.9307674e-09
3.6186658e-08
6.3226841e-09
3.5096245e-08
5.7556541e-09
3.4062023e-08
5.2268392e-09
3.3080235e-08
4.7334603e-09
3.2147277e-08
4.2728237e-09
3.1259721e-08
3.8423327e-09
3.0414304e-08
3.4395623e-09
2.9607976e-08
3.0621828e-09
2.8837925e-08
2.7079151e-09
2.8101406e-08
2.3750098e-09
2.7395851e-08
2.0614023e-09
2.671892e-08
1.7652993e-09
2.6068543e-08
1.4851667e-09
2.5442759e-08
1.2196165e-09
2.483976e-08
9.673173e-10
2.4257893e-08
7.2709413e-10
2.3695646e-08
4.9788044e-10
2.3151639e-08
2.787181e-10
2.2624613e-08
6.8748772e-11
2.2113426e-08
-1.3279345e-10
2.1617036e-08
-3.2659251e-10
2.1134498e-08
-5.1325735e-10
2.0664954e-08
-6.9333091e-10
2.0207622e-08
-8.6729654e-10
1.9761792e-08
-1.0355855e-09
1.9326818e-08
-1.1985822e-09
1.8902109e-08
-1.3566299e-09
1.8487125e-08
-1.5100357e-09
1.8081372e-08
-1.6590782e-09
1.7684388e-08
-1.8040096e-09
-1.9450478e-09
7.1770869e-08
2.7742832e-08
6.898043e-08
2.6006637e-08
6.6308621e-08
2.4339042e-08
6.3752852e-08
2.2741066e-08
6.1310444e-08
2.1213474e-08
5.8978668e-08
1.9756613e-08
5.6754764e-08
1.8370496e-08
5.4635956e-08
1.7054795e-08
5.2619421e-08
1.5808839e-08
5.070225e-08
1.4631609e-08
4.8881385e-08
1.3521737e-08
4.7153562e-08
1.2477513e-08
4.5515287e-08
1.1496907e-08
4.3962835e-08
1.0577603e-08
4.2492288e-08
9.7170357e-09
4.1099625e-08
8.9123356e-09
3.9780718e-08
8.160696e-09
3.8531425e-08
7.4591155e-09
3.7347632e-08
6.8045474e-09
3.6225291e-08
6.193939e-09
3.5160455e-08
5.6242702e-09
3.4149309e-08
5.0925815e-09
3.3188189e-08
4.5960014e-09
3.2273609e-08
4.1317554e-09
3.1402243e-08
3.6972786e-09
3.0570985e-08
3.290077e-09
2.9776999e-08
2.9077173e-09
2.9017442e-08
2.548302e-09
2.8289658e-08
2.209625e-09
2.759132e-08
1.8897978e-09
2.69203e-08
1.5872094e-09
2.6274583e-08
1.3003203e-09
2.5652317e-08
1.0277173e-09
2.5051808e-08
7.6813992e-10
2.4471507e-08
5.204454e-10
2.3909998e-08
2.8360628e-10
2.3365991e-08
5.6701512e-11
2.283831e-08
-1.610916e-10
2.2325888e-08
-3.7050798e-10
2.1827753e-08
-5.722024e-10
2.1343022e-08
-7.6675874e-10
2.0870891e-08
-9.5469699e-10
2.0410631e-08
-1.136481e-09
1.9961576e-08
-1.3125244e-09
1.9523116e-08
-1.4831967e-09
1.9094696e-08
-1.6488285e-09
1.8675805e-08
-1.8097191e-09
1.8265969e-08
-1.966139e-09
-2.118321e-09
7.3811552e-08
2.9667809e-08
7.0963812e-08
2.781791e-08
6.8235548e-08
2.6040415e-08
6.5624296e-08
2.4336479e-08
6.31275e-08
2.2706974e-08
6.0742536e-08
2.1152334e-08
5.846674e-08
1.9672632e-08
5.6297413e-08
1.8267571e-08
5.4231798e-08
1.6936487e-08
5.2267038e-08
1.5678342e-08
5.0400109e-08
1.449172e-08
4.8627772e-08
1.337484e-08
4.6946539e-08
1.232558e-08
4.5352681e-08
1.1341515e-08
4.3842253e-08
1.041996e-08
4.2411232e-08
9.5578329e-09
4.1055455e-08
8.7522206e-09
3.9770738e-08
7.9999485e-09
3.8552923e-08
7.2977909e-09
3.7397911e-08
6.6425162e-09
3.6301706e-08
6.0309259e-09
3.5260435e-08
5.4598824e-09
3.427038e-08
4.9263373e-09
3.3328006e-08
4.4273346e-09
3.2429919e-08
3.9601828e-09
3.1572956e-08
3.5222268e-09
3.0754283e-08
3.1108932e-09
2.9970926e-08
2.7240808e-09
2.9220158e-08
2.3594381e-09
2.8499685e-08
2.0150979e-09
2.7807293e-08
1.6892469e-09
2.7140926e-08
1.380245e-09
2.649869e-08
1.0865919e-09
2.587885e-08
8.0693976e-10
2.5279817e-08
5.4006799e-10
2.4700141e-08
2.848788e-10
2.4138499e-08
4.0387394e-11
2.3593685e-08
-1.9428662e-10
2.3064604e-08
-4.1993006e-10
2.2550256e-08
-6.372444e-10
2.2049736e-08
-8.4685531e-10
2.1562217e-08
-1.0493201e-09
2.1086948e-08
-1.2451362e-09
2.0623243e-08
-1.4347469e-09
2.0170477e-08
-1.6185486e-09
1.9728076e-08
-1.796896e-09
1.9295514e-08
-1.9701095e-09
1.8872301e-08
-2.1384779e-09
-2.3022499e-09
7.5895966e-08
3.1618765e-08
7.2992296e-08
2.9655024e-08
7.0208697e-08
2.7767342e-08
6.7542856e-08
2.5957037e-08
6.4992363e-08
2.4225088e-08
6.2554723e-08
2.2572033e-08
6.0227381e-08
2.0998017e-08
5.8007735e-08
1.950279e-08
5.5893108e-08
1.8085706e-08
5.3880708e-08
1.6745716e-08
5.1967561e-08
1.5481365e-08
5.015046e-08
1.4290808e-08
4.8425941e-08
1.3171836e-08
4.6790271e-08
1.2121928e-08
4.5239481e-08
1.1138297e-08
4.3769573e-08
1.0217651e-08
4.2376351e-08
9.3569732e-09
4.1055593e-08
8.5529157e-09
3.9803104e-08
7.8020775e-09
3.8614744e-08
7.1010543e-09
3.7486466e-08
6.4464741e-09
3.641435e-08
5.8350252e-09
3.5394629e-08
5.263483e-09
3.4423724e-08
4.728705e-09
3.3498179e-08
4.2278871e-09
3.2614771e-08
3.7582145e-09
3.1770659e-08
3.3170107e-09
3.0962733e-08
2.9018718e-09
3.0188265e-08
2.510405e-09
2.9444923e-08
2.1406842e-09
2.8730438e-08
1.7907361e-09
2.8042708e-08
1.458817e-09
2.7379796e-08
1.1433356e-09
2.6739929e-08
8.4285561e-10
2.612148e-08
5.560777e-10
2.5522965e-08
2.818326e-10
2.4943027e-08
1.9070958e-11
2.438043e-08
-2.3314625e-10
2.3834051e-08
-4.7565851e-10
2.3302865e-08
-7.0921484e-10
2.278594e-08
-9.344834e-10
2.2282429e-08
-1.1520597e-09
2.1791559e-08
-1.3624752e-09
2.1312624e-08
-1.5662038e-09
2.0844981e-08
-1.7636692e-09
2.0388039e-08
-1.9552504e-09
1.9941256e-08
-2.1412896e-09
1.9504129e-08
-2.3220947e-09
-2.4979294e-09
7.8020866e-08
3.3592623e-08
7.5062984e-08
3.1515292e-08
7.2225485e-08
2.9517443e-08
6.9506255e-08
2.7600612e-08
6.6903048e-08
2.576592e-08
6.4413514e-08
2.4014024e-08
6.2035229e-08
2.2345157e-08
5.9765701e-08
2.075913e-08
5.7602353e-08
1.9255324e-08
5.5542467e-08
1.7832692e-08
5.3583133e-08
1.6489749e-08
5.1721192e-08
1.5224595e-08
4.9953213e-08
1.4034935e-08
4.8275479e-08
1.2918157e-08
4.6683972e-08
1.1871401e-08
4.5174766e-08
1.0891218e-08
4.3743628e-08
9.9744346e-09
4.2386307e-08
9.1175296e-09
4.1098576e-08
8.3169402e-09
3.9876262e-08
7.5690979e-09
3.8715276e-08
6.8704647e-09
3.7611652e-08
6.2175597e-09
3.6561579e-08
5.6069832e-09
3.556145e-08
5.0354012e-09
3.4607746e-08
4.4999146e-09
3.3697188e-08
3.9975409e-09
3.2826901e-08
3.5255354e-09
3.1993665e-08
3.0811153e-09
3.1194789e-08
2.6619528e-09
3.042786e-08
2.2659514e-09
2.9690566e-08
1.8910423e-09
2.8980762e-08
1.5353713e-09
2.8296472e-08
1.1972518e-09
2.7635883e-08
8.7515856e-10
2.6997332e-08
5.6771281e-10
2.63793e-08
2.7367297e-10
2.5780398e-08
-8.0757003e-12
2.5199361e-08
-2.7853152e-10
2.4635037e-08
-5.3858741e-10
2.4086376e-08
-7.8904062e-10
2.3552421e-08
-1.0306025e-09
2.3032302e-08
-1.2639075e-09
2.2525226e-08
-1.4895216e-09
2.2030467e-08
-1.70795e-09
2.1547364e-08
-1.9196441e-09
2.1075308e-08
-2.125008e-09
2.0613741e-08
-2.3244059e-09
2.0162146e-08
-2.5181647e-09
-2.7065634e-09
8.3314726e-08
3.7857508e-08
8.0182499e-08
3.5586181e-08
7.7172436e-08
3.3395698e-08
7.4282822e-08
3.1287964e-08
7.1511736e-08
2.9264722e-08
6.8857112e-08
2.732724e-08
6.6316764e-08
2.5476309e-08
6.3888416e-08
2.3712264e-08
6.1569705e-08
2.2034988e-08
5.9358165e-08
2.0443908e-08
5.7251173e-08
1.8937986e-08
5.5245891e-08
1.7515725e-08
5.3339221e-08
1.6175171e-08
5.1527782e-08
1.491395e-08
4.9807906e-08
1.3729326e-08
4.8175474e-08
1.2618416e-08
4.6626695e-08
1.157781e-08
4.5157288e-08
1.0603936e-08
4.3762986e-08
9.693157e-09
4.2439542e-08
8.8417708e-09
4.1182755e-08
8.0460569e-09
3.99885e-08
7.3023183e-09
3.885277e-08
6.606912e-09
3.777172e-08
5.9562649e-09
3.6741723e-08
5.346851e-09
3.5759199e-08
4.7756996e-09
3.4820842e-08
4.2396328e-09
3.3923656e-08
3.7358059e-09
3.3064406e-08
3.2611494e-09
3.2240426e-08
2.8133772e-09
3.1449209e-08
2.3901902e-09
3.0688404e-08
1.9894321e-09
2.9955826e-08
1.609145e-09
2.9249461e-08
1.2475464e-09
2.8567458e-08
9.0302254e-10
2.7908119e-08
5.7411428e-10
2.7269891e-08
2.5950738e-10
2.6651355e-08
-4.1978879e-11
2.6051216e-08
-3.3140267e-10
2.5468293e-08
-6.0971103e-10
2.4901512e-08
-8.7774994e-10
2.4349892e-08
-1.1362746e-09
2.381254e-08
-1.385959e-09
2.3288643e-08
-1.6274042e-09
2.2777455e-08
-1.8611472e-09
2.2278296e-08
-2.0876677e-09
2.1790542e-08
-2.3073949e-09
2.1313616e-08
-2.5207157e-09
2.0846986e-08
-2.727976e-09
-2.9294706e-09
8.5557905e-08
3.9982193e-08
8.2376412e-08
3.7595605e-08
7.9316637e-08
3.5292763e-08
7.6377078e-08
3.3075754e-08
7.3556031e-08
3.094651e-08
7.0851628e-08
2.8906465e-08
6.8261866e-08
2.6956554e-08
6.5784636e-08
2.509723e-08
6.3417723e-08
2.3328466e-08
6.1158787e-08
2.1649745e-08
5.9005311e-08
2.0060056e-08
5.6954548e-08
1.8557897e-08
5.5003468e-08
1.7141282e-08
5.3148744e-08
1.5807768e-08
5.1386758e-08
1.455448e-08
4.9713418e-08
1.3378188e-08
4.8124981e-08
1.2276527e-08
4.6617083e-08
1.1244654e-08
4.5185502e-08
1.0279008e-08
4.3825982e-08
9.3758104e-09
4.25343e-08
8.5311959e-09
4.1306304e-08
7.7413165e-09
4.0137947e-08
7.0023748e-09
3.9025359e-08
6.3106271e-09
3.7964918e-08
5.6623606e-09
3.6952982e-08
5.0545356e-09
3.5986187e-08
4.4837667e-09
3.5061413e-08
3.9470596e-09
3.4175505e-08
3.4412327e-09
3.3325744e-08
2.9638919e-09
3.2509559e-08
2.5125882e-09
3.1724559e-08
2.085068e-09
3.0968521e-08
1.6792721e-09
3.0239395e-08
1.2933231e-09
2.9535293e-08
9.255189e-10
2.8854485e-08
5.743204e-10
2.8195384e-08
2.3834027e-10
2.7556542e-08
-8.3668526e-11
2.6936636e-08
-3.9282444e-10
2.6334458e-08
-6.9012904e-10
2.5748907e-08
-9.7647755e-10
2.5178981e-08
-1.2526696e-09
2.4623764e-08
-1.5194188e-09
2.4082422e-08
-1.7773624e-09
2.3554191e-08
-2.0270692e-09
2.3038372e-08
-2.2690476e-09
2.2534323e-08
-2.5037526e-09
2.2041451e-08
-2.7315939e-09
2.155921e-08
-2.9529365e-09
-3.1680899e-09
8.7825011e-08
4.2116823e-08
8.4597551e-08
3.9616535e-08
8.149098e-08
3.7202547e-08
7.8504059e-08
3.4877234e-08
7.563533e-08
3.2642726e-08
7.2883149e-08
3.050064e-08
7.0245717e-08
2.8452075e-08
6.7721111e-08
2.6497622e-08
6.530728e-08
2.4637355e-08
6.3002029e-08
2.287083e-08
6.0802964e-08
2.119708e-08
5.8707435e-08
1.9614614e-08
5.6712498e-08
1.8121429e-08
5.4814889e-08
1.6715046e-08
5.3010992e-08
1.5392591e-08
5.1297124e-08
1.4150945e-08
4.9668949e-08
1.2986549e-08
4.8122478e-08