/*--------------------------------*- C++ -*----------------------------------*\
| =========                 |                                                 |
| \\      /  F ield         | OpenFOAM: The Open Source CFD Toolbox           |
|  \\    /   O peration     | Version:  2312                                  |
|   \\  /    A nd           | Website:  www.openfoam.com                      |
|    \\/     M anipulation  |                                                 |
\*---------------------------------------------------------------------------*/
FoamFile
{
    version     2.0;
    format      ascii;
    arch        "LSB;label=32;scalar=64";
    class       volScalarField;
    location    "0.01";
    object      Qdot;
}
// * * * * * * * * * * * * * * * * * * * * * * * * * * * * * * * * * * * * * //

dimensions      [1 -1 -3 0 0 0 0];

internalField   nonuniform List<scalar> 
3250
(
1.3327522e+08
1.4567873e+08
1.5719128e+08
1.6629921e+08
1.7118063e+08
1.7001052e+08
1.6148513e+08
1.4542886e+08
1.2319428e+08
97533548
71851807
49154810
31237244
18482102
10219575
5305818.5
2599858.6
1208704
535936.21
227757.47
93196.857
36876.101
14164.094
5299.8027
1937.914
694.46428
244.51953
84.783117
29.00319
9.7890206
3.3068671
1.1054231
0.36469435
0.11968026
0.039127774
0.012769314
0.004172461
0.00137237
0.00045903279
0.00015964788
5.9701485e-05
2.5266048e-05
1.2611314e-05
7.4122312e-06
4.8937625e-06
3.5580149e-06
2.6345395e-06
2.0078717e-06
1.5311343e-06
1.332752e+08
1.4566809e+08
1.5716514e+08
1.6625318e+08
1.7111396e+08
1.6992571e+08
1.6138837e+08
1.4532945e+08
1.2310258e+08
97458048
71796715
49119512
31217682
18473022
10216358
5305291.5
2600253.9
1209231.1
536338.09
228005.82
93332.478
36944.033
14195.959
5313.989
1943.9661
696.95653
245.51601
85.171833
29.151782
9.8450017
3.3281109
1.1129819
0.36748015
0.12070535
0.03950753
0.012913614
0.0042295726
0.0013968553
0.00047058836
0.00016590393
6.3362107e-05
2.7814916e-05
1.438593e-05
8.777241e-06
5.9178638e-06
4.2491542e-06
3.1602226e-06
2.413502e-06
1.8716675e-06
1.3331785e+08
1.456876e+08
1.5715232e+08
1.6619955e+08
1.7101581e+08
1.6978578e+08
1.612173e+08
1.4514514e+08
1.229263e+08
97308376
71684237
49045043
31174588
18451583
10207567
5302714.7
2600142.4
1209789.4
536886.28
228378.25
93546.354
37054.624
14249.012
5338.0193
1954.3633
701.2904
247.26778
85.86208
29.418183
9.9464393
3.3670209
1.1269169
0.37267377
0.12263888
0.040234581
0.013193833
0.0043432577
0.0014467636
0.00049506912
0.00017929229
7.1797273e-05
3.3383661e-05
1.8389855e-05
1.1739891e-05
8.1312895e-06
5.9507913e-06
4.4900709e-06
3.3994022e-06
2.6184929e-06
1.3340298e+08
1.4573688e+08
1.571522e+08
1.6613755e+08
1.7088541e+08
1.6958998e+08
1.609712e+08
1.4487522e+08
1.2266469e+08
97083752
71513587
48930677
31107351
18417326
10192892
5297896.6
2599416
1210322.4
537553.49
228862.4
93833.237
37205.774
14322.464
5371.6146
1969.0148
707.43942
249.76854
86.853086
29.802775
10.09395
3.4239363
1.1474452
0.38037251
0.1255283
0.041332127
0.013623529
0.0045208228
0.0015268493
0.00053568043
0.00020226926
8.6347963e-05
4.3270646e-05
2.5499506e-05
1.6900505e-05
1.2034227e-05
8.9425593e-06
6.7297187e-06
5.1680517e-06
3.9786274e-06
1.3353033e+08
1.4581551e+08
1.5716421e+08
1.6606644e+08
1.7072202e+08
1.6933766e+08
1.6064961e+08
1.4451939e+08
1.2231757e+08
96784052
71284628
48776245
31015791
18370086
10172211
5290754.6
2598026.6
1210805.2
538328.1
229453.46
94191.368
37396.956
14416.214
5414.793
1987.9547
715.42887
253.03318
88.152639
30.309338
10.289736
3.4998109
1.1750351
0.39077879
0.12946564
0.042846617
0.01422683
0.0047767419
0.0016456188
0.00059760171
0.00023872005
0.00010973008
5.9450471e-05
3.7194009e-05
2.5532835e-05
1.8561557e-05
1.3888921e-05
1.0574699e-05
8.0917181e-06
6.2209182e-06
1.3368969e+08
1.459167e+08
1.5718624e+08
1.6599004e+08
1.7053615e+08
1.6904597e+08
1.6027499e+08
1.4410298e+08
1.2190998e+08
96431088
71014133
48593107
30906662
18313356
10147052
5281824.8
2596085.9
1211210.2
539159.07
230111.98
94596.903
37615.542
14524.139
5464.7723
2009.9818
724.76116
256.86255
89.683294
30.908357
10.523546
3.5907102
1.2083871
0.40343568
0.13430127
0.044733666
0.014994674
0.0051117635
0.0018070759
0.00068497368
0.00029147866
0.0001445435
8.3757073e-05
5.4835971e-05
3.8683634e-05
2.8486112e-05
2.1428967e-05
1.637139e-05
1.254308e-05
9.6902597e-06
1.3387339e+08
1.4603462e+08
1.5721487e+08
1.65908e+08
1.7033108e+08
1.6872191e+08
1.5985753e+08
1.4363814e+08
1.2145442e+08
96036082
70710961
48387428
30783743
18249174
10118376
5271489.2
2593712.8
1211556.4
540037.21
230825.96
95041.458
37856.782
14643.849
5520.4427
2034.611
735.23425
261.17579
91.413722
31.587741
10.792052
3.6951671
1.2470476
0.41820336
0.14000244
0.046993506
0.015935592
0.0055351885
0.0020182382
0.00080320568
0.00036454184
0.00019369132
0.00011857032
8.0329039e-05
5.7648744e-05
4.2902902e-05
3.2430494e-05
2.4782593e-05
1.9036968e-05
1.4666414e-05
1.3409506e+08
1.4617759e+08
1.5725128e+08
1.6581274e+08
1.7008963e+08
1.683392e+08
1.5936398e+08
1.4308831e+08
1.2091536e+08
95568438
70351738
48143394
30637597
18172615
10083983
5258958.5
2590731.5
1211877.2
541035.63
231654.44
95561.917
38140.842
14785.447
5586.5562
2063.9715
747.76636
266.35704
93.500635
32.409297
11.122938
3.8233921
1.2949886
0.43666791
0.14722395
0.049911904
0.017183952
0.0061163454
0.0023192988
0.00097710445
0.00047537026
0.0002692328
0.00017258589
0.00011999897
8.7502613e-05
6.5400615e-05
4.9681064e-05
3.8041948e-05
2.9235446e-05
2.2537558e-05
1.3435612e+08
1.463459e+08
1.5729436e+08
1.6570154e+08
1.6980752e+08
1.6789226e+08
1.5878802e+08
1.4244707e+08
1.2028696e+08
95023367
69932923
47858647
30466816
18082933
10043532
5244105.9
2587113.1
1212179.4
542168.89
232609.75
96166.435
38472.458
14951.456
5664.3756
2098.6659
762.63472
272.53016
95.998055
33.393673
11.531638
3.9794952
1.3541801
0.45970003
0.15637844
0.053698033
0.018854952
0.0069237445
0.0027538709
0.0012369578
0.00064451611
0.00038644279
0.00025701897
0.00018254995
0.00013448062
0.00010112699
7.6961102e-05
5.9015804e-05
4.5380661e-05
3.5028884e-05
1.3465772e+08
1.4653943e+08
1.5734244e+08
1.6557104e+08
1.694798e+08
1.6737492e+08
1.5812279e+08
1.4170766e+08
1.1956318e+08
94395999
69450967
47530850
30270015
17979399
9996692.4
5226812.3
2582834.5
1212474.1
543454.6
233706.25
96864.465
38857.128
15144.826
5755.3894
2139.4119
780.173
279.84603
98.972896
34.563378
12.042858
4.1676559
1.4271191
0.48847837
0.1680479
0.058659149
0.021122256
0.0080642695
0.0033917087
0.0016302445
0.00090640415
0.00057013151
0.000390578
0.00028180822
0.00020926038
0.00015806904
0.00012057599
9.2516301e-05
7.1234988e-05
5.4986341e-05
1.350006e+08
1.4675753e+08
1.5739321e+08
1.6541717e+08
1.6910078e+08
1.6678031e+08
1.5736095e+08
1.4086295e+08
1.187378e+08
93681420
68902344
47157710
30045848
17861310
9943148.7
5206968.4
2577879.2
1212777.2
544913.76
234960.68
97666.949
39301.249
15369.011
5861.359
2187.0678
800.78507
288.48949
102.50957
35.991848
12.640599
4.3944669
1.5170204
0.5246362
0.18306985
0.065251214
0.024254692
0.0097065673
0.0043449345
0.0022349017
0.0013166243
0.00086166211
0.00060395349
0.00044092016
0.00032956701
0.00024975358
0.0001908242
0.00014656204
0.00011292673
8.7155906e-05
1.3538504e+08
1.4699894e+08
1.5744359e+08
1.6523501e+08
1.6866397e+08
1.6610086e+08
1.5649458e+08
1.3990549e+08
1.1780448e+08
92874713
68283593
46737010
29793028
17728000
9882607.7
5184477.5
2572238.8
1213110.2
546571.42
236392.49
98586.607
39812.291
15628.083
5984.3808
2242.667
824.96343
298.68876
106.71029
37.728523
13.354438
4.6712278
1.6286389
0.57051503
0.20267522
0.074167196
0.028669302
0.01211816
0.0057948783
0.0031787668
0.0019678859
0.001328862
0.000948001
0.00069862917
0.00052468551
0.00039867482
0.00030505757
0.00023447047
0.00018074104
0.00013961054
1.3581074e+08
1.472616e+08
1.5748959e+08
1.6501869e+08
1.6816192e+08
1.6532819e+08
1.5551518e+08
1.388275e+08
1.1675675e+08
91971012
67591368
46266644
29510352
17578857
9814805.1
5159259.4
2565915.1
1213501.7
548457.47
238024.47
99638.304
40399.034
15926.868
6126.968
2307.4642
853.31418
310.72845
111.69974
39.853528
14.215965
5.0123983
1.7686927
0.62951027
0.22870567
0.086476136
0.035027744
0.015733401
0.0080392536
0.0046728431
0.0030132093
0.0020857456
0.0015083144
0.0011196007
0.00084418769
0.00064274424
0.0004924106
0.00037878741
0.00029213846
0.00022568088
1.3627664e+08
1.4754254e+08
1.5752614e+08
1.6476122e+08
1.6758615e+08
1.6445306e+08
1.5441368e+08
1.3762091e+08
1.1558813e+08
90965567
66822491
45744662
29196726
17413334
9739514.6
5131255.4
2558923
1213988.8
550607.78
239883.44
100839.52
41071.867
16271.134
6292.1585
2382.9963
886.59092
324.9681
117.6259
42.498084
15.258349
5.4374376
1.9466863
0.70662413
0.26396583
0.10385372
0.044393862
0.021260939
0.011570337
0.0070694911
0.004711523
0.0033243187
0.002429457
0.0018136455
0.0013718331
0.0010463097
0.00080247919
0.00061767166
0.00047654983
0.00036823349
1.367807e+08
1.4783766e+08
1.575469e+08
1.6445431e+08
1.66927e+08
1.6346532e+08
1.531804e+08
1.3627741e+08
1.1429214e+08
89853818
65974022
45169317
28851198
17230971
9656558.5
5100433.9
2551293.7
1214619.2
553065.49
242001.18
102210.97
41843.18
16667.827
6483.6579
2471.1647
925.74118
341.87016
124.87436
45.641032
16.527147
5.9714214
2.1762635
0.8093536
0.31279944
0.12896771
0.05849529
0.029873308
0.017210939
0.010962725
0.007498884
0.0053707865
0.0039573446
0.0029678125
0.0022506953
0.0017193099
0.0013197845
0.0010164452
0.00078449615
0.00060625395
1.3731975e+08
1.481414e+08
1.5754402e+08
1.6408822e+08
1.6617355e+08
1.6235383e+08
1.518051e+08
1.347885e+08
1.1286245e+08
88631484
65043327
44539121
28472997
17031415
9565818.9
5066796.9
2543078.3
1215454
555882.72
244415.54
103777.36
42727.86
17125.388
6706.029
2574.3473
971.97077
362.00564
133.7885
49.451575
18.1067
6.6522778
2.477724
0.9491664
0.38204745
0.16612466
0.080177891
0.043525941
0.026348567
0.017359762
0.012120533
0.0087826069
0.0065138698
0.0049031782
0.0037265432
0.0028504651
0.0021899254
0.0016873878
0.0013026333
0.0010067926
1.3788905e+08
1.4844646e+08
1.575079e+08
1.6365153e+08
1.6531343e+08
1.6110643e+08
1.5027696e+08
1.3314555e+08
1.1129292e+08
87294665
64028168
43852899
28061563
16814445
9467250.5
5030387.6
2534353
1216570.1
559122.61
247171.94
105568.37
43743.948
17654.166
6964.9466
2695.5508
1026.8391
386.07101
144.95173
54.113885
20.106153
7.535681
2.8817382
1.143904
0.48264461
0.22236404
0.1141716
0.065511228
0.041339078
0.027982224
0.01985405
0.014519576
0.010825696
0.0081739971
0.0062239468
0.0047663214
0.0036643627
0.0028246647
0.0021810727
0.0016857631
1.384818e+08
1.4874317e+08
1.5742685e+08
1.6313098e+08
1.6433277e+08
1.5970991e+08
1.4858469e+08
1.3133995e+08
1.0957776e+08
85839951
62926788
43109859
27616593
16579990
9360893.8
4991298.6
2525223.5
1218064.1
562861.84
250325.1
107619.92
44913.481
18266.97
7267.5441
2838.6217
1092.4098
415.72056
158.4189
59.876054
22.671037
8.7036734
3.4353329
1.4217495
0.63230275
0.3093195
0.1684135
0.10141545
0.066210574
0.045788929
0.032903542
0.024241207
0.018152648
0.013742007
0.010480361
0.0080338743
0.0061802274
0.0047656033
0.0036803035
0.0028445998
1.3908786e+08
1.4901893e+08
1.572868e+08
1.6251124e+08
1.6321606e+08
1.5815002e+08
1.4671656e+08
1.2936323e+08
1.0771167e+08
84264558
61738007
42309650
27138083
16328163
9246887.6
4949680.9
2515831.6
1220056.8
567193.76
253941.35
109975.8
46263.609
18979.81
7622.8868
3008.5337
1171.3333
452.56164
174.99397
67.197888
26.02202
10.280793
4.2118668
1.8278571
0.86004611
0.44639853
0.25632673
0.16077868
0.10788966
0.075893125
0.055091808
0.040832443
0.030687667
0.023283073
0.017781691
0.013642583
0.0105002
0.0080988707
0.0062550142
0.0048344129
1.2947572e+08
1.3969021e+08
1.492589e+08
1.5707123e+08
1.6177473e+08
1.6194611e+08
1.5641152e+08
1.4466057e+08
1.272072e+08
1.0569001e+08
82566457
60461325
41452432
26626365
16059280
9125480.4
4905755
2506361.8
1222697.5
572232.19
258101.53
112689.75
47828.074
19812.902
8042.6268
3211.8035
1267.0301
499.30088
195.59305
76.684379
30.489474
12.458696
5.3273778
2.4354341
1.2139073
0.66623917
0.40075398
0.25997692
0.17834224
0.12716711
0.093071767
0.069324955
0.052260807
0.039726986
0.030376831
0.02332318
0.017958567
0.013854115
0.010700162
0.0082692196
1.3035707e+08
1.4027906e+08
1.4944646e+08
1.5676099e+08
1.6090157e+08
1.60504e+08
1.5447826e+08
1.424046e+08
1.2486418e+08
1.0350898e+08
80744527
59097024
40538944
26082146
15773901
8997228
4859823.8
2497048.9
1226170.8
578116.19
262904.65
115828.24
49649.175
20792.059
8541.9154
3457.1038
1387.0749
556.50096
221.84646
89.172231
36.570007
15.535981
6.9676274
3.3643689
1.7740059
1.0240666
0.64076499
0.42724038
0.29830924
0.21505021
0.15845251
0.11851605
0.089577471
0.068207068
0.052208045
0.040110087
0.030894203
0.023835749
0.018408416
0.014224071
1.3124821e+08
1.4083778e+08
1.495615e+08
1.5633389e+08
1.5986935e+08
1.5886916e+08
1.5233332e+08
1.3993664e+08
1.2232722e+08
1.011658e+08
78798709
57646270
39570560
25506542
15472780
8862486.4
4812265.8
2488186.1
1230702.9
585015.89
268472.55
119474.02
51780.399
21950.618
9140.6714
3755.442
1540.2683
627.79258
256.07349
105.94349
45.027945
19.983948
9.4330005
4.8125482
2.6747938
1.613744
1.0433979
0.71134688
0.50381091
0.36645187
0.27151841
0.20380222
0.15438597
0.11772265
0.090188939
0.06932462
0.053408108
0.041206301
0.031819325
0.024581478
1.3212856e+08
1.4134403e+08
1.4957979e+08
1.5576437e+08
1.5865311e+08
1.5701941e+08
1.4995929e+08
1.3724508e+08
1.1959041e+08
98659012
76730159
56111206
38549345
24901114
15156958
8721898.9
4763563.7
2480135.1
1236570.8
593139.75
274955.85
123730.86
54289.922
23332.196
9865.486
4131.1334
1728.9706
718.8972
301.42024
128.92332
57.050177
26.553631
13.212956
7.1084575
4.1427811
2.5952137
1.7238685
1.196654
0.85742198
0.62826794
0.46769916
0.35211551
0.267255
0.2040378
0.15643092
0.1202878
0.092681077
0.071500469
0.055199649
0.042632073
1.2389657e+08
1.3296998e+08
1.4177106e+08
1.4947282e+08
1.5502331e+08
1.572253e+08
1.549312e+08
1.4733851e+08
1.3431908e+08
1.1664915e+08
95988624
74541398
54495036
37478105
24267897
14827792
8576456.6
4714319.7
2473336.5
1244111.5
602743.39
282541.58
128729.75
57265.2
24994.714
10749.83
4612.4011
1965.2726
838.33185
362.67683
161.0593
74.497867
36.450416
19.109103
10.799127
6.5602105
4.2411494
2.8800999
2.0288918
1.4676805
1.0820749
0.80874324
0.61045314
0.46410344
0.3546881
0.27208923
0.20927607
0.1612459
0.12437135
0.095984465
0.074106403
1.2501028e+08
1.3374703e+08
1.4208806e+08
1.4920768e+08
1.5407801e+08
1.5555599e+08
1.5257991e+08
1.4445356e+08
1.3114895e+08
1.1350055e+08
93156408
72236447
52802093
36360403
23609404
14486905
8427196.1
4665252.9
2468320.8
1253733.8
614140.52
291462.61
134637.1
60818.688
27017.17
11867.549
5206.7693
2268.9672
997.33869
446.97915
206.88699
100.30664
51.617009
28.437297
16.796101
10.571638
7.0155549
4.8512086
3.4590039
2.5221583
1.8692006
1.4018048
1.0604526
0.80735489
0.61753348
0.47392515
0.36455897
0.28085513
0.21655871
0.16705337
0.12892427
1.2607019e+08
1.3442611e+08
1.4225859e+08
1.4874672e+08
1.5289216e+08
1.5361309e+08
1.499403e+08
1.4128775e+08
1.2772666e+08
1.1014374e+08
90166102
69820934
51037864
35200567
22928615
14136188
8275344.1
4617209.7
2465719
1265930.9
627715.95
302009.4
141665.91
65093.863
29503.09
13303.007
5951.9766
2668.3823
1212.7875
565.11736
273.42369
139.12065
75.187731
43.356014
26.614951
17.260185
11.704533
8.2152276
5.9166407
4.3430193
3.2329044
2.4315723
1.8429251
1.4047073
1.0751329
0.82532476
0.6348472
0.48895672
0.37684957
0.29052419
1.2703854e+08
1.3496667e+08
1.4224015e+08
1.4804742e+08
1.514261e+08
1.5136286e+08
1.4698718e+08
1.3782578e+08
1.2404639e+08
1.0658029e+08
87023610
67302160
49208990
34003655
22228973
13777756
8122311.9
4571168.7
2466273.2
1281294.5
643940.88
314543.42
150091.87
70269.746
32690.929
15067.498
6914.6136
3200.8215
1509.4325
733.41156
371.53551
198.28173
112.20716
67.39169
42.761962
28.434131
19.630071
13.949517
10.131119
7.4786162
5.5879728
4.2132872
3.1983267
2.4400668
1.86841
1.4344094
1.103152
0.84929631
0.65418352
0.50393189
1.278699e+08
1.3532094e+08
1.41984e+08
1.4706257e+08
1.4963724e+08
1.4877058e+08
1.4369615e+08
1.3405445e+08
1.2010508e+08
1.0281451e+08
83737144
64689108
47323206
32775380
21514383
13414850
7969702.3
4528236.8
2470842.2
1300528.5
663390.38
329510.12
160280.9
76777.715
36603.969
17274.181
8177.0159
3920.8656
1923.8771
976.529
517.99909
289.34259
170.74363
106.26137
69.344767
47.082436
32.99149
23.687823
17.325693
12.850776
9.632668
7.2779996
5.5317753
4.2231757
3.2345512
2.4829783
1.9088817
1.4687782
1.1305119
0.87008344
1.2851067e+08
1.3543366e+08
1.4143531e+08
1.4574065e+08
1.4748088e+08
1.4580157e+08
1.4004463e+08
1.2996355e+08
1.1590302e+08
98853777
80317300
61992374
45389210
31521929
20788656
13048781
7819125.8
4489628.7
2480399.7
1324458.8
686764.09
347441.88
172675.63
85060.254
41434.461
20127.262
9854.0519
4907.0017
2509.9363
1331.5261
738.52198
430.31738
263.56589
169.1237
113.00821
78.076996
55.394064
40.119375
29.519642
21.983953
16.522854
12.505045
9.5139222
7.2664482
5.5655354
4.271082
3.2817681
2.5232654
1.9403935
1.4918544
1.2889882e+08
1.3524226e+08
1.4053362e+08
1.4402675e+08
1.4491128e+08
1.4242233e+08
1.3601299e+08
1.255467e+08
1.1144437e+08
94708747
76777017
59224010
43416486
30249898
20055988
12682591
7672337.4
4456638.2
2496015.8
1354037.5
714915.83
368936.04
188455.59
95043.448
47526.378
23845.878
12103.675
6270.6897
3345.8847
1853.4412
1071.9991
648.90046
410.56981
270.40684
184.31167
129.21163
92.633902
67.582684
49.978124
37.346408
28.130958
21.318697
16.230311
12.398399
9.4942414
7.2823455
5.5913787
4.2950682
3.2993423
2.5336175
1.2896395e+08
1.3467734e+08
1.3921384e+08
1.4186388e+08
1.4188324e+08
1.3860217e+08
1.3158582e+08
1.2080226e+08
1.0673765e+08
90393406
73131409
56397231
41415018
28966052
19320428
12319077
7531065.3
4430573.9
2518809.9
1390328.6
748921.94
395773.98
207392.13
107180
55304.469
28725.677
15142.156
8168.0698
4543.7753
2622.6131
1576.1844
986.82054
642.10079
432.33427
299.64533
212.65438
153.79818
112.89896
83.843449
62.82834
47.408044
35.962256
27.388753
20.92042
16.012861
12.273309
9.4144379
7.2236012
5.5418871
4.249793
1.2862786e+08
1.336638e+08
1.3740778e+08
1.3919477e+08
1.3835398e+08
1.3431486e+08
1.2675329e+08
1.1573414e+08
1.0179598e+08
85924982
69397420
53525995
39394857
27677140
18588060
11960612
7396835
4412652.8
2549844.6
1434451.9
789847.86
429410.69
230008.48
122408.89
65285.86
35155.242
19259.408
10813.041
6260.2755
3753.4365
2334.6275
1505.2587
1003.143
688.1407
483.68647
346.81686
252.684
186.44685
138.94782
104.35557
78.846532
59.846435
45.581231
34.803369
26.620216
20.383625
15.617104
11.966694
9.167165
7.0186812
1.2780587e+08
1.3212272e+08
1.3504642e+08
1.359644e+08
1.3428552e+08
1.2954063e+08
1.2151249e+08
1.103525e+08
96637244
81323619
65593312
50624415
37365416
26388073
17858730
11608626
7270737.9
4403847.2
2589894.2
1487527
841713.17
468167.03
257590.02
141478.5
78093.079
43624.214
24830.995
14489.102
8707.2197
5403.3013
3463.9989
2290.7114
1557.9324
1085.6561
772.1574
558.46094
409.39829
303.37169
226.72354
170.57222
128.99051
97.929624
74.566386
56.896767
43.476202
33.249724
25.438354
19.461559
14.883345
11.374715
1.2640926e+08
1.299742e+08
1.3206299e+08
1.3212293e+08
1.2964726e+08
1.2426817e+08
1.1586865e+08
1.0467415e+08
91283823
76611820
61737954
47706142
35335283
25102996
17135443
11263903
7153172
4404729.7
2638913.3
1555621
900743.18
513510.68
291181.58
165243.82
94451.607
54721.453
32321.074
19554.882
12157.993
7778.808
5119.6358
3459.6799
2393.7806
1690.343
1214.1912
884.51323
651.73209
484.61537
362.96769
273.40354
206.84666
157.01547
119.48326
91.081017
69.509199
53.079842
40.541803
30.960117
23.63134
18.024078
1.2434872e+08
1.2714108e+08
1.2839676e+08
1.2762921e+08
1.2441891e+08
1.1849653e+08
1.098361e+08
98722652
85762146
71813630
57849926
44783510
33311899
23829458
16419502
10925846
7043422.1
4415558.8
2703421.4
1632115.9
966524.84
567116.2
331728.43
194591.88
115144.12
69105.474
42264.792
26434.546
16942.866
11133.948
7495.23
5159.0646
3621.7224
2585.9622
1872.9084
1372.5169
1015.4879
757.13603
567.97604
428.12581
323.90878
245.74721
186.82692
142.23271
108.37692
82.614327
62.977894
47.994467
36.554217
27.818225
1.2153916e+08
1.2355384e+08
1.2399756e+08
1.2245467e+08
1.1859327e+08
1.1223689e+08
1.0343885e+08
92528097
80101889
66953630
53946456
41866156
31297688
22561383
15708092
10591691
6938978.2
4433869.9
2784412.3
1714338.5
1042321.8
629658
379970.54
230292.57
140903.35
87427.987
55214.525
35580.431
23423.186
15752.248
10810.388
7557.3853
5370.2128
3869.9586
2821.9703
2078.0074
1542.449
1152.3157
865.28235
652.36157
493.35395
373.96337
283.93201
215.81115
164.13609
124.86244
94.974878
72.211459
54.866753
41.651416
1.1790565e+08
1.1915626e+08
1.1883082e+08
1.1658728e+08
1.1217896e+08
1.0551385e+08
96710826
86126460
74334963
62055877
50042621
38961080
29292415
21296185
14996071
10256069
6835133.9
4470149.6
2861849.4
1804279.8
1127030.2
700888.81
436085.94
272747.82
172223.75
110191.62
71633.19
47393.671
31932.575
21903.268
15278.375
10820.76
7767.1356
5639.898
4135.2875
3056.6579
2274.353
1701.3176
1278.0701
963.30035
727.88715
551.02555
417.67567
316.85308
240.46427
182.50101
138.47497
105.01569
79.581304
60.250738
1.1339058e+08
1.1391184e+08
1.1288288e+08
1.1003537e+08
1.0520265e+08
98366301
89695588
79558751
68494434
57142873
46150546
36073014
27302447
20029678
14274998
9910466.3
6745082.8
4491168.5
2937103.9
1898408.4
1218082.2
779302.36
499296.95
321653.58
209087.23
137532.33
91724.2
62092.799
42676.222
29765.798
21047.714
15068.542
10906.094
7967.8298
5867.4975
4349.3918
3241.5266
2426.4022
1822.5347
1372.6246
1035.8637
782.85735
592.21865
448.25165
339.35068
256.88021
194.38075
146.99946
111.07754
83.852069
1.079615e+08
1.0781049e+08
1.0616606e+08
1.0283102e+08
97710808
90847734
82445811
72870091
62613621
52234765
42277953
33197870
25307869
18748136
13531945
9571175
6622913.9
4491823.1
3004872.1
1990488
1310867.5
861656.38
567420.08
375601.07
250625.02
168940.73
115206.53
79535.04
55590.635
39318.828
28118.008
20308.669
14796.947
10862.546
8025.2295
5960.5446
4446.3142
3328.3709
2498.3835
1879.3332
1415.8777
1067.8706
805.94455
608.46143
459.37896
346.74148
261.60019
197.23307
148.57629
111.81097
1.0161923e+08
1.0087495e+08
98723240
95032712
89770700
83026183
75022654
66109083
56725817
47349820
38430526
30330706
23302781
17434536
12786214
9182308.4
6452792
4465932.9
3054352
2071598.7
1398333.4
942571.93
636470.79
431706.8
294787.61
202978.28
141077.52
99022.538
70188.199
50218.664
36243.952
26363.393
19308.793
14226.101
10534.128
7832.9734
5844.3717
4372.5636
3278.3927
2461.9815
1851.0147
1392.7241
1048.3407
789.21249
594.05787
447.00288
336.16599
252.62876
189.68192
142.27473
94405399
93166350
90631339
86727026
81470769
74983892
67495375
59327769
50864765
42505459
34614845
27482143
21283350
16106239
11977422
8712528.2
6232439.7
4398521.5
3072149.4
2130254.6
1470989.1
1014448.3
700515.38
485431.02
338154.41
237095.13
167448.92
119161.19
85439.635
61703.64
44859.711
32810.33
24124.705
17819.497
13213.142
9828.9896
7330.6627
5478.6678
4101.0599
3073.4315
2305.138
1729.7228
1298.1969
974.27863
730.99102
548.20905
410.87891
307.71572
230.24563
172.10383
86408385
84788060
82003298
78029168
72920407
66817006
59941476
52582525
45066096
37718629
30829774
24622379
19229647
14748284
11076307
8174756.2
5946121.3
4273718.7
3043491.5
2153335.6
1517601
1067956.8
752001.34
530784.62
376053.3
267691.9
191572.99
137866.43
99769.698
72585.879
53070.227
38975.001
28736.118
21258.957
15772.425
11729.54
8739.5617
6521.4327
4871.6774
3642.0992
2724.1772
2038.0615
1524.7527
1140.5011
852.76755
637.29063
475.94471
355.16679
264.79588
197.22007
77766676
75887172
72988117
69082242
64249165
58635362
52447526
45936137
39371004
33013039
27086968
21763423
17178936
13286564
10093626
7553019.2
5578965.3
4076927.2
2954416.8
2127987.5
1526761.3
1093297.1
782740.85
561084.3
403132.39
290548.47
210162.43
152601.85
111235.53
81385.372
59752.732
44008.304
32502.428
24062.1
17849.314
13262.357
9866.9388
7348.0185
5475.9646
4082.6565
3044.516
2270.3849
1692.8143
1261.768
940.04726
699.94829
520.81012
387.20776
287.6165
213.42848
68668426
66652778
63768474
60054950
55605214
50562207
45110298
39460198
33829366
28421689
23404498
18959389
15064549
11751339
9027039.2
6840293.2
5122573.7
3798727.8
2795023.4
2044407.6
1489254.5
1082173.3
785529.76
570257.68
414397.29
301639.05
220025.3
160870.5
117905.21
86620.709
63779.623
47057.173
34781.571
25747.786
19084.646
14160.244
10514.636
7811.8961
5805.8693
4315.6371
3207.8637
2384.0447
1771.2572
1315.4224
976.37874
724.26675
536.8672
397.63594
294.24956
217.53355
59346182
57310283
54555349
51137214
47152511
42733151
38037479
33237233
28502620
23993363
19877322
16172864
12921467
10165941
7886626.7
6042351.2
4579301.5
3438747.3
2562921.2
1898905.4
1400731.4
1030087.6
756078.77
554439.94
406510.13
298174.1
218890.61
160862.4
118361.15
87197.696
64316.628
47492.169
35102.974
25967.051
19221.514
14235.331
10546.132
7814.4498
5790.5734
4290.4796
3178.3324
2353.7208
1742.3289
1289.0997
953.21127
704.37842
520.12401
383.76169
282.90302
208.35697
50065883
48111025
45578921
42532912
39065660
35293181
31346658
27361330
23461973
19816985
16460012
13438814
10803479
8562150.2
6698390.8
5179797.8
3964799.9
3008267.2
2265738.3
1696235.2
1263827.9
938217.92
694639.27
513350.91
378932.41
279531.72
206155.02
152044.58
112160.54
82764.556
61094.159
45112.97
33321.946
24618.264
18190.619
13441.945
9932.5749
7338.505
5420.7782
4003.0248
2954.9775
2180.361
1607.9869
1185.1962
873.02623
642.64437
472.71361
347.44505
255.15723
187.21488
41109700
39316669
37075076
34448782
31521211
28390080
25160746
21938322
18820711
15927798
13250852
10851445
8765117
6987589.6
5503558.7
4287550
3307864.3
2530382.7
1921504.7
1450127.9
1088776.6
814054.91
606620.62
450862.44
334424.47
247681.71
183232.08
135441.14
100054.51
73879.961
54533.597
40241.528
29687.178
21895.173
16143.82
11899.563
8768.1411
6458.3124
4754.9703
3499.2575
2573.8644
1892.1694
1390.2171
1020.7933
749.04947
549.26986
402.4836
294.7002
215.60595
157.60472
32753214
31178484
29267369
27079022
24684577
22162933
19595912
17062071
14656425
12391807
10320527
8470378.1
6867744.5
5499302.2
4353342.1
3410407.6
2646736.3
2036975.5
1556225.2
1181384.2
891938.26
670289.5
501759.42
374383.15
278591.28
206849.31
153301.19
113443.45
83842.716
61899.743
45657.835
33650.654
24783.275
18240.445
13416.52
9862.3809
7245.4606
5319.7826
3903.5894
2862.6851
2098.0593
1536.7078
1124.8334
822.81454
601.48588
439.39063
320.75153
233.97385
170.54122
124.20454
26282251
25239471
23913718
22345792
20586515
18693424
16727378
14750383
12838971
11009342
9301077.9
7750941.8
6373859.7
5173655.1
4154901.6
3300367
2595324.4
2022338.3
1562903.3
1198972.7
913796.93
692462.93
522116.1
391966.83
293157.44
218549.31
162477.29
120503.62
89189.761
65895.757
48610.16
35810.112
26348.748
19366.166
14219.998
10431.853
7646.383
5600.2048
4098.4624
2997.2244
2190.3212
1599.5325
1167.2919
851.27487
620.3908
451.82051
328.82881
239.15159
173.80768
126.22458
91.597286
19617396
18750416
17681220
16445175
15083456
13640226
12159015
10703629
9293296.5
7948951.2
6708824.6
5589401.6
4599699.7
3736320.8
3001373.9
2388674.4
1882350.6
1470275.7
1139041.8
875935.25
669134.17
508124.58
383822.26
288572.66
216064.55
161187.47
119864.61
88885.617
65750.554
48531.282
35752.642
26293.75
19307.892
14158.674
10369.845
7586.3186
5544.1953
4047.8786
2952.7413
2152.0632
1567.2388
1140.4633
829.28937
602.58683
437.55218
317.49917
230.22977
166.83513
120.81413
87.426436
63.21912
14075152
13387873
12562633
11628043
10615811
9558920.2
8489888.1
7451202.6
6444233.3
5499096.6
4632706.3
3854741.2
3169587.3
2577013.9
2070202.3
1645605
1297014.9
1014195.4
786457.13
605405.17
462890.06
351772.26
265869.46
199958.07
149723.74
111668.88
82995.211
61492.323
45434.112
33486.291
24625.911
18074.259
13242.232
9686.6112
7075.528
5161.5354
3760.8057
2737.2031
1990.1859
1445.6793
1049.2251
760.86326
551.3217
399.1907
288.83256
208.83979
150.90028
108.96368
78.630193
56.703079
40.862061
9681669.4
9162344.6
8553558
7877005.9
7155711.1
6413084.3
5678420.4
4958806.5
4272352.2
3634327.2
3053552.2
2535113.4
2080714.6
1689209.1
1357222.2
1078985
849348.32
662794.73
513567.81
395333.43
302175.09
229547.69
173414.1
130351.39
97528.16
72667.754
53944.194
39912.203
29441.636
21659.318
15895.563
11640.316
8507.6212
6207.1259
4521.5236
3288.9188
2389.1907
1733.5122
1256.3906
909.66604
658.00878
475.55693
343.41502
247.80121
178.67886
128.74899
92.710283
66.716678
47.980829
34.484561
24.768068
6371604
5997818.5
5569159.8
5101065.5
4608959.4
4114468.6
3624507.1
3149311.5
2701985.5
2289722.8
1917228.8
1586857.9
1298903.7
1051982.2
843454.95
669854.41
527185.85
411088.06
317907.76
243971.08
186143.27
141196.74
106528.14
79994.79
59766.329
44461.215
32949.972
24336.159
17916.852
13152.923
9630.8488
7035.6592
5129.1526
3732.304
2711.2861
1966.5347
1424.3441
1030.3153
744.41692
537.27438
387.38908
279.06378
200.86008
144.45861
103.81853
74.560145
53.512514
38.382499
27.513634
19.710557
14.111483
4007442.9
3751317.5
3463579
3154773.5
2835341
2518394.4
2205535.1
1906952.1
1628459.5
1373970.1
1145796.6
944821.92
770728.13
622257.17
497478.09
394037.88
309375.88
240913.58
186157.63
142772.81
108719.36
82266.231
61892.118
46323.843
34529.4
25632.555
18957.039
13976.109
10267.057
7519.5908
5492.6718
4002.5382
2910.425
2112.2395
1530.3053
1106.8686
799.399
576.55912
415.32831
298.85017
214.81735
154.26855
110.69033
79.358845
56.853705
40.702464
29.120704
20.821799
14.879223
10.626483
7.5845861
2409296.8
2242137
2057904.8
1863366.7
1666741.8
1470729.5
1280767.7
1101490.3
935859.53
785815.98
652354.93
535653.78
435227.48
350093.55
278932.07
220229.39
172398.44
133873.12
103173.62
78952.898
60029.276
45365.22
34088.405
25472.489
18941.518
14023.452
10340.367
7595.0454
5563.9394
4064.6883
2961.6129
2152.6854
1561.3011
1130.2087
816.85573
589.25863
424.40391
305.2436
219.26417
157.32325
112.76289
80.745862
57.767135
41.293635
29.495634