/*--------------------------------*- C++ -*----------------------------------*\
| =========                 |                                                 |
| \\      /  F ield         | OpenFOAM: The Open Source CFD Toolbox           |
|  \\    /   O peration     | Version:  2312                                  |
|   \\  /    A nd           | Website:  www.openfoam.com                      |
|    \\/     M anipulation  |                                                 |
\*---------------------------------------------------------------------------*/
FoamFile
{
    version     2.0;
    format      ascii;
    arch        "LSB;label=32;scalar=64";
    class       volScalarField;
    location    "0.05";
    object      CH4;
}
// * * * * * * * * * * * * * * * * * * * * * * * * * * * * * * * * * * * * * //

dimensions      [0 0 0 0 0 0 0];

internalField   nonuniform List<scalar> 
3257
(
0.0026425244
0.0024915441
0.0023482981
0.002212389
0.0020834926
0.0019613059
0.0018455359
0.0017358979
0.0016321151
0.0015339185
0.001441047
0.0013532476
0.0012702753
0.0011918932
0.0011178724
0.0010479922
0.0009820397
0.00091981
0.00086110595
0.00080573807
0.0007535244
0.00070429034
0.0006578685
0.00061409851
0.00057282679
0.00053390645
0.00049719697
0.0004625641
0.00042987955
0.00039902086
0.00036987113
0.00034231884
0.0003162576
0.00029158595
0.00026820719
0.0002460291
0.00022496378
0.00020492745
0.00018584024
0.00016762602
0.00015021216
0.00013352943
0.00011751175
0.00010209608
8.7222201e-05
7.2832609e-05
5.8872327e-05
4.5288772e-05
3.2031603e-05
1.9052574e-05
6.3053831e-06
0.0026529098
0.002501209
0.0023572718
0.0022207081
0.0020911965
0.0019684338
0.001852126
0.0017419868
0.0016377374
0.0015391069
0.0014458322
0.0013576585
0.001274339
0.0011956349
0.0011213159
0.0010511595
0.0009849514
0.00092248527
0.00086356264
0.00080799276
0.00075559249
0.00070618613
0.00065960524
0.00061568847
0.00057428134
0.00053523609
0.00049841141
0.0004636723
0.00043088978
0.00039994074
0.00037070768
0.00034307851
0.00031694632
0.00029220918
0.00026876991
0.00024653589
0.00022541883
0.00020533459
0.00018620297
0.0001679475
0.0001504953
0.00013377685
0.00011772583
0.00010227896
8.7375815e-05
7.2958701e-05
5.8972466e-05
4.5364378e-05
3.2083989e-05
1.9083004e-05
6.3151643e-06
0.0026723549
0.0025192376
0.0023739785
0.002236179
0.0021055125
0.0019816721
0.0018643595
0.0017532846
0.0016481646
0.0015487248
0.0014546986
0.0013658274
0.0012818609
0.0012025573
0.001127683
0.0010570126
0.00099032895
0.00092742315
0.00086809418
0.00081214897
0.00075940215
0.00070967596
0.00066279999
0.00061861106
0.00057695301
0.00053767645
0.00050063859
0.00046570303
0.0004327395
0.00040162366
0.00037223689
0.00034446605
0.00031820325
0.00029334567
0.00026979526
0.00024745864
0.00022624679
0.00020607489
0.0001868621
0.0001685314
0.00015100936
0.00013422595
0.00011811439
0.00010261098
8.7654904e-05
7.3188078e-05
5.9155021e-05
4.5502688e-05
3.2180341e-05
1.9139427e-05
6.3334704e-06
0.0026997581
0.0025446341
0.0023975038
0.0022579573
0.0021256609
0.0020003006
0.0018815721
0.0017691791
0.0016628332
0.0015622541
0.0014671698
0.0013773167
0.0012924397
0.0012122922
0.0011366363
0.0010652425
0.0009978896
0.00093436504
0.00087446428
0.00081799092
0.00076475649
0.00071458029
0.00066728918
0.00062271741
0.00058070638
0.00054110447
0.0005037668
0.00046855497
0.00043533691
0.00040398656
0.00037438371
0.00034641374
0.00031996739
0.00029494055
0.00027123402
0.00024875327
0.00022740828
0.00020711328
0.00018778657
0.00016935028
0.00015173023
0.00013485569
0.00011865924
0.00010307656
8.8046271e-05
7.3509775e-05
5.9411104e-05
4.5696769e-05
3.2315618e-05
1.9218717e-05
6.3592434e-06
0.0027340177
0.0025763814
0.0024269073
0.0022851735
0.0021508368
0.0020235748
0.0019030751
0.0017890338
0.001681155
0.0015791516
0.0014827446
0.0013916642
0.0013056491
0.001224447
0.0011478144
0.0010755165
0.0010073275
0.00094302984
0.00088241471
0.00082528155
0.000771438
0.0007206997
0.00067289007
0.00062784014
0.00058538831
0.00054538015
0.00050766811
0.00047211137
0.00043857555
0.00040693246
0.00037705992
0.00034884144
0.00032216605
0.00029692804
0.00027302672
0.00025036621
0.00022885518
0.0002084067
0.00018893794
0.00017037004
0.00015262786
0.00013563979
0.0001193376
0.0001036562
8.853352e-05
7.3910304e-05
5.9729976e-05
4.5938482e-05
3.2484146e-05
1.9317542e-05
6.3913942e-06
0.0027740893
0.0026135112
0.0024612923
0.0023169968
0.0021802709
0.0020507824
0.0019282094
0.0018122388
0.0017025663
0.0015988962
0.0015009418
0.0014084257
0.0013210795
0.001238644
0.0011608692
0.0010875144
0.0010183476
0.00095314621
0.00089169602
0.00083379168
0.00077923626
0.00072784109
0.0006794256
0.00063381702
0.00059085025
0.00055036753
0.00051221826
0.00047625872
0.00044235186
0.000410367
0.00038017961
0.00035167106
0.00032472836
0.00029924394
0.00027511536
0.00025224514
0.00023054046
0.00020991299
0.00019027863
0.00017155732
0.00015367281
0.00013655247
0.00012012711
0.00010433076
8.910052e-05
7.4376372e-05
6.0101027e-05
4.6219765e-05
3.2680287e-05
1.9432585e-05
6.4288363e-06
0.002818992
0.002655113
0.0024998139
0.0023526438
0.0022132373
0.0020812509
0.0019563522
0.001838218
0.001726534
0.0016209952
0.0015213062
0.0014271808
0.0013383428
0.0012545252
0.0011754708
0.0011009318
0.00103067
0.00096445645
0.0009020712
0.00084330344
0.0007879511
0.00073582072
0.00068672718
0.0006404935
0.0005969506
0.00055593702
0.00051729871
0.00048088872
0.00044656698
0.00041420002
0.00038366069
0.00035482795
0.00032758656
0.00030182682
0.00027744439
0.00025433996
0.00023241906
0.00021159178
0.0001917726
0.00017288012
0.00015483684
0.00013756899
0.00012100631
0.00010508184
8.973176e-05
7.489519e-05
6.051404e-05
4.6532842e-05
3.2898597e-05
1.9560636e-05
6.4705175e-06
0.0028678134
0.0027003394
0.0025416854
0.0023913848
0.0022490592
0.0021143532
0.0019869228
0.0018664335
0.0017525604
0.0016449885
0.0015434123
0.0014475367
0.0013570763
0.0012717559
0.0011913104
0.0011154845
0.0010440327
0.00097671936
0.00091331834
0.00085361279
0.00079739507
0.00074446643
0.00069463684
0.0006477247
0.00060355661
0.00056196708
0.00052279827
0.00048589973
0.00045112812
0.0004183469
0.0003874261
0.00035824202
0.00033067698
0.00030461901
0.00027996165
0.00025660362
0.00023444864
0.00021340512
0.00019338597
0.00017430833
0.00015609337
0.00013866607
0.000121955
0.00010589213
9.0412631e-05
7.5454702e-05
6.0959379e-05
4.6870377e-05
3.3133934e-05
1.9698663e-05
6.5154427e-06
0.002919713
0.0027484091
0.0025861814
0.0024325464
0.0022871122
0.0021495105
0.0020193848
0.0018963888
0.0017801863
0.0016704511
0.0015668676
0.0014691305
0.0013769451
0.0012900272
0.0012081032
0.0011309096
0.0010581936
0.00098971221
0.0009252325
0.0008645313
0.00080739498
0.0007536192
0.00070300864
0.0006553768
0.00061054564
0.0005683454
0.00052861421
0.00049119787
0.00045594954
0.00042272945
0.0003914046
0.00036184848
0.0003339408
0.00030756718
0.0002826189
0.00025899261
0.00023659007
0.00021531793
0.00019508741
0.00017581414
0.00015741784
0.00013982217
0.00012295448
0.00010674559
9.1129615e-05
7.6043754e-05
6.1428124e-05
4.7225577e-05
3.3381537e-05
1.9843855e-05
6.5626903e-06
0.0029739232
0.0027986089
0.0026326395
0.002475514
0.0023268262
0.0021861943
0.0020532488
0.0019276309
0.0018089923
0.0016969954
0.0015913136
0.0014916312
0.0013976436
0.0013090571
0.0012255891
0.0011469677
0.0010729322
0.0010032318
0.0009376268
0.00087588715
0.00081779298
0.00076313406
0.00071170956
0.00066332781
0.00061780594
0.00057496967
0.00053465292
0.00049669758
0.00046095315
0.00042727645
0.00039553133
0.00036558834
0.00033732446
0.00031062279
0.00028537224
0.0002614673
0.00023880772
0.00021729826
0.00019684843
0.00017737222
0.0001587879
0.00014101772
0.00012398777
0.00010762766
9.1870415e-05
7.6652197e-05
6.1912162e-05
4.7592261e-05
3.3637075e-05
1.9993657e-05
6.6114217e-06
0.0030297493
0.0028502933
0.0026804604
0.0025197315
0.0023676856
0.0022239268
0.0020880722
0.00195975
0.0018385995
0.0017242711
0.0016164268
0.0015147401
0.001418896
0.0013285912
0.0012435336
0.0011634427
0.0010880494
0.0010170952
0.00095033289
0.0008875256
0.00082844692
0.00077288053
0.0007206199
0.000671468
0.00062523697
0.00058174786
0.00054083026
0.00050232198
0.00046606876
0.00043192392
0.00039974803
0.00036940863
0.00034077988
0.00031374226
0.00028818229
0.00026399219
0.00024106965
0.0002193175
0.00019864346
0.00017895989
0.00016018351
0.00014223517
0.00012503962
0.00010852528
9.2624017e-05
7.7270944e-05
6.2404227e-05
4.7964897e-05
3.389667e-05
2.0145784e-05
6.6608872e-06
0.0030865682
0.0029028837
0.0027291071
0.0025647008
0.0024092286
0.0022622803
0.0021234592
0.00199238
0.0018686692
0.0017519652
0.0016419181
0.0015381903
0.0014404563
0.0013484025
0.0012617277
0.0011801421
0.0011033681
0.0010311393
0.00096320092
0.00089930896
0.00083923038
0.00078274261
0.00072963328
0.00067969988
0.00063274947
0.00058859831
0.00054707155
0.00050800287
0.00047123415
0.00043661514
0.00040400308
0.00037326243
0.00034426447
0.00031688704
0.00029101418
0.00026653584
0.0002433476
0.00022135032
0.00020044993
0.00018055709
0.00016158698
0.00014345902
0.00012609661
0.00010942693
9.338071e-05
7.7891983e-05
6.2897919e-05
4.8338614e-05
3.4156909e-05
2.0298222e-05
6.7104273e-06
0.0031438266
0.0029558664
0.0027781031
0.0026099801
0.002451046
0.002300876
0.0021590591
0.0020251966
0.001898902
0.0017798011
0.0016675321
0.0015617463
0.0014621072
0.0013682911
0.0012799871
0.0011968963
0.0011187323
0.0010452208
0.0009760991
0.00091111623
0.00085003231
0.00079261845
0.00073865635
0.00068793797
0.00064026519
0.00059544945
0.0005533114
0.00051368055
0.00047639489
0.00044130053
0.00040825138
0.00037710876
0.00034774107
0.00032002347
0.00029383751
0.00026907086
0.00024561695
0.00022337469
0.00020224817
0.00018214639
0.00016298294
0.0001446758
0.00012714705
0.00011032262
9.4132065e-05
7.8508365e-05
6.3387685e-05
4.8709186e-05
3.4414836e-05
2.044923e-05
6.7594717e-06
0.0032010377
0.0030087899
0.0028270299
0.0026551818
0.002492779
0.0023393818
0.002194565
0.0020579163
0.0019290358
0.001807537
0.001693046
0.0015852026
0.0014836594
0.0013880826
0.0012981513
0.0012135576
0.0011340063
0.0010592149
0.00098891304
0.00092284242
0.00086075643
0.0008024198
0.00074760829
0.00069610828
0.00064771646
0.00060223944
0.00055949336
0.00051930353
0.00048150403
0.00044593736
0.00041245407
0.00038091234
0.0003511777
0.00032312262
0.00029662617
0.00027157372
0.00024785659
0.0002253717
0.00020402135
0.00018371284
0.00016435821
0.00014587401
0.00012818097
0.00011120379
9.4870883e-05
7.911416e-05
6.3868794e-05
4.9073019e-05
3.4667936e-05
2.0597327e-05
6.8075359e-06
0.0032577782
0.0030612618
0.0028755238
0.0026999693
0.0025341162
0.0023775099
0.0022297111
0.0020902936
0.0019588444
0.0018349642
0.0017182674
0.001608382
0.00150495
0.0014076271
0.0013160826
0.0012299995
0.0011490739
0.001073015
0.0010015447
0.00093439771
0.00087132043
0.0008120713
0.00075642011
0.00070414772
0.00065504563
0.00060891563
0.00056556938
0.000524828
0.00048652169
0.00045048936
0.00041657819
0.00038464329
0.00035454729
0.00032616002
0.00029935808
0.00027402456
0.00025004868
0.00022732542
0.00020575527
0.00018524387
0.00016570173
0.00014704396
0.00012918998
0.00011206328
9.5591134e-05
7.9704405e-05
6.4337286e-05
4.9427104e-05
3.4914106e-05
2.0741278e-05
6.8542164e-06
0.003313684
0.003112945
0.002923273
0.0027440543
0.0025747912
0.0024150144
0.0022642704
0.0021221192
0.0019881348
0.0018619051
0.0017430327
0.0016311341
0.0015258405
0.0014267972
0.0013336641
0.0012461147
0.0011638365
0.0010865307
0.0010139116
0.00094570639
0.00088165502
0.00082150953
0.00076503386
0.00071200334
0.00066220436
0.00061543394
0.00057149928
0.00053021737
0.00049141459
0.00045492628
0.0004205963
0.00038827672
0.00035782733
0.00032911533
0.00030201491
0.00027640691
0.00025217847
0.00022922267
0.0002074382
0.0001867291
0.00016700435
0.00014817767
0.00013016719
0.0001128952
9.6287867e-05
8.0275028e-05
6.4789921e-05
4.9768983e-05
3.5151631e-05
2.0880075e-05
6.8991849e-06
0.0033684464
0.0031635539
0.0029700137
0.002787193
0.002614579
0.0024516878
0.0022980517
0.0021532171
0.0020167448
0.0018882106
0.0017672049
0.001653333
0.0015462153
0.0014454871
0.0013507985
0.001261814
0.0011782126
0.0010996874
0.001025945
0.00095670581
0.0008917029
0.00083068218
0.00077340175
0.00071963155
0.00066915291
0.00062175814
0.00057725008
0.00053544167
0.00049615549
0.00045922338
0.00042448599
0.00039179235
0.0003609995
0.00033197204
0.0003045818
0.00027870742
0.000254234
0.00023105277
0.00020906068
0.00018816015
0.00016825872
0.00014926873
0.00013110706
0.00011369482
9.6957118e-05
8.0822777e-05
6.5224113e-05
5.0096699e-05
3.5379149e-05
2.1012919e-05
6.9421815e-06
0.0034218077
0.0032128504
0.0030155259
0.0028291827
0.0026532929
0.0024873582
0.0023308968
0.0021834417
0.0020445411
0.001913758
0.0017906714
0.0016748754
0.0015659798
0.0014636099
0.0013674063
0.0012770247
0.0011921355
0.001112424
0.0010375895
0.00096734519
0.00090141775
0.00083954697
0.00078148526
0.00072699724
0.00067585932
0.00062785918
0.00058279539
0.0005404769
0.00050072263
0.00046336098
0.00042822943
0.00039517409
0.00036404926
0.00033471706
0.00030704699
0.00028091555
0.00025620587
0.00023280735
0.00021061527
0.00018953049
0.00016945911
0.00015031216
0.00013200529
0.00011445849
9.7595821e-05
8.1345142e-05
6.563787e-05
5.0408748e-05
3.5595613e-05
2.11392e-05
6.9830084e-06
0.0034735568
0.0032606399
0.0030596304
0.0028698584
0.0026907811
0.002521886
0.0023626776
0.0022126757
0.0020714156
0.0019384486
0.0018133417
0.0016956785
0.0015850582
0.0014810964
0.0013834243
0.0012916889
0.0012055526
0.0011246926
0.0010488011
0.0009775845
0.0009107631
0.0008480707
0.00078925418
0.00073407298
0.00068229866
0.00063371443
0.00058811469
0.00054530451
0.00050509921
0.00046732388
0.00043181291
0.00039840955
0.00036696549
0.00033734039
0.00030940152
0.0002830233
0.00025808695
0.00023448008
0.00021209637
0.00019083517
0.0001706012
0.00015130421
0.00013285867
0.00011518348
9.8201705e-05
8.1840268e-05
6.6029728e-05
5.0704027e-05
3.5800261e-05
2.1258473e-05
7.0215225e-06
0.0035235247
0.0033067667
0.0031021842
0.0029090887
0.0027269231
0.002555161
0.0023932932
0.0022408266
0.002097284
0.001962205
0.0018351454
0.0017156778
0.0016033917
0.0014978929
0.0013988035
0.0013057622
0.0012184231
0.0011364561
0.0010595463
0.00098739328
0.00091971128
0.00085622829
0.00079668578
0.00074083815
0.00068845228
0.00063930702
0.00059319272
0.0005499107
0.0005092728
0.00047110088
0.00043522635
0.00040148971
0.00036974008
0.0003398348
0.00031163893
0.00028502491
0.00025987211
0.00023606645
0.00021350001
0.00019207073
0.00017168197
0.00015224227
0.00013366496
0.00011586791
9.8773203e-05
8.2306884e-05
6.6398687e-05
5.0981789e-05
3.5992579e-05
2.1370442e-05
7.057629e-06
0.0035715803
0.0033511107
0.003143077
0.0029467729
0.0027616269
0.002587099
0.0024226668
0.0022678244
0.0021220826
0.0019849693
0.0018560295
0.0017348255
0.0016209367
0.0015139597
0.0014135081
0.0013192119
0.0012307177
0.0011476879
0.0010698008
0.00099674957
0.00092824245
0.0008640018
0.00080376386
0.00074727815
0.00069430702
0.00064462511
0.00059801885
0.00055428593
0.00051323484
0.00047468432
0.00043846291
0.00040440844
0.00037236759
0.00034219541
0.00031375491
0.00028691658
0.00026155802
0.0002375635
0.00021482363
0.00019323492
0.00017269949
0.00015312469
0.00013442278
0.00011651061
9.9309361e-05
8.2744225e-05
6.6744153e-05
5.1241596e-05
3.6172271e-05
2.1474939e-05
7.0912753e-06
0.0036176261
0.0033935826
0.0031822276
0.0029828368
0.0027948253
0.0026176392
0.0024507433
0.0022936192
0.0021457661
0.0020067006
0.0018759571
0.0017530879
0.0016376629
0.0015292697
0.0014275132
0.0013320157
0.0012424161
0.0011583698
0.0010795484
0.0010056388
0.00093634356
0.00087137956
0.00081047797
0.00075338365
0.00069985456
0.00064966128
0.00060258646
0.00055842433
0.00051698011
0.00047806958
0.00044151849
0.00040716214
0.00037484484
0.00034441948
0.00031574705
0.0002886962
0.00026314284
0.00023896967
0.00021606586
0.00019432661
0.0001736528
0.00015395067
0.00013513145
0.00011711104
9.9809751e-05
8.3151961e-05
6.7065881e-05
5.1483276e-05
3.6339226e-05
2.1571903e-05
7.1224445e-06
0.0036615944
0.0034341207
0.00321958
0.0030172305
0.0028264732
0.0026467412
0.0024774864
0.0023181786
0.0021683054
0.0020273727
0.0018949048
0.0017704442
0.0016535516
0.001543806
0.0014408042
0.0013441605
0.0012535068
0.0011684916
0.0010887799
0.001014053
0.00094400751
0.0008783553
0.00081682265
0.00075914987
0.00070509072
0.0006544119
0.00060689243
0.00056232319
0.0005205063
0.00048125467
0.00044439142
0.00040974939
0.00037717065
0.00034650601
0.00031761453
0.00029036313
0.00026462606
0.00024028456
0.00021722642
0.00019534557
0.00017454176
0.00015472013
0.00013579094
0.00011766921
0.0001002744
8.3530134e-05
6.7363922e-05
5.170688e-05
3.649349e-05
2.1661369e-05
7.1511499e-06
0.0037034428
0.0034726871
0.0032551009
0.0030499244
0.002856545
0.0026743826
0.0025028766
0.0023414853
0.0021896855
0.0020469726
0.0019128612
0.0017868844
0.0016685942
0.0015575613
0.0014533746
0.001355641
0.0012639852
0.0011780493
0.0010974922
0.0010219894
0.00095123224
0.00088492743
0.00082279666
0.0007645759
0.0007100149
0.0006588766
0.00061093658
0.0005659825
0.00052381355
0.00048423987
0.00044708206
0.00041217064
0.00037934553
0.00034845554
0.00031935794
0.00029191794
0.00026600828
0.00024150877
0.00021830589
0.00019629239
0.0001753669
0.00015543357
0.00013640173
0.00011818555
0.0001007037
8.3879093e-05
6.7638573e-05
5.1912649e-05
3.663524e-05
2.1743448e-05
7.1774306e-06
0.0037431509
0.0035092638
0.0032887755
0.0030809072
0.002885032
0.0027005566
0.0025269087
0.0023635356
0.0022099035
0.0020654983
0.001929825
0.001802408
0.0016827909
0.0015705362
0.0014652254
0.0013664583
0.0012738528
0.0011870449
0.0011056874
0.0010294504
0.00095802001
0.00089109827
0.00082840237
0.00076966413
0.00071462946
0.00066305773
0.00061472123
0.00056940456
0.00052690407
0.00048702731
0.00044959247
0.00041442786
0.00038137134
0.00035026987
0.00032097896
0.00029336225
0.000267291
0.0002426437
0.00021930558
0.00019716826
0.00017612934
0.00015609202
0.00013696474
0.00011866087
0.00010109837
8.4199446e-05
6.7890337e-05
5.2100979e-05
3.6764765e-05
2.1818313e-05
7.201346e-06
0.0037807166
0.0035438497
0.0033206059
0.0031101832
0.0029119398
0.0027252699
0.0025495899
0.0023843366
0.0022289668
0.0020829571
0.0019458036
0.0018170223
0.0016961487
0.0015827377
0.0014763636
0.0013766193
0.0012831164
0.0011954847
0.0011133717
0.0010364419
0.00096437665
0.00089687343
0.00083364515
0.00077441969
0.0007189393
0.00066695995
0.00061825079
0.00057259351
0.00052978178
0.00048962069
0.00045192613
0.00041652431
0.00038325115
0.00035195184
0.00032248025
0.00029469851
0.0002684765
0.00024369144
0.00022022741
0.00019797494
0.00017683067
0.00015669689
0.00013748123
0.0001190963
0.00010145936
8.4492009e-05
6.8119882e-05
5.2272389e-05
3.6882436e-05
2.1886192e-05
7.2229723e-06
0.0038161521
0.0035764564
0.0033506077
0.0031377705
0.0029372873
0.0027485409
0.0025709377
0.0024039053
0.0022468916
0.0020993644
0.0019608117
0.0018307413
0.001708681
0.0015941787
0.0014868013
0.0013861356
0.0012917869
0.0012033793
0.0011205549
0.0010429732
0.00097031099
0.00090226123
0.00083853284
0.00077884997
0.00072295135
0.00067058976
0.00062153134
0.00057555505
0.00053245202
0.00049202497
0.00045408765
0.00041846427
0.00038498894
0.00035350514
0.00032386521
0.00029592985
0.00026956766
0.00024465464
0.00022107377
0.00019871461
0.00017747284
0.00015724994
0.00013795276
0.00011949319
0.00010178786
8.4757762e-05
6.8328007e-05
5.2427501e-05
3.6988698e-05
2.1947349e-05
7.242399e-06
0.0038494789
0.0036071062
0.0033788092
0.0031636998
0.0029611044
0.0027703978
0.0025909785
0.0024222663
0.0022637009
0.002114742
0.0019748697
0.0018435842
0.0017204062
0.0016048761
0.0014965548
0.0013950225
0.0012998787
0.0012107422
0.0011272498
0.0010490564
0.00097583424
0.00090727217
0.00084307528
0.00078296414
0.00072667419
0.00067395515
0.00062457035
0.00057829613
0.00053492122
0.00049424613
0.00045608258
0.00042025289
0.00038658944
0.00035493413
0.00032513785
0.00029705996
0.00027056783
0.00024553634
0.00022184745
0.00019938976
0.00017805811
0.00015775317
0.00013838108
0.00011985307
0.00010208516
8.4997811e-05
6.851561e-05
5.256701e-05
3.7084045e-05
2.2002083e-05
7.2597251e-06
0.003880716
0.0036358378
0.0034052521
0.0031880137
0.0029834309
0.002790877
0.0026097459
0.0024394506
0.0022794235
0.0021291168
0.001988003
0.0018555749
0.0017313463
0.0016148511
0.0015056436
0.0014032982
0.001307409
0.0012175894
0.0011334715
0.0010547055
0.00098095953
0.00091191852
0.00084728388
0.00078677284
0.0007301177
0.00067706531
0.00062737633
0.00058082464
0.0005371967
0.00049629094
0.00045791716
0.0004218959
0.00038805794
0.00035624367
0.00032630262
0.0002980929
0.00027148073
0.00024633993
0.0002225515
0.00020000316
0.00017858894
0.00015820877
0.00013876813
0.00012017763
0.00010235272
8.5213357e-05
6.8683664e-05
5.2691667e-05
3.7169011e-05
2.2050711e-05
7.2750571e-06
0.0039098313
0.0036627614
0.0034300036
0.0032107673
0.0030043147
0.0028100212
0.0026272786
0.002455494
0.0022940928
0.0021425198
0.0020002404
0.0018667404
0.0017415268
0.0016241271
0.0015140898
0.0014109835
0.0013143971
0.001223939
0.0011392367
0.0010599362
0.00098570147
0.00091621384
0.00085117127
0.00079028778
0.00073329276
0.00067993032
0.0006299586
0.00058314919
0.00053928642
0.00049816674
0.00045959815
0.00042339955
0.00038940016
0.00035743902
0.00032736434
0.00029903307
0.00027231035
0.00024706903
0.00022318919
0.00020055774
0.00017906795
0.00015861907
0.00013911595
0.00012046863
0.00010259204
8.5405666e-05
6.8833194e-05
5.2802261e-05
3.7244155e-05
2.2093568e-05
7.2885061e-06
0.0036879036
0.003453159
0.00323203
0.0030238101
0.0028278774
0.0026436191
0.0024704356
0.0023077451
0.002154985
0.0020116137
0.0018771104
0.0017509754
0.0016327302
0.0015219177
0.001418101
0.0013208641
0.0012298106
0.0011445637
0.0010647654
0.00099007576
0.00092017272
0.00085475096
0.0007935215
0.00073621096
0.00068256089
0.00063232709
0.00058527895
0.00054119882
0.00049988131
0.00046113271
0.00042477039
0.00039062214
0.00035852568
0.00032832804
0.00029988506
0.00027306087
0.00024772741
0.00022376393
0.00020105656
0.00017949788
0.00015898649
0.00013942666
0.00012072792
0.0001028047
8.5576045e-05
6.8965256e-05
5.2899606e-05
3.7310053e-05
2.2130998e-05
7.3001861e-06
0.0037116789
0.0034748334
0.0032518681
0.0030419711
0.0028444941
0.0026588122
0.0024843172
0.0023204193
0.0021665488
0.0020221569
0.0018867164
0.0017597215
0.0016406879
0.0015291527
0.0014246744
0.001326832
0.0012352247
0.0011494716
0.0010692108
0.00099409887
0.00092381041
0.00085803707
0.00079648705
0.00073888437
0.00068496818
0.00063449207
0.0005872234
0.00054294263
0.00050144267
0.00046252823
0.0004260152
0.00039173007
0.00035950933
0.00032919888
0.00030065356
0.00027373656
0.00024831895
0.00022427921
0.00020150275
0.0001798815
0.00015931349
0.00013970243
0.00012095736
0.00010299228
8.5725821e-05
6.9080922e-05
5.2984523e-05
3.7367289e-05
2.2163346e-05
7.3102121e-06
0.0037338026
0.0034950228
0.0032703242
0.0030588469
0.0028599194
0.0026729037
0.0024971818
0.0023321558
0.0021772487
0.0020319052
0.0018955914
0.0017677958
0.0016480285
0.0015358216
0.0014307285
0.0013323239
0.0012402027
0.0011539801
0.0010732907
0.00099778776
0.00092714261
0.00086104412
0.00079919786
0.00074132539
0.00068716362
0.00063646408
0.00058899223
0.00054452678
0.00050285902
0.00046379221
0.00042714087
0.00039273026
0.00036039572
0.00032998213
0.00030134336
0.00027434174
0.00024884755
0.00022473853
0.00020189945
0.00018022164
0.00015960255
0.00013994542
0.00012115884
0.00010315638
8.5856324e-05
6.9181262e-05
5.3057839e-05
3.7416443e-05
2.2190959e-05
7.3186988e-06
0.0037543081
0.0035137575
0.0032874431
0.0030744868
0.0028742024
0.0026859404
0.0025090735
0.002342996
0.0021871237
0.0020408947
0.0019037691
0.0017752297
0.0016547814
0.0015419513
0.0014362884
0.001337363
0.0012447662
0.0011581094
0.0010770239
0.0010011596
0.00093018523
0.00086378682
0.00080166748
0.00074354651
0.00068915873
0.00063825373
0.0005905952
0.00054596022
0.0005041386
0.0004649322
0.00042815431
0.00039362902
0.00036119062
0.00033068302
0.00030195923
0.00027488074
0.00024931711
0.00022514542
0.00020224982
0.00018052107
0.00015985614
0.0001401578
0.00012133421
0.00010329859
8.5968871e-05
6.9267341e-05
5.3120366e-05
3.7458091e-05
2.221418e-05
7.3257594e-06
0.0037732733
0.0035310913
0.0033032764
0.0030889419
0.0028873927
0.0026979697
0.0025200372
0.0023529819
0.002196213
0.002049162
0.0019112836
0.0017820549
0.001660976
0.0015475694
0.0014413796
0.001341973
0.001248937
0.0011618797
0.0010804288
0.0010042317
0.0009329542
0.00086627985
0.00080390947
0.00074556024
0.00069096501
0.0006398716
0.00059204204
0.00054725189
0.00050528958
0.0004659557
0.00042906237
0.00039443261
0.00036189973
0.00033130676
0.00030250587
0.00027535782
0.00024973149
0.00022550333
0.00020255693
0.00018078255
0.00016007668
0.00014034167
0.00012148531
0.00010342047
8.6064759e-05
6.9340199e-05
5.3172905e-05
3.7492798e-05
2.2233343e-05
7.3315046e-06
0.0037907781
0.003547087
0.0033178805
0.0031022658
0.0028995411
0.0027090395
0.0025301179
0.0023621558
0.0022045559
0.002056744
0.001918169
0.0017883033
0.0016666419
0.0015527031
0.0014460274
0.0013461774
0.001252737
0.0011653109
0.0010835242
0.0010070213
0.00093546536
0.00086853782
0.00080593728
0.00074737894
0.00069259385
0.00064132814
0.00059334233
0.00054841059
0.00050632004
0.0004668701
0.00042987181
0.0003951472
0.00036252868
0.00033185845
0.00030298792
0.00027577718
0.00025009447
0.00022581566
0.00020282384
0.00018100878
0.00016026656
0.00014049913
0.00012161393
0.00010352353
8.6145247e-05
6.9400853e-05
5.3216234e-05
3.7521111e-05
2.2248774e-05
7.3360418e-06
0.0038068991
0.00356181
0.0033313143
0.0031145129
0.0029106987
0.0027191979
0.0025393605
0.0023705595
0.0022121917
0.002063677
0.0019244594
0.0017940062
0.0016718082
0.0015573796
0.001450257
0.0013499994
0.0012561875
0.0011684231
0.0010863283
0.0010095451
0.00093773427
0.00087057507
0.00080776411
0.00074901476
0.0006940564
0.00064263361
0.00059450551
0.00054944495
0.00050723788
0.00046768262
0.00043058922
0.00039577881
0.00036308294
0.00033234307
0.00030340991
0.0002761429
0.00025040971
0.00022608571
0.00020305347
0.00018120236
0.00016042806
0.00014063217
0.00012172181
0.00010360925
8.6211559e-05
6.9450283e-05
5.3251104e-05
3.7543561e-05
2.2260786e-05
7.3394749e-06
0.0038217099
0.0035753261
0.0033436374
0.0031257382
0.0029209166
0.0027284926
0.0025478096
0.0023782348
0.002219159
0.0020699971
0.001930188
0.0017991947
0.0016765037
0.0015616254
0.0014540928
0.0013534617
0.0012593096
0.0011712355
0.001088859
0.0010118197
0.00093977616
0.00087240562
0.00080940285
0.00075047956
0.00069536355
0.000643798
0.00059554071
0.00055036335
0.00050805076
0.00046840028
0.00043122102
0.00039633327
0.00036356783
0.00033276544
0.00030377618
0.00027645892
0.00025068078
0.00022631665
0.00020324868
0.00018136583
0.00016056343
0.00014074274
0.0001218106
0.00010367903
8.6264869e-05
6.9489435e-05
5.3278238e-05
3.7560656e-05
2.2269682e-05
7.3419032e-06
0.0038352818
0.0035876999
0.0033549087
0.0031359962
0.0029302455
0.0027369707
0.0025555092
0.0023852225
0.002225496
0.0020757397
0.0019353878
0.0018038992
0.0016807566
0.0015654666
0.0014575591
0.0013565865
0.0012621238
0.0011737672
0.0010911339
0.0010138612
0.00094160583
0.00087404307
0.00081086602
0.00075178481
0.00069652584
0.00064483097
0.0005964568
0.0005511739
0.00050876612
0.00046902985
0.00043177338
0.00039681621
0.00036398846
0.00033313021
0.00030409096
0.00027672904
0.00025091109
0.00022651157
0.00020341221
0.00018150161
0.00016067478
0.0001408327
0.00012188193
0.00010373425
8.63063e-05
6.9519211e-05
5.3298326e-05
3.7572883e-05
2.2275749e-05
7.3434215e-06
0.0038476836
0.0035989945
0.0033651863
0.0031453404
0.002938735
0.0027446784
0.0025625024
0.0023915627
0.0022312398
0.0020809391
0.0019400906
0.0018081493
0.0016845942
0.0015689286
0.0014606791
0.0013593956
0.00126465
0.0011760364
0.0010931697
0.0010156852
0.00094323759
0.00087550058
0.00081216569
0.00075294162
0.00069755345
0.00064574185
0.00059726231
0.00055188441
0.00050939107
0.00046957784
0.00043225223
0.00039723305
0.00036434975
0.00033344184
0.00030435827
0.0002769569
0.00025110392
0.00022667338
0.00020354665
0.00018161201
0.00016076416
0.00014090381
0.0001219373
0.00010377619
8.6336924e-05
6.954047e-05
5.3312026e-05
3.7580703e-05
2.227926e-05
7.3441198e-06
0.0038589818
0.0036092707
0.0033745263
0.0031538228
0.0029464336
0.0027516609
0.002568831
0.0023972942
0.0022364265
0.0020856289
0.0019443275
0.0018119735
0.0016880429
0.0015720356
0.0014634755
0.0013619096
0.0012669075
0.001178061
0.0010949829
0.0010173066
0.0009446852
0.0008767908
0.00081331347
0.00075396062
0.00069845612
0.00064653956
0.00059796542
0.00055250237
0.00050993246
0.00047005049
0.00043266326
0.00039758894
0.00036465639
0.00033370457
0.00030458197
0.00027714597
0.00025126238
0.00022680487
0.0002036545
0.00018169923
0.0001608335
0.00014095777
0.00012197818
0.00010380608
8.6357756e-05
6.9554026e-05
5.3319958e-05
3.7584552e-05
2.2280474e-05
7.3440834e-06
0.0038692401
0.0036185875
0.003382983
0.003161494
0.0029533882
0.002757962
0.0025745357
0.002402455
0.0022410911
0.0020898414
0.0019481282
0.0018153997
0.0016911283
0.0015748114
0.00146597
0.0013641486
0.0012689147
0.0011798578
0.0010965889
0.0010187398
0.00094596188
0.00087792584
0.00081432047
0.000754852
0.0006992432
0.00064723265
0.00059857395
0.00055303489
0.00051039679
0.00047045373
0.00043301187
0.0003978888
0.00036491283
0.00033392246
0.00030476569
0.00027729954
0.00025138943
0.0002269087
0.00020373811
0.00018176536
0.00016088462
0.00014099617
0.00012200592
0.00010382508
8.6369753e-05
6.9560646e-05
5.3322709e-05
3.7584844e-05
2.2279635e-05
7.3433923e-06
0.0038785196
0.0036270009
0.0033906088
0.0031684027
0.0029596445
0.002763624
0.0025796559
0.0024070813
0.0022452673
0.0020936077
0.0019515217
0.0018184542
0.001693875
0.0015772785
0.0014681835
0.0013661319
0.0012706893
0.0011814432
0.0010980029
0.0010199985
0.00094708021
0.00087891726
0.00081519729
0.00075562546
0.00069992355