/*--------------------------------*- C++ -*----------------------------------*\
| =========                 |                                                 |
| \\      /  F ield         | OpenFOAM: The Open Source CFD Toolbox           |
|  \\    /   O peration     | Version:  2312                                  |
|   \\  /    A nd           | Website:  www.openfoam.com                      |
|    \\/     M anipulation  |                                                 |
\*---------------------------------------------------------------------------*/
FoamFile
{
    version     2.0;
    format      ascii;
    arch        "LSB;label=32;scalar=64";
    class       volScalarField;
    location    "0.05";
    object      CO2;
}
// * * * * * * * * * * * * * * * * * * * * * * * * * * * * * * * * * * * * * //

dimensions      [0 0 0 0 0 0 0];

internalField   nonuniform List<scalar> 
3257
(
0.0076595647
0.0073555972
0.0070600004
0.0067728008
0.0064939514
0.006223379
0.0059609937
0.0057066918
0.005460357
0.0052218614
0.0049910671
0.0047678266
0.0045519843
0.0043433772
0.0041418355
0.0039471842
0.0037592432
0.0035778283
0.003402752
0.003233824
0.003070852
0.0029136423
0.0027620001
0.0026157303
0.002474638
0.0023385286
0.0022072088
0.0020804864
0.0019581708
0.0018400736
0.0017260088
0.0016157926
0.0015092444
0.0014061864
0.001306444
0.0012098461
0.001116225
0.0010254166
0.00093726083
0.00085160117
0.00076828515
0.00068716424
0.00060809397
0.00053093388
0.00045554761
0.00038180288
0.00030957148
0.0002387293
0.00016915627
0.00010073634
3.3357494e-05
0.0076878102
0.0073822893
0.0070852196
0.0067966177
0.0065164307
0.0062445822
0.00598098
0.0057255182
0.0054780785
0.0052385315
0.0050067371
0.0047825463
0.0045658016
0.0043563381
0.0041539846
0.0039585639
0.0037698943
0.0035877898
0.0034120614
0.0032425169
0.0030789624
0.0029212027
0.0027690413
0.0026222816
0.0024807273
0.0023441823
0.0022124518
0.0020853423
0.0019626621
0.0018442213
0.0017298327
0.0016193116
0.001512476
0.0014091471
0.0013091493
0.0012123106
0.0011184623
0.0010274395
0.00093908104
0.00085322982
0.0007697325
0.00068843985
0.00060920667
0.00053189184
0.00045635838
0.00038247339
0.00031010811
0.00023913789
0.00016944215
0.00010090436
3.3412048e-05
0.0077413231
0.007432927
0.0071331008
0.0068418609
0.0065591519
0.006284894
0.006018992
0.0057613368
0.005511807
0.0052702696
0.0050365817
0.0048105907
0.0045921358
0.004381049
0.0041771555
0.003980275
0.0037902225
0.0036068089
0.0034298416
0.0032591256
0.0030944639
0.002935658
0.0027825088
0.0026348167
0.0024923825
0.0023550075
0.0022224943
0.0020946468
0.0019712708
0.0018521742
0.0017371673
0.0016260634
0.0015186784
0.0014148314
0.001314345
0.0012170451
0.0011227615
0.0010313275
0.00094258047
0.00085636159
0.00077251615
0.00069089352
0.00061134717
0.00053373473
0.00045791802
0.00038376304
0.00031113997
0.00023992318
0.00016999124
0.00010122687
3.3516945e-05
0.0078169899
0.0075045472
0.0072008397
0.0069058825
0.0066196168
0.0063419593
0.0060728108
0.0058120581
0.0055595756
0.005315226
0.0050788618
0.0048503259
0.004629453
0.0044160704
0.0042099987
0.0040110531
0.0038190438
0.0036337773
0.0034550565
0.003282682
0.0031164525
0.0029561652
0.0028016168
0.0026526037
0.0025089228
0.0023703717
0.002236749
0.0021078553
0.0019834928
0.0018634661
0.0017475825
0.0016356519
0.0015274873
0.0014229052
0.0013217252
0.0012237709
0.0011288694
0.0010368516
0.00094755271
0.00086081174
0.00077647191
0.00069438061
0.00061438945
0.0005363543
0.00046013528
0.0003855968
0.00031260756
0.00024104053
0.00017077298
0.00010168643
3.3666678e-05
0.0079118586
0.0075943539
0.0072857908
0.0069861815
0.0066954635
0.0064135491
0.0061403344
0.0058757014
0.0056195192
0.0053716453
0.0051319266
0.0049002006
0.0046762963
0.004460035
0.0042512319
0.0040496962
0.0038552326
0.0036676419
0.0034867213
0.003312266
0.0031440692
0.0029819229
0.0028256186
0.0026749476
0.0025297018
0.0023896742
0.0022546587
0.0021244513
0.0019988501
0.0018776555
0.0017606707
0.0016477017
0.001538558
0.0014330523
0.001331001
0.0012322244
0.0011365463
0.001043795
0.00095380264
0.00086640555
0.00078144438
0.00069876408
0.00061821392
0.00053964754
0.00046292296
0.00038790259
0.00031445322
0.00024244606
0.00017175667
0.00010226501
3.3855363e-05
0.0080231212
0.0076996863
0.0073854343
0.007080374
0.006784438
0.006497534
0.0062195525
0.0059503701
0.0056898499
0.0054378433
0.0051941908
0.0049587233
0.0047312633
0.0045116256
0.0042996184
0.0040950445
0.0038977018
0.0037073843
0.003523883
0.0033469864
0.0031764814
0.0030121539
0.0028537892
0.0027011728
0.0025540908
0.0024123304
0.0022756804
0.0021439314
0.0020168764
0.001894311
0.0017760336
0.0016618458
0.0015515528
0.001444963
0.0013418889
0.0012421469
0.0011455574
0.001051945
0.00096113847
0.00087297117
0.00078728065
0.00070390898
0.0006227027
0.00054351285
0.00046619496
0.0003906091
0.00031661982
0.0002440962
0.00017291178
0.0001029446
3.4077096e-05
0.0081481363
0.0078180398
0.0074973971
0.0071862127
0.0068844143
0.0065919039
0.0063085663
0.0060342716
0.0057688766
0.0055122256
0.0052641522
0.0050244801
0.0047930242
0.0045695919
0.0043539841
0.0041459957
0.0039454174
0.0037520357
0.0035656342
0.0033859943
0.0032128956
0.0030461169
0.002885437
0.0027306344
0.0025814891
0.0024377817
0.002299295
0.0021658138
0.0020371253
0.0019130196
0.0017932899
0.0016777326
0.0015661481
0.0014583402
0.001354117
0.0012532904
0.0011556768
0.0010610969
0.00096937585
0.00088034333
0.00079383355
0.00070968537
0.00062774223
0.00054785226
0.00046986821
0.00039364749
0.00031905212
0.00024594876
0.00017420869
0.0001037077
3.4326134e-05
0.0082844421
0.0079470794
0.0076194658
0.0073016013
0.006993408
0.0066947819
0.0064056016
0.0061257304
0.0058550179
0.0055933011
0.0053404057
0.0050961475
0.0048603335
0.0046327629
0.0044132282
0.0042015165
0.00399741
0.0038006872
0.0036111236
0.0034284926
0.0032525662
0.0030831156
0.0029199118
0.0027627265
0.0026113321
0.0024655027
0.0023250143
0.0021896452
0.0020591766
0.0019333924
0.0018120801
0.0016950307
0.0015820391
0.0014729041
0.0013674288
0.0012654207
0.0011666915
0.0010710579
0.00097834075
0.00088836599
0.00080096412
0.00071597048
0.00063322518
0.00055257315
0.00047386411
0.00039695256
0.00032169777
0.00024796377
0.00017561928
0.0001045377
3.4597021e-05
0.0084297654
0.0080846479
0.0077495952
0.007424602
0.0071095845
0.0068044325
0.0065090179
0.0062231967
0.0059468109
0.0056796895
0.0054216502
0.0051725002
0.0049320379
0.0047000537
0.0044763315
0.0042606495
0.0040527812
0.0038524964
0.0036595619
0.0034737428
0.0032948025
0.0031225042
0.002956611
0.0027968866
0.0026430959
0.0024950058
0.002352385
0.002215005
0.0020826402
0.0019550684
0.0018320707
0.0017134323
0.0015989424
0.0014883944
0.0013815863
0.0012783203
0.0011784038
0.0010816486
0.00098787151
0.00089689416
0.0008085432
0.00072265021
0.00063905176
0.00055758937
0.00047810953
0.00040046365
0.00032450806
0.00025010397
0.00017711739
0.00010541913
3.4884669e-05
0.008582024
0.0082287699
0.0078859121
0.0075534401
0.0072312637
0.0069192662
0.0066173124
0.0063252508
0.0060429154
0.005770127
0.0055066943
0.0052524159
0.0050070809
0.0047704708
0.0045423602
0.0043225178
0.0041107081
0.0039066916
0.0037102263
0.0035210679
0.0033389715
0.0031636914
0.0029949823
0.0028325998
0.0026763008
0.0025258445
0.002380992
0.0022415078
0.0021071591
0.0019777169
0.0018529562
0.0017326557
0.0016165988
0.0015045732
0.0013963712
0.0012917903
0.0011906325
0.001092705
0.00099782003
0.00090579502
0.00081645246
0.00072962002
0.00064513054
0.00056282199
0.00048253748
0.00040412518
0.00032743835
0.00025233523
0.00017867902
0.0001063378
3.5184417e-05
0.0087393272
0.0083776515
0.0080267161
0.0076865044
0.0073569203
0.0070378401
0.0067291213
0.0064306046
0.0061421157
0.0058634666
0.0055944572
0.0053348767
0.0050845048
0.0048431135
0.0046104677
0.0043863266
0.004170445
0.0039625739
0.0037624617
0.0035698551
0.0033844999
0.0032061414
0.0030345257
0.0028693998
0.0027105125
0.0025576146
0.0024104598
0.0022688048
0.0021324099
0.0020010389
0.0018744602
0.001752446
0.0016347737
0.0015212249
0.0014115866
0.0013056505
0.0012032137
0.0011040785
0.0010080525
0.00091494858
0.00082458503
0.00073678549
0.00065137895
0.00056819973
0.00048708745
0.00040788695
0.00033044831
0.00025462673
0.0001802825
0.00010728089
3.5492057e-05
0.0088999724
0.0085296778
0.0081704762
0.0078223454
0.0074851824
0.0071588568
0.0068432185
0.0065381003
0.0062433192
0.0059586783
0.0056839682
0.0054189687
0.0051634498
0.0049171734
0.0046798947
0.004451363
0.0042313232
0.0040195163
0.0038156813
0.0036195551
0.0034308742
0.0032493747
0.0030747936
0.0029068694
0.0027453421
0.0025899545
0.0024404523
0.0022965844
0.0021581037
0.002024767
0.0018963356
0.0017725756
0.0016532575
0.0015381574
0.0014270561
0.0013197402
0.0012160013
0.0011156368
0.0010184495
0.00092424778
0.00083284556
0.00074406239
0.00065772336
0.00057365904
0.00049170551
0.00041170423
0.00033350203
0.00025695102
0.00018190854
0.00010823702
3.5803849e-05
0.00906244
0.0086834077
0.0083158273
0.0079596702
0.007614827
0.0072811602
0.006958512
0.006646707
0.0063455535
0.0060548455
0.0057743642
0.0055038795
0.0052431516
0.0049919325
0.0047499669
0.0045169943
0.0042927493
0.0040769631
0.0038693646
0.0036696811
0.0034776394
0.0032929663
0.0031153897
0.002944639
0.0027804458
0.0026225444
0.0024706723
0.0023245708
0.0021839851
0.0020486649
0.0019183645
0.0017928432
0.0016718654
0.0015552008
0.0014426247
0.0013339177
0.0012288665
0.0011272633
0.0010289059
0.00093359836
0.00084115014
0.00075137664
0.00066409899
0.00057914404
0.00049634425
0.0004155377
0.00033656794
0.000259284
0.00018354022
0.00010919617
3.6116511e-05
0.0092253857
0.0088375672
0.0084615626
0.0080973371
0.0077447745
0.0074037301
0.0070740385
0.0067555159
0.006447962
0.0061511613
0.0058648854
0.0055888945
0.0053229386
0.0050667596
0.004820092
0.0045826649
0.0043542028
0.0041344267
0.0039230554
0.0037198065
0.003524397
0.0033365443
0.003155967
0.0029823856
0.0028155228
0.0026551046
0.0025008603
0.0023525233
0.0022098313
0.0020725266
0.0019403566
0.0018130738
0.0016904362
0.0015722075
0.0014581569
0.0013480597
0.0012416972
0.0011388563
0.0010393303
0.00094291838
0.00084942584
0.00075866386
0.00067044963
0.00058460623
0.00050096256
0.00041935328
0.00033961872
0.00026160479
0.00018516287
0.00011014971
3.6427207e-05
0.0093876321
0.008991041
0.0086066266
0.0082343477
0.0078740812
0.0075256755
0.0071889573
0.0068637344
0.0065497976
0.0062469222
0.0059548702
0.0056733915
0.0054022264
0.0051411062
0.0048897553
0.0046478924
0.0044152317
0.004191484
0.0039763582
0.0037695617
0.003570802
0.0033797868
0.0031962256
0.0030198297
0.0028503133
0.0026873937
0.0025307922
0.0023802342
0.0022354499
0.0020961744
0.0019621478
0.0018331162
0.0017088312
0.0015890501
0.0014735366
0.0013620602
0.0012543969
0.0011503287
0.0010496441
0.00095213759
0.00085761017
0.00076586893
0.00067672712
0.00059000412
0.00050552527
0.00042312186
0.00034263102
0.00026389558
0.00018676401
0.00011109025
3.6733525e-05
0.0095481587
0.0091428632
0.0087501057
0.0083698384
0.0080019319
0.007646227
0.0073025428
0.0069706788
0.0066504169
0.0063415229
0.0060437491
0.0057568358
0.0054805128
0.0052145013
0.0049585153
0.0047122632
0.0044754489
0.0042477731
0.0040289344
0.0038186306
0.0036165593
0.0034224188
0.0032359093
0.0030567331
0.0028845957
0.002719206
0.0025602772
0.0024075269
0.0022606776
0.0021194572
0.0019835991
0.0018528425
0.0017269327
0.001605621
0.0014886652
0.0013758294
0.0012668843
0.001161607
0.001059781
0.00096119662
0.00086565038
0.00077294534
0.00068289091
0.00059530276
0.00051000278
0.00042681894
0.00034558521
0.00026614141
0.00018833315
0.00011201164
3.7033447e-05
0.0097060916
0.0092922072
0.0088912186
0.0085030717
0.0081276302
0.0077647281
0.0074141766
0.0070757669
0.0067492719
0.0064344483
0.0061310387
0.0058387733
0.005557372
0.0052865456
0.005025998
0.0047754273
0.0045345271
0.0043029879
0.0040804985
0.0038667467
0.0036614205
0.0034642088
0.0032748026
0.0030928953
0.0029181839
0.0027503689
0.0025891553
0.0024342532
0.0022853774
0.0021422489
0.002004594
0.0018721455
0.0017446424
0.00162183
0.0015034605
0.0013892925
0.0012790914
0.0011726296
0.0010696859
0.00097004616
0.00087350267
0.00077985453
0.00068890735
0.00060047323
0.00051437063
0.00043042429
0.0003484651
0.00026832995
0.00018986167
0.00011290878
3.7325313e-05
0.0098606927
0.0094383753
0.0090293065
0.0086334258
0.0082505903
0.007880627
0.0075233393
0.0071785102
0.0068459037
0.0065252673
0.0062163341
0.0059188245
0.0056324482
0.0053569062
0.0050918919
0.0048370933
0.0045921939
0.0043568742
0.0041308132
0.0039136888
0.0037051794
0.0035049649
0.0033127271
0.0031281508
0.0029509241
0.0027807397
0.0026172945
0.0024602909
0.0023094366
0.0021644453
0.0020250368
0.0018909373
0.0017618797
0.0016376035
0.0015178552
0.0014023882
0.0012909629
0.0011833466
0.0010793139
0.00097864606
0.00088113142
0.00078656514
0.00069474915
0.00060549205
0.00051860898
0.00043392154
0.00035125761
0.00027045127
0.00019134261
0.00011377761
3.7607796e-05
0.010011348
0.0095807881
0.0091638229
0.0087603858
0.0083703273
0.0079934672
0.0076296017
0.0072785054
0.0069399337
0.006613625
0.0062993027
0.0059966778
0.0057054499
0.0054253101
0.0051559418
0.0048970229
0.004648227
0.0044092247
0.0041796851
0.0039592768
0.0037476687
0.0035445316
0.0033495384
0.0031623652
0.002982692
0.0028102032
0.0026445882
0.0024855417
0.0023327643
0.0021859628
0.0020448505
0.0019091472
0.0017785799
0.0016528823
0.0015317955
0.0014150677
0.0013024543
0.0011937181
0.0010886291
0.00098696437
0.00088850831
0.00079305231
0.00070039469
0.00061034068
0.0005227022
0.0004372978
0.00035395247
0.00027249755
0.00019277054
0.00011461492
3.7879859e-05
0.010157557
0.0097189736
0.0092943233
0.0088835332
0.0084864475
0.0081028792
0.0077326168
0.0073754271
0.0070310568
0.0066992353
0.0063796769
0.0060720827
0.005776143
0.0054915388
0.0052179438
0.004955026
0.0047024491
0.0044598742
0.0042269607
0.0040033679
0.0037887556
0.0035827855
0.0033851219
0.0031954327
0.0030133895
0.0028386688
0.0026709526
0.0025099282
0.0023552893
0.002206736
0.002063975
0.0019267203
0.0017946927
0.0016676206
0.0015452396
0.001427293
0.0013135315
0.0012037132
0.0010976038
0.00099497647
0.0008956116
0.00079929696
0.00070582743
0.00061500495
0.00052663836
0.00044054326
0.00035654187
0.0002744629
0.00019414135
0.00011541832
3.8140727e-05
0.010298922
0.0098525569
0.0094204551
0.0090025369
0.0085986402
0.0082085712
0.0078321114
0.0074690193
0.0071190335
0.0067818744
0.0064572474
0.0061448441
0.0058443454
0.0055554225
0.0052777397
0.0050109551
0.0047547231
0.0045086952
0.0042725216
0.0040458522
0.003828338
0.0036196321
0.0034193904
0.0032272723
0.0030429417
0.0028660675
0.0026963241
0.002533392
0.0023769579
0.0022267154
0.0020823651
0.0019436149
0.0018101802
0.0016817837
0.0015581562
0.0014390359
0.0013241689
0.001213309
0.0011062177
0.0010026642
0.00090242529
0.00080528511
0.00071103527
0.00061947454
0.0005304088
0.00044365083
0.0003590202
0.00027634308
0.00019545211
0.00011618612
3.8389854e-05
0.010435135
0.0099812502
0.0095419482
0.0091171435
0.0087066681
0.0083103215
0.0079278778
0.0075590882
0.0072036828
0.0068613736
0.0065318569
0.0062148155
0.0059099206
0.0056168344
0.0053352115
0.005064701
0.0048049476
0.0045555937
0.0043162804
0.0040866489
0.0038663414
0.0036550025
0.00345228
0.0032578252
0.0030712945
0.0028923493
0.0027206569
0.0025558908
0.0023977313
0.0022458656
0.0020999884
0.0019598018
0.0018250156
0.0016953476
0.0015705234
0.0014502766
0.0013343488
0.0012224896
0.0011144566
0.0010100151
0.00090893839
0.00081100722
0.00071600999
0.00062374248
0.00053400771
0.00044661578
0.00036138372
0.00027813531
0.0001967009
0.0001169172
3.862689e-05
0.010565972
0.010104843
0.0096586054
0.0092271691
0.0088103594
0.0084079696
0.0080197669
0.0076454948
0.0072848755
0.0069376127
0.0066033941
0.0062818933
0.0059727728
0.0056756857
0.0053902773
0.0051161875
0.0048530523
0.0046005048
0.0043581775
0.0041257029
0.0039027149
0.0036888499
0.0034837477
0.0032870521
0.0030984118
0.0029174812
0.0027439207
0.0025773971
0.0024175844
0.0022641638
0.0021168241
0.001975262
0.0018391819
0.0017082967
0.0015823272
0.0014610025
0.00134406
0.0012312452
0.0011223118
0.0010170216
0.00091514428
0.00081645757
0.00072074674
0.0006278047
0.00053743175
0.00044943543
0.00036363037
0.00027983806
0.00019788671
0.00011761099
3.8851656e-05
0.01069128
0.010223192
0.009770294
0.0093324901
0.0089095995
0.0085014095
0.0081076804
0.0077281482
0.0073625277
0.0070105143
0.0066717873
0.0063460118
0.0060328415
0.0057319206
0.0054428857
0.0051653678
0.004898994
0.004643389
0.0043981766
0.0041629812
0.0039374284
0.0037211469
0.0035137687
0.0033149301
0.0031242729
0.0029414444
0.0027660984
0.0025978954
0.0024365033
0.0022815974
0.002132861
0.0019899854
0.0018526702
0.0017206232
0.0015935607
0.0014712077
0.0013532972
0.001239571
0.0011297792
0.0010236801
0.00092104006
0.00082163374
0.00072524353
0.00063165959
0.00054067965
0.00045210882
0.00036575944
0.00028145085
0.00019900923
0.00011826734
3.9064118e-05
0.010810968
0.010336214
0.0098769374
0.0094330362
0.0090043242
0.0085905823
0.0081915643
0.0078069994
0.0074365947
0.0070800377
0.0067369997
0.0064071376
0.0060900965
0.005785512
0.0054930123
0.0052122199
0.0049427532
0.0046842288
0.0044362622
0.0041984698
0.0039704697
0.0037518825
0.0035423332
0.0033414509
0.0031488705
0.0029642326
0.0027871846
0.0026173811
0.002454484
0.0022981631
0.0021480963
0.0020039699
0.0018654785
0.0017323255
0.0016042228
0.0014808912
0.0013620599
0.0012474669
0.0011368589
0.0010299908
0.00092662597
0.00082653609
0.00072950079
0.00063530764
0.00054375192
0.00045463646
0.00036777142
0.00028297411
0.00020006882
0.00011888649
3.926436e-05
0.010924999
0.010443877
0.0099785074
0.009528783
0.0090945121
0.0086754697
0.0082714033
0.0078820352
0.0075070655
0.0071461741
0.0067990244
0.0064652653
0.0061445338
0.0058364573
0.0055406557
0.0052567431
0.0049843302
0.0047230252
0.004472436
0.0042321712
0.0040018413
0.00378106
0.0035694447
0.0033666181
0.0031722083
0.0029858497
0.0028071835
0.0026358584
0.0024715308
0.0023138651
0.0021625342
0.0020172194
0.0018776109
0.0017434076
0.0016143173
0.0014900567
0.0013703516
0.0012549362
0.001143554
0.0010359567
0.00093190487
0.00083116727
0.00073352096
0.00063875106
0.00054665054
0.00045702006
0.00036966775
0.00028440901
0.00020106632
0.00011946896
3.9452569e-05
0.011033384
0.010546195
0.010075018
0.0096197452
0.0091801788
0.008756088
0.0083472141
0.0079532731
0.007573958
0.0072089415
0.0068578795
0.0065204132
0.0061961717
0.0058847745
0.0055858336
0.0052989552
0.0050237421
0.0047597951
0.0045067144
0.0042641012
0.0040315589
0.0038086941
0.0035951178
0.0033904457
0.0031942998
0.0030063085
0.0028261072
0.0026533389
0.0024876547
0.002328714
0.0021761847
0.0020297436
0.0018890765
0.001753878
0.0016238521
0.0014987119
0.0013781792
0.0012619854
0.0011498705
0.0010415834
0.0009368818
0.00083553185
0.00073730816
0.0006419935
0.0005493787
0.00045926235
0.00037145068
0.0002857573
0.00020200301
0.00012001554
3.962901e-05
0.011136172
0.010643217
0.010166519
0.009705971
0.0092613714
0.008832483
0.0084190415
0.0080207564
0.0076373142
0.0072683807
0.0069136044
0.0065726193
0.0062450468
0.0059304989
0.00562858
0.0053388887
0.0050610204
0.0047945684
0.0045391259
0.0042942871
0.0040596484
0.0038348098
0.0036193757
0.0034129559
0.0032151662
0.0030256291
0.0028439746
0.0026698404
0.0025028725
0.0023427255
0.0021890626
0.0020415563
0.0018998881
0.0017637488
0.0016328386
0.001506867
0.0013855526
0.0012686234
0.0011558167
0.0010468784
0.00094156355
0.00083963596
0.00074086783
0.00064503978
0.00055194055
0.00046136685
0.0003731231
0.00028702125
0.00020288053
0.0001205272
3.9794015e-05
0.011233448
0.010735028
0.010253091
0.0097875373
0.0093381631
0.008904725
0.0084869526
0.0080845497
0.0076971961
0.007324551
0.0069662561
0.006621938
0.0062912112
0.0059736802
0.0056689421
0.0053765886
0.0050962076
0.0048273858
0.0045697092
0.0043227655
0.0040861444
0.0038594397
0.0036422496
0.003434178
0.0032348348
0.0030438373
0.0028608101
0.0026853858
0.0025172057
0.0023559196
0.0022011866
0.0020526749
0.001910062
0.0017730351
0.0016412907
0.001514535
0.0013924835
0.0012748612
0.0011614024
0.0010518506
0.00094595833
0.00084348694
0.00074420651
0.0006478956
0.00055434103
0.00046333772
0.00037468842
0.0002882035
0.00020370075
0.00012100508
3.9947965e-05
0.011325339
0.010821733
0.01033484
0.0098645438
0.0094106485
0.008972904
0.0085510337
0.0081447352
0.0077536821
0.0073775273
0.0070159057
0.0066684372
0.0063347292
0.0060143795
0.0057069782
0.0054121099
0.0051293562
0.0048582966
0.004598511
0.0043495804
0.0041110885
0.003882623
0.0036637763
0.0034541465
0.0032533383
0.0030609637
0.0028766422
0.0027000019
0.0025306792
0.0023683198
0.0022125785
0.0020631197
0.0019196171
0.0017817543
0.0016492245
0.0015217308
0.0013989856
0.0012807112
0.0011666391
0.0010565105
0.00095007541
0.00084709309
0.00074733154
0.00065056738
0.00055658566
0.0004651796
0.00037615039
0.00028930697
0.00020446576
0.00012145043
4.0091281e-05
0.01090347
0.010411885
0.009937106
0.0094789385
0.0090371261
0.0086113858
0.0082014092
0.007806864
0.0074273967
0.007062636
0.0067121953
0.0063756754
0.0060526674
0.0057427548
0.0054455158
0.0051605255
0.0048873571
0.0046255842
0.0043747818
0.0041345277
0.0039044039
0.0036839972
0.0034729004
0.0032707132
0.0030770424
0.002891503
0.0027137184
0.0025433209
0.0023799519
0.0022232625
0.002072913
0.001928574
0.0017899255
0.0016566577
0.0015284706
0.0014050738
0.001286187
0.0011715392
0.0010608692
0.0009539249
0.00085046342
0.00075025087
0.00065306207
0.00055868038
0.00046689748
0.00037751309
0.0002903348
0.0002051778
0.0001218646
4.0224408e-05
0.010980342
0.010484353
0.010005351
0.0095431569
0.0090975097
0.0086681217
0.008254679
0.0078568435
0.0074742559
0.0071065387
0.0067532991
0.0064141318
0.0060886214
0.0057763453
0.0054768755
0.0051897808
0.0049146287
0.0046509867
0.0043984241
0.0041565131
0.0039248304
0.0037029574
0.003490482
0.0032869989
0.0030921104
0.0029054269
0.0027265676
0.0025551608
0.0023908439
0.0022332643
0.002082079
0.001936955
0.0017975694
0.0016636093
0.0015347718
0.0014107641
0.0012913032
0.0011761159
0.0010649387
0.00095751747
0.00085360744
0.00075297289
0.00065538697
0.00056063148
0.00046849662
0.00037878078
0.0002912903
0.00020583921
0.00012224898
4.0347812e-05
0.01105254
0.010552396
0.010069422
0.0096034384
0.0091541832
0.0087213635
0.0083046604
0.0079037304
0.0075182087
0.007147712
0.0067918416
0.0064501862
0.0061223245
0.0058078279
0.0055062626
0.0052171917
0.0049401767
0.0046747799
0.0044205649
0.0041770989
0.0039439532
0.0037207044
0.0035069357
0.0033022371
0.0031062065
0.0029184502
0.0027385833
0.0025662303
0.0024010249
0.0022426111
0.0020906426
0.0019447833
0.0018047072
0.0016700988
0.0015406525
0.0014160729
0.0012960748
0.0011803828
0.0010687313
0.0009608642
0.00085653501
0.0007555063
0.00065754965
0.0005624454
0.00046998241
0.00037995782
0.00029217682
0.00020645238
0.000122605
4.0461968e-05
0.01112023
0.010616176
0.010129469
0.0096599263
0.0092072822
0.0087712397
0.0083514752
0.0079476401
0.0075593644
0.0071862592
0.0068279203
0.0064839306
0.0061538634
0.0058372844
0.0055337542
0.0052428304
0.0049640693
0.0046970278
0.0044412644
0.0041963414
0.0039618251
0.0037372876
0.0035223076
0.0033164707
0.0031193708
0.0029306103
0.0027498003
0.0025765617
0.0024105251
0.0022513309
0.0020986297
0.0019520827
0.001811361
0.0016761465
0.0015461311
0.0014210172
0.0013005173
0.0011843539
0.0010722595
0.00096397636
0.00085925615
0.0007578599
0.00065955776
0.0005641287
0.00047136034
0.00038104867
0.00029299779
0.00020701974
0.00012293411
4.0567356e-05
0.011183582
0.010675858
0.010185649
0.009712769
0.0092569474
0.0088178836
0.0083952496
0.007988692
0.0075978357
0.0072222868
0.0068616356
0.0065154599
0.0061833274
0.0058647987
0.0055594292
0.0052667712
0.0049863761
0.0047177957
0.0044605838
0.0042142979
0.0039784998
0.0037527573
0.0035366447
0.0033297438
0.0031316444
0.0029419452
0.002760254
0.0025861881
0.0024193749
0.0022594517
0.0021060665
0.0019588774
0.0018175531
0.0016817729
0.0015512265
0.0014256141
0.0013046461
0.0011880432
0.0010755361
0.00096686532
0.00086178094
0.00076004258
0.00066141901
0.00056568797
0.00047263591
0.00038205775
0.00029375664
0.0002075437
0.00012323774
4.0664454e-05
0.011242773
0.010731612
0.010238123
0.0097621184
0.0093033226
0.0088614313
0.0084361122
0.0080270076
0.0076337374
0.007255903
0.0068930896
0.00654487
0.006210807
0.0058904561
0.0055833677
0.0052890894
0.0050071678
0.0047371499
0.0044785852
0.0042310265
0.0039940317
0.0037671642
0.0035499944
0.0033421004
0.0031430684
0.0029524935
0.0027699801
0.0025951425
0.002427605
0.0022670022
0.0021129791
0.0019651915
0.0018233055
0.0016869983
0.0015559573
0.0014298806
0.0013084769
0.0011914649
0.0010785738
0.0009695424
0.00086411945
0.00076206316
0.00066314106
0.00056712973
0.00047381456
0.00038298947
0.00029445674
0.00020802666
0.00012351732
4.0753735e-05
0.011297982
0.010783607
0.010287054
0.009808128
0.009346553
0.00890202
0.0084741928
0.0080627093
0.0076671851
0.0072872168
0.006922385
0.0065722577
0.0062363931
0.0059143419
0.00560565
0.0053098603
0.005026515
0.0047551567
0.0044953305
0.0042465854
0.0040084749
0.0037805589
0.0035624041
0.0033535847
0.0031536838
0.0029622931
0.002779014
0.0026034578
0.002435246
0.0022740104
0.0021193937
0.0019710491
0.0018286406
0.001691843
0.001560342
0.0014338337
0.0013120249
0.0011946329
0.001081385
0.00097201878
0.00086628157
0.00076393035
0.00066473147
0.00056846044
0.00047490166
0.00038384818
0.00029510143
0.00020847098
0.00012377425
4.0835661e-05
0.011349391
0.010832016
0.010332602
0.0098509514
0.0093867838
0.008939787
0.0085096209
0.0080959194
0.007698294
0.0073163368
0.006949624
0.0065977193
0.0062601762
0.0059365412
0.0056263558
0.0053291588
0.0050444878
0.0047718816
0.0045108813
0.0042610319
0.0040218833
0.0037929917
0.0035739204
0.0033642403
0.0031635311
0.0029713818
0.0027873908
0.0026111665
0.0024423279
0.0022805043
0.0021253359
0.0019764739
0.00183358
0.0016963271
0.001564399
0.00143749
0.0013153054
0.0011975607
0.001083982
0.00097430542
0.00086827704
0.00076565267
0.00066619761
0.00056968638
0.00047590247
0.0003846381
0.00029569395
0.00020887895
0.00012400991
4.0910684e-05
0.01139718
0.010877009
0.01037493
0.009890741
0.0094241591
0.0089748683
0.0085425249
0.0081267591
0.0077271783
0.0073433706
0.0069749079
0.0066213498
0.0062822457
0.005957138
0.0056455641
0.0053470587
0.0050611556
0.0047873896
0.0045252983
0.0042744228
0.0040343098
0.003804512
0.0035845894
0.0033741099
0.0031726504
0.0029797968
0.0027951449
0.0026183005
0.0024488802
0.002286511
0.002130831
0.001981489
0.001838145
0.0017004701
0.0015681461
0.0014408658
0.001318333
0.0012002618
0.0010863768
0.00097641303
0.00087011532
0.00076723844
0.0006675467
0.00057081369
0.00047682208
0.00038536334
0.00029623748
0.0002092528
0.0001242256
4.097924e-05
0.011441525
0.010918754
0.010414196
0.0099276472
0.0094588209
0.009007398
0.0085730314
0.0081553477
0.0077539504
0.0073684238
0.0069983361
0.0066432427
0.0063026894
0.0059762147
0.0056633521
0.0053636325
0.0050765861
0.0048017442
0.0045386407
0.0042868136
0.0040458061
0.003815168
0.0035944561
0.0033832356
0.0031810805
0.0029875742
0.0028023098
0.002624891
0.0024549318
0.0022920573
0.0021359034
0.001986117
0.0018423564
0.0017042908
0.0015716005
0.0014439769
0.0013211221
0.001202749
0.0010885811
0.00097835198
0.00087180561
0.00076869571
0.00066878568
0.00057184828
0.00047766542
0.00038602788
0.00029673505
0.00020959469
0.0001244226
4.1041733e-05
0.011482601
0.010957416
0.010450556
0.0099618173
0.0094909084
0.0090375076
0.0086012643
0.0081818019
0.0077787202
0.0073916
0.0070200058
0.0066634895
0.0063215932
0.0059938517
0.0056797951
0.0053789508
0.0050908455
0.0048150072
0.0045509665
0.0042982582
0.0040564227
0.0038250067
0.0036035643
0.0033916581
0.0031888593
0.0029947491
0.0028089182
0.002630968
0.0024605106
0.0022971688
0.0021405769
0.0019903799
0.0018462343
0.0017078078
0.0015747793
0.0014468386
0.0013236866
0.001205035
0.001090606
0.00098013228
0.00087335675
0.00077003224
0.00066992128
0.00057279588
0.00047843725
0.00038663555
0.00029718955
0.00020990659
0.00012460209
4.1098594e-05
0.011520579
0.010993155
0.010484163
0.0099933952
0.0095205575
0.0090653251
0.0086273444
0.0082062354
0.0078015948
0.0074129997
0.0070400116
0.0066821789
0.0063390403
0.0060101273
0.0056949667
0.0053930824
0.0051039981
0.0048272387
0.0045623317
0.0043088091
0.0040662084
0.0038340736
0.0036119564
0.0033994167
0.0031960235
0.0030013556
0.0028150016
0.0026365609
0.0024656435
0.0023018706
0.0021448745
0.0019942986
0.001849798
0.0017110388
0.0015776984
0.0014494656
0.0013260398
0.0012071317
0.0010924624
0.00098176357
0.00087477728
0.00077125548
0.00067095993
0.00057366196
0.00047914205
0.00038718986
0.00029760374
0.00021019056
0.00012476533
4.11502e-05
0.011555624
0.011026129
0.010515164
0.01002252
0.0095478999
0.0090909749
0.0086513888
0.0082287586
0.0078226778
0.0074327206
0.0070584452
0.006699397
0.0063551116
0.0060251172
0.0057089375
0.0054060936
0.005116106
0.0048384967
0.0045727906
0.0043185169
0.0040752105
0.0038424129
0.0036196734
0.0034065496
0.0032026085
0.0030074265
0.0028205905
0.0026416978
0.0024703567
0.0023061867
0.0021488183
0.0019978937
0.0018530663
0.0017140008
0.0015803736
0.001451872
0.0013281945
0.0012090506
0.0010941606
0.00098325509
0.00087607534
0.00077237257
0.00067190772
0.00057445157
0.0004797841
0.00038769446
0.00029798049
0.00021044855
0.00012491341
4.1196919e-05
0.011587896
0.011056488
0.010543703
0.010049328
0.0095730633
0.0091145774
0.008673511
0.0082494782
0.0078420698
0.007450857
0.0070753953
0.006715227
0.006369885
0.0060388945
0.0057217762
0.0054180485
0.0051272291
0.0048488373
0.0045823955
0.0043274303
0.0040834743
0.0038500667
0.0036267545
0.0034130934
0.0032086481
0.0030129933
0.0028257139
0.0026464057
0.0024746751
0.00231014
0.0021524296
0.0020011845
0.0018560569
0.0017167103
0.0015828197
0.0014540715
0.0013301631
0.001210803
0.0010957105
0.00098461564
0.00087725862
0.00077339009
0.00067277046
0.00057516989
0.00048036785