/*--------------------------------*- C++ -*----------------------------------*\
| =========                 |                                                 |
| \\      /  F ield         | OpenFOAM: The Open Source CFD Toolbox           |
|  \\    /   O peration     | Version:  2312                                  |
|   \\  /    A nd           | Website:  www.openfoam.com                      |
|    \\/     M anipulation  |                                                 |
\*---------------------------------------------------------------------------*/
FoamFile
{
    version     2.0;
    format      ascii;
    arch        "LSB;label=32;scalar=64";
    class       volScalarField;
    location    "0.05";
    object      k;
}
// * * * * * * * * * * * * * * * * * * * * * * * * * * * * * * * * * * * * * //

dimensions      [0 2 -2 0 0 0 0];

internalField   nonuniform List<scalar> 
3257
(
8.7084183
8.7126578
8.7184356
8.7257804
8.734704
8.7452143
8.7573185
8.7710231
8.7863343
8.8032584
8.8218016
8.8419702
8.8637704
8.8872086
8.9122911
8.9390246
8.9674155
8.9974706
9.0291966
9.0626003
9.0976882
9.1344671
9.1729435
9.2131238
9.2550143
9.2986209
9.3439495
9.3910056
9.4397942
9.4903202
9.5425878
9.5966011
9.6523632
9.7098772
9.7691453
9.8301692
9.89295
9.9574882
10.023784
10.091836
10.161642
10.233202
10.306511
10.381566
10.458364
10.536898
10.617164
10.699155
10.782865
10.868286
10.95541
8.7092348
8.7133563
8.7190293
8.7262799
8.7351184
8.7455521
8.7575866
8.7712281
8.7864822
8.803355
8.8218523
8.8419801
8.8637442
8.8871509
8.9122063
8.9389167
8.9672885
8.9973281
9.029042
9.0624367
9.0975187
9.1342943
9.17277
9.2129518
9.2548458
9.298458
9.3437937
9.3908584
9.4396569
9.4901938
9.5424734
9.5964992
9.6522744
9.7098018
9.7690834
9.8301209
9.8929151
9.9574663
10.023774
10.091838
10.161655
10.233224
10.306542
10.381604
10.458406
10.536944
10.61721
10.6992
10.782904
10.868315
10.955423
8.7097235
8.7136917
8.7192247
8.7263486
8.7350735
8.7454052
8.7573493
8.7709109
8.7860955
8.8029082
8.8213545
8.8414398
8.8631696
8.8865494
8.9115851
8.9382825
8.9666474
8.9966859
9.0284039
9.0618076
9.096903
9.1336961
9.1721929
9.2123991
9.2543204
9.2979622
9.3433298
9.3904281
9.4392616
9.4898346
9.5421509
9.5962138
9.6520263
9.7095905
9.7689085
9.8299813
9.8928095
9.9573932
10.023732
10.091824
10.161667
10.233259
10.306596
10.381674
10.458488
10.537032
10.6173
10.699285
10.782977
10.868368
10.955444
8.7102472
8.7140119
8.7193588
8.726315
8.7348887
8.7450853
8.7569097
8.7703664
8.78546
8.8021949
8.8205759
8.8406077
8.862295
8.8856429
8.9106564
8.9373407
8.965701
8.9957428
9.0274714
9.0608923
9.096011
9.1328329
9.1713633
9.2116076
9.2535708
9.2972579
9.3426735
9.3898221
9.4387077
9.489334
9.5417045
9.5958218
9.6516885
9.7093064
9.7686768
9.8298005
9.8926776
9.9573077
10.023689
10.091821
10.1617
10.233324
10.306687
10.381786
10.458614
10.537166
10.617434
10.699409
10.783082
10.868441
10.955473
8.7107005
8.7142223
8.7193492
8.7261061
8.7345011
8.7445386
8.7562228
8.7695571
8.7845453
8.8011911
8.8194982
8.8394705
8.861112
8.8844268
8.9094192
8.9360936
8.9644544
8.9945062
9.0262537
9.0597016
9.0948547
9.1317176
9.170295
9.2105915
9.2526116
9.2963593
9.3418389
9.389054
9.438008
9.4887042
9.5411451
9.5953331
9.6512699
9.7089569
9.7683947
9.8295834
9.8925228
9.9572116
10.023648
10.09183
10.161754
10.233416
10.306811
10.381934
10.458779
10.537338
10.617603
10.699564
10.78321
10.868529
10.955507
8.7109873
8.7142386
8.7191198
8.7256555
8.7338527
8.7437152
8.7552456
8.7684469
8.7833215
8.7998722
8.8181018
8.8380133
8.8596095
8.8828937
8.9078693
8.9345395
8.9629081
8.9929787
9.0247551
9.0582411
9.0934407
9.1303576
9.1689957
9.2093588
9.2514504
9.2952741
9.3408331
9.3881304
9.4371687
9.4879504
9.5404773
9.5947511
9.6507729
9.7085431
9.7680619
9.8293287
9.8923424
9.9571011
10.023602
10.091843
10.161819
10.233526
10.306958
10.382109
10.458972
10.537538
10.617798
10.699742
10.783357
10.86863
10.955546
8.711032
8.7139922
8.718611
8.7249113
8.7328991
8.7425769
8.7539464
8.7670093
8.7817671
8.7982215
8.8163741
8.8362268
8.8577815
8.8810404
8.9060056
8.9326797
8.9610651
8.9911646
9.0229809
9.0565169
9.0917755
9.1287597
9.1674723
9.2079161
9.250094
9.2940084
9.3396617
9.3870561
9.4361935
9.4870753
9.5397026
9.5940763
9.6501966
9.7080633
9.7676756
9.8290322
9.8921311
9.9569697
10.023545
10.091852
10.161888
10.233645
10.307118
10.3823
10.459183
10.537756
10.61801
10.699934
10.783516
10.868738
10.955587
8.7107687
8.7134262
8.7177732
8.7238307
8.7316035
8.7410928
8.7522993
8.7652233
8.7798654
8.7962259
8.8143054
8.8341045
8.8556241
8.878865
8.9038285
8.9305158
8.9589284
8.9890678
9.0209358
9.0545342
9.0898648
9.1269295
9.1657302
9.2062688
9.2485469
9.2925661
9.338328
9.3858336
9.4350839
9.4860795
9.5388207
9.5933073
9.6495386
9.7075136
9.7672307
9.8286877
9.8918817
9.9568093
10.023466
10.091848
10.161949
10.233762
10.307281
10.382497
10.4594
10.537983
10.618232
10.700135
10.783681
10.868851
10.955631
8.7101453
8.7124953
8.7165673
8.7223804
8.7299378
8.7392397
8.7502854
8.7630741
8.777605
8.7938774
8.8118904
8.8316435
8.8531364
8.8763687
8.9013405
8.9280517
8.9565027
8.9866938
9.0186258
9.0522991
9.0877146
9.124873
9.1637752
9.2044218
9.2468136
9.2909511
9.3368348
9.3844648
9.433841
9.4849631
9.5378303
9.5924416
9.6487954
9.7068897
9.7667218
9.8282888
9.8915869
9.9566117
10.023358
10.091821
10.161993
10.233867
10.307435
10.382688
10.459616
10.538209
10.618454
10.700338
10.783847
10.868965
10.955674
8.7091232
8.7111666
8.7149658
8.7205375
8.7278837
8.7370032
8.7478941
8.7605542
8.7749814
8.7911738
8.8091292
8.8288459
8.8503221
8.8735564
8.8985474
8.925294
8.9537952
8.9840502
9.0160584
9.0498193
9.0853324
9.1225973
9.1616137
9.2023812
9.2448994
9.2891678
9.3351857
9.3829522
9.4324662
9.4837263
9.5367308
9.5914776
9.6479642
9.7061874
9.766144
9.8278297
9.8912399
9.9563695
10.023212
10.091762
10.162011
10.23395
10.307572
10.382867
10.459822
10.538428
10.618671
10.700537
10.784012
10.869078
10.955718
8.7076768
8.7094197
8.7129525
8.71829
8.7254327
8.734378
8.7451228
8.7576635
8.7719968
8.7881193
8.8060277
8.8257188
8.8471896
8.8704373
8.8954593
8.9222531
8.9508165
8.9811476
9.0132443
9.0471049
9.0827278
9.1201114
9.1592542
9.2001546
9.2428111
9.287222
9.3333854
9.3812996
9.4309622
9.4823708
9.5355227
9.5904146
9.6470432
9.7054043
9.7654935
9.8273058
9.8908355
9.9560765
10.023022
10.091664
10.161995
10.234005
10.307686
10.383025
10.460011
10.538633
10.618876
10.700728
10.784171
10.869188
10.95576
8.7057935
8.7072462
8.710522
8.7156355
8.7225852
8.7313671
8.7419768
8.7544094
8.7686601
8.7847243
8.8025973
8.8222745
8.8437518
8.8670248
8.8920897
8.9189428
8.9475805
8.9779995
9.0101965
9.0441687
9.079913
9.1174268
9.1567073
9.1977516
9.2405572
9.2851211
9.3314405
9.3795123
9.4293332
9.4808997
9.5342079
9.5892536
9.6460324
9.7045391
9.7647684
9.8267141
9.8903699
9.9557286
10.022782
10.091523
10.161941
10.234026
10.307769
10.383157
10.460178
10.53882
10.619067
10.700906
10.784321
10.869292
10.955801
8.7034723
8.7046474
8.7076788
8.712581
8.7193503
8.7279815
8.7384686
8.7508056
8.7649863
8.7810046
8.7988546
8.8185303
8.8400262
8.8633366
8.8884564
8.9153805
8.9441041
8.9746224
9.0069311
9.0410258
9.0769025
9.114557
9.1539855
9.1951839
9.2381483
9.2828748
9.3293593
9.3775976
9.4275853
9.4793178
9.5327902
9.5879972
9.6449333
9.7035924
9.7639682
9.8260536
9.8898412
9.9553229
10.02249
10.091334
10.161843
10.234008
10.307817
10.383258
10.460319
10.538984
10.61924
10.701071
10.784461
10.86939
10.95584
8.7007225
8.7016346
8.7044364
8.7091416
8.7157447
8.724239
8.7346173
8.7468721
8.7609959
8.7769813
8.7948209
8.8145075
8.8360341
8.8593939
8.8845802
8.9115867
8.9404072
8.9710357
9.0034665
9.037694
9.0737129
9.1115177
9.1511034
9.1924648
9.2355968
9.2804942
9.3271518
9.3755643
9.4257262
9.4776318
9.531275
9.5866497
9.6437492
9.7025666
9.7630944
9.8253247
9.8892491
9.9548587
10.022144
10.091095
10.1617
10.233949
10.307829
10.383327
10.46043
10.539123
10.619391
10.701219
10.784589
10.869481
10.955876
8.6975618
8.6982273
8.7008154
8.7053393
8.7117914
8.7201635
8.7304472
8.7426336
8.756714
8.7726795
8.7905214
8.8102311
8.8318004
8.8552209
8.8804848
8.9075844
8.9365121
8.9672608
8.9998233
9.0341928
9.0703627
9.1083264
9.1480776
9.1896098
9.2329168
9.2779922
9.3248298
9.3734229
9.4237652
9.4758496
9.5296694
9.585217
9.6424851
9.7014655
9.7621499
9.8245295
9.8885949
9.9543365
10.021744
10.090806
10.161511
10.233847
10.307802
10.383361
10.460511
10.539236
10.619521
10.701349
10.784703
10.869564
10.955909
8.6940155
8.6944518
8.6968432
8.7012019
8.7075185
8.7157835
8.7259871
8.7381191
8.7521694
8.7681278
8.7859843
8.805729
8.8273522
8.8508443
8.8761962
8.9033987
8.9324431
8.9633209
8.9960237
9.0305434
9.0668721
9.1050021
9.1449256
9.1866353
9.2301235
9.2753829
9.322406
9.3711851
9.4217127
9.4739809
9.5279815
9.5837065
9.641147
9.7002943
9.7611391
9.8236715
9.8878815
9.9537584
10.021291
10.090468
10.161276
10.233703
10.307736
10.38336
10.46056
10.539321
10.619627
10.701461
10.784805
10.869638
10.955939
8.6901148
8.6903397
8.6925515
8.6967616
8.7029585
8.7111314
8.7212692
8.7333604
8.7473936
8.7633573
8.7812402
8.801031
8.8227187
8.8462924
8.8717417
8.8990562
8.9282257
8.9592406
8.9920911
9.026768
9.0632621
9.1015645
9.1416663
9.1835588
9.2272334
9.2726815
9.3198945
9.3688637
9.4195805
9.4720359
9.526221
9.5821263
9.6397425
9.6990595
9.7600674
9.8227554
9.8871126
9.9531275
10.020788
10.090082
10.160997
10.233518
10.307632
10.383324
10.460578
10.539379
10.61971
10.701554
10.784892
10.869703
10.955966
8.685895
8.6859265
8.6879762
8.6920539
8.6981466
8.7062421
8.716328
8.7283916
8.7424202
8.7584009
8.7763211
8.7961683
8.8179302
8.8415947
8.8671498
8.8945841
8.9238862
8.955045
8.9880496
9.0228896
9.0595545
9.0980343
9.1383188
9.1803984
9.2242632
9.2699035
9.3173097
9.366472
9.4173808
9.470026
9.5243977
9.5804857
9.6382795
9.6977683
9.7589412
9.8217867
9.886293
9.9524478
10.020239
10.089652
10.160675
10.233293
10.307491
10.383254
10.460566
10.53941
10.61977
10.701628
10.784965
10.86976
10.955991
8.6813949
8.6812504
8.6831552
8.6871164
8.6931199
8.7011521
8.7111995
8.7232479
8.7372834
8.753292
8.7712597
8.7911727
8.8130175
8.8367808
8.8624493
8.8900102
8.919451
8.9507594
8.9839234
9.0189311
9.0557711
9.094432
9.1349028
9.1771725
9.2212302
9.2670651
9.3146666
9.3640239
9.4151262
9.4679627
9.5225225
9.5787943
9.6367668
9.6964285
9.7577675
9.8207715
9.8854281
9.9517242
10.019647
10.089181
10.160314
10.23303
10.307315
10.383151
10.460524
10.539415
10.619808
10.701684
10.785025
10.869809
10.956012
8.6766549
8.6763516
8.6781279
8.6819878
8.6879164
8.6958988
8.70592
8.7179648
8.732018
8.7480644
8.7660887
8.786076
8.8080114
8.8318804
8.8576685
8.8853618
8.9149465
8.9464091
8.9797363
9.0149154
9.0519335
9.0907783
9.1314376
9.1738993
9.2181514
9.2641823
9.3119801
9.3615331
9.4128297
9.4658579
9.520606
9.577062
9.6352135
9.6950483
9.7565537
9.8197166
9.8845238
9.9509618
10.019016
10.088673
10.159917
10.232734
10.307106
10.383019
10.460454
10.539395
10.619824
10.701723
10.785072
10.869849
10.95603
8.671716
8.6712705
8.6729339
8.6767069
8.6825741
8.6905191
8.7005257
8.7125776
8.7266583
8.7427514
8.7608404
8.7809093
8.8029419
8.8269225
8.8528355
8.8806657
8.9103982
8.9420184
8.9755118
9.0108646
9.0480628
9.087093
9.127942
9.1705965
9.2150436
9.2612706
9.3092648
9.3590134
9.4105038
9.4637233
9.5186592
9.5752987
9.6336287
9.693636
9.7553072
9.8186287
9.8835864
9.9501661
10.018353
10.088132
10.159489
10.232406
10.306868
10.382858
10.460359
10.539353
10.619821
10.701745
10.785106
10.869881
10.956046
8.6666193
8.6660472
8.6676123
8.6713121
8.6771304
8.6850495
8.6950521
8.7071206
8.7212375
8.7373851
8.7555459
8.7757026
8.7978378
8.8219348
8.8479768
8.8759475
8.9058307
8.9376108
8.9712723
9.0068
9.0441793
9.0833954
9.1244341
9.1672812
9.2119228
9.2583453
9.3065348
9.3564778
9.4081609
9.4615704
9.5166927
9.5735143
9.6320213
9.6921999
9.7540357
9.8175146
9.8826219
9.9493427
10.017662
10.087563
10.159032
10.232051
10.306603
10.382672
10.46024
10.539288
10.619799
10.701752
10.785128
10.869906
10.956059
8.6614048
8.6607209
8.6622012
8.6658403
8.6716213
8.6795249
8.689533
8.7016267
8.7157874
8.7319963
8.7502348
8.7704844
8.7927268
8.8169439
8.8431179
8.8712314
8.9012672
8.9332085
8.9670388
9.0027419
9.040302
9.0797035
9.1209311
9.1639697
9.2088044
9.2554206
9.3038037
9.3539392
9.4058128
9.4594101
9.5147168
9.5717183
9.6304003
9.690748
9.7527467
9.8163813
9.8816367
9.9484973
10.016947
10.086971
10.158551
10.231672
10.306315
10.382464
10.4601
10.539205
10.619759
10.701744
10.78514
10.869923
10.956069
8.656111
8.6553289
8.656737
8.6603269
8.6660808
8.6739785
8.6840004
8.6961268
8.7103379
8.7266139
8.744935
8.7652817
8.7876345
8.8119744
8.8382824
8.8665401
8.8967293
8.9288321
8.962831
8.9987088
9.0364488
9.0760342
9.117449
9.160677
9.2057026
9.2525101
9.3010841
9.3514094
9.4034707
9.457253
9.512741
9.5699197
9.6287739
9.6892882
9.7514472
9.8152352
9.8806366
9.9476353
10.016215
10.086359
10.15805
10.231272
10.306006
10.382235
10.459941
10.539103
10.619704
10.701724
10.785141
10.869934
10.956077
8.6507741
8.6499063
8.6512537
8.6548048
8.6605411
8.6684411
8.6784842
8.6906497
8.7049168
8.7212645
8.7396721
8.760119
8.7825847
8.807049
8.8334922
8.8618946
8.8922371
8.9245007
8.9586672
8.9947182
9.032636
9.0724032
9.1140026
9.1574173
9.2026306
9.2496262
9.2983878
9.3488994
9.4011449
9.4551086
9.5107746
9.568127
9.62715
9.6878277
9.750144
9.8140827
9.8796276
9.9467619
10.015469
10.085732
10.157533
10.230855
10.30568
10.38199
10.459765
10.538986
10.619635
10.701691
10.785133
10.869939
10.956083
8.645428
8.6444859
8.6457829
8.6493047
8.6550317
8.6629413
8.673012
8.685222
8.6995496
8.7159727
8.7344697
8.755019
8.777599
8.8021886
8.828767
8.8573137
8.8878086
8.9202317
8.9545638
8.9907857
9.0288788
9.0688247
9.1106054
9.1542032
9.1996006
9.2467804
9.2957256
9.3464193
9.398845
9.452986
9.5088259
9.566348
9.6255361
9.6863734
9.7488435
9.8129296
9.8786149
9.9458823
10.014715
10.085094
10.157004
10.230425
10.30534
10.381729
10.459574
10.538855
10.619553
10.701647
10.785117
10.869939
10.956087
8.6401037
8.6390976
8.6403537
8.6438545
8.6495795
8.657505
8.6676086
8.6798677
8.6942593
8.7107607
8.7293491
8.750002
8.7726969
8.7974118
8.8241248
8.8528146
8.8834601
8.9160405
8.9505355
8.9869253
9.0251903
9.0653113
9.1072694
9.1510461
9.1966233
9.2439828
9.2931071
9.3439785
9.3965796
9.4508934
9.5069025
9.56459
9.6239387
9.6849317
9.7475516
9.8117814
9.8776038
9.9450011
10.013956
10.08445
10.156466
10.229985
10.304988
10.381456
10.459371
10.538713
10.61946
10.701594
10.785093
10.869933
10.956088
8.6348294
8.6337685
8.6349921
8.6384794
8.6442087
8.6521555
8.6622965
8.6746081
8.6890665
8.705648
8.7243291
8.7450861
8.7678957
8.7927351
8.8195814
8.8484123
8.879206
8.9119408
8.9465956
8.9831496
9.0215825
9.0618743
9.1040053
9.1479564
9.1937084
9.2412427
9.290541
9.3415849
9.3943565
9.448838
9.5050115
9.5628594
9.6223642
9.6835081
9.7462737
9.8106432
9.8765988
9.9441226
10.013197
10.083803
10.155922
10.229537
10.304627
10.381174
10.459158
10.53856
10.619358
10.701532
10.785062
10.869923
10.956088
8.6296301
8.6285227
8.6297215
8.6332018
8.6389408
8.6469134
8.6570953
8.6694621
8.6839892
8.7006521
8.7194262
8.740287
8.7632106
8.7881728
8.8151503
8.8441199
8.8750588
8.9079445
8.9427552
8.9794693
9.0180657
9.0585235
9.1008225
9.1449427
9.1908643
9.2385681
9.2880349
9.3392459
9.3921825
9.4468262
9.5031588
9.5611621
9.6208178
9.682108
9.7450146
9.8095193
9.8756042
9.9432508
10.012441
10.083155
10.155376
10.229084
10.30426
10.380884
10.458937
10.538398
10.619247
10.701463
10.785025
10.869909
10.956087
8.624527
8.6233833
8.6245625
8.6280414
8.6337947
8.6417966
8.6520222
8.6644461
8.6790432
8.6957878
8.7146546
8.7356185
8.7586543
8.7837375
8.8108436
8.8399487
8.8710292
8.904062
8.9390243
8.9758938
9.0146486
9.0552674
9.097729
9.1420128
9.1880984
9.2359658
9.2855954
9.3369677
9.3900635
9.4448639
9.50135
9.559503
9.6193045
9.6807359
9.7437785
9.8084141
9.8746238
9.9423892
10.011691
10.082512
10.154831
10.22863
10.303889
10.380589
10.458709
10.538229
10.619129
10.701387
10.784982
10.86989
10.956084
8.6183675
8.6195335
8.6230153
8.6287865
8.6368205
8.6470917
8.6595741
8.6742415
8.6910677
8.7100265
8.7310918
8.754238
8.7794394
8.8066711
8.8359081
8.8671263
8.9003017
8.9354108
8.9724307
9.0113388
9.052113
9.0947315
9.139173
9.1854166
9.2334418
9.2832281
9.3347557
9.3880047
9.4429558
9.4995895
9.5578868
9.6178285
9.6793957
9.7425695
9.8073309
9.8736611
9.9415411
10.010952
10.081874
10.154289
10.228176
10.303516
10.38029
10.458476
10.538055
10.619005
10.701306
10.784935
10.869869
10.95608
8.6134968
8.6146505
8.6181382
8.6239299
8.631998
8.6423162
8.6548576
8.6695953
8.6865023
8.7055517
8.7267166
8.7499705
8.7752872
8.8026408
8.8320059
8.8633573
8.8966706
8.9319216
8.9690865
9.0081423
9.0490661
9.0918355
9.1364288
9.1828242
9.2310008
9.2809376
9.3326142
9.3860103
9.441106
9.4978814
9.556317
9.6163933
9.6780909
9.7413906
9.8062731
9.872719
9.9407093
10.010224
10.081245
10.153752
10.227725
10.303144
10.379989
10.45824
10.537876
10.618877
10.70122
10.784884
10.869845
10.956074
8.608779
8.609925
8.6134214
8.6192359
8.6273397
8.6377056
8.6503061
8.6651135
8.6821001
8.7012383
8.7225003
8.7458591
8.7712876
8.7987594
8.8282481
8.8597282
8.8931744
8.9285619
8.9658663
9.0050639
9.0461313
9.0890455
9.1337842
9.1803252
9.2286468
9.2787277
9.330547
9.3840839
9.4393179
9.496229
9.554797
9.6150021
9.6768246
9.7402448
9.8052432
9.8718002
9.9398963
10.009512
10.080627
10.153222
10.227278
10.302773
10.379688
10.458002
10.537695
10.618745
10.70113
10.784829
10.869818
10.956068
8.6042243
8.6053666
8.6088745
8.6147133
8.6228537
8.6332676
8.6459269
8.6608031
8.6778677
8.6970924
8.7184489
8.7419093
8.7674459
8.7950316
8.8246396
8.8562434
8.8898172
8.9253357
8.9627738
9.0021073
9.0433122
9.0863649
9.1312426
9.1779227
9.2263829
9.2766014
9.3285569
9.3822282
9.4375943
9.4946348
9.5533292
9.6136573
9.6755991
9.7391345
9.8042437
9.8709069
9.9391043
10.008816
10.080022
10.152702
10.226837
10.302406
10.379389
10.457764
10.537512
10.61861
10.701037
10.784771
10.869789
10.95606
8.5998413
8.600983
8.6045044
8.610369
8.6185465
8.6290084
8.6417256
8.6566692
8.6738098
8.6931186
8.7145665
8.738125
8.7637658
8.7914611
8.8211835
8.852906
8.8866021
8.9222458
8.9598118
8.9992751
9.0406112
9.0837961
9.1288064
9.175619
9.2242112
9.2745609
9.3266461
9.3804453
9.4359373
9.493101
9.5519158
9.612361
9.6744164
9.7380616
9.8032765
9.870041
9.9383351
10.008139
10.079432
10.152194
10.226405
10.302044
10.379092
10.457527
10.537328
10.618473
10.700942
10.784711
10.869758
10.956052
8.5956364
8.5967801
8.6003167
8.6062078
8.6144227
8.624932
8.6377061
8.6527153
8.6699298
8.6893199
8.7108559
8.7345088
8.7602497
8.7880501
8.817882
8.8497179
8.8835308
8.9192942
8.9569821
8.996569
9.03803
9.0813407
9.1264771
9.1734157
9.2221334
9.2726077
9.3248161
9.3787369
9.4343484
9.4916292
9.5505583
9.6111149
9.6732782
9.7370278
9.8023432
9.8692041
9.9375902
10.007481
10.078857
10.151697
10.225981
10.301689
10.378799
10.457291
10.537144
10.618336
10.700845
10.78465
10.869726
10.956043
8.5916143
8.5927619
8.5963148
8.602233
8.610485
8.621041
8.6338707
8.6489437
8.6662295
8.6856979
8.7073187
8.7310622
8.7568988
8.7847997
8.8147362
8.8466802
8.8806044
8.9164815
8.9542853
8.9939897
9.0355694
9.0789994
9.1242555
9.1713136
9.2201504
9.2707427
9.323068
9.3771039
9.4328286
9.4902204
9.5492579
9.6099199
9.6721856
9.7360342
9.801445
9.8683974
9.9368711
10.006845
10.0783
10.151215
10.225569
10.301341
10.378511
10.457058
10.536961
10.618198
10.700747
10.784586
10.869692
10.956034
8.587778
8.5889308
8.5925009
8.5984462
8.606735
8.6173366
8.6302203
8.645355
8.6627096
8.6822532
8.7039552
8.7277852
8.7537133
8.7817099
8.8117459
8.8437929
8.8778227
8.9138079
8.9517215
8.9915373
9.0332294
9.0767725
9.1221418
9.169313
9.2182623
9.2689663
9.321402
9.3755468
9.4313786
9.4888752
9.5480152
9.6087771
9.6711396
9.7350818
9.8005829
9.867622
9.9361786
10.006232
10.077762
10.150747
10.225167
10.301002
10.378229
10.456829
10.53678
10.618061
10.700649
10.784522
10.869657
10.956024
8.5841286
8.5852878
8.5888754
8.5948479
8.6031727
8.6138188
8.6267547
8.6419488
8.6593694
8.6789851
8.7007647
8.7246772
8.7506924
8.77878
8.8089105
8.841055
8.8751849
8.9112724
8.9492901
8.9892112
9.0310095
9.0746593
9.1201355
9.1674134
9.2164689
9.2672783
9.3198182
9.3740658
9.4299985
9.4875941
9.5468307
9.6076867
9.6701406
9.7341713
9.7997576
9.8668787
9.9355137
10.005642
10.077242
10.150295
10.224778
10.300672
10.377954
10.456605
10.536602
10.617925
10.70055
10.784457
10.869622
10.956013
8.5806662
8.5818324
8.5854378
8.591437
8.5997971
8.6104864
8.6234726
8.6387238
8.6562076
8.675892
8.6977455
8.7217366
8.7478343
8.7760082
8.8062283
8.8384651
8.8726897
8.9088737
8.9469896
8.98701
9.0289084
9.0726588
9.1182357
9.1656142
9.2147697
9.2656782
9.3183161
9.3726604
9.4286881
9.4863768
9.5457044
9.606649
9.669189
9.7333029
9.7989696
9.8661679
9.9348769
10.005076
10.076743
10.149859
10.224402
10.300352
10.377686
10.456385
10.536427
10.61779
10.700453
10.784392
10.869586
10.956002
8.5773895
8.5785633
8.5821864
8.5882119
8.5966063
8.6073372
8.6203719
8.6356777
8.6532217
8.6729717
8.6948954
8.7189609
8.7451369
8.7733925
8.8036971
8.836021
8.8703348
8.9066099
8.9448181
8.984932
9.0269246
9.0707696
9.1164411
9.163914
9.2131634
9.264165
9.316895
9.37133
9.4274469
9.4852231
9.5446361
9.6056639
9.6682847
9.7324769
9.7982191
9.86549
9.9342687
10.004534
10.076265
10.149441
10.22404
10.300043
10.377427
10.456172
10.536256
10.617658
10.700356
10.784328
10.86955
10.955991
8.5742962
8.5754778
8.5791184
8.5851696
8.5935972
8.6043683
8.6174495
8.6328074
8.6504089
8.6702211
8.6922112
8.7163472
8.7425972
8.7709297
8.8013141
8.83372
8.8681178
8.9044784
8.9427734
8.982975
9.025056
9.0689896
9.1147499
9.1623112
9.2116486
9.2627374
9.3155537
9.3700737
9.4262741
9.4841322
9.5436252
9.604731
9.6674276
9.7316931
9.7975062
9.8648453
9.9336893
10.004017
10.075807
10.14904
10.223692
10.299745
10.377176
10.455965
10.53609
10.617529
10.700261
10.784263
10.869514
10.95598
8.5713832
8.5725725
8.5762303
8.5823066
8.5907665
8.6015762
8.6147018
8.6301094
8.6477654
8.6676365
8.6896895
8.713892
8.7402116
8.7686167
8.799076
8.8315589
8.8660355
8.9024763
8.9408527
8.9811364
9.0233001
9.0673167
9.1131599
9.160804
9.2102236
9.261394
9.3142908
9.3688902
9.4251688
9.4831033
9.5426712
9.6038498
9.6666172
9.7309514
9.7968307
9.8642336
9.9331388
10.003525
10.075371
10.148657
10.223359
10.299459
10.376935
10.455765
10.535928
10.617403
10.700167
10.7842
10.869477
10.955969
8.5686465
8.5698433
8.573518
8.5796187
8.5881098
8.5989566
8.6121247
8.6275795
8.6452871
8.6652138
8.6873262
8.7115912
8.7379764
8.7664495
8.7969792
8.8295343
8.8640846
8.9006005
8.9390529
8.9794134
9.0216542
9.0657483
9.1116689
9.1593901
9.2088864
9.2601328
9.3131048
9.3677782
9.4241295
9.4821354
9.541773
9.6030196
9.665853
9.7302512
9.7961924
9.8636549
9.9326173
10.003058
10.074957
10.148292
10.223042
10.299186
10.376703
10.455572
10.535771
10.61728
10.700076
10.784137
10.869442
10.955958
8.5660814
8.5672855
8.5709767
8.5771012
8.5856225
8.596505
8.6097135
8.6252131
8.6429695
8.6629486
8.6851167
8.7094406
8.7358872
8.7644242
8.7950196
8.8276423
8.8622615
8.8988474
8.9373707
8.9778027
9.0201155
9.0642816
9.1102743
9.1580673
9.2076349
9.2589519
9.3119937
9.366736
9.423155
9.4812272
9.5409296
9.6022395
9.6651344
9.7295921
9.7955909
9.8631089
9.9321246
10.002617
10.074564
10.147945
10.222739
10.298925
10.376481
10.455387
10.535621
10.617161
10.699987
10.784076
10.869406
10.955946
8.5636828
8.5648935
8.5686011
8.5747491
8.5832997
8.5942163
8.6074632
8.6230052
8.6408075
8.6608359
8.6830565
8.7074354
8.7339396
8.7625363
8.7931932
8.8258788
8.8605622
8.8972133
8.9358025
8.976301
9.0186806
9.0629136
9.1089732
9.1568328
9.2064665
9.2578492
9.3109558
9.3657619
9.4222436
9.4803774
9.5401399
9.6015084
9.6644603
9.7289734
9.7950256
9.8625951
9.9316604
10.0022
10.074193
10.147617
10.222452
10.298677
10.37627
10.45521
10.535476
10.617047
10.699901
10.784017
10.869372
10.955935
8.5614447
8.5626617
8.5663856
8.5725568
8.5811359
8.5920854
8.6053688
8.6209506
8.6387961
8.6588708
8.6811404
8.7055709
8.7321289
8.7607812
8.7914954
8.8242396
8.8589827
8.8956943
8.9343447
8.9749048
9.0173463
9.0616413
9.1077627
9.1556839
9.2053789
9.2568222
9.3099887
9.3648539
9.4213937
9.4795843
9.5394025
9.6008253
9.66383
9.7283942
9.794496
9.8621133
9.9312245
10.001808
10.073843
10.147307
10.222181
10.298441
10.376069
10.455041
10.535338
10.616937
10.699818
10.783959
10.869338
10.955924
8.559361
8.5605836
8.5643243
8.5705188
8.5791257
8.5901066
8.6034246
8.619044
8.63693
8.6570479
8.6793633
8.703842
8.7304501
8.7591542
8.7899216
8.8227202
8.8575187
8.8942863
8.9329933
8.9736104
9.016109
9.0604613
9.1066398
9.154618
9.2043694
9.2558687
9.3090904
9.3640101
9.4206034
9.4788465
9.5387161
9.6001889
9.6632423
9.7278538
9.7940012
9.8616627
9.9308164
10.001441
10.073514
10.147016
10.221925
10.298219
10.375878
10.454881
10.535206
10.616832
10.699738
10.783903
10.869305
10.955913
8.5574249
8.5586527
8.5624112
8.5686293
8.5772635
8.5882745
8.6016251
8.6172798
8.6352035
8.6553618
8.6777199
8.7022435
8.7288982
8.7576505
8.7884673
8.8213162
8.8561658
8.8929853
8.9317445
8.9724141
9.0149654
9.0593703
9.1056015
9.1536319
9.2034353
9.254986
9.3082586
9.3632284
9.4198709
9.4781623
9.538079
9.5995979
9.6626961
9.7273511
9.7935406
9.8612427
9.9304355
10.001097
10.073207
10.146743
10.221685
10.29801
10.375699
10.454729
10.535081
10.616732
10.699662
10.78385
10.869274
10.955903
8.555629
8.556862
8.56064
8.5668826
8.5755437
8.5865835
8.5999648
8.6156522
8.6336112
8.653807
8.6762049
8.7007701
8.7274682
8.7562651
8.7871276
8.8200231
8.8549198
8.8917869
8.9305941
8.971312
9.0139117
9.058365
9.1046444
9.1527228
9.2025739
9.2541717
9.3074909
9.3625066
9.4191942
9.4775299
9.5374899
9.599051
9.6621903
9.7268851
9.7931133
9.8608527
9.9300814
10.000778
10.072921
10.146488
10.22146
10.297814
10.37553
10.454587
10.534963
10.616637
10.69959
10.783798
10.869243
10.955893
8.5539648
8.5552045
8.5590047
8.5652729
8.5739606
8.5850278
8.5984378
8.6141558
8.6321473
8.6523779
8.6748128
8.6994167
8.7261549
8.7549931
8.7858978
8.8188361
8.8537762
8.8906871
8.9295383
8.9703004
9.0129443
9.0574419
9.1037653
9.1518876
9.2017822
9.2534232
9.3067849
9.3618425
9.4185714
9.4769474
9.536947
9.5985466
9.6617235
9.7264548
9.7927183
9.8604918
9.9297534
10.000482
10.072655
10.146251
10.221251
10.297631
10.375372
10.454453
10.534852
10.616548
10.699521
10.78375
10.869214
10.955883
8.552422
8.5536738
8.5574993
8.5637949
8.5725086
8.5836018
8.5970385
8.6127846
8.6308062
8.6510691
8.6735381
8.6981779
8.7249533
8.7538296
8.784773
8.8177507
8.8527306
8.8896814
8.9285729
8.9693754
9.0120597
9.0565975
9.1029612
9.1511234
9.2010576
9.2527377
9.3061382
9.3612339
9.4180003
9.4764131
9.5364487
9.5980835
9.6612945
9.7260591
9.7923547
9.8601593
9.9294509
10.000208
10.072409
10.146032
10.221057
10.297461
10.375225
10.454328
10.534748
10.616464
10.699457
10.783704
10.869187
10.955874
8.5509872
8.5522654
8.5561185
8.562443
8.5711824
8.5823
8.5957612
8.611533
8.6295822
8.6498748
8.6723755
8.6970485
8.7238582
8.7527696
8.7837487
8.8167623
8.8517785
8.8887659
8.927694
8.9685331
9.011254
9.0558285
9.1022285
9.150427
9.2003971
9.2521128
9.3055483
9.3606786
9.417479
9.4759252
9.5359933
9.5976599
9.660902
9.7256966
9.7920215
9.8598543
9.9291731
9.9999563
10.072182
10.14583
10.220877
10.297304
10.375089
10.454212
10.534651
10.616386
10.699396
10.783661
10.869161
10.955865
8.5496401
8.5509803
8.5548579
8.5612121
8.5699766
8.5811167
8.5946003
8.6103954
8.6284697
8.6487896
8.6713196
8.6960233
8.7228647
8.7518083
8.78282
8.8158665
8.8509157
8.8879361
8.9268974
8.9677697
9.0105238
9.0551313
9.1015643
9.1497954
9.1997979
9.2515457
9.3050129
9.3601744
9.4170054
9.4754816
9.5355791
9.5972745
9.6605445
9.7253663
9.7917175
9.8595758
9.9289193
9.9997262
10.071975
10.145644
10.220713
10.29716
10.374964
10.454105
10.534562
10.616313
10.69934
10.78362
10.869136
10.955856
8.5498058
8.5537137
8.5600974
8.568886
8.5800466
8.59355
8.6093659
8.627463
8.647808
8.670365
8.6950971
8.7219677
8.7509409
8.7819823
8.8150587
8.8501377
8.8871881
8.9261793
8.9670815
9.0098655
9.0545027
9.1009652
9.1492256
9.1992573
9.2510338
9.3045294
9.3597188
9.4165774
9.4750805
9.5352045
9.5969256
9.6602207
9.725067
9.7914418
9.8593231
9.9286886
9.9995168
10.071786
10.145475
10.220563
10.297028
10.374849
10.454007
10.534479
10.616246
10.699288
10.783583
10.869114
10.955849
8.5487506
8.5526843
8.5590939
8.5679053
8.5790842
8.592605
8.6084392
8.6265566
8.6469246
8.6695066
8.694265
8.7211624
8.7501626
8.7812311
8.8143345
8.8494405
8.8865178
8.9255358
8.9664647
9.0092754
9.0539391
9.100428
9.1487147
9.1987723
9.2505744
9.3040954
9.3593098
9.4161928
9.4747201
9.5348676
9.5966117
9.6599292
9.7247973
9.7911933
9.859095
9.9284803
9.9993276
10.071615
10.145322
10.220426
10.296907
10.374745
10.453917
10.534404
10.616185
10.69924
10.783549
10.869093
10.955841
8.547772
8.5517692
8.5581974
8.5670295
8.5782242
8.5917597
8.6076095
8.625745
8.646134
8.6687392
8.693522
8.7204441
8.7494689
8.7805619
8.8136896
8.8488197
8.8859211
8.924963
8.9659158
9.0087501
9.0534374
9.0999497
9.1482596
9.1983402
9.2501651
9.3037085
9.358945
9.4158498
9.4743984
9.5345667
9.5963312
9.6596686
9.7245559
9.7909707
9.8588906
9.9282935
9.9991577
10.071462
10.145184
10.220303
10.296799
10.37465
10.453836
10.534336
10.61613
10.699197
10.783517
10.869074
10.955835
8.5509578
8.5574033
8.5662536
8.5774613
8.5910086
8.6068715
8.6250228
8.6454311
8.6680579
8.6928633
8.719808
8.7488553
8.7799703
8.8131197
8.8482714
8.885394
8.9244571
8.9654309
9.0082862
9.0529943
9.0995272
9.1478575
9.1979583
9.2498032
9.3033663
9.3586223
9.4155461
9.4741134
9.5343001
9.5960825
9.6594373
9.7243417
9.790773
9.8587088
9.9281272
9.9990064
10.071325
10.145061
10.220194
10.296702
10.374566
10.453763
10.534275
10.61608
10.699158
10.783489
10.869057
10.955829
8.5502595
8.5567079
8.5655725
8.5767902
8.5903465
8.6062197
8.6243845
8.6448107
8.6674577
8.6922841
8.7192496
8.7483172
8.7794519
8.8126207
8.8477914
8.8849328
8.9240145