/*--------------------------------*- C++ -*----------------------------------*\
| =========                 |                                                 |
| \\      /  F ield         | OpenFOAM: The Open Source CFD Toolbox           |
|  \\    /   O peration     | Version:  2312                                  |
|   \\  /    A nd           | Website:  www.openfoam.com                      |
|    \\/     M anipulation  |                                                 |
\*---------------------------------------------------------------------------*/
FoamFile
{
    version     2.0;
    format      ascii;
    arch        "LSB;label=32;scalar=64";
    class       volScalarField;
    location    "0.05";
    object      nut;
}
// * * * * * * * * * * * * * * * * * * * * * * * * * * * * * * * * * * * * * //

dimensions      [0 2 -1 0 0 0 0];

internalField   nonuniform List<scalar> 
3257
(
0.042759753
0.043034426
0.043312661
0.043594484
0.043879916
0.044168976
0.044461689
0.044758079
0.045058172
0.045361998
0.045669586
0.045980969
0.046296184
0.046615266
0.046938252
0.047265183
0.047596101
0.047931046
0.048270064
0.048613199
0.048960495
0.049312
0.049667759
0.050027821
0.050392233
0.050761042
0.051134296
0.051512045
0.051894336
0.052281216
0.052672736
0.05306894
0.053469879
0.053875597
0.054286138
0.054701549
0.055121874
0.055547161
0.055977451
0.05641279
0.056853219
0.057298779
0.05774951
0.05820545
0.058666637
0.059133107
0.059604896
0.060082038
0.060564571
0.061052531
0.061545968
0.042757119
0.043031914
0.043310283
0.043592251
0.043877838
0.044167066
0.044459953
0.044756522
0.0450568
0.045360814
0.045668595
0.045980174
0.046295586
0.046614867
0.046938055
0.047265189
0.047596311
0.047931461
0.048270684
0.048614023
0.048961524
0.049313232
0.049669194
0.050029456
0.050394065
0.05076307
0.051136518
0.051514457
0.051896935
0.052283998
0.052675696
0.053072075
0.053473182
0.053879063
0.05428976
0.05470532
0.055125789
0.05555121
0.055981629
0.056417087
0.056857625
0.057303285
0.057754104
0.05821012
0.05867137
0.059137887
0.059609704
0.060086852
0.060569357
0.061057236
0.061550493
0.042749492
0.043024629
0.043303356
0.043585696
0.04387167
0.044161294
0.044454587
0.044751572
0.045052273
0.045356717
0.045664933
0.045976952
0.046292807
0.046612534
0.04693617
0.047263752
0.047595322
0.04793092
0.048270588
0.04861437
0.048962311
0.049314454
0.049670847
0.050031534
0.050396563
0.05076598
0.051139832
0.051518167
0.051901032
0.052288474
0.052680538
0.053077273
0.053478724
0.053884933
0.054295946
0.054711807
0.055132561
0.055558253
0.055988924
0.056424615
0.056865368
0.05731122
0.057762208
0.058218369
0.058679735
0.05914634
0.059618212
0.060095379
0.060577864
0.061065678
0.06155881
0.0427383
0.043013935
0.043293182
0.043576065
0.043862598
0.044152797
0.044446679
0.044744265
0.045045578
0.045350643
0.045659487
0.04597214
0.046288635
0.046609005
0.046933285
0.047261513
0.047593727
0.047929967
0.048270275
0.048614693
0.048963265
0.049316033
0.049673043
0.050034339
0.050399968
0.050769975
0.051144407
0.051523309
0.051906727
0.052294708
0.052687297
0.053084539
0.053486477
0.053893154
0.054304616
0.054720905
0.055142066
0.055568141
0.055999169
0.056435191
0.056876245
0.057322367
0.057773592
0.058229953
0.058691482
0.059158206
0.059630152
0.060107343
0.060589795
0.061077517
0.061570486
0.042723804
0.043000082
0.043280005
0.043563587
0.04385084
0.044141778
0.044436417
0.044734775
0.045036873
0.045342733
0.045652382
0.045965848
0.04628316
0.04660435
0.046929453
0.047258504
0.04759154
0.0479286
0.048269723
0.048614951
0.048964325
0.049317888
0.049675683
0.050037755
0.050404146
0.050774903
0.051150069
0.05152969
0.05191381
0.052302475
0.052695727
0.053093609
0.053496163
0.053903433
0.054315462
0.054732293
0.055153967
0.055580523
0.056012001
0.056448438
0.05688987
0.05733633
0.057787851
0.058244462
0.058706191
0.059173062
0.059645098
0.060122317
0.060604731
0.061092341
0.061585118
0.042706263
0.042983325
0.043264064
0.043548488
0.04383661
0.044128438
0.044423987
0.044723272
0.045026312
0.045333126
0.045643739
0.045958177
0.046276466
0.046598638
0.046924723
0.047254757
0.047588774
0.047926811
0.048268906
0.048615098
0.048965428
0.049319937
0.049678667
0.050041659
0.050408957
0.050780604
0.051156643
0.051537117
0.05192207
0.052311545
0.052705581
0.053104219
0.053507503
0.053915475
0.054328176
0.054745647
0.055167926
0.055595052
0.05602706
0.056463986
0.056905862
0.057352719
0.057804586
0.05826149
0.058723453
0.059190498
0.05966264
0.060139894
0.060622268
0.061109756
0.061602321
0.042685962
0.042963929
0.043245611
0.043531011
0.043820134
0.044112989
0.044409586
0.044709938
0.045014059
0.045321969
0.045633688
0.045949239
0.046268648
0.046591942
0.046919152
0.047250309
0.047585447
0.047924599
0.048267804
0.048615096
0.048966517
0.049322104
0.049681897
0.050045938
0.050414268
0.050786928
0.051163959
0.051545404
0.051931303
0.052321694
0.052716617
0.053116115
0.053520227
0.053928996
0.054342459
0.054760654
0.055183619
0.055611389
0.056043997
0.056481475
0.056923853
0.057371158
0.057823417
0.058280651
0.05874288
0.059210122
0.059682388
0.060159688
0.060642026
0.061129389
0.061621734
0.04266317
0.042942154
0.043224896
0.043511389
0.043801635
0.044095639
0.044393407
0.044694948
0.045000276
0.045309406
0.045622355
0.045939144
0.046259797
0.046584339
0.046912796
0.047245199
0.047581578
0.047921967
0.048266399
0.04861491
0.048967536
0.049324314
0.049685284
0.050050484
0.050419952
0.05079373
0.051171856
0.05155437
0.051941307
0.052332705
0.052728607
0.05312905
0.053534076
0.053943721
0.054358022
0.054777015
0.055200734
0.055629211
0.056062478
0.056500563
0.056943492
0.057391291
0.05784398
0.058301579
0.058764103
0.059231565
0.059703974
0.060181334
0.060663645
0.061150889
0.061643014
0.042638154
0.042918257
0.043202164
0.043489856
0.04378133
0.044076589
0.044375635
0.044678475
0.044985118
0.045295576
0.045609864
0.045928
0.046250004
0.046575899
0.04690571
0.047239464
0.047577189
0.047918916
0.048264676
0.048614504
0.048968434
0.049326501
0.049688741
0.050055191
0.050425889
0.050800873
0.051180179
0.051563839
0.051951892
0.052344377
0.052741333
0.053142796
0.053548804
0.053959392
0.054374595
0.054794446
0.055218976
0.055648215
0.056082191
0.056520928
0.056964452
0.057412782
0.057865937
0.058323931
0.058786778
0.059254484
0.059727056
0.060204494
0.060686791
0.061173927
0.061665841
0.042611178
0.042892491
0.043177653
0.043466635
0.043759432
0.044056039
0.044356457
0.044660689
0.04496874
0.045280619
0.045596338
0.045915912
0.046239359
0.046566698
0.046897951
0.047233143
0.047572301
0.047915452
0.048262625
0.048613853
0.048969168
0.049328602
0.04969219
0.050059967
0.050431969
0.05080823
0.051188779
0.051573652
0.051962888
0.052356524
0.052754595
0.053157137
0.053564185
0.053975771
0.054391929
0.054812687
0.055238075
0.055668119
0.056102845
0.056542275
0.056986428
0.057435323
0.057888974
0.058347393
0.058810587
0.059278562
0.059751318
0.060228852
0.060711154
0.061198198
0.061689916
0.042582498
0.042865101
0.043151597
0.04344195
0.043736148
0.044034184
0.044336053
0.044641755
0.044951292
0.045264671
0.045581898
0.045902987
0.046227951
0.046556808
0.046889577
0.04722628
0.047566941
0.047911585
0.04826024
0.048612935
0.048969699
0.049330565
0.049695563
0.050064728
0.050438092
0.050815679
0.051197525
0.051583666
0.051974137
0.052368974
0.05276821
0.053171878
0.053580011
0.053992639
0.054409792
0.054831497
0.055257781
0.055688666
0.056124176
0.056564329
0.057009143
0.057458631
0.057912805
0.058371673
0.058835239
0.059303505
0.059776467
0.060254119
0.060736447
0.061223419
0.06171496
0.042552368
0.04283633
0.043124226
0.043416017
0.043711683
0.044011213
0.044314599
0.044621837
0.044932925
0.045247866
0.045566664
0.045889329
0.046215872
0.046546306
0.046880649
0.04721892
0.047561139
0.047907331
0.048257521
0.048611734
0.048969999
0.049332345
0.049698802
0.0500694
0.050444161
0.050823117
0.051206303
0.051593753
0.0519855
0.052381576
0.052782013
0.053186843
0.053596096
0.054009798
0.054427978
0.054850661
0.055277869
0.055709623
0.056145944
0.056586846
0.057032345
0.05748245
0.05793717
0.05839651
0.05886047
0.059329048
0.059802239
0.06028003
0.060762406
0.061249331
0.06174072
0.042521032
0.042806411
0.043095761
0.043389044
0.043686233
0.043987311
0.044292267
0.044601093
0.044913783
0.045230336
0.045550754
0.045875042
0.046203209
0.046535267
0.046871227
0.047211109
0.047554929
0.047902709
0.048254472
0.048610242
0.048970045
0.049333907
0.049701856
0.050073911
0.050450101
0.050830458
0.051215014
0.051603801
0.051996851
0.052394194
0.052795859
0.053201876
0.053612272
0.054027072
0.054446302
0.054869983
0.055298137
0.055730782
0.056167933
0.056609605
0.057055807
0.057506549
0.057961835
0.058421666
0.058886041
0.059354953
0.059828393
0.060306347
0.060788794
0.061275696
0.061766959
0.042488727
0.042775567
0.043066416
0.043361235
0.043659989
0.043962657
0.044269223
0.044579676
0.044894006
0.045212208
0.045534282
0.045860229
0.046190054
0.046523766
0.046861376
0.047202898
0.047548347
0.047897743
0.048251106
0.048608458
0.048969822
0.049335224
0.049704677
0.050078209
0.050455848
0.050837625
0.05122357
0.051613713
0.052008084
0.05240671
0.052809619
0.053216839
0.053628393
0.054044307
0.054464601
0.054889295
0.055318409
0.055751957
0.056189953
0.056632409
0.05707933
0.057530724
0.057986592
0.058446931
0.058911738
0.059381003
0.059854713
0.060332852
0.060815395
0.0613023
0.061793466
0.04245568
0.042744014
0.043036397
0.043332784
0.043633134
0.043937421
0.044245627
0.044557734
0.04487373
0.045193607
0.045517359
0.045844987
0.046176492
0.046511879
0.046851157
0.047194337
0.047541432
0.04789246
0.048247438
0.048606385
0.048969324
0.049336267
0.049707234
0.050082252
0.05046135
0.050844557
0.051231899
0.051623407
0.052019106
0.052419023
0.052823184
0.053231613
0.053644333
0.054061366
0.054482732
0.054908447
0.055338528
0.055772988
0.056211838
0.056655086
0.057102737
0.057554794
0.058011256
0.058472118
0.058937372
0.059407007
0.059881007
0.060359352
0.060842015
0.06132895
0.061820048
0.042422105
0.042711959
0.043005897
0.043303874
0.043605841
0.043911767
0.044221629
0.044535407
0.044853084
0.04517465
0.045500094
0.045829414
0.046162608
0.046499679
0.046840633
0.047185478
0.047534225
0.047886889
0.048243486
0.048604032
0.04896854
0.049337022
0.049709503
0.050086009
0.050466566
0.050851202
0.051239942
0.051632813
0.05202984
0.052431047
0.052836459
0.053246097
0.053659983
0.054078135
0.054500572
0.054927309
0.05535836
0.055793734
0.056233441
0.056677487
0.057125874
0.057578601
0.058035666
0.058497062
0.058962777
0.059432797
0.059907105
0.060385676
0.060868483
0.061355473
0.061846532
0.042388207
0.042679593
0.042975101
0.04327468
0.043578273
0.043885847
0.044197374
0.044512829
0.044832192
0.045155449
0.045482588
0.045813601
0.046148484
0.046487238
0.046829865
0.047176372
0.047526767
0.047881063
0.048239272
0.048601407
0.04896747
0.049337483
0.04971147
0.050089455
0.050471464
0.05085752
0.051247649
0.051641875
0.052040222
0.052442711
0.052849366
0.053260205
0.05367525
0.054094516
0.054518019
0.054945773
0.055377789
0.055814076
0.056254639
0.056699483
0.057148607
0.05760201
0.058059684
0.058521621
0.058987808
0.059458227
0.059932857
0.060411674
0.060894646
0.061381718
0.061872766
0.042354173
0.042647097
0.042944179
0.043245363
0.043550584
0.043859806
0.044172995
0.044490124
0.044811169
0.045136112
0.045464937
0.045797635
0.046134199
0.046474625
0.046818914
0.047167071
0.047519101
0.047875013
0.04823482
0.048598517
0.04896612
0.049337649
0.049713126
0.050092576
0.05047602
0.050863481
0.051254983
0.051650549
0.052050199
0.052453956
0.052861839
0.053273867
0.053690058
0.054110425
0.054534984
0.054963746
0.055396719
0.055833911
0.056275326
0.056720964
0.057170825
0.057624902
0.058083189
0.058545673
0.059012339
0.059483168
0.059958136
0.060437215
0.060920372
0.061407549
0.061898614
0.042320181
0.042614639
0.042913292
0.043216073
0.043522915
0.043833775
0.044148616
0.044467407
0.044790121
0.045116736
0.045447233
0.045781599
0.046119825
0.046461905
0.046807837
0.047157623
0.047511267
0.047868776
0.048230147
0.048595383
0.048964502
0.049337524
0.04971447
0.050095361
0.050480217
0.050869061
0.051261915
0.051658798
0.052059732
0.052464736
0.052873829
0.053287026
0.053704344
0.054125797
0.054551396
0.054981151
0.055415069
0.055853156
0.056295413
0.056741839
0.057192431
0.057647181
0.058106081
0.058569114
0.059036265
0.059507512
0.059982829
0.060462186
0.060945546
0.061432851
0.061923958
0.042286391
0.04258237
0.042882584
0.043186948
0.043495396
0.043807877
0.044124352
0.044444786
0.044769148
0.045097412
0.045429557
0.045765568
0.046105431
0.046449139
0.046796687
0.047148075
0.047503305
0.047862376
0.048225278
0.048592024
0.048962631
0.049337118
0.049715503
0.050097806
0.050484047
0.050874246
0.051268424
0.051666598
0.05206879
0.052475015
0.052885292
0.053299636
0.05371806
0.054140577
0.054567197
0.054997927
0.055432774
0.055871741
0.056314828
0.056762031
0.057213347
0.057668765
0.058128274
0.058591858
0.059059497
0.059531168
0.060006843
0.060486491
0.060970072
0.061457524
0.061948699
0.042252948
0.042550432
0.042852186
0.043158113
0.043468143
0.043782222
0.044100306
0.044422357
0.044748339
0.045078224
0.045411988
0.045749612
0.046091081
0.046436385
0.046785516
0.047138473
0.047495254
0.047855842
0.04822024
0.048588462
0.048960523
0.04933644
0.049716231
0.050099913
0.050487505
0.050879027
0.051274496
0.051673931
0.052077349
0.052484767
0.0528962
0.053311662
0.053731166
0.054154723
0.054582341
0.055014026
0.055449782
0.055889612
0.056333513
0.056781481
0.05723351
0.057689588
0.058149701
0.058613833
0.059081961
0.05955406
0.060030101
0.06051005
0.060993867
0.061481486
0.06197275
0.042219982
0.042518946
0.042822215
0.043129677
0.043441262
0.04375691
0.044076572
0.044400206
0.044727775
0.045059246
0.045394593
0.045733795
0.046076832
0.046423694
0.046774371
0.047128858
0.047487141
0.047849205
0.04821506
0.048584719
0.048958196
0.049335504
0.049716662
0.050101686
0.050490592
0.0508834
0.051280125
0.051680784
0.052085395
0.052493972
0.05290653
0.053323081
0.053743636
0.054168204
0.054596794
0.055029409
0.055466053
0.055906725
0.056351423
0.05680014
0.057252869
0.057709596
0.058170307
0.058634981
0.059103597
0.059576127
0.060052539
0.060532799
0.061016863
0.061504666
0.061996039
0.04218761
0.042488023
0.042792775
0.043101741
0.043414846
0.043732027
0.044053231
0.044378411
0.044707528
0.045040546
0.045377436
0.045718173
0.046062738
0.046411115
0.046763294
0.047119266
0.047478999
0.047842496
0.048209766
0.048580819
0.048955668
0.049334326
0.049716809
0.050103133
0.050493313
0.050887366
0.051285308
0.051687154
0.052092921
0.052502621
0.052916269
0.053333874
0.053755449
0.054180999
0.054610532
0.055044051
0.055481558
0.05592305
0.056368524
0.056817973
0.057271387
0.057728751
0.058190049
0.05865526
0.05912436
0.05959732
0.060074107
0.060554684
0.061039007
0.061527007
0.062018509
0.04215593
0.042457757
0.042763957
0.043074389
0.043388977
0.043707652
0.044030356
0.044357041
0.044687663
0.045022183
0.045360571
0.045702798
0.046048844
0.04639869
0.046752326
0.047109723
0.04747086
0.047835744
0.048204382
0.048576783
0.048952958
0.049332921
0.049716685
0.050104264
0.050495674
0.05089093
0.051290048
0.05169304
0.052099923
0.052510709
0.052925409
0.053344034
0.053766594
0.054193094
0.05462354
0.055057934
0.055496277
0.055938565
0.056384794
0.056834955
0.057289036
0.057747023
0.058208897
0.058674637
0.059144215
0.059617603
0.060094766
0.060575665
0.061060256
0.061548466
0.062040113
0.042125028
0.042428229
0.042735837
0.043047696
0.043363725
0.04368385
0.04400801
0.044336153
0.044668233
0.045004209
0.045344046
0.045687715
0.046035192
0.046386458
0.046741496
0.047100262
0.047462754
0.047828976
0.048198932
0.048572633
0.048950087
0.049331306
0.049716303
0.050105092
0.050497687
0.050894102
0.051294351
0.051698447
0.052106405
0.052518235
0.052933949
0.053353557
0.053777066
0.054204482
0.054635809
0.055071048
0.055510199
0.055953257
0.056400217
0.056851069
0.057305799
0.057764393
0.05822683
0.058693088
0.059163138
0.05963695
0.060114489
0.060595714
0.061080579
0.06156901
0.062060815
0.042094973
0.042399506
0.04270848
0.043021723
0.043339149
0.043660677
0.043986246
0.044315798
0.044649286
0.044986666
0.045327901
0.04567296
0.046021817
0.046374452
0.046730827
0.047090913
0.047454708
0.047822216
0.048193441
0.04856839
0.048947072
0.049329499
0.049715681
0.050105632
0.050499364
0.050896891
0.051298226
0.051703382
0.052112372
0.052525206
0.052941894
0.053362446
0.053786867
0.054215164
0.054647338
0.055083391
0.05552332
0.055967122
0.056414788
0.056866307
0.057321667
0.057780851
0.058243836
0.0587106
0.059181114
0.059655345
0.060133257
0.060614809
0.061099953
0.061588614
0.06208059
0.042065823
0.04237164
0.04268194
0.042996523
0.043315299
0.043638182
0.043965108
0.044296018
0.044630861
0.044969592
0.045312172
0.045658568
0.04600875
0.046362696
0.04672035
0.0470817
0.047446746
0.047815487
0.048187927
0.048564073
0.048943933
0.049327516
0.049714833
0.050105897
0.050500718
0.05089931
0.051301686
0.051707857
0.052117834
0.052531629
0.052949251
0.053370707
0.053796003
0.054225144
0.054658132
0.055094966
0.055535644
0.05598016
0.056428506
0.05688067
0.057336639
0.057796393
0.058259911
0.058727169
0.059198136
0.05967278
0.060151062
0.06063294
0.061118367
0.061607265
0.062099422
0.042037619
0.042344671
0.042656258
0.042972139
0.043292215
0.043616403
0.043944633
0.044276847
0.044612991
0.044953018
0.045296887
0.045644564
0.045996019
0.046351207
0.046710086
0.047072647
0.047438889
0.047808809
0.048182412
0.048559703
0.048940688
0.049325376
0.049713777
0.050105903
0.050501765
0.050901375
0.051304744
0.051711884
0.052122805
0.052537518
0.052956032
0.053378352
0.053804484
0.054234433
0.054668199
0.055105782
0.055547177
0.055992379
0.056441378
0.056894163
0.057350718
0.057811023
0.058275058
0.058742795
0.059214205
0.059689253
0.0601679
0.060650104
0.061135815
0.061624954
0.062117302
0.042010386
0.042318633
0.042631469
0.042948605
0.043269933
0.04359537
0.04392485
0.044258311
0.0445957
0.044936967
0.04528207
0.045630971
0.045983638
0.046340008
0.046700056
0.047063773
0.047431156
0.047802202
0.048176914
0.048555295
0.048937353
0.049323094
0.049712529
0.050105668
0.050502521
0.0509031
0.051307415
0.051715479
0.0521273
0.052542888
0.052962251
0.053385395
0.053812325
0.054243045
0.054677554
0.055115851
0.055557932
0.056003791
0.056453416
0.056906796
0.057363915
0.057824752
0.058289285
0.058757487
0.059229327
0.05970477
0.060183777
0.060666303
0.061152298
0.061641684
0.062134228
0.041984102
0.042293599
0.042607613
0.042925954
0.043248478
0.043575107
0.043905779
0.04424043
0.044579007
0.044921457
0.045267736
0.045617807
0.045971621
0.046329116
0.046690277
0.047055095
0.047423563
0.047795681
0.048171447
0.048550867
0.048933945
0.049320688
0.049711105
0.050105206
0.050503002
0.050904502
0.051309717
0.051718658
0.052131334
0.052547754
0.052967925
0.053391853
0.053819543
0.054250996
0.054686213
0.055125191
0.055567927
0.056014412
0.056464636
0.056918586
0.057376245
0.057837593
0.058302607
0.058771258
0.059243515
0.059719343
0.060198702
0.060681546
0.061167825
0.061657459
0.062150206
0.042269574
0.04258474
0.042904214
0.043227869
0.04355563
0.043887435
0.044223219
0.044562925
0.044906501
0.0452539
0.045605082
0.045959978
0.046318543
0.046680762
0.047046625
0.047416126
0.04778926
0.048166028
0.048546433
0.048930479
0.049318173
0.049709522
0.050104536
0.050503225
0.050905599
0.051311667
0.051721441
0.052134928
0.052552136
0.052973074
0.053397746
0.053826156
0.054258306
0.054694195
0.055133822
0.05557718
0.056024262
0.056475057
0.056929552
0.057387728
0.057849566
0.05831504
0.058784124
0.059256786
0.059732988
0.06021269
0.060695847
0.061182408
0.061672291
0.062165246
0.042246802
0.042562894
0.042883402
0.043208117
0.043536948
0.043869825
0.044206684
0.044547463
0.044892108
0.045240569
0.045592802
0.045948721
0.0463083
0.046671522
0.047038377
0.047408855
0.047782953
0.04816067
0.048542008
0.04892697
0.049315563
0.049707795
0.050103673
0.050503208
0.050906408
0.051313284
0.051723845
0.052138099
0.052556054
0.052977718
0.053403094
0.053832186
0.054264996
0.054701524
0.055141765
0.055585714
0.056033364
0.056484702
0.056939715
0.057398385
0.057860691
0.058326608
0.058796109
0.059269159
0.059745724
0.060225761
0.060709225
0.061196064
0.061686197
0.062179362
0.042225023
0.042542028
0.042863508
0.043189219
0.04351906
0.043852953
0.044190828
0.044532623
0.044878281
0.045227751
0.045580967
0.045937855
0.046298394
0.046662566
0.047030358
0.047401761
0.04777677
0.048155384
0.048537603
0.048923432
0.049312875
0.049705939
0.050102634
0.050502967
0.050906948
0.051314586
0.05172589
0.052140869
0.052559529
0.052981878
0.05340792
0.053837657
0.054271092
0.054708222
0.055149045
0.055593555
0.056041743
0.056493597
0.056949103
0.057408243
0.057870995
0.058337335
0.058807235
0.05928066
0.059757575
0.060237937
0.060721701
0.061208814
0.061699196
0.062192573
0.042204215
0.042522112
0.042844515
0.043171168
0.043501962
0.043836813
0.04417565
0.044518405
0.04486502
0.045215441
0.045569581
0.045927386
0.046288831
0.046653899
0.047022576
0.047394851
0.04777072
0.04815018
0.048533231
0.048919876
0.04931012
0.04970397
0.050101434
0.050502519
0.050907235
0.051315592
0.051727596
0.052143258
0.052562583
0.052985578
0.053412247
0.053842592
0.054276616
0.054714316
0.055155689
0.055600728
0.056049425
0.056501767
0.056957741
0.057417327
0.057880505
0.058347249
0.05881753
0.059291315
0.059768567
0.060249245
0.060733301
0.061220683
0.061711312
0.062204901
0.042184377
0.042503131
0.04282641
0.043153952
0.043485644
0.0438214
0.044161143
0.044504804
0.044852322
0.045203637
0.045558646
0.045917313
0.046279613
0.046645526
0.047015036
0.047388134
0.047764812
0.048145068
0.048528902
0.048916315
0.049307313
0.049701902
0.050100089
0.050501881
0.050907289
0.051316321
0.051728984
0.052145287
0.052565237
0.05298884
0.053416099
0.053847017
0.054281595
0.054719832
0.055161722
0.055607261
0.056056438
0.056509243
0.056965659
0.057425668
0.05788925
0.058356378
0.058827023
0.059301153
0.059778729
0.060259711
0.060744051
0.061231698
0.06172257
0.062216371
0.042165502
0.04248507
0.042809176
0.043137556
0.043470094
0.043806701
0.044147298
0.044491813
0.044840183
0.045192329
0.045548158
0.045907637
0.046270741
0.046637448
0.047007742
0.047381613
0.047759052
0.048140057
0.048524625
0.048912761
0.049304466
0.049699748
0.050098613
0.05050107
0.050907127
0.051316792
0.051730073
0.052146979
0.052567515
0.052991688
0.053419501
0.053850957
0.054286056
0.054724796
0.055167174
0.055613183
0.056062813
0.056516053
0.056972887
0.057433297
0.057897261
0.058364753
0.058835745
0.059310204
0.059788092
0.060269366
0.060753982
0.061241886
0.061732998
0.06222701
0.042147575
0.042467909
0.042792796
0.043121964
0.043455297
0.043792704
0.044134104
0.044479422
0.044828593
0.045181515
0.045538113
0.045898355
0.046262214
0.046629666
0.047000697
0.047375293
0.047753446
0.048135152
0.04852041
0.048909221
0.04930159
0.049697521
0.050097023
0.050500101
0.050906765
0.051317023
0.051730883
0.052148353
0.052569438
0.052994145
0.053422478
0.053854437
0.054290025
0.054729238
0.055172073
0.055618523
0.056068579
0.056522229
0.056979456
0.057440243
0.057904569
0.058372407
0.058843728
0.0593185
0.059796686
0.060278242
0.060763124
0.061251278
0.061742626
0.062236847
0.042130579
0.04245163
0.042777248
0.043107155
0.043441235
0.043779394
0.044121548
0.044467619
0.044817538
0.045171186
0.045528506
0.045889463
0.046254029
0.046622181
0.046993901
0.047369176
0.047747998
0.048130361
0.048516264
0.048905708
0.049298696
0.049695235
0.05009533
0.05049899
0.050906222
0.051317034
0.051731435
0.052149431
0.05257103
0.052996236
0.053425054
0.053857484
0.054293529
0.054733185
0.055176448
0.055623312
0.056073767
0.0565278
0.056985398
0.057446541
0.057911207
0.058379372
0.058851005
0.059326075
0.059804544
0.060286371
0.060771509
0.061259906
0.061751485
0.062245913
0.042114488
0.042436209
0.042762511
0.043093111
0.04342789
0.043766753
0.044109614
0.044456392
0.044807006
0.045161333
0.045519328
0.045880955
0.046246184
0.04661499
0.046987355
0.047363265
0.047742711
0.048125688
0.048512193
0.048902227
0.049295795
0.0496929
0.05009355
0.050497751
0.050905512
0.051316842
0.051731746
0.052150234
0.052572312
0.052997983
0.053427254
0.053860124
0.054296595
0.054736664
0.055180327
0.055627578
0.056078406
0.0565328
0.056990745
0.057452221
0.057917208
0.058385681
0.058857609
0.059332962
0.059811701
0.060293786
0.06077917
0.061267802
0.061759607
0.062254237
0.042099278
0.042421621
0.042748561
0.043079807
0.04341524
0.043754763
0.044098285
0.044445726
0.044796983
0.045151947
0.045510573
0.045872826
0.046238673
0.04660809
0.046981057
0.04735756
0.047737588
0.048121137
0.048508204
0.048898789
0.049292895
0.049690528
0.050091694
0.0504964
0.050904654
0.051316464
0.051731838
0.052150783
0.052573305
0.05299941
0.053429102
0.053862381
0.054299249
0.054739703
0.05518374
0.055631351
0.056082528
0.056537259
0.056995528
0.057457317
0.057922605
0.058391367
0.058863574
0.059339194
0.05981819
0.06030052
0.060786141
0.061275
0.061767023
0.062261853
0.042084919
0.042407839
0.042735372
0.043067221
0.043403265
0.043743404
0.044087544
0.044435604
0.044787457
0.045143015
0.045502231
0.045865067
0.046231491
0.046601477
0.046975006
0.047352061
0.047732632
0.048116714
0.048504303
0.0488954
0.049290007
0.04968813
0.050089775
0.050494949
0.050903661
0.051315917
0.051731727
0.052151096
0.052574032
0.053000539
0.053430622
0.053864282
0.054301519
0.054742331
0.055186714
0.055634661
0.056086163
0.056541208
0.05699978
0.057461861
0.057927431
0.058396465
0.058868933
0.059344805
0.059824043
0.060306608
0.060792455
0.061281532
0.061773768
0.062268792
0.042071382
0.042394834
0.042722916
0.043055327
0.043391941
0.043732655
0.044077372
0.044426007
0.044778416
0.045134526
0.045494291
0.04585767
0.046224632
0.046595149
0.046969199
0.047346768
0.047727844
0.04811242
0.048500494
0.048892066
0.049287138
0.049685715
0.050087805
0.050493413
0.050902548
0.051315218
0.051731431
0.052151194
0.052574513
0.053001393
0.053431838
0.05386585
0.054303429
0.054744573
0.055189278
0.055637537
0.056089341
0.056544677
0.057003531
0.057465886
0.057931719
0.058401006
0.05887372
0.059349829
0.059829297
0.060312083
0.060798145
0.061287432
0.061779874
0.062275087
0.042058635
0.042382575
0.042711167
0.0430441
0.043381246
0.043722496
0.044067752
0.044416917
0.044769843
0.045126467
0.045486743
0.045850628
0.046218089
0.046589099
0.046963635
0.04734168
0.047723224
0.048108259
0.048496782
0.048888793
0.049284296
0.049683294
0.050085794
0.050491804
0.05090133
0.051314383
0.051730968
0.052151094
0.052574767
0.053001992
0.053432772
0.05386711
0.054305005
0.054746456
0.055191459
0.055640007
0.05609209
0.056547697
0.057006813
0.057469421
0.057935499
0.058405024
0.058877967
0.059354299
0.059833982
0.060316979
0.060803245
0.061292733
0.061785373
0.06228077
0.042046645
0.042371033
0.042700096
0.043033514
0.043371155
0.043712906
0.044058664
0.044408318
0.044761724
0.045118827
0.045479576
0.045843931
0.046211856
0.046583323
0.046958308
0.047336795
0.047718772
0.048104232
0.04849317
0.048885588
0.049281488
0.049680874
0.050083753
0.050490133
0.050900021
0.051313426
0.051730355
0.052150816
0.052574815
0.053002357
0.053433446
0.053868084
0.054306271
0.054748006
0.055193284
0.055642098
0.05609444
0.056550297
0.057009656
0.057472499
0.057938805
0.05840855
0.058881708
0.059358247
0.059838133
0.060321328
0.060807788
0.061297467
0.061790299
0.062285874
0.042035379
0.042360175
0.042689673
0.043023543
0.043361646
0.043703862
0.044050089
0.044400192
0.044754044
0.04511159
0.045472779
0.045837569
0.046205924
0.046577814
0.046953216
0.047332112
0.047714489
0.048100341
0.048489662
0.048882455
0.04927872
0.049678464
0.050081692
0.050488412
0.050898633
0.051312361
0.051729606
0.052150375
0.052574674
0.053002508
0.053433881
0.053868795
0.054307251
0.054749247
0.055194777
0.055643837
0.056096418
0.056552506
0.057012089
0.057475149
0.057941666
0.058411616
0.058884973
0.059361706
0.059841782
0.060325163
0.060811807
0.061301667
0.061794682
0.062290428
0.042024803
0.042349967
0.042679869
0.043014161
0.043352695
0.043695345
0.044042006
0.044392524
0.044746789
0.045104745
0.045466341
0.045831534
0.046200286
0.046572568
0.046948355
0.047327628
0.047710374
0.048096586
0.048486261
0.048879398
0.049275999
0.049676071
0.05007962
0.050486652
0.050897177
0.051311203
0.051728738
0.052149789
0.052574363
0.053002464
0.053434098
0.053869266
0.054307968
0.054750202
0.055195966
0.055645251
0.05609805
0.056554352
0.057014141
0.057477401
0.057944113
0.058414252
0.058887793
0.059364707
0.05984496
0.060328515
0.060815332
0.061305364
0.061798554
0.062294465
0.042014881
0.042340378
0.042670655
0.043005342
0.043344279
0.043687334
0.044034395
0.044385296
0.044739943
0.045098277
0.045460249
0.045825815
0.046194935
0.046567578
0.046943719
0.04732334
0.047706426
0.04809297
0.048482968
0.048876421
0.049273331
0.049673703
0.050077545
0.050484863
0.050895667
0.051309965
0.051727764
0.052149073
0.052573898
0.053002244
0.053434116
0.053869515
0.054308443
0.054750896
0.055196872
0.055646364
0.056099364
0.05655586
0.057015839
0.057479283
0.057946174
0.058416488
0.0588902
0.05936728
0.059847698
0.060331416
0.060818394
0.061308589
0.061801946
0.062298014
0.042005577
0.042331372
0.042662002
0.042997062
0.043336377
0.043679809
0.04402724
0.044378493
0.044733491
0.045092174
0.045454493
0.045820402
0.046189861
0.046562838
0.046939305
0.047319245
0.047702643
0.048089491
0.048479786
0.048873528
0.049270719
0.049671366
0.050075475
0.050483054
0.050894112
0.051308657
0.051726698
0.052148242
0.052573296
0.053001865
0.053433954
0.053869564
0.054308697
0.05475135
0.05519752
0.0556472
0.056100383
0.056557058
0.057017209
0.057480822
0.057947877
0.058418351
0.05889222
0.059369455
0.059850025
0.060333894
0.060821024
0.061311372
0.061804888
0.062301105
0.041996853
0.042322914
0.042653881
0.042989297
0.043328968
0.043672751
0.044020519
0.044372098
0.044727417
0.045086422
0.04544906
0.045815285
0.046185057
0.04655834
0.046935108
0.047315341