/*--------------------------------*- C++ -*----------------------------------*\
| =========                 |                                                 |
| \\      /  F ield         | OpenFOAM: The Open Source CFD Toolbox           |
|  \\    /   O peration     | Version:  2312                                  |
|   \\  /    A nd           | Website:  www.openfoam.com                      |
|    \\/     M anipulation  |                                                 |
\*---------------------------------------------------------------------------*/
FoamFile
{
    version     2.0;
    format      ascii;
    arch        "LSB;label=32;scalar=64";
    class       surfaceScalarField;
    location    "0.05";
    object      phi;
}
// * * * * * * * * * * * * * * * * * * * * * * * * * * * * * * * * * * * * * //

dimensions      [1 0 -1 0 0 0 0];

oriented        oriented;

internalField   nonuniform List<scalar> 
6398
(
4.976002e-08
-9.9080622e-08
4.7892573e-08
-9.7909235e-08
4.6041768e-08
-9.6746588e-08
4.4207549e-08
-9.5591628e-08
4.238994e-08
-9.4443382e-08
4.058905e-08
-9.3300894e-08
3.8805067e-08
-9.2163233e-08
3.7038259e-08
-9.1029495e-08
3.5288969e-08
-8.9898814e-08
3.3557614e-08
-8.8770374e-08
3.1844684e-08
-8.7643414e-08
3.0150737e-08
-8.6517241e-08
2.8476392e-08
-8.5391239e-08
2.6822332e-08
-8.4264878e-08
2.5189292e-08
-8.3137722e-08
2.3578059e-08
-8.2009441e-08
2.1989467e-08
-8.0879819e-08
2.0424388e-08
-7.9748761e-08
1.8883731e-08
-7.8616302e-08
1.7368433e-08
-7.7482618e-08
1.5879458e-08
-7.6348029e-08
1.4417787e-08
-7.5213009e-08
1.2984417e-08
-7.4078192e-08
1.1580354e-08
-7.294438e-08
1.0206608e-08
-7.1812545e-08
8.8641914e-09
-7.0683839e-08
7.5541108e-09
-6.9559597e-08
6.2773679e-09
-6.8441341e-08
5.0349547e-09
-6.7330786e-08
3.8278518e-09
-6.6229844e-08
2.6570275e-09
-6.514063e-08
1.523437e-09
-6.4065464e-08
4.2802351e-10
-6.3006878e-08
-6.2827848e-10
-6.1967624e-08
-1.6445406e-09
-6.0950676e-08
-2.6198369e-09
-5.9959247e-08
-3.5532352e-09
-5.8996795e-08
-4.4437869e-09
-5.8067051e-08
-5.2905143e-09
-5.7174032e-08
-6.0923933e-09
-5.6322081e-08
-6.8483327e-09
-5.551591e-08
-7.557147e-09
-5.4760652e-08
-8.2175229e-09
-5.4061941e-08
-8.8279794e-09
-5.3426006e-08
-9.3868315e-09
-5.285982e-08
-9.8921917e-09
-5.2371275e-08
-1.0342032e-08
-5.1969317e-08
-1.0734209e-08
-5.1664038e-08
-1.1066418e-08
-5.1468091e-08
-1.1337728e-08
-5.1403048e-08
-5.1495104e-08
4.8374802e-08
-9.4369084e-08
4.6538148e-08
-9.3275e-08
4.4718033e-08
-9.2190324e-08
4.2914405e-08
-9.1114001e-08
4.1127286e-08
-9.0045047e-08
3.9356782e-08
-8.8982497e-08
3.7603074e-08
-8.7925406e-08
3.5866425e-08
-8.6872859e-08
3.4147169e-08
-8.5823978e-08
3.2445713e-08
-8.4777933e-08
3.0762535e-08
-8.3733952e-08
2.9098176e-08
-8.2691329e-08
2.745324e-08
-8.1649432e-08
2.5828392e-08
-8.0607719e-08
2.4224346e-08
-7.9565737e-08
2.2641866e-08
-7.8523141e-08
2.1081763e-08
-7.7479698e-08
1.9544881e-08
-7.6435294e-08
1.8032102e-08
-7.5389947e-08
1.6544333e-08
-7.434381e-08
1.5082505e-08
-7.3297184e-08
1.3647565e-08
-7.225052e-08
1.2240473e-08
-7.1204429e-08
1.0862195e-08
-7.0159689e-08
9.5136984e-09
-6.9117248e-08
8.1959493e-09
-6.8078232e-08
6.9099052e-09
-6.7043951e-08
5.6565127e-09
-6.6015901e-08
4.436704e-09
-6.4995775e-08
3.2513932e-09
-6.3985459e-08
2.1014738e-09
-6.2987044e-08
9.8781709e-10
-6.200283e-08
-8.8729991e-11
-6.1035329e-08
-1.1273463e-09
-6.0087274e-08
-2.1272367e-09
-5.9161626e-08
-3.0876313e-09
-5.8261585e-08
-4.0077864e-09
-5.7390603e-08
-4.8869851e-09
-5.6552401e-08
-5.724539e-09
-5.5750994e-08
-6.5197925e-09
-5.4990716e-08
-7.2721315e-09
-5.4276266e-08
-7.9810022e-09
-5.3612748e-08
-8.6459455e-09
-5.3005734e-08
-9.2666671e-09
-5.2461326e-08
-9.8431724e-09
-5.1986231e-08
-1.0376017e-08
-5.158783e-08
-1.0866719e-08
-5.1274145e-08
-1.1318481e-08
-5.1053627e-08
-1.173815e-08
-5.0935323e-08
-1.2142506e-08
-5.0930918e-08
-5.105598e-08
4.7172645e-08
-8.9833569e-08
4.5350234e-08
-8.8813321e-08
4.3544517e-08
-8.7803126e-08
4.1755441e-08
-8.6801925e-08
3.9983029e-08
-8.5808726e-08
3.8227385e-08
-8.4822553e-08
3.6488687e-08
-8.3842454e-08
3.4767188e-08
-8.2867502e-08
3.3063216e-08
-8.1896809e-08
3.1377167e-08
-8.0929535e-08
2.9709504e-08
-7.9964896e-08
2.8060754e-08
-7.9002174e-08
2.6431503e-08
-7.8040725e-08
2.4822392e-08
-7.7079993e-08
2.3234115e-08
-7.6119512e-08
2.166741e-08
-7.5158921e-08
2.0123056e-08
-7.419797e-08
1.8601868e-08
-7.3236528e-08
1.7104694e-08
-7.2274593e-08
1.5632402e-08
-7.1312299e-08
1.4185883e-08
-7.0349923e-08
1.276604e-08
-6.9387894e-08
1.1373784e-08
-6.8426798e-08
1.0010029e-08
-6.7467384e-08
8.6756832e-09
-6.6510575e-08
7.37165e-09
-6.5557467e-08
6.0988167e-09
-6.4609338e-08
4.8580519e-09
-6.3667654e-08
3.6502005e-09
-6.2734072e-08
2.4760782e-09
-6.1810446e-08
1.3364671e-09
-6.089883e-08
2.3211041e-10
-6.0001486e-08
-8.3629293e-10
-5.9120887e-08
-1.8680938e-09
-5.8259723e-08
-2.8626998e-09
-5.742091e-08
-3.8195834e-09
-5.6607596e-08
-4.7382923e-09
-5.5823174e-08
-5.6184649e-09
-5.5071295e-08
-6.4598499e-09
-5.4355883e-08
-7.2623364e-09
-5.368116e-08
-8.0259967e-09
-5.3051665e-08
-8.7511504e-09
-5.2472288e-08
-9.4384606e-09
-5.1948285e-08
-1.0089081e-08
-5.14853e-08
-1.0704882e-08
-5.108936e-08
-1.1288789e-08
-5.0766825e-08
-1.1845262e-08
-5.0524218e-08
-1.2381002e-08
-5.0367786e-08
-1.2906153e-08
-5.0303169e-08
-1.343618e-08
-5.0336775e-08
-5.047802e-08
4.6079282e-08
-8.5487536e-08
4.4258602e-08
-8.4537258e-08
4.2454961e-08
-8.3597651e-08
4.0668315e-08
-8.2667656e-08
3.8898691e-08
-8.174627e-08
3.7146191e-08
-8.0832513e-08
3.541099e-08
-7.9925422e-08
3.3693337e-08
-7.9024063e-08
3.1993549e-08
-7.8127539e-08
3.031201e-08
-7.7235002e-08
2.8649169e-08
-7.6345656e-08
2.7005535e-08
-7.5458775e-08
2.5381673e-08
-7.4573703e-08
2.3778202e-08
-7.3689871e-08
2.2195785e-08
-7.2806802e-08
2.0635132e-08
-7.1924118e-08
1.9096988e-08
-7.1041553e-08
1.7582131e-08
-7.0158959e-08
1.6091366e-08
-6.9276315e-08
1.4625518e-08
-6.8393732e-08
1.3185426e-08
-6.7511465e-08
1.1771941e-08
-6.6629916e-08
1.0385913e-08
-6.5749644e-08
9.0281903e-09
-6.4871369e-08
7.6996122e-09
-6.399598e-08
6.4010009e-09
-6.3124537e-08
5.1331562e-09
-6.2258283e-08
3.8968492e-09
-6.1398642e-08
2.6928155e-09
-6.0547227e-08
1.5217476e-09
-5.9705844e-08
3.8428816e-10
-5.8876496e-08
-7.1897867e-10
-5.8061388e-08
-1.7875364e-09
-5.7262929e-08
-2.820947e-09
-5.6483738e-08
-3.8188634e-09
-5.5726652e-08
-4.7810459e-09
-5.4994723e-08
-5.7073817e-09
-5.4291234e-08
-6.5979121e-09
-5.3619698e-08
-7.4528662e-09
-5.2983875e-08
-8.2727082e-09
-5.2387772e-08
-9.0581997e-09
-5.1835659e-08
-9.8104848e-09
-5.1332067e-08
-1.0531206e-08
-5.0881784e-08
-1.1222659e-08
-5.0489831e-08
-1.1888007e-08
-5.0161399e-08
-1.2531548e-08
-4.9901745e-08
-1.3159041e-08
-4.971596e-08
-1.3778065e-08
-4.9608505e-08
-1.4398441e-08
-4.9582809e-08
-1.5032739e-08
-4.9642567e-08
-4.9794386e-08
4.5060732e-08
-8.1339699e-08
4.323215e-08
-8.0455267e-08
4.1421092e-08
-7.9582097e-08
3.9627523e-08
-7.8719127e-08
3.7851476e-08
-7.7865349e-08
3.6093053e-08
-7.7019775e-08
3.4352429e-08
-7.6181437e-08
3.2629844e-08
-7.5349395e-08
3.0925609e-08
-7.4522745e-08
2.9240094e-08
-7.370063e-08
2.7573732e-08
-7.2882248e-08
2.5927012e-08
-7.2066863e-08
2.4300477e-08
-7.1253811e-08
2.2694717e-08
-7.044251e-08
2.1110367e-08
-6.963247e-08
1.9548101e-08
-6.88233e-08
1.8008626e-08
-6.8014719e-08
1.6492678e-08
-6.720656e-08
1.5001014e-08
-6.639878e-08
1.3534409e-08
-6.559147e-08
1.2093645e-08
-6.4784858e-08
1.0679509e-08
-6.397932e-08
9.2927859e-09
-6.3175382e-08
7.9342485e-09
-6.2373731e-08
6.6046534e-09
-6.1575218e-08
5.3047329e-09
-6.0780863e-08
4.035187e-09
-5.9991861e-08
2.7966762e-09
-5.9209587e-08
1.5898129e-09
-5.84356e-08
4.1515197e-10
-5.7671643e-08
-7.2681853e-10
-5.6919652e-08
-1.8356888e-09
-5.6181754e-08
-2.9111398e-09
-5.5460275e-08
-3.9529579e-09
-5.4757734e-08
-4.9610522e-09
-5.4076855e-08
-5.9354763e-09
-5.3420559e-08
-6.8764539e-09
-5.2791972e-08
-7.7844125e-09
-5.2194422e-08
-8.660024e-09
-5.1631443e-08
-9.5042577e-09
-5.1106767e-08
-1.0318446e-08
-5.0624323e-08
-1.1104369e-08
-5.0188219e-08
-1.1864356e-08
-4.9802722e-08
-1.2601418e-08
-4.9472197e-08
-1.3319395e-08
-4.9201034e-08
-1.4023129e-08
-4.8993515e-08
-1.4718628e-08
-4.8853593e-08
-1.5413179e-08
-4.8784476e-08
-1.611544e-08
-4.8788247e-08
-1.6835625e-08
-4.8867075e-08
-4.9026113e-08
4.4090333e-08
-7.7394537e-08
4.2246762e-08
-7.6571693e-08
4.0421293e-08
-7.5760667e-08
3.8613899e-08
-7.4960397e-08
3.6824618e-08
-7.4169872e-08
3.5053555e-08
-7.33881e-08
3.3300883e-08
-7.2614107e-08
3.1566839e-08
-7.1846949e-08
2.985172e-08
-7.1085716e-08
2.8155886e-08
-7.0329547e-08
2.6479752e-08
-6.9577634e-08
2.4823786e-08
-6.8829231e-08
2.3188505e-08
-6.8083667e-08
2.1574472e-08
-6.7340351e-08
1.9982287e-08
-6.659878e-08
1.8412588e-08
-6.5858551e-08
1.686604e-08
-6.5119364e-08
1.5343332e-08
-6.4381035e-08
1.3845171e-08
-6.3643502e-08
1.2372275e-08
-6.2906829e-08
1.0925365e-08
-6.217122e-08
9.5051613e-09
-6.1437019e-08
8.1123746e-09
-6.0704718e-08
6.7476978e-09
-5.9974965e-08
5.4117996e-09
-5.924857e-08
4.1053156e-09
-5.8526504e-08
2.8288404e-09
-5.780991e-08
1.5829181e-09
-5.7100103e-08
3.6803255e-10
-5.6398576e-08
-8.1540312e-10
-5.5706999e-08
-1.9670583e-09
-5.5027225e-08
-3.0866978e-09
-5.4361289e-08
-4.174197e-09
-5.371141e-08
-5.2295589e-09
-5.3079987e-08
-6.2529341e-09
-5.2469606e-08
-7.2446449e-09
-5.1883028e-08
-8.2052139e-09
-5.1323193e-08
-9.1353984e-09
-5.0793211e-08
-1.0036232e-08
-5.0296356e-08
-1.0909074e-08
-4.9836055e-08
-1.1755669e-08
-4.9415872e-08
-1.2578219e-08
-4.9039484e-08
-1.3379459e-08
-4.8710643e-08
-1.4162752e-08
-4.8433115e-08
-1.4932179e-08
-4.8210594e-08
-1.5692632e-08
-4.8046577e-08
-1.6449869e-08
-4.7944169e-08
-1.7210515e-08
-4.7905736e-08
-1.798203e-08
-4.7932542e-08
-1.8772825e-08
-4.8025831e-08
-4.8189833e-08
4.3146029e-08
-7.3652865e-08
4.1282586e-08
-7.2887318e-08
3.9437872e-08
-7.2134108e-08
3.7611868e-08
-7.1392173e-08
3.5804621e-08
-7.0660503e-08
3.4016239e-08
-6.9938101e-08
3.2246892e-08
-6.9223992e-08
3.049681e-08
-6.8517229e-08
2.8766284e-08
-6.7816899e-08
2.7055658e-08
-6.7122137e-08
2.536533e-08
-6.643213e-08
2.3695745e-08
-6.5746127e-08
2.2047394e-08
-6.506345e-08
2.042081e-08
-6.4383496e-08
1.8816558e-08
-6.3705754e-08
1.7235237e-08
-6.3029807e-08
1.5677467e-08
-6.2355339e-08
1.414389e-08
-6.1682148e-08
1.2635158e-08
-6.101015e-08
1.1151931e-08
-6.0339385e-08
9.6948668e-09
-5.9670026e-08
8.2646156e-09
-5.9002386e-08
6.8618116e-09
-5.8336921e-08
5.4870656e-09
-5.7674236e-08
4.1409564e-09
-5.7015092e-08
2.8240221e-09
-5.6360409e-08
1.5367511e-09
-5.5711269e-08
2.7957172e-10
-5.5068923e-08
-9.471583e-10
-5.4434785e-08
-2.1431635e-09
-5.3810445e-08
-3.3082633e-09
-5.3197659e-08
-4.4423866e-09
-5.2598357e-08
-5.5455873e-09
-5.2014637e-08
-6.6180629e-09
-5.1448763e-08
-7.6601751e-09
-5.0903165e-08
-8.672474e-09
-5.0380428e-08
-9.6557263e-09
-4.9883288e-08
-1.0610947e-08
-4.9414621e-08
-1.1539439e-08
-4.8977433e-08
-1.2442831e-08
-4.8574838e-08
-1.3323132e-08
-4.8210043e-08
-1.4182781e-08
-4.7886316e-08
-1.50247e-08
-4.7606943e-08
-1.5852358e-08
-4.737517e-08
-1.6669813e-08
-4.7194119e-08
-1.7481754e-08
-4.7066675e-08
-1.8293501e-08
-4.6995333e-08
-1.9110954e-08
-4.6981892e-08
-1.9940536e-08
-4.7027109e-08
-2.0789289e-08
-4.7131621e-08
-4.7298997e-08
4.221043e-08
-7.0112417e-08
4.0324095e-08
-6.9399929e-08
3.8457133e-08
-6.8700253e-08
3.6609536e-08
-6.8012333e-08
3.4781358e-08
-6.733516e-08
3.2972708e-08
-6.6667735e-08
3.1183756e-08
-6.6009084e-08
2.9414728e-08
-6.5358258e-08
2.7665903e-08
-6.4714344e-08
2.5937611e-08
-6.4076474e-08
2.4230232e-08
-6.3443832e-08
2.254419e-08
-6.2815662e-08
2.0879948e-08
-6.2191281e-08
1.9238006e-08
-6.1570078e-08
1.7618896e-08
-6.0951532e-08
1.6023174e-08
-6.0335212e-08
1.4451417e-08
-5.9720788e-08
1.2904218e-08
-5.910804e-08
1.1382174e-08
-5.849686e-08
9.885885e-09
-5.7887265e-08
8.4159453e-09
-5.7279395e-08
6.9729346e-09
-5.6673531e-08
5.5574118e-09
-5.6070086e-08
4.1699059e-09
-5.5469624e-08
2.8109075e-09
-5.4872853e-08
1.4808599e-09
-5.4280636e-08
1.80149e-10
-5.3693991e-08
-1.0909069e-09
-5.3114093e-08
-2.3320686e-09
-5.254228e-08
-3.5431879e-09
-5.1980045e-08
-4.7242207e-09
-5.1429045e-08
-5.8752418e-09
-5.0891093e-08
-6.9964608e-09
-5.0368158e-08
-8.0882402e-09
-4.986236e-08
-9.1511156e-09
-4.9375964e-08
-1.0185818e-08
-4.891137e-08
-1.11933e-08
-4.8471106e-08
-1.2174764e-08
-4.8057812e-08
-1.3131692e-08
-4.7674228e-08
-1.4065883e-08
-4.7323171e-08
-1.4979487e-08
-4.7007512e-08
-1.5875043e-08
-4.673015e-08
-1.6755513e-08
-4.6493964e-08
-1.7624317e-08
-4.6301765e-08
-1.848535e-08
-4.6156213e-08
-1.9342991e-08
-4.6059728e-08
-2.0202077e-08
-4.6014358e-08
-2.1067835e-08
-4.6021524e-08
-2.1945823e-08
-4.6081659e-08
-2.284204e-08
-4.619497e-08
-4.6364513e-08
4.1270444e-08
-6.6768414e-08
3.9359752e-08
-6.6104868e-08
3.7469069e-08
-6.5454563e-08
3.5598398e-08
-6.4816453e-08
3.37478e-08
-6.4189529e-08
3.1917387e-08
-6.3572796e-08
3.0107328e-08
-6.2965281e-08
2.8317842e-08
-6.2366034e-08
2.65492e-08
-6.1774146e-08
2.4801717e-08
-6.1188746e-08
2.3075754e-08
-6.0609017e-08
2.1371713e-08
-6.0034203e-08
1.9690029e-08
-5.9463613e-08
1.8031172e-08
-5.8896631e-08
1.6395638e-08
-5.8332725e-08
1.4783942e-08
-5.7771454e-08
1.3196616e-08
-5.7212473e-08
1.1634204e-08
-5.6655543e-08
1.009725e-08
-5.6100534e-08
8.5862958e-09
-5.5547435e-08
7.1018711e-09
-5.4996359e-08
5.6444881e-09
-5.4447548e-08
4.2146324e-09
-5.3901376e-08
2.8127546e-09
-5.3358357e-08
1.4392614e-09
-5.2819148e-08
9.4506701e-11
-5.2284551e-08
-1.221219e-09
-5.1755515e-08
-2.5076987e-09
-5.123314e-08
-3.7648004e-09
-5.0718675e-08
-4.9924892e-09
-5.0213519e-08
-6.1908403e-09
-4.9719221e-08
-7.3600531e-09
-4.9237475e-08
-8.500467e-09
-4.8770115e-08
-9.612578e-09
-4.8319113e-08
-1.0697057e-08
-4.7886567e-08
-1.1754772e-08
-4.7474693e-08
-1.2786807e-08
-4.7085812e-08
-1.3794487e-08
-4.6722337e-08
-1.4779404e-08
-4.6386754e-08
-1.5743444e-08
-4.6081605e-08
-1.6688809e-08
-4.5809458e-08
-1.7618044e-08
-4.5572884e-08
-1.8534059e-08
-4.5374419e-08
-1.9440139e-08
-4.5216509e-08
-2.033995e-08
-4.5101451e-08
-2.1237528e-08
-4.5031305e-08
-2.2137246e-08
-4.5007794e-08
-2.3043738e-08
-4.5032078e-08
-2.3961852e-08
-4.5104384e-08
-2.4896767e-08
-4.5224587e-08
-4.539533e-08
4.0316739e-08
-6.3614105e-08
3.8381498e-08
-6.2995558e-08
3.6466876e-08
-6.2390632e-08
3.4572886e-08
-6.1798294e-08
3.2699595e-08
-6.1217537e-08
3.0847119e-08
-6.0647373e-08
2.9015625e-08
-6.0086828e-08
2.7205328e-08
-5.9534961e-08
2.5416486e-08
-5.899086e-08
2.3649402e-08
-5.845366e-08
2.190442e-08
-5.7922542e-08
2.0181916e-08
-5.7396749e-08
1.8482302e-08
-5.6875586e-08
1.6806015e-08
-5.6358433e-08
1.5153515e-08
-5.584475e-08
1.3525279e-08
-5.5334084e-08
1.1921796e-08
-5.4826076e-08
1.034356e-08
-5.4320468e-08
8.791063e-09
-5.381711e-08
7.2647911e-09
-5.3315965e-08
5.7652138e-09
-5.2817113e-08
4.2927779e-09
-5.232076e-08
2.8478998e-09
-5.1827239e-08
1.4309564e-09
-5.1337015e-08
4.2276926e-11
-5.085069e-08
-1.3178672e-09
-5.0369004e-08
-2.6492719e-09
-4.9892836e-08
-3.9518105e-09
-4.9423205e-08
-5.2254455e-09
-4.8961274e-08
-6.4702396e-09
-4.8508345e-08
-7.6863686e-09
-4.8065855e-08
-8.8741349e-09
-4.7635378e-08
-1.0033982e-08
-4.7218614e-08
-1.1166508e-08
-4.6817387e-08
-1.2272487e-08
-4.643363e-08
-1.335288e-08
-4.6069381e-08
-1.4408858e-08
-4.5726763e-08
-1.5441818e-08
-4.5407974e-08
-1.6453407e-08
-4.5115266e-08
-1.7445535e-08
-4.4850929e-08
-1.8420396e-08
-4.4617263e-08
-1.9380483e-08
-4.4416555e-08
-2.0328595e-08
-4.4251047e-08
-2.1267842e-08
-4.4122891e-08
-2.2201638e-08
-4.4034087e-08
-2.3133682e-08
-4.3986422e-08
-2.406792e-08
-4.3981376e-08
-2.5008479e-08
-4.4019932e-08
-2.5959617e-08
-4.4102175e-08
-2.6925858e-08
-4.422772e-08
-4.4398856e-08
3.9343204e-08
-6.0641261e-08
3.7384248e-08
-6.0063981e-08
3.5446477e-08
-5.9500653e-08
3.3529918e-08
-5.8950255e-08
3.1634642e-08
-5.8411789e-08
2.9760768e-08
-5.7884271e-08
2.7908463e-08
-5.7366735e-08
2.6077935e-08
-5.6858242e-08
2.4269433e-08
-5.6357888e-08
2.2483248e-08
-5.5864809e-08
2.0719702e-08
-5.5378189e-08
1.8979153e-08
-5.489727e-08
1.7261985e-08
-5.4421357e-08
1.5568605e-08
-5.3949826e-08
1.3899439e-08
-5.3482128e-08
1.2254927e-08
-5.3017802e-08
1.0635514e-08
-5.2556474e-08
9.0416483e-09
-5.2097871e-08
7.4737741e-09
-5.1641821e-08
5.9323224e-09
-5.1188259e-08
4.4177058e-09
-5.0737238e-08
2.9303107e-09
-5.0288924e-08
1.4704892e-09
-4.9843609e-08
3.8550745e-11
-4.9401711e-08
-1.3652465e-09
-4.8963775e-08
-2.7407048e-09
-4.8530478e-08
-4.0876967e-09
-4.8102629e-08
-5.4061744e-09
-4.7681168e-08
-6.6961812e-09
-4.7267169e-08
-7.957862e-09
-4.6861835e-08
-9.1914751e-09
-4.6466498e-08
-1.0397405e-08
-4.6082609e-08
-1.1576175e-08
-4.5711738e-08
-1.2728461e-08
-4.5355564e-08
-1.3855104e-08
-4.5015863e-08
-1.495713e-08
-4.4694501e-08
-1.6035757e-08
-4.4393417e-08
-1.7092418e-08
-4.4114609e-08
-1.8128768e-08
-4.3860116e-08
-1.9146703e-08
-4.3632001e-08
-2.0148368e-08
-4.3432329e-08
-2.1136165e-08
-4.3263141e-08
-2.2112757e-08
-4.3126433e-08
-2.3081062e-08
-4.3024109e-08
-2.4044241e-08
-4.295794e-08
-2.5005678e-08
-4.2929491e-08
-2.5968939e-08
-4.2940062e-08
-2.6937714e-08
-4.2990512e-08
-2.7915773e-08
-4.3080836e-08
-2.8907101e-08
-4.3210424e-08
-4.3381265e-08
3.8346442e-08
-5.7840611e-08
3.6365405e-08
-5.7301102e-08
3.4406071e-08
-5.6775826e-08
3.2468473e-08
-5.6263772e-08
3.0552692e-08
-5.5763952e-08
2.8658849e-08
-5.527539e-08
2.6787108e-08
-5.4797127e-08
2.4937671e-08
-5.4328233e-08
2.3110781e-08
-5.3867809e-08
2.1306712e-08
-5.3414996e-08
1.9525772e-08
-5.2968982e-08
1.7768295e-08
-5.2529012e-08
1.6034641e-08
-5.209439e-08
1.4325189e-08
-5.1664487e-08
1.2640331e-08
-5.1238753e-08
1.098047e-08
-5.0816714e-08
9.3460134e-09
-5.0397988e-08
7.7373653e-09
-4.9982283e-08
6.1549225e-09
-4.9569407e-08
4.5990664e-09
-4.9159271e-08
3.0701569e-09
-4.8751896e-08
1.5685243e-09
-4.8347414e-08
9.446205e-11
-4.7946076e-08
-1.3517813e-09
-4.754825e-08
-2.7700111e-09
-4.7154427e-08
-4.1600946e-09
-4.6765221e-08
-5.5219709e-09
-4.6381373e-08
-6.8556599e-09
-4.6003744e-08
-8.1612723e-09
-4.5633321e-08
-9.4390205e-09
-4.5271211e-08
-1.0689229e-08
-4.491864e-08
-1.1912345e-08
-4.4576943e-08
-1.310895e-08
-4.4247564e-08
-1.4279775e-08
-4.3932042e-08
-1.5425707e-08
-4.3632007e-08
-1.6547803e-08
-4.3349161e-08
-1.7647304e-08
-4.3085273e-08
-1.8725645e-08
-4.2842158e-08
-1.9784466e-08
-4.2621662e-08
-2.0825616e-08
-4.2425647e-08
-2.1851168e-08
-4.225597e-08
-2.2863415e-08
-4.2114463e-08
-2.3864868e-08
-4.2002911e-08
-2.4858253e-08
-4.1923017e-08
-2.5846491e-08
-4.1876359e-08
-2.6832677e-08
-4.1864334e-08
-2.7820044e-08
-4.18881e-08
-2.8811906e-08
-4.1948431e-08
-2.9811621e-08
-4.204526e-08
-3.0822729e-08
-4.2177786e-08
-4.2347728e-08
3.7325279e-08
-5.5202217e-08
3.532441e-08
-5.469724e-08
3.3345701e-08
-5.420672e-08
3.1389197e-08
-5.3729665e-08
2.9454982e-08
-5.3265096e-08
2.7543181e-08
-5.2812048e-08
2.5653956e-08
-5.2369572e-08
2.3787505e-08
-5.1936746e-08
2.1944061e-08
-5.151268e-08
2.0123885e-08
-5.1096521e-08
1.8327268e-08
-5.0687465e-08
1.6554525e-08
-5.0284757e-08
1.4805992e-08
-4.9887704e-08
1.3082019e-08
-4.9495678e-08
1.1382969e-08
-4.9108122e-08
9.7092105e-09
-4.8724556e-08
8.0611123e-09
-4.8344587e-08
6.439039e-09
-4.7967908e-08
4.8433437e-09
-4.7594307e-08
3.2743619e-09
-4.7223674e-08
1.7324049e-09
-4.6855998e-08
2.1775224e-10
-4.6491378e-08
-1.2693553e-09
-4.6130024e-08
-2.7287239e-09
-4.5772258e-08
-4.1602145e-09
-4.5418517e-08
-5.5637511e-09
-4.5069356e-08
-6.9393295e-09
-4.4725444e-08
-8.2870264e-09
-4.438757e-08
-9.6070081e-09
-4.4056636e-08
-1.0899541e-08
-4.3733657e-08
-1.2165e-08
-4.3419754e-08
-1.340388e-08
-4.3116154e-08
-1.4616804e-08
-4.2824179e-08
-1.5804536e-08
-4.2545238e-08
-1.6967989e-08
-4.2280821e-08
-1.8108233e-08
-4.2032482e-08
-1.9226509e-08
-4.1801831e-08
-2.0324234e-08
-4.1590516e-08
-2.1403008e-08
-4.1400213e-08
-2.2464623e-08
-4.1232602e-08
-2.3511061e-08
-4.1089361e-08
-2.4544495e-08
-4.0972139e-08
-2.5567289e-08
-4.0882543e-08
-2.6581979e-08
-4.0822107e-08
-2.7591263e-08
-4.0792253e-08
-2.8597977e-08
-4.079424e-08
-2.9605062e-08
-4.0829118e-08
-3.0615507e-08
-4.0897599e-08
-3.1632322e-08
-4.0999582e-08
-3.2658673e-08
-4.113409e-08
-4.1302599e-08
3.6280329e-08
-5.2715802e-08
3.4262324e-08
-5.2242373e-08
3.2266874e-08
-5.1783574e-08
3.0294033e-08
-5.133843e-08
2.8343891e-08
-5.0905975e-08
2.6416576e-08
-5.0485256e-08
2.4512248e-08
-5.0075336e-08
2.26311e-08
-4.9675304e-08
2.0773355e-08
-4.9284279e-08
1.8939264e-08
-4.8901419e-08
1.7129101e-08
-4.8525924e-08
1.5343162e-08
-4.8157046e-08
1.358176e-08
-4.7794096e-08
1.184522e-08
-4.7436444e-08
1.0133875e-08
-4.7083531e-08
8.4480629e-09
-4.6734874e-08
6.7881171e-09
-4.6390067e-08
5.1543649e-09
-4.6048792e-08
3.5471194e-09
-4.571082e-08
1.9666743e-09
-4.5376015e-08
4.1329666e-10
-4.5044343e-08
-1.1127795e-09
-4.4715868e-08
-2.6113606e-09
-4.4390761e-08
-4.0823008e-09
-4.40693e-08
-5.5255094e-09
-4.375187e-08
-6.940959e-09
-4.3438967e-08
-8.3286935e-09
-4.3131198e-08
-9.688836e-09
-4.2829276e-08
-1.1021598e-08
-4.2534024e-08
-1.2327288e-08
-4.2246368e-08
-1.3606319e-08
-4.1967332e-08
-1.4859218e-08
-4.1698038e-08
-1.6086637e-08
-4.1439695e-08
-1.7289357e-08
-4.119359e-08
-1.8468299e-08
-4.0961083e-08
-1.9624535e-08
-4.0743591e-08
-2.0759286e-08
-4.0542578e-08
-2.1873938e-08
-4.0359545e-08
-2.297004e-08
-4.0196008e-08
-2.4049313e-08
-4.0053494e-08
-2.5113643e-08
-3.9933518e-08
-2.6165084e-08
-3.9837573e-08
-2.720585e-08
-3.9767114e-08
-2.8238304e-08
-3.9723531e-08
-2.9264939e-08
-3.9708118e-08
-3.0288359e-08
-3.9722022e-08
-3.1311246e-08
-3.9766206e-08
-3.2336313e-08
-3.984134e-08
-3.3366271e-08
-3.9947302e-08
-3.4403969e-08
-4.0082957e-08
-4.0249556e-08
3.5213593e-08
-5.0371007e-08
3.3181456e-08
-4.99264e-08
3.1172206e-08
-4.9496544e-08
2.9185904e-08
-4.9080482e-08
2.7222648e-08
-4.8677263e-08
2.5282564e-08
-4.8285948e-08
2.3365813e-08
-4.7905613e-08
2.1472583e-08
-4.7535359e-08
1.9603088e-08
-4.7174318e-08
1.7757567e-08
-4.6821657e-08
1.5936281e-08
-4.6476586e-08
1.4139506e-08
-4.6138364e-08
1.2367535e-08
-4.5806305e-08
1.0620669e-08
-4.5479783e-08
8.8992147e-09
-4.5158238e-08
7.2034783e-09
-4.484118e-08
5.5337628e-09
-4.4528199e-08
3.8903606e-09
-4.4218964e-08
2.2735489e-09
-4.3913229e-08
6.8358308e-10
-4.3610839e-08
-8.7930929e-10
-4.3311734e-08
-2.414935e-09
-4.3015946e-08
-3.9231421e-09
-4.2723611e-08
-5.4038264e-09
-4.2434963e-08
-6.8569391e-09
-4.215034e-08
-8.2824939e-09
-4.1870182e-08
-9.6805743e-09
-4.1595034e-08
-1.1051342e-08
-4.132554e-08
-1.2395043e-08
-4.1062446e-08
-1.3712018e-08
-4.0806595e-08
-1.5002708e-08
-4.055892e-08
-1.6267661e-08
-4.0320445e-08
-1.7507544e-08
-4.0092271e-08
-1.8723146e-08
-3.9875574e-08
-1.9915385e-08
-3.9671592e-08
-2.1085316e-08
-3.9481618e-08
-2.2234137e-08
-3.9306986e-08
-2.3363189e-08
-3.9149057e-08
-2.4473966e-08
-3.9009211e-08
-2.5568108e-08
-3.8888833e-08
-2.6647407e-08
-3.8789299e-08
-2.7713799e-08
-3.8711966e-08
-2.8769357e-08
-3.8658155e-08
-2.981628e-08
-3.8629136e-08
-3.0856877e-08
-3.8626095e-08
-3.1893545e-08
-3.8650085e-08
-3.2928742e-08
-3.8701999e-08
-3.3964939e-08
-3.878248e-08
-3.5004589e-08
-3.8891396e-08
-3.6050272e-08
-3.9027467e-08
-3.9191724e-08
3.4128104e-08
-4.8157603e-08
3.2085035e-08
-4.7739346e-08
3.0065119e-08
-4.7335907e-08
2.8068427e-08
-4.6946351e-08
2.609506e-08
-4.6569744e-08
2.4145148e-08
-4.6205161e-08
2.2218847e-08
-4.5851695e-08
2.0316342e-08
-4.5508459e-08
1.843784e-08
-4.51746e-08
1.6583569e-08
-4.4849297e-08
1.4753775e-08
-4.4531769e-08
1.2948718e-08
-4.4221285e-08
1.1168671e-08
-4.3917165e-08
9.4139126e-09
-4.3618785e-08
7.6847243e-09
-4.3325587e-08
5.981386e-09
-4.3037079e-08
4.3041709e-09
-4.2752844e-08
2.6533405e-09
-4.2472542e-08
1.0291387e-09
-4.2195913e-08
-5.6821314e-10
-4.1922783e-08
-2.1385229e-09
-4.1653067e-08
-3.6816334e-09
-4.1386772e-08
-5.1974291e-09
-4.1123996e-08
-6.6858419e-09
-4.0864935e-08
-8.1468588e-09
-4.0609882e-08
-9.5805276e-09
-4.0359224e-08
-1.0986965e-08
-4.0113447e-08
-1.2366363e-08
-3.9873133e-08
-1.3718994e-08
-3.9638954e-08
-1.5045223e-08
-3.9411674e-08
-1.6345508e-08
-3.9192144e-08
-1.7620412e-08
-3.8981292e-08
-1.8870606e-08
-3.8780124e-08
-2.0096876e-08
-3.858971e-08
-2.130013e-08
-3.8411179e-08
-2.2481401e-08
-3.8245707e-08
-2.364185e-08
-3.8094509e-08
-2.4782773e-08
-3.7958826e-08
-2.59056e-08
-3.7839911e-08
-2.7011892e-08
-3.7739026e-08
-2.8103347e-08
-3.765742e-08
-2.9181787e-08
-3.7596333e-08
-3.0249154e-08
-3.755697e-08
-3.1307497e-08
-3.7540499e-08
-3.2358958e-08
-3.7548011e-08
-3.3405751e-08
-3.7580482e-08
-3.4450136e-08
-3.7638748e-08
-3.5494374e-08
-3.7723431e-08
-3.6540698e-08
-3.7834402e-08
-3.7591453e-08
-3.7970241e-08
-3.8131768e-08
3.302763e-08
-4.6065661e-08
3.0976927e-08
-4.5671518e-08
2.8949581e-08
-4.5292213e-08
2.694567e-08
-4.4926832e-08
2.4965299e-08
-4.4574458e-08
2.3008599e-08
-4.4234182e-08
2.1075727e-08
-4.3905115e-08
1.9166862e-08
-4.3586386e-08
1.7282203e-08
-4.3277156e-08
1.5421967e-08
-4.2976618e-08
1.358639e-08
-4.2684003e-08
1.1775714e-08
-4.239859e-08
9.9901949e-09
-4.2119705e-08
8.23009e-09
-4.1846732e-08
6.4956583e-09
-4.1579114e-08
4.787155e-09
-4.1316359e-08
3.1048264e-09
-4.1058044e-08
1.4489057e-09
-4.0803822e-08
-1.8039256e-10
-4.0553421e-08
-1.782878e-09
-4.0306651e-08
-3.3583898e-09
-4.0063406e-08
-4.9068025e-09
-3.9823664e-08
-6.4280319e-09
-3.9587494e-08
-7.9220414e-09
-3.9355055e-08
-9.3888478e-09
-3.9126597e-08
-1.0828528e-08
-3.8902459e-08
-1.2241224e-08
-3.8683073e-08
-1.3627152e-08
-3.8468959e-08
-1.4986607e-08
-3.8260723e-08
-1.6319967e-08
-3.8059057e-08
-1.7627703e-08
-3.7864731e-08
-1.8910382e-08
-3.767859e-08
-2.0168675e-08
-3.7501548e-08
-2.1403358e-08
-3.7334579e-08
-2.261532e-08
-3.7178711e-08
-2.3805567e-08
-3.7035016e-08
-2.4975221e-08
-3.69046e-08
-2.6125527e-08
-3.6788593e-08
-2.7257851e-08
-3.6688138e-08
-2.8373677e-08
-3.6604382e-08
-2.9474608e-08
-3.6538469e-08
-3.0562362e-08
-3.6491529e-08
-3.1638758e-08
-3.646467e-08
-3.270571e-08
-3.6458966e-08
-3.3765207e-08
-3.647543e-08
-3.4819302e-08
-3.6514971e-08
-3.5870081e-08
-3.6578378e-08
-3.6919623e-08
-3.6666257e-08
-3.7969968e-08
-3.6778493e-08
-3.9023261e-08
-3.6913528e-08
-3.7071973e-08
3.1916409e-08
-4.4085666e-08
2.9861392e-08
-4.3713631e-08
2.7829875e-08
-4.3356406e-08
2.5821942e-08
-4.3013098e-08
2.3837702e-08
-4.2682809e-08
2.1877288e-08
-4.236465e-08
1.9940855e-08
-4.2057749e-08
1.8028577e-08
-4.1761252e-08
1.6140647e-08
-4.1474337e-08
1.4277273e-08
-4.1196211e-08
1.2438677e-08
-4.0926119e-08
1.0625089e-08
-4.0663351e-08
8.8367461e-09
-4.0407242e-08
7.0738878e-09
-4.0157183e-08
5.336752e-09
-3.9912621e-08
3.6255712e-09
-3.9673065e-08
1.9405676e-09
-3.943809e-08
2.8194873e-10
-3.9207342e-08
-1.3500973e-09
-3.898054e-08
-2.9554075e-09
-3.8757477e-08
-4.5338485e-09
-3.853803e-08
-6.085323e-09
-3.8322153e-08
-7.6097738e-09
-3.8109888e-08
-9.107191e-09
-3.7901357e-08
-1.0577617e-08
-3.7696773e-08
-1.2021151e-08
-3.749643e-08
-1.3437957e-08
-3.730071e-08
-1.482827e-08
-3.7110076e-08
-1.6192398e-08
-3.6925073e-08
-1.753073e-08
-3.6746325e-08
-1.8843743e-08
-3.6574529e-08
-2.0132004e-08
-3.6410451e-08
-2.1396176e-08
-3.6254923e-08
-2.263702e-08
-3.6108829e-08
-2.3855405e-08
-3.5973107e-08
-2.5052302e-08
-3.5848732e-08
-2.6228794e-08
-3.5736712e-08
-2.7386073e-08
-3.5638077e-08
-2.8525439e-08
-3.555387e-08
-2.9648304e-08
-3.5485139e-08
-3.0756183e-08
-3.5432927e-08
-3.1850692e-08
-3.5398272e-08
-3.2933538e-08
-3.5382194e-08
-3.4006511e-08
-3.5385686e-08
-3.5071467e-08
-3.5409691e-08
-3.6130312e-08
-3.5455061e-08
-3.718498e-08
-3.5522542e-08
-3.8237392e-08
-3.5612734e-08
-3.928942e-08
-3.5725536e-08
-4.0343035e-08
-3.5859263e-08
-3.6014305e-08
3.0798936e-08
-4.2208611e-08
2.8742886e-08
-4.1856889e-08
2.671042e-08
-4.1519901e-08
2.4701628e-08
-4.1196781e-08
2.2716623e-08
-4.0886649e-08
2.075554e-08
-4.0588637e-08
1.881853e-08
-4.030189e-08
1.6905765e-08
-4.0025576e-08
1.501743e-08
-3.9758886e-08
1.3153726e-08
-3.9501045e-08
1.1314863e-08
-3.9251314e-08
9.5010569e-09
-3.9008994e-08
7.7125304e-09
-3.8773432e-08
5.9495056e-09
-3.8544026e-08
4.2122011e-09
-3.8320229e-08
2.5008291e-09
-3.8101553e-08
8.1558981e-10
-3.7887571e-08
-8.4333185e-10
-3.7677926e-08
-2.4757719e-09
-3.7472328e-08
-4.0815912e-09
-3.7270558e-08
-5.6606813e-09
-3.7072476e-08
-7.2129682e-09
-3.6878016e-08
-8.7384191e-09
-3.6687192e-08
-1.0237046e-08
-3.6500099e-08
-1.1708912e-08
-3.631691e-08
-1.3154136e-08
-3.6137881e-08
-1.45729e-08
-3.5963346e-08
-1.5965449e-08
-3.5793718e-08
-1.7332103e-08
-3.5629484e-08
-1.8673258e-08
-3.5471206e-08
-1.998939e-08
-3.5319514e-08
-2.128106e-08
-3.5175102e-08
-2.2548922e-08
-3.5038724e-08
-2.379372e-08
-3.4911187e-08
-2.5016294e-08
-3.4793341e-08
-2.6217585e-08
-3.4686077e-08
-2.7398631e-08
-3.4590312e-08
-2.8560571e-08
-3.4506986e-08
-2.9704646e-08
-3.4437051e-08
-3.0832192e-08
-3.4381466e-08
-3.1944643e-08
-3.4341187e-08
-3.3043522e-08
-3.4317166e-08
-3.4130433e-08
-3.4310343e-08
-3.5207053e-08
-3.4321643e-08
-3.6275119e-08
-3.4351945e-08
-3.7336406e-08
-3.4402051e-08
-3.8392715e-08
-3.4472669e-08
-3.9445827e-08
-3.4564394e-08
-4.0497469e-08
-3.4677148e-08
-4.154946e-08
-3.480912e-08
-3.4960469e-08
2.9679785e-08
-4.0426048e-08
2.7625895e-08
-4.0093038e-08
2.5595619e-08
-3.9774646e-08
2.3589051e-08
-3.9470029e-08
2.1606308e-08
-3.9178329e-08
1.9647525e-08
-3.8898697e-08
1.7712852e-08
-3.86303e-08
1.5802457e-08
-3.8372325e-08
1.3916521e-08
-3.8123982e-08
1.2055234e-08
-3.7884513e-08
1.0218796e-08
-3.7653195e-08
8.4074126e-09
-3.7429342e-08
6.6212912e-09
-3.7212314e-08
4.8606381e-09
-3.7001518e-08
3.1256551e-09
-3.6796414e-08
1.4165355e-09
-3.6596519e-08
-2.6653978e-10
-3.6401406e-08
-1.9234068e-09
-3.6210716e-08
-3.5539221e-09
-3.6024151e-08
-5.1579686e-09
-3.5841484e-08
-6.7354586e-09
-3.5662559e-08
-8.2863395e-09
-3.5487292e-08
-9.8105982e-09
-3.5315676e-08
-1.1308266e-08
-3.5147776e-08
-1.2779423e-08
-3.4983734e-08
-1.4224205e-08
-3.4823767e-08
-1.5642803e-08
-3.4668169e-08
-1.7035476e-08
-3.4517303e-08
-1.8402548e-08
-3.4371607e-08
-1.9744416e-08
-3.4231583e-08
-2.1061555e-08
-3.4097801e-08
-2.2354518e-08
-3.397089e-08
-2.3623943e-08
-3.3851532e-08