/*--------------------------------*- C++ -*----------------------------------*\
| =========                 |                                                 |
| \\      /  F ield         | OpenFOAM: The Open Source CFD Toolbox           |
|  \\    /   O peration     | Version:  2312                                  |
|   \\  /    A nd           | Website:  www.openfoam.com                      |
|    \\/     M anipulation  |                                                 |
\*---------------------------------------------------------------------------*/
FoamFile
{
    version     2.0;
    format      ascii;
    arch        "LSB;label=32;scalar=64";
    class       volScalarField;
    location    "0.05";
    object      T;
}
// * * * * * * * * * * * * * * * * * * * * * * * * * * * * * * * * * * * * * //

dimensions      [0 0 0 1 0 0 0];

internalField   nonuniform List<scalar> 
3257
(
392.23711
390.12653
388.01719
385.91044
383.80724
381.7085
379.61503
377.52766
375.44714
373.37424
371.30966
369.2541
367.20821
365.17262
363.14795
361.13477
359.13364
357.14509
355.16962
353.20772
351.25984
349.32642
347.40785
345.50453
343.61683
341.74506
339.88957
338.05063
336.22852
334.42349
332.63578
330.86559
329.11311
327.37851
325.66194
323.96353
322.2834
320.62163
318.97832
317.35353
315.74729
314.15964
312.5906
311.04017
309.50835
307.9951
306.5004
305.02419
303.56642
302.12702
300.70591
392.53237
390.4111
388.29135
386.1744
384.06121
381.95265
379.84958
377.75279
375.66307
373.58115
371.50777
369.4436
367.38932
365.34556
363.31292
361.29199
359.28333
357.28745
355.30488
353.33608
351.38151
349.4416
347.51676
345.60737
343.71379
341.83636
339.97538
338.13115
336.30394
334.494
332.70155
330.92679
329.16991
327.43108
325.71044
324.00812
322.32422
320.65883
319.01204
317.3839
315.77444
314.1837
312.61169
311.05841
309.52383
308.00794
306.51069
305.03203
303.57191
302.13024
300.70696
393.09084
390.9498
388.81058
386.67449
384.54249
382.41547
380.29427
378.17973
376.07261
373.97368
371.88366
369.80325
367.73311
365.67389
363.62618
361.59059
359.56765
357.55791
355.56187
353.58
351.61275
349.66056
347.72382
345.80292
343.8982
342.01
340.13863
338.28436
336.44747
334.62818
332.82672
331.04329
329.27806
327.53118
325.8028
324.09302
322.40196
320.72969
319.07627
317.44176
315.82618
314.22955
312.65188
311.09315
309.55334
308.03241
306.53032
305.047
303.58238
302.1364
300.70897
393.88002
391.71123
389.54467
387.38165
385.22318
383.07015
380.92343
378.78385
376.65221
374.52927
372.41578
370.31243
368.2199
366.13884
364.06985
362.01353
359.97044
357.94109
355.926
353.92564
351.94047
349.97089
348.01732
346.08012
344.15964
342.2562
340.3701
338.50162
336.651
334.81848
333.00426
331.20853
329.43146
327.67318
325.93382
324.21349
322.51226
320.83022
319.16741
317.52386
315.8996
314.29462
312.70892
311.14247
309.59524
308.06716
306.55819
305.06826
303.59728
302.14516
300.71183
394.86886
392.66545
390.46475
388.26812
386.07658
383.89104
381.71241
379.54152
377.3792
375.22622
373.08334
370.95128
368.83071
366.72229
364.62664
362.54435
360.47599
358.42207
356.3831
354.35957
352.3519
350.36053
348.38584
346.42819
344.48793
342.56537
340.66079
338.77446
336.90662
335.05749
333.22725
331.41608
329.62414
327.85154
326.0984
324.3648
322.65082
320.95651
319.28189
317.627
315.99183
314.37636
312.78058
311.20443
309.64787
308.11083
306.59323
305.09499
303.61601
302.15619
300.71543
396.02781
393.78393
391.54335
389.30742
387.0772
384.85363
382.63764
380.43011
378.23186
376.0437
373.8664
371.7007
369.54727
367.40679
365.27989
363.16716
361.06916
358.98643
356.91947
354.86875
352.83471
350.81776
348.8183
346.83666
344.8732
342.92819
341.00193
339.09466
337.20661
335.33798
333.48894
331.65966
329.85025
328.06085
326.29153
324.54236
322.81341
321.10469
319.41623
317.74802
316.10004
314.47227
312.86465
311.27713
309.70963
308.16206
306.63434
305.12635
303.63799
302.16914
300.71967
397.32906
395.03986
392.75457
390.47459
388.201
385.93478
383.67689
381.42822
379.18966
376.96201
374.74607
372.54259
370.35227
368.17578
366.01378
363.86685
361.73557
359.62047
357.52206
355.44079
353.37712
351.33144
349.30414
347.29555
345.306
343.33578
341.38516
339.45435
337.54359
335.65304
333.78288
331.93323
330.10421
328.29592
326.50842
324.74176
322.99597
321.27107
319.56705
317.88388
316.22153
314.57993
312.95903
311.35873
309.77895
308.21957
306.68049
305.16157
303.66267
302.18368
300.72443
398.74674
396.40823
394.0743
391.74637
389.42555
387.11289
384.80936
382.5159
380.2334
377.96273
375.70468
373.46003
371.22949
369.01377
366.8135
364.62929
362.46173
360.31134
358.17864
356.06408
353.96809
351.89109
349.83344
347.79547
345.77749
343.77978
341.80259
339.84613
337.9106
335.99617
334.10298
332.23114
330.38074
328.55186
326.74455
324.95883
323.19471
321.45217
319.7312
318.03174
316.35372
314.69708
313.06171
311.44751
309.85436
308.28213
306.73068
305.19986
303.68952
302.19949
300.7296
400.25697
397.86597
395.48025
393.10126
390.73015
388.36801
386.01585
383.67466
381.34535
379.02882
376.72589
374.43735
372.16395
369.90639
367.66533
365.44139
363.23514
361.04714
358.87788
356.72782
354.5974
352.48701
350.39701
348.32772
346.27944
344.25243
342.24693
340.26313
338.30122
336.36133
334.4436
332.54811
330.67494
328.82414
326.99572
325.1897
323.40606
321.64475
319.90573
318.18893
316.49425
314.82159
313.17083
311.54184
309.93448
308.34859
306.784
305.24054
303.71803
302.21628
300.7351
401.83792
399.39199
396.95206
394.51961
392.09584
389.68188
387.2788
384.8876
382.50926
380.14468
377.79473
375.46021
373.1419
370.84051
368.55671
366.29114
364.04437
361.81696
359.6094
357.42216
355.25567
353.1103
350.98642
348.88433
346.80431
344.74662
342.71148
340.69906
338.70952
336.743
334.79958
332.87934
330.98234
329.10859
327.2581
325.43084
323.62677
321.84584
320.08795
318.35302
316.64092
314.95153
313.28469
311.64026
310.01806
308.4179
306.8396
305.28296
303.74776
302.23379
300.74082
403.46982
400.96718
398.47129
395.98363
393.50547
391.03798
388.58228
386.13943
383.71042
381.2962
378.89765
376.51563
374.15091
371.80423
369.47627
367.16769
364.87905
362.61093
360.36381
358.13816
355.93441
353.75292
351.59404
349.45808
347.3453
345.25594
343.19019
341.14823
339.13018
337.13616
335.16624
333.22047
331.29888
329.40147
327.5282
325.67905
323.85393
322.05276
320.27543
318.52181
316.79177
315.08514
313.40176
311.74143
310.10395
308.48913
306.89673
305.32652
303.77828
302.25176
300.7467
405.13492
402.5744
400.02136
397.47732
394.94361
392.42145
389.91201
387.41638
384.93561
382.47067
380.0225
377.59194
375.17981
372.78687
370.41381
368.06129
365.7299
363.42019
361.13268
358.86781
356.62601
354.40765
352.21305
350.04252
347.8963
345.77462
343.67765
341.60554
339.55841
337.53634
335.5394
333.56759
331.62094
329.6994
327.80294
325.93147
324.0849
322.26312
320.46599
318.69335
316.94505
315.22088
313.52066
311.84416
310.19116
308.56142
306.95469
305.37072
303.80924
302.26998
300.75266
406.81742
404.19837
401.58753
398.98647
396.39656
393.81909
391.25527
388.70625
386.1731
383.65685
381.15845
378.67879
376.2187
373.77895
371.36026
368.9633
366.58866
364.2369
361.90853
359.60401
357.32375
355.06811
352.83741
350.63193
348.45192
346.29757
344.16906
342.0665
339.98999
337.93961
335.91537
333.91728
331.94532
329.99944
328.07956
326.18558
324.31738
322.47481
320.65771
318.86591
317.0992
315.35737
313.64018
311.94741
310.27878
308.63404
307.01291
305.4151
303.84032
302.28827
300.75864
408.50342
405.82565
403.15683
400.49856
397.85226
395.21928
392.60089
389.99828
387.41257
384.84483
382.29602
379.76708
377.25886
374.77215
372.30769
369.86613
367.44811
365.05417
362.68484
360.34055
358.02171
355.7287
353.4618
351.22131
349.00743
346.82035
344.66023
342.52717
340.42124
338.34249
336.29093
334.26653
332.26924
330.299
328.35569
326.43919
324.54935
322.686
320.84894
319.03798
317.25288
315.49341
313.75929
312.05027
310.36605
308.70635
307.07086
305.45926
303.87124
302.30646
300.76458
410.18076
407.44451
404.71793
402.00266
399.30018
396.61189
393.93912
391.28311
388.64503
386.02597
383.42694
380.84891
378.29274
375.75924
373.24917
370.76321
368.30198
365.86604
363.4559
361.07202
358.7148
356.38458
354.08167
351.80632
349.55874
347.33911
345.14755
342.98415
340.84897
338.74203
336.6633
334.61275
332.5903
330.59585
328.62927
326.69041
324.77909
322.89511
321.03825
319.20829
317.40495
315.62798
313.87708
312.15197
310.45231
308.7778
307.1281
305.50287
303.90176
302.3244
300.77045
411.83898
409.04484
406.26109
403.48937
400.73125
397.9882
395.26158
392.55269
389.86274
387.19287
384.54412
381.91747
379.31382
376.73401
374.1788
371.64888
369.14488
366.66738
364.21688
361.79383
359.39862
357.03161
354.69308
352.38327
350.10238
347.85057
345.62794
343.43456
341.27048
339.13568
337.03013
334.95375
332.90646
330.88812
328.89857
326.93765
325.00513
323.10081
321.22443
319.37573
317.55443
315.76023
313.99281
312.25185
310.53701
308.84793
307.18427
305.54564
303.93168
302.34199
300.77619
413.46916
410.61803
407.77797
404.95068
402.13778
399.34079
396.56114
393.80017
391.05915
388.33923
385.64151
382.96699
380.31661
377.6912
375.09155
372.51836
369.97228
367.45388
364.96366
362.50207
360.06951
357.66631
355.29274
352.94905
350.63541
348.35197
346.0988
343.87597
341.68349
339.52133
337.38943
335.2877
333.21601
331.17422
329.16214
327.17957
325.22627
323.302
321.40648
319.53942
317.70051
315.88943
314.10583
312.34937
310.61967
308.91636
307.23905
305.58735
303.96084
302.35912
300.78178
415.06379
412.15684
409.26163
406.37988
403.51329
400.66344
397.83182
395.01983
392.22875
389.4598
386.7141
383.99268
381.2965
378.62642
375.98325
373.36769
370.78039
368.22193
365.69283
363.19352
360.72439
358.28577
355.87793
353.50109
351.15541
348.84103
346.558
344.30637
342.08613
339.89722
337.73957
335.61307
333.51756
331.45286
329.41878
327.41507
325.44149
323.49775
321.58356
319.6986
317.84253
316.01501
314.21566
312.4441
310.69994
308.98278
307.29221
305.62779
303.98911
302.37572
300.78719
416.61671
413.6553
410.70629
407.77142
404.85246
401.95104
399.06872
396.20694
393.36703
390.55024
387.75774
384.99058
382.24973
379.53609
376.85047
374.19359
371.56612
368.96862
366.40161
363.86554
361.36078
358.88765
356.44642
354.03729
351.66042
349.3159
347.00381
344.72414
342.47688
340.26196
338.07926
335.92866
333.80998
331.72302
329.66754
327.6433
325.65001
323.68736
321.75504
319.8527
317.97998
316.1365
314.32187
312.53568
310.77752
309.04695
307.34354
305.66683
304.01639
302.39173
300.79241
418.12289
415.10859
412.10731
409.12083
406.15097
403.19945
400.26787
397.3577
394.47035
391.60709
388.76911
385.95751
383.17328
380.41733
377.69048
374.99348
372.32699
369.69159
367.08779
364.51603
361.97669
359.47008
356.99646
354.55601
352.14887
349.77514
347.43486
345.12802
342.85457
340.61442
338.40746
336.23351
334.09239
331.98386
329.90768
327.86356
325.8512
323.87026
321.92041
320.00127
318.11245
316.25356
314.42417
312.62386
310.85218
309.10868
307.3929
305.70436
304.04259
302.40711
300.79741
419.57839
416.5129
413.46102
410.42458
407.40546
404.40543
401.42615
398.46915
395.53587
392.62762
389.74563
386.89101
384.06479
381.26789
378.50116
375.76534
373.0611
370.38903
367.74965
365.14338
362.57061
360.03163
357.52668
355.05596
352.61958
350.21762
347.85011
345.51702
343.21828
340.95379
338.72339
336.52691
334.36413
332.2348
330.13864
328.07535
326.0446
324.04604
322.07929
320.14396
318.23964
316.36591
314.52233
312.70843
310.92376
309.16784
307.44018
305.74029
304.06767
302.42181
300.8022
420.9802
417.86534
414.76465
411.68001
408.61336
405.56653
402.54123
399.53904
396.56144
393.60979
390.68533
387.78922
384.9225
382.08611
379.28091
376.50765
373.76703
371.05961
368.38592
365.7464
363.1414
360.57123
358.03611
355.53623
353.07168
350.64254
348.24881
345.89045
343.56736
341.27944
339.0265
336.80834
334.62473
332.47539
330.36003
328.27831
326.22989
324.21439
322.23142
320.28055
318.36136
316.47339
314.61619
312.78927
310.99216
309.22434
307.48532
305.77458
304.09159
302.43582
300.80675
422.32618
419.16383
416.01621
412.8852
409.77283
406.68098
403.61141
400.56576
397.54554
394.55214
391.58685
388.65084
385.74517
382.87081
380.02862
377.21939
374.44378
371.70239
368.99574
366.32425
363.6883
361.08816
358.52407
355.99618
353.50459
351.04935
348.63045
346.24783
343.90139
341.59098
339.31642
337.07747
334.87388
332.70537
330.57159
328.47222
326.40687
324.37515
322.37663
320.41089
318.47746
316.57588
314.70566
312.86631
311.0573
309.27814
307.52827
305.80718
304.11432
302.44913
300.81108
423.61488
420.407
417.21436
414.03889
410.88267
407.74764
404.63562
401.54829
398.48719
395.45375
392.4493
389.47502
386.53201
383.62125
380.74361
377.89988
375.09074
372.31679
369.57855
366.87645
364.21084
361.582
358.99015
356.43544
353.91796
351.43773
348.99474
346.58891
344.22012
341.8882
339.59294
337.33411
335.11143
332.92457
330.7732
328.65696
326.57543
324.52821
322.51486
320.53492
318.58791
316.67335
314.79071
312.9395
311.11918
309.3292
307.56903
305.8381
304.13586
302.46174
300.81517
424.84551
421.59409
418.3584
415.1404
411.94223
408.7659
405.61327
402.48606
399.38586
396.31413
393.27222
390.26135
387.28263
384.33706
381.42552
378.54881
375.70762
372.90255
370.13412
367.40276
364.70881
362.05255
359.43419
356.85387
354.31165
351.80757
349.34158
346.91359
344.52346
342.17101
339.85602
337.57822
335.33732
333.13297
330.96483
328.8325
326.73556
324.67358
322.6461
320.65264
318.69271
316.76578
314.87135
313.00886
311.17778
309.37755
307.60759
305.86735
304.15623
302.47365
300.81903
426.01784
422.72487
419.4481
416.18952
412.95133
409.73559
406.5442
403.37895
400.24144
397.13318
394.05554
391.00976
387.99697
385.01819
382.07432
379.16616
376.29441
373.45967
370.66245
367.90319
365.18223
362.49984
359.85622
357.25149
354.68571
352.15891
349.67101
347.22191
344.81147
342.43948
340.1057
337.80985
335.55161
333.33064
331.14654
328.99891
326.88732
324.81131
322.77041
320.7641
318.79189
316.85324
314.94761
313.07444
311.23316
309.42321
307.644
305.89494
304.17543
302.48487
300.82267
427.13209
423.79956
420.4837
417.18648
413.91019
410.65693
407.42866
404.22718
401.05416
397.91112
394.79946
391.72046
388.67525
385.66487
382.69023
379.75215
376.85132
373.98835
371.16376
368.37796
365.63132
362.92407
360.25643
357.6285
355.04033
352.49192
349.98321
347.51407
345.08433
342.69378
340.34215
338.02916
335.75446
333.5177
331.31846
329.15632
327.03083
324.94151
322.88788
320.8694
318.88556
316.9358
315.01957
313.13629
311.28537
309.46624
307.67828
305.9209
304.19349
302.49542
300.82608
428.1889
424.81876
421.46576
418.13185
414.81937
411.53047
408.26716
405.03128
401.82452
398.64846
395.50449
392.39393
389.31793
386.27755
383.27369
380.3072
377.37876
374.48899
371.63841
368.82744
366.05642
363.3256
360.63516
357.98522
355.37581
352.80692
350.27847
347.79032
345.34228
342.93414
340.5656
338.23637
335.94608
333.69436
331.48078
329.3049
327.16625
325.06434
322.99866
320.96868
318.97384
317.01358
315.08733
313.1945
311.33449
309.5067
307.7105
305.94529
304.21043
302.50531
300.82928
429.1892
425.78335
422.39515
419.02649
415.67971
412.35703
409.06051
405.79202
402.55329
399.34591
396.17133
393.03086
389.92568
386.85685
383.82532
380.8319
377.87731
374.96216
372.08696
369.25214
366.45803
363.70488
360.99287
358.32209
355.69258
353.1043
350.55716
348.05102
345.58568
343.16089
340.77636
338.43177
336.12674
333.86087
331.63374
329.44487
327.29379
325.17999
323.10294
321.06209
319.05687
317.08671
315.15102
313.24919
311.38061
309.54466
307.74072
305.96815
304.22631
302.51457
300.83227
430.13409
426.69455
423.27299
419.87149
416.49228
413.13765
409.80971
406.51037
403.24139
400.00439
396.80084
393.63208
390.4993
387.40358
384.34587
381.32699
378.34766
375.40851
372.51004
369.65268
366.83675
364.06249
361.33009
358.63962
355.99111
353.38451
350.81973
348.2966
345.81492
343.37441
340.97478
338.61569
336.29674
334.01753
331.77761
329.5765
327.4137
325.28868
323.20091
321.14982
319.13483
317.15534
315.21076
313.30047
311.42383
309.58022
307.76901
305.98953
304.24115
302.52321
300.83506
427.55362
424.10064
420.66815
417.25834
413.87355
410.51595
407.18748
403.88993
400.62497
397.39407
394.19859
391.03975
387.91864
384.83621
381.79329
378.79063
375.82882
372.90839
370.02975
367.19323
364.39907
361.64743
358.93839
356.27196
353.6481
351.06668
348.52753
346.03044
343.57512
341.16126
338.78851
336.45645
334.16468
331.91271
329.70006
327.52623
325.39066
323.2928
321.23207
319.20789
317.21964
315.26671
313.34846
311.46427
309.61347
307.79544
306.0095
304.255
302.53127
300.83766
428.36245
424.87972
421.41798
417.97931
414.5661
411.18053
407.8246
404.50013
401.2088
397.95212
394.73147
391.54807
388.40302
385.2973
382.23174
379.20708
376.22393
373.28281
370.38414
367.52823
364.71532
361.94557
359.21904
356.53575
353.89562
351.29854
348.74432
346.23273
343.76348
341.33623
338.95062
336.60624
334.30264
332.03935
329.81587
327.63166
325.48617
323.37883
321.30906
319.27625
317.27977
315.31901
313.39331
311.50203
309.64451
307.82009
306.02811
304.2679
302.53878
300.84008
429.12246
425.61181
422.12254
418.65671
415.21675
411.80487
408.4231
405.07329
401.75715
398.47622
395.23187
392.02537
388.85781
385.73018
382.64332
379.59797
376.59475
373.63417
370.71666
367.84251
365.01198
362.2252
359.48223
356.78309
354.12769
351.51589
348.94751
346.4223
343.93995
341.50013
339.10246
336.7465
334.4318
332.15788
329.92422
327.73028
325.57549
323.45927
321.38101
319.34011
317.33593
315.36783
313.43515
311.53724
309.67343
307.84306
306.04544
304.27989
302.54575
300.84232
429.83544
426.29861
422.78349
419.29215
415.82705
412.39045
408.9844
405.6108
402.27135
398.96763
395.70103
392.47283
389.28412
386.13591
383.02905
379.96427
376.94221
373.96336
371.02816
368.1369
365.28982
362.48706
359.72867
357.01465
354.34491
351.71931
349.13765
346.59966
344.10504
341.65343
339.24444
336.87763
334.55253
332.26865
330.02546
327.82239
325.65889
323.53435
321.44815
319.39968
317.38829
315.41332
313.47413
311.57003
309.70035
307.86441
306.06153
304.29103
302.55221
300.8444
430.50325
426.94189
423.40254
419.88727
416.39859
412.9388
409.50999
406.11407
402.75276
399.42767
396.14021
392.89164
389.68311
386.5156
383.38998
380.307
377.26726
374.2713
371.31951
368.41222
365.54964
362.7319
359.95906
357.23111
354.54794
351.90941
349.31531
346.76535
344.25923
341.79659
339.377
337.00004
334.66521
332.37201
330.11989
327.9083
325.73665
323.60432
321.51071
319.45516
317.43704
315.45566
313.51038
311.6005
309.72535
307.88424
306.07647
304.30135
302.5582
300.84632
431.12779
427.54348
423.98143
420.44375
416.933
413.45151
410.00137
406.58454
403.20277
399.85767
396.55066
393.28304
390.05595
386.87038
383.7272
380.62717
377.5709
374.55891
371.59161
368.66931
365.79222
362.96048
360.17413
357.43314
354.73741
352.08679
349.48105
346.91991
344.40305
341.93008
339.5006
337.11414
334.77021
332.4683
330.20786
327.9883
325.80904
323.66945
321.56891
319.50676
317.48235
315.49501
313.54405
311.62879
309.74855
307.90262
306.0903
304.31091
302.56374
300.84809
431.71095
428.10518
424.52193
420.96331
417.43192
413.93013
410.46006
407.02368
403.62278
400.25897
396.93369
393.64826
390.40381
387.20136
384.04177
380.92581
377.85409
374.82713
371.84534
368.90902
366.01838
363.17355
360.37458
357.62141
354.91396
352.25205
349.63545
347.06387
344.53697
342.05438
339.61565
337.22034
334.86793
332.55789
330.28968
328.06269
325.87633
323.72998
321.62298
319.55468
317.52442
315.53151
313.57528
311.65502
309.77004
307.91963
306.1031
304.31974
302.56885
300.84973
432.25462
428.62885
425.0258
421.44763
417.89698
414.37624
410.88756
407.43294
404.01418
400.6329
397.29058
393.98851
390.72787
387.50966
384.33477
381.20394
378.11781
375.07688
372.08157
369.13217
366.2289
363.37187
360.56112
357.79661
355.07823
352.40579
349.77907
347.19776
344.66151
342.16994
339.72261
337.31904
334.95872
332.64112
330.36567
328.13177
325.9388
323.78614
321.67314
319.59912
317.56342
315.56534
313.6042
311.67929
309.78992
307.93536
306.11493
304.3279
302.57357
300.85123
432.76069
429.11627
425.49479
421.89841
418.32981
414.7914
411.28538
407.81376
404.37835
400.98079
397.62258
394.30502
391.02929
387.7964
384.60725
381.46257
378.36301
375.30908
372.30117
369.3396
366.42456
363.55617
360.73447
357.95939
355.23083
352.5486
349.91245
347.32209
344.77714
342.27722
339.82188
337.41064
335.04297
332.71833
330.43615
328.19581
325.99671
323.83819
321.7196
319.64027
317.59952
315.59664
313.63095
311.70173
309.80828
307.94988
306.12583
304.33541
302.57791
300.85262
433.231
429.56926
425.93063
422.3173
418.73199
415.17715
411.65499
408.16754
404.71664
401.30395
397.93095
394.59898
391.30921
388.06267
384.86024
381.70269
378.59064
375.52461
372.505
369.53211
366.60613
363.72718
360.89529
358.1104
355.37238
352.68105
350.03615
347.43737
344.88434
342.37666
339.91388
337.49551
335.12101
332.78984
330.50141
328.25511
326.0503
323.88635
321.76258
319.67832
317.63288
315.62556
313.65565
311.72244
309.82522
307.96327
306.13588
304.34233
302.5819
300.85389
433.66738
429.98955
426.335
422.70593
419.1051
415.53499
411.99784
408.49569
405.03039
401.60363
398.2169
394.87154
391.56873
388.30951
385.09477
381.92526
378.80162
375.72436
372.69388
369.71048
366.77436
363.88561
361.04427
358.25026
355.50347
352.8037
350.15067
347.54409
344.98357
342.4687
339.99902
337.57403
335.19321
332.85598
330.56176
328.30992
326.09984
323.93085
321.80228
319.71346
317.66368
315.65224
313.67842
311.74153
309.84082
307.97559
306.14512
304.34868
302.58556
300.85505
434.0716
430.37887
426.70956
423.06589
419.45066
415.86639
412.31532
408.79954
405.3209
401.88109
398.48162
395.12385
391.80895
388.53797
385.31181
382.13122
378.99684
375.90917
372.86862
369.87549
366.92996
364.03213
361.18203
358.37959
355.62468
352.91708
350.25654
347.64273
345.07527
342.55374
340.07767
337.64657
335.25988
332.91705
330.61747
328.36051
326.14554
323.9719
321.83889
319.74585
317.69206
315.67681
313.6994
311.75909
309.85517
307.98691
306.1536
304.35451
302.58892
300.85612
434.44537
430.73887
427.05589
423.39871
419.77015
416.17276
412.60881
409.0804
405.5894
402.13752
398.72626
395.357
392.03091
388.74906
385.51232
382.32148
379.17715
376.07986
373.03
370.02786
367.07363
364.16742
361.30922
358.49898
355.73655
353.02173
350.35423
347.73374
345.15987
342.63218
340.15022
337.71346
335.32136
332.97335
330.66881
328.40713
326.18765
324.0097
321.8726
319.77566
317.71817
315.69942
313.71868
311.77523
309.86834
307.9973
306.16138
304.35985
302.59199
300.85709
434.79038
431.07116
427.37557
423.70589
420.065
416.45548
412.87963
409.33954
405.83712
402.37408
398.95193
395.57205
392.23563
388.94372
385.69723
382.49691
379.34341
376.23723
373.17877
370.16832
367.20606
364.2921
361.42643
358.60899
355.83963
353.11813
350.44423
347.81757
345.23778
342.70442
340.21701
337.77504
335.37795
333.02516
330.71606
328.45001
326.22637
324.04446
321.90359
319.80306
317.74216
315.72017
313.73637
311.79003
309.88043
308.00683
306.1685
304.36473
302.5948
300.85798
435.10823
431.3773
427.67007
423.98886
420.33659
416.71587
413.12903
409.57818
406.06523
402.59189
399.1597
395.77003
392.42408
389.1229
385.86741
382.65836
379.4964
376.38203
373.31565
370.29754
367.32789
364.40679
361.53424
358.71017
355.93442
353.20678
350.52697
347.89464
345.3094
342.77081
340.27839
337.83162
335.42993
333.07275
330.75945
328.48939
326.26192
324.07636
321.93202
319.82818
317.76415
315.73919
313.75258
311.80359
309.89148
308.01554
306.17501
304.3692
302.59736
300.85879
435.40049
431.65879
427.94085
424.249
420.58625
416.95521
413.35825
409.79749
406.27484
402.79203
399.35059
395.95191
392.59719
389.28749
386.02372
382.80664
379.6369
376.515
373.44133
370.41618
367.43973
364.51207
361.63319
358.80303
356.02142
353.28813
350.60289
347.96535
345.37511
342.83172
340.33469
337.88351
335.4776
333.11638
330.79922
328.52548
326.29449
324.10558
321.95805
319.85119
317.78428
315.75659
313.76741
311.81598
309.90159
308.02349
306.18096
304.37326
302.59969
300.85953
435.66864
431.91707
428.18928
424.48765
420.81524
417.17472
413.56846
409.99859
406.46704
402.97552
399.52559
396.11864
392.75586
389.43834
386.16697
382.94253
379.76564
376.63683
373.55648
370.52487
367.54218
364.6085
361.72383
358.88808
356.10109
353.36263
350.67241
348.03009
345.43525
342.88746
340.38622
337.93099
335.52122
333.15629
330.83559
328.55847
326.32427
324.13229
321.98184
319.87221
317.80267
315.77249
313.78094
311.82729
309.9108
308.03073
306.18637
304.37696
302.60181
300.8602
435.91413
432.15352
428.41669
424.70606
421.02479
417.37556
413.76077
410.18256
406.64284
403.14335
399.68565
396.27111
392.90096
389.57627
386.29794
383.06675
379.88333
376.74819
373.66172
370.6242
367.63581
364.69663
361.80665
358.96578
356.17387
353.43068
350.73591
348.08922
345.49019
342.93837
340.43327
337.97435
335.56103
333.19272
330.86879
328.58859
326.35144
324.15666
322.00355
319.89137
317.81943
315.78697
313.79327
311.83758
309.91918
308.03733
306.19128
304.38032
302.60374
300.8608
436.13834
432.36946
428.62433
424.90546
421.21604
417.55885
413.93626
410.35042
406.80324
403.29647
399.83165
396.41019
393.0333
389.70206
386.41737
383.18002
379.99063
376.84972
373.75766
370.71475
367.72115
364.77695
361.88213
359.0366
356.2402
353.49269
350.79377
348.14309
345.54023
342.98474
340.47612
338.01382
335.59728
333.22589
330.89902
328.616
326.37617
324.17884
322.02329
319.90881
317.83467
315.80013
313.80447
311.84694
309.92679
308.04331
306.19574
304.38337
302.60548
300.86135
436.3426
432.56614
428.81342
425.08697
421.39012
417.72564
414.09594
410.50314
406.94917
403.43576
399.96446
396.53669
393.15366
389.81644
386.52597
383.283
380.08818
376.94201
373.84488
370.79706
367.79872
364.84995
361.95073
359.10096
356.30047
353.54903
350.84634
348.19203
345.58569
343.02686
340.51504
338.04968
335.63021
333.25601
330.92646
328.64089
326.39862
324.19896
322.0412
319.92462
317.84849
315.81207
313.81462
311.85541
309.93369
308.04872
306.19977
304.38612
302.60705
300.86184
436.52818
432.74477
428.98508
425.25171
421.54805
417.87694
414.24077
410.64166
407.08152
403.56208
400.0849
396.65138
393.26277
389.92014
386.62441
383.37635
380.17659
377.02565
373.92391
370.87164
367.86901
364.91609
362.01287
359.15926
356.35507
353.60007
350.89395
348.23635
345.62686
343.06501
340.55028
338.08215
335.66002
333.28328
330.9513
328.66341
326.41893
324.21717
322.0574
319.93892
317.86098
315.82285
313.82379
311.86306
309.93991
308.0536
306.20341
304.3886
302.60846
300.86229
436.6963
432.90648
429.14036
425.40068
421.69084
418.01372
414.37169
410.76686
407.20114
403.67624
400.19373
396.75502
393.36135
390.01381
386.71332
383.46065
380.25644
377.10119
373.99528
370.93898
367.93247
364.97581
362.06898
359.21189
356.40435
353.64613
350.93693
348.27636
345.66402
343.09943
340.58209
338.11145
335.68691
333.30788
330.9737
328.68372
326.43725
324.23358
322.07201
319.95181
317.87225
315.83258
313.83206
311.86995
309.94551
308.058
306.20668
304.39083
302.60974
300.86268
436.84812
433.05229
429.28025
425.53487
421.81943
418.13687
414.48956
410.87959
407.30883
403.77901
400.29169
396.84829
393.45006
390.09809
386.79331
383.53649
380.32826
377.16913
374.05947
370.99955
367.98954
365.0295
362.11943
359.25921
356.44867
353.68756
350.97557
348.31233
345.69743
343.13038
340.61068
338.13778
335.71109
333.32999
330.99384
328.70197
326.4537
324.24833
322.08513
319.96339
317.88236
315.8413
313.83948
311.87614
309.95054
308.06194
306.20961
304.39283
302.61087
300.86304
436.9848
433.18314
429.40568
425.65517
421.93471
418.24726
414.59522
410.98063
407.40536
403.87112
400.37948
396.93186
393.52953
390.17359
386.86496
383.60441
380.39258
377.22996
374.11693
371.05377
368.04063
365.07758
362.16459
359.30157
356.48834
353.72464
351.01016
348.34453
345.72733
343.15808
340.63627
338.16135
335.73272
333.34977
331.01185
328.7183
326.46843
324.26152
322.09687
319.97374
317.8914
315.8491
313.8461
311.88166
309.95503
308.06546
306.21223
304.39461
302.61189
300.86336
433.30002
429.51755
425.76244
422.0375
418.3457
414.68944
411.07074
407.49145
403.95326
400.45775
397.00636
393.60037
390.24087
386.92879
383.66492
380.44987
377.28414
374.16812
371.10207
368.08614
365.1204
362.20482
359.33931
356.52367
353.75766
351.04096
348.3732
345.75395
343.18274
340.65905
338.18233
335.75198
333.36738
331.02789
328.73284
326.48153
324.27326
322.10731
319.98295
317.89944
315.85604
313.852
311.88657
309.95902
308.06859
306.21456
304.39619
302.61279
300.86364
433.40368
429.61671
425.85747
422.12861
418.43296
414.77297
411.15065
407.56779
404.02609
400.52713
397.07238
393.66312
390.30046
386.98533
383.71851
380.50061
377.33213
374.21345
371.14483
368.12643
365.15831
362.24044
359.37271
356.55495
353.7869
351.06823
348.39858
345.77752
343.20457
340.67922
338.2009
335.76903
333.38297
331.04209
328.7457
326.49313
324.28365
322.11655
319.9911
317.90656
315.86218
313.85722
311.89092
309.96255
308.07135
306.21661
304.39759
302.61358
300.86389
433.49541
429.70394
425.94105
422.20879
418.50977
414.84652
411.22101
407.63501
404.09022
400.58821
397.13048
393.71834
390.35289
387.03507
383.76564
380.54523
377.37433
374.25331
371.18244
368.16186
365.19164
362.27175
359.40208
356.58245
353.8126
351.0922
348.4209
345.79824
343.22377
340.69695
338.21723
335.78401
333.39667
331.05456
328.75701
326.50332
324.29278
322.12468
319.99827
317.91281
315.86757
313.8618
311.89474
309.96564
308.07378
306.21841
304.39882
302.61428
300.8641
429.78008
426.01392
422.27873
418.57681
414.91074
411.28248
407.69376
404.14625
400.64156
397.18121
393.76652
390.39863
387.07844
383.80674
380.58414
377.41112
374.28807
371.21522
368.19275
365.2207
362.29905
359.42769
356.60642
353.835
351.1131
348.44035
345.81631
343.2405
340.7124
338.23146
335.79707
333.40862
331.06544
328.76687
326.5122
324.30074
322.13175
320.00451
317.91827
315.87227
313.86579
311.89806
309.96835
308.0759
306.21999
304.39989
302.61489
300.86429
429.84564
426.07681
422.3391
418.63474
414.96628
411.33565
407.74459
404.19473
400.68769
397.22504
393.80814
390.43812
387.11589
383.84222
380.61772
377.44288
374.31806
371.24351