/*--------------------------------*- C++ -*----------------------------------*\
| =========                 |                                                 |
| \\      /  F ield         | OpenFOAM: The Open Source CFD Toolbox           |
|  \\    /   O peration     | Version:  2312                                  |
|   \\  /    A nd           | Website:  www.openfoam.com                      |
|    \\/     M anipulation  |                                                 |
\*---------------------------------------------------------------------------*/
FoamFile
{
    version     2.0;
    format      ascii;
    arch        "LSB;label=32;scalar=64";
    class       volVectorField;
    location    "0.05";
    object      U;
}
// * * * * * * * * * * * * * * * * * * * * * * * * * * * * * * * * * * * * * //

dimensions      [0 1 -1 0 0 0 0];

internalField   nonuniform List<vector> 
3257
(
(0.16256977 -0.58597909 0)
(0.15568005 -0.57569863 0)
(0.14891261 -0.56555093 0)
(0.14226634 -0.55553076 0)
(0.13574032 -0.54563288 0)
(0.12933382 -0.53585211 0)
(0.12304625 -0.52618345 0)
(0.11687726 -0.51662206 0)
(0.11082666 -0.50716335 0)
(0.10489443 -0.49780301 0)
(0.099080725 -0.48853707 0)
(0.093385847 -0.47936193 0)
(0.087810229 -0.47027442 0)
(0.082354429 -0.46127185 0)
(0.07701911 -0.45235199 0)
(0.071805028 -0.44351318 0)
(0.066713013 -0.43475432 0)
(0.061743957 -0.42607491 0)
(0.056898794 -0.41747507 0)
(0.05217849 -0.40895558 0)
(0.047584023 -0.40051788 0)
(0.043116375 -0.3921641 0)
(0.038776514 -0.38389709 0)
(0.034565382 -0.37572038 0)
(0.030483887 -0.36763826 0)
(0.026532894 -0.35965574 0)
(0.02271321 -0.35177854 0)
(0.019025585 -0.34401314 0)
(0.015470703 -0.33636677 0)
(0.01204918 -0.32884736 0)
(0.0087615627 -0.32146361 0)
(0.0056083323 -0.31422495 0)
(0.0025899058 -0.30714156 0)
(-0.00029335308 -0.30022434 0)
(-0.0030411241 -0.293485 0)
(-0.0056531181 -0.286936 0)
(-0.0081290591 -0.28059064 0)
(-0.010468658 -0.27446311 0)
(-0.012671582 -0.26856853 0)
(-0.014737413 -0.26292313 0)
(-0.016665602 -0.25754437 0)
(-0.018455404 -0.25245117 0)
(-0.02010581 -0.24766419 0)
(-0.021615496 -0.24320625 0)
(-0.022982761 -0.23910298 0)
(-0.024205081 -0.23538371 0)
(-0.025278037 -0.23208227 0)
(-0.026196798 -0.22923767 0)
(-0.026970705 -0.22690183 0)
(-0.027640619 -0.22517543 0)
(-0.028164035 -0.22425678 0)
(0.16257552 -0.54916339 0)
(0.15561292 -0.53969284 0)
(0.14877499 -0.53035319 0)
(0.14206053 -0.52113892 0)
(0.13546857 -0.51204455 0)
(0.12899831 -0.50306471 0)
(0.12264916 -0.49419415 0)
(0.11642071 -0.48542785 0)
(0.11031273 -0.476761 0)
(0.10432519 -0.46818912 0)
(0.098458197 -0.45970805 0)
(0.092712015 -0.45131403 0)
(0.087087044 -0.44300372 0)
(0.081583805 -0.43477425 0)
(0.076202922 -0.42662325 0)
(0.070945112 -0.41854889 0)
(0.065811164 -0.41054994 0)
(0.060801925 -0.40262572 0)
(0.055918285 -0.39477622 0)
(0.051161161 -0.38700206 0)
(0.04653148 -0.37930455 0)
(0.042030166 -0.37168568 0)
(0.037658128 -0.36414814 0)
(0.033416243 -0.35669536 0)
(0.029305348 -0.34933147 0)
(0.025326224 -0.34206137 0)
(0.021479594 -0.33489067 0)
(0.017766107 -0.32782576 0)
(0.014186336 -0.32087377 0)
(0.010740769 -0.31404258 0)
(0.0074298111 -0.30734083 0)
(0.0042537745 -0.30077793 0)
(0.0012128833 -0.29436407 0)
(-0.0016927282 -0.28811021 0)
(-0.0044630144 -0.28202812 0)
(-0.0070980122 -0.27613041 0)
(-0.0095978378 -0.27043057 0)
(-0.011962684 -0.26494305 0)
(-0.014192819 -0.25968332 0)
(-0.016288589 -0.25466805 0)
(-0.01825043 -0.24991522 0)
(-0.020078887 -0.2454444 0)
(-0.021774686 -0.24127703 0)
(-0.023338921 -0.23743675 0)
(-0.024773336 -0.23394991 0)
(-0.026080043 -0.2308461 0)
(-0.027260212 -0.22815834 0)
(-0.028318792 -0.22592267 0)
(-0.029297413 -0.22418012 0)
(-0.030310623 -0.22298994 0)
(-0.031263356 -0.22243393 0)
(0.16321022 -0.52388015 0)
(0.15610853 -0.51493994 0)
(0.14913572 -0.50613049 0)
(0.14229056 -0.49744612 0)
(0.13557201 -0.48888119 0)
(0.12897921 -0.48043015 0)
(0.1225115 -0.47208763 0)
(0.1161684 -0.46384843 0)
(0.10994963 -0.45570762 0)
(0.10385508 -0.44766057 0)
(0.097884796 -0.43970299 0)
(0.092038974 -0.43183099 0)
(0.08631794 -0.4240411 0)
(0.080722138 -0.41633032 0)
(0.075252118 -0.40869617 0)
(0.069908511 -0.40113671 0)
(0.064692022 -0.39365054 0)
(0.059603409 -0.38623691 0)
(0.054643466 -0.37889565 0)
(0.049813009 -0.37162728 0)
(0.04511286 -0.36443297 0)
(0.040543828 -0.35731459 0)
(0.0361067 -0.3502747 0)
(0.031802221 -0.3433166 0)
(0.027631086 -0.33644432 0)
(0.023593919 -0.3296626 0)
(0.019691273 -0.32297695 0)
(0.015923606 -0.31639363 0)
(0.01229128 -0.30991966 0)
(0.0087945493 -0.30356279 0)
(0.0054335479 -0.29733157 0)
(0.0022082848 -0.2912353 0)
(-0.00088136728 -0.28528406 0)
(-0.0038356809 -0.27948872 0)
(-0.0066550859 -0.27386097 0)
(-0.0093401828 -0.2684133 0)
(-0.011891762 -0.26315913 0)
(-0.014310832 -0.25811275 0)
(-0.016598657 -0.25328951 0)
(-0.018756815 -0.24870583 0)
(-0.020787282 -0.24437937 0)
(-0.02269255 -0.24032918 0)
(-0.024475834 -0.23657584 0)
(-0.026141461 -0.23314161 0)
(-0.02769539 -0.23005056 0)
(-0.029144934 -0.22732851 0)
(-0.030496933 -0.22500242 0)
(-0.031763795 -0.22309867 0)
(-0.033006857 -0.22164197 0)
(-0.034380151 -0.22066209 0)
(-0.035725179 -0.22019992 0)
(0.16424368 -0.49982003 0)
(0.15694785 -0.49137794 0)
(0.14978677 -0.48306671 0)
(0.14275915 -0.4748805 0)
(0.13586386 -0.46681353 0)
(0.12909999 -0.4588601 0)
(0.12246677 -0.45101468 0)
(0.11596365 -0.44327195 0)
(0.10959026 -0.43562684 0)
(0.10334637 -0.42807458 0)
(0.097231955 -0.42061076 0)
(0.091247088 -0.41323137 0)
(0.08539199 -0.40593281 0)
(0.079666995 -0.39871196 0)
(0.074072529 -0.39156621 0)
(0.068609101 -0.38449349 0)
(0.063277286 -0.3774923 0)
(0.058077703 -0.37056173 0)
(0.053011002 -0.36370151 0)
(0.048077847 -0.35691201 0)
(0.043278898 -0.35019426 0)
(0.038614794 -0.34355001 0)
(0.034086137 -0.33698166 0)
(0.029693478 -0.33049238 0)
(0.025437299 -0.32408602 0)
(0.021317998 -0.3177672 0)
(0.017335876 -0.31154126 0)
(0.013491122 -0.30541429 0)
(0.0097837965 -0.29939313 0)
(0.0062138198 -0.29348538 0)
(0.0027809544 -0.2876994 0)
(-0.00051521028 -0.28204428 0)
(-0.0036752768 -0.27652991 0)
(-0.0067000611 -0.27116693 0)
(-0.0095906178 -0.26596676 0)
(-0.012348272 -0.26094162 0)
(-0.014974663 -0.25610457 0)
(-0.017471794 -0.25146948 0)
(-0.019842111 -0.24705115 0)
(-0.022088597 -0.24286531 0)
(-0.024214905 -0.23892867 0)
(-0.026225531 -0.235259 0)
(-0.028126077 -0.23187511 0)
(-0.029923704 -0.22879679 0)
(-0.031627692 -0.22604464 0)
(-0.033248913 -0.22363962 0)
(-0.034797113 -0.22160209 0)
(-0.03628701 -0.21994969 0)
(-0.037789187 -0.21869571 0)
(-0.039482458 -0.21785492 0)
(-0.041155437 -0.21745399 0)
(0.16556569 -0.47679758 0)
(0.15802831 -0.46882298 0)
(0.150633 -0.46097966 0)
(0.14337835 -0.45326163 0)
(0.13626319 -0.44566294 0)
(0.12928648 -0.43817776 0)
(0.12244736 -0.43080043 0)
(0.11574517 -0.42352548 0)
(0.10917942 -0.41634772 0)
(0.10274977 -0.40926226 0)
(0.096456037 -0.40226457 0)
(0.090298182 -0.3953505 0)
(0.084276277 -0.38851634 0)
(0.078390502 -0.38175885 0)
(0.072641131 -0.3750753 0)
(0.067028506 -0.36846348 0)
(0.06155303 -0.36192177 0)
(0.056215141 -0.35544913 0)
(0.0510153 -0.34904515 0)
(0.04595397 -0.34271005 0)
(0.041031601 -0.33644472 0)
(0.036248608 -0.33025074 0)
(0.031605358 -0.32413037 0)
(0.027102147 -0.31808659 0)
(0.022739189 -0.31212308 0)
(0.018516591 -0.30624426 0)
(0.014434341 -0.30045527 0)
(0.010492289 -0.294762 0)
(0.0066901238 -0.28917106 0)
(0.0030273592 -0.2836898 0)
(-0.00049669116 -0.27832631 0)
(-0.003882936 -0.27308941 0)
(-0.007132534 -0.26798865 0)
(-0.010246924 -0.26303431 0)
(-0.013227865 -0.25823742 0)
(-0.016077477 -0.2536097 0)
(-0.018798304 -0.24916363 0)
(-0.021393383 -0.24491242 0)
(-0.023866335 -0.24087 0)
(-0.026221486 -0.23705105 0)
(-0.028464006 -0.23347094 0)
(-0.030600096 -0.23014575 0)
(-0.032637232 -0.22709211 0)
(-0.034584594 -0.22432703 0)
(-0.036453549 -0.22186754 0)
(-0.038256822 -0.21973015 0)
(-0.040004875 -0.21792982 0)
(-0.04171179 -0.21647803 0)
(-0.043452705 -0.21538117 0)
(-0.045426256 -0.21464618 0)
(-0.047381399 -0.21429258 0)
(0.16708123 -0.45500272 0)
(0.15926215 -0.44746206 0)
(0.15159366 -0.44005332 0)
(0.14407428 -0.43277034 0)
(0.13670271 -0.42560704 0)
(0.12947782 -0.41855746 0)
(0.12239862 -0.4116158 0)
(0.11546431 -0.40477648 0)
(0.10867428 -0.39803418 0)
(0.10202802 -0.39138391 0)
(0.095525215 -0.38482101 0)
(0.089165641 -0.37834122 0)
(0.082949202 -0.37194071 0)
(0.076875896 -0.36561613 0)
(0.070945804 -0.35936461 0)
(0.06515907 -0.35318384 0)
(0.059515887 -0.34707205 0)
(0.054016473 -0.34102807 0)
(0.048661059 -0.33505134 0)
(0.043449867 -0.32914194 0)
(0.038383093 -0.32330061 0)
(0.033460886 -0.31752872 0)
(0.028683328 -0.31182839 0)
(0.02405042 -0.30620237 0)
(0.019562055 -0.30065416 0)
(0.015218005 -0.29518794 0)
(0.011017895 -0.28980862 0)
(0.0069611854 -0.28452183 0)
(0.0030471466 -0.27933389 0)
(-0.00072516254 -0.27425185 0)
(-0.0043569227 -0.26928345 0)
(-0.0078495828 -0.26443714 0)
(-0.011204893 -0.25972206 0)
(-0.014424943 -0.25514801 0)
(-0.017512207 -0.25072545 0)
(-0.020469598 -0.24646551 0)
(-0.023300531 -0.24237991 0)
(-0.026009005 -0.23848098 0)
(-0.028599692 -0.23478164 0)
(-0.031078062 -0.23129528 0)
(-0.033450509 -0.2280358 0)
(-0.035724513 -0.22501742 0)
(-0.037908839 -0.22225457 0)
(-0.040013896 -0.21976162 0)
(-0.042052132 -0.21755246 0)
(-0.044036952 -0.21563997 0)
(-0.045978357 -0.21403515 0)
(-0.047888542 -0.2127454 0)
(-0.04984502 -0.21177311 0)
(-0.052063589 -0.21112077 0)
(-0.054264019 -0.21080364 0)
(0.16870305 -0.43440968 0)
(0.16056886 -0.42727106 0)
(0.15259484 -0.4202651 0)
(0.14477939 -0.41338552 0)
(0.13712109 -0.40662609 0)
(0.12961868 -0.39998074 0)
(0.12227105 -0.39344356 0)
(0.11507724 -0.38700884 0)
(0.10803646 -0.38067118 0)
(0.10114805 -0.37442545 0)
(0.094411508 -0.36826689 0)
(0.087826416 -0.36219115 0)
(0.081392478 -0.35619428 0)
(0.07510948 -0.35027281 0)
(0.068977283 -0.34442377 0)
(0.062995798 -0.33864471 0)
(0.057164974 -0.33293373 0)
(0.05148478 -0.32728953 0)
(0.04595518 -0.3217114 0)
(0.040576121 -0.31619926 0)
(0.035347508 -0.31075366 0)
(0.030269189 -0.30537583 0)
(0.025340928 -0.30006765 0)
(0.020562389 -0.29483167 0)
(0.015933116 -0.28967116 0)
(0.011452507 -0.28459005 0)
(0.0071197908 -0.27959298 0)
(0.0029340089 -0.27468525 0)
(-0.0011060154 -0.26987288 0)
(-0.0050017019 -0.26516255 0)
(-0.0087547439 -0.2605616 0)
(-0.012367141 -0.25607803 0)
(-0.015841233 -0.25172048 0)
(-0.019179748 -0.24749819 0)
(-0.022385844 -0.24342099 0)
(-0.025463168 -0.23949927 0)
(-0.02841592 -0.23574392 0)
(-0.031248932 -0.23216631 0)
(-0.033967752 -0.22877822 0)
(-0.036578749 -0.22559174 0)
(-0.039089226 -0.22261924 0)
(-0.041507538 -0.21987319 0)
(-0.043843235 -0.21736597 0)
(-0.046107355 -0.21510964 0)
(-0.048312744 -0.21311553 0)
(-0.050472815 -0.21139375 0)
(-0.052596608 -0.20995244 0)
(-0.054694022 -0.20879643 0)
(-0.056843762 -0.20792576 0)
(-0.059276875 -0.20734022 0)
(-0.061692087 -0.20705221 0)
(0.17035342 -0.41496475 0)
(0.16187697 -0.40819835 0)
(0.15357113 -0.40156541 0)
(0.14543417 -0.3950595 0)
(0.13746456 -0.3886743 0)
(0.12966087 -0.38240361 0)
(0.12202183 -0.37624142 0)
(0.11454635 -0.37018195 0)
(0.10723342 -0.36421966 0)
(0.10008223 -0.35834934 0)
(0.093092026 -0.35256615 0)
(0.086262205 -0.34686562 0)
(0.079592238 -0.3412437 0)
(0.073081674 -0.33569682 0)
(0.066730124 -0.33022188 0)
(0.060537242 -0.32481633 0)
(0.054502708 -0.31947814 0)
(0.048626207 -0.31420586 0)
(0.042907414 -0.30899863 0)
(0.037345968 -0.3038562 0)
(0.03194146 -0.29877896 0)
(0.026693404 -0.29376793 0)
(0.021601221 -0.28882478 0)
(0.016664215 -0.28395185 0)
(0.011881553 -0.27915212 0)
(0.0072522373 -0.27442927 0)
(0.0027750847 -0.26978763 0)
(-0.0015512999 -0.26523217 0)
(-0.005728551 -0.26076853 0)
(-0.0097585716 -0.256403 0)
(-0.013643564 -0.25214248 0)
(-0.017386065 -0.24799446 0)
(-0.020988981 -0.24396704 0)
(-0.024455635 -0.24006884 0)
(-0.027789809 -0.236309 0)
(-0.030995804 -0.23269712 0)
(-0.034078493 -0.22924323 0)
(-0.037043395 -0.2259577 0)
(-0.039896747 -0.22285116 0)
(-0.042645591 -0.21993446 0)
(-0.045297858 -0.21721852 0)
(-0.047862447 -0.21471419 0)
(-0.050349322 -0.2124321 0)
(-0.052769744 -0.21038237 0)
(-0.055136543 -0.20857432 0)
(-0.057462803 -0.20701596 0)
(-0.059756466 -0.20571347 0)
(-0.062025106 -0.20467 0)
(-0.064347847 -0.20388423 0)
(-0.066969398 -0.20335415 0)
(-0.069574048 -0.20309009 0)
(0.17196467 -0.39661647 0)
(0.16312451 -0.39019444 0)
(0.15446611 -0.38390661 0)
(0.14598761 -0.37774648 0)
(0.13768733 -0.37170761 0)
(0.12956369 -0.36578372 0)
(0.12161525 -0.35996869 0)
(0.11384072 -0.35425666 0)
(0.10623891 -0.34864201 0)
(0.098808777 -0.34311946 0)
(0.09154937 -0.33768405 0)
(0.084459833 -0.33233123 0)
(0.077539393 -0.32705687 0)
(0.070787341 -0.32185729 0)
(0.064203017 -0.3167293 0)
(0.057785794 -0.3116702 0)
(0.051535058 -0.30667786 0)
(0.045450192 -0.30175068 0)
(0.039530552 -0.29688765 0)
(0.033775455 -0.29208836 0)
(0.028184149 -0.28735301 0)
(0.0227558 -0.28268241 0)
(0.017489465 -0.27807803 0)
(0.012384071 -0.27354195 0)
(0.007438392 -0.26907689 0)
(0.0026510262 -0.26468624 0)
(-0.0019796316 -0.26037399 0)
(-0.0064554151 -0.25614477 0)
(-0.010778415 -0.25200383 0)
(-0.014951006 -0.24795702 0)
(-0.018975884 -0.24401077 0)
(-0.022856092 -0.24017205 0)
(-0.026595065 -0.23644837 0)
(-0.030196666 -0.23284772 0)
(-0.033665231 -0.22937852 0)
(-0.03700562 -0.22604959 0)
(-0.040223267 -0.22287008 0)
(-0.043324239 -0.21984937 0)
(-0.046315296 -0.21699703 0)
(-0.049203957 -0.21432272 0)
(-0.051998559 -0.21183605 0)
(-0.054708304 -0.20954648 0)
(-0.057343312 -0.20746312 0)
(-0.059914813 -0.20559456 0)
(-0.062435397 -0.2039485 0)
(-0.064917677 -0.20253143 0)
(-0.067368543 -0.20134814 0)
(-0.069793353 -0.20040071 0)
(-0.072271052 -0.19968704 0)
(-0.075058624 -0.19920384 0)
(-0.077831436 -0.19895978 0)
(0.17347886 -0.3793091 0)
(0.16425873 -0.37320554 0)
(0.1552321 -0.36723686 0)
(0.14639695 -0.36139646 0)
(0.13775143 -0.35567783 0)
(0.1292938 -0.3500746 0)
(0.12102244 -0.3445806 0)
(0.11293586 -0.33918987 0)
(0.10503266 -0.33389674 0)
(0.097311553 -0.32869583 0)
(0.089771361 -0.32358212 0)
(0.082410971 -0.318551 0)
(0.075229344 -0.31359822 0)
(0.068225492 -0.30872003 0)
(0.061398468 -0.30391312 0)
(0.054747342 -0.29917471 0)
(0.048271191 -0.29450252 0)
(0.041969074 -0.28989482 0)
(0.035840017 -0.28535047 0)
(0.029882991 -0.28086887 0)
(0.024096892 -0.27645004 0)
(0.01848052 -0.2720946 0)
(0.013032557 -0.26780377 0)
(0.0077515448 -0.26357939 0)
(0.0026358594 -0.25942392 0)
(-0.0023163106 -0.25534042 0)
(-0.007106991 -0.25133255 0)
(-0.011738448 -0.24740459 0)
(-0.016213216 -0.24356137 0)
(-0.020534124 -0.2398083 0)
(-0.024704331 -0.23615131 0)
(-0.028727355 -0.23259686 0)
(-0.032607109 -0.22915185 0)
(-0.036347937 -0.22582364 0)
(-0.039954658 -0.22261994 0)
(-0.043432602 -0.2195488 0)
(-0.046787659 -0.2166185 0)
(-0.050026322 -0.21383753 0)
(-0.053155737 -0.21121446 0)
(-0.056183744 -0.20875784 0)
(-0.059118922 -0.20647617 0)
(-0.061970607 -0.20437767 0)
(-0.064748914 -0.20247024 0)
(-0.067464893 -0.20076118 0)
(-0.070130783 -0.19925697 0)
(-0.072758693 -0.19796294 0)
(-0.07535458 -0.19688293 0)
(-0.07792175 -0.19601835 0)
(-0.080538451 -0.19536665 0)
(-0.083472697 -0.19492353 0)
(-0.08639566 -0.19469633 0)
(0.17484747 -0.36298346 0)
(0.16523582 -0.35717442 0)
(0.15582982 -0.35150082 0)
(0.14662732 -0.34595599 0)
(0.13762629 -0.34053335 0)
(0.12882483 -0.33522646 0)
(0.1202211 -0.33002909 0)
(0.1118134 -0.32493522 0)
(0.1036001 -0.31993913 0)
(0.095579691 -0.31503539 0)
(0.087750719 -0.3102189 0)
(0.08011181 -0.30548497 0)
(0.072661642 -0.30082931 0)
(0.065398935 -0.29624806 0)
(0.058322437 -0.29173783 0)
(0.051430903 -0.28729573 0)
(0.044723084 -0.28291936 0)
(0.038197703 -0.27860688 0)
(0.03185344 -0.27435697 0)
(0.025688913 -0.2701689 0)
(0.019702654 -0.2660425 0)
(0.01389309 -0.26197816 0)
(0.0082585217 -0.2579769 0)
(0.0027971004 -0.25404029 0)
(-0.0024931948 -0.25017052 0)
(-0.0076145818 -0.24637034 0)
(-0.0125695 -0.24264308 0)
(-0.017360635 -0.23899262 0)
(-0.021990946 -0.23542341 0)
(-0.026463695 -0.2319404 0)
(-0.030782472 -0.22854904 0)
(-0.034951229 -0.22525525 0)
(-0.03897431 -0.22206536 0)
(-0.042856484 -0.21898609 0)
(-0.04660298 -0.21602447 0)
(-0.050219522 -0.21318781 0)
(-0.053712365 -0.2104836 0)
(-0.057088329 -0.20791948 0)
(-0.060354833 -0.20550309 0)
(-0.063519928 -0.20324205 0)
(-0.066592317 -0.20114384 0)
(-0.069581357 -0.19921567 0)
(-0.072497059 -0.19746439 0)
(-0.075350219 -0.19589629 0)
(-0.07815268 -0.19451691 0)
(-0.080916068 -0.19333071 0)
(-0.083645557 -0.19234083 0)
(-0.086342567 -0.19154831 0)
(-0.089084189 -0.19095032 0)
(-0.092148337 -0.19054179 0)
(-0.095206117 -0.19032889 0)
(0.17603091 -0.34757855 0)
(0.16602035 -0.34204206 0)
(0.15622794 -0.33664139 0)
(0.14665136 -0.33136983 0)
(0.13728841 -0.32622074 0)
(0.12813699 -0.32118765 0)
(0.11919505 -0.31626428 0)
(0.11046067 -0.31144458 0)
(0.10193199 -0.30672276 0)
(0.093607238 -0.30209335 0)
(0.085484689 -0.29755122 0)
(0.077562689 -0.2930916 0)
(0.069839625 -0.28871015 0)
(0.06231391 -0.28440292 0)
(0.054983976 -0.28016646 0)
(0.047848251 -0.27599777 0)
(0.04090515 -0.27189435 0)
(0.034153051 -0.26785423 0)
(0.02759028 -0.26387596 0)
(0.021215092 -0.25995864 0)
(0.015025651 -0.25610191 0)
(0.0090200063 -0.25230599 0)
(0.0031960773 -0.24857164 0)
(-0.0024483733 -0.24490021 0)
(-0.0079157606 -0.2412936 0)
(-0.013208701 -0.23775425 0)
(-0.018330035 -0.23428515 0)
(-0.023282851 -0.23088983 0)
(-0.028070516 -0.22757232 0)
(-0.032696692 -0.22433713 0)
(-0.037165371 -0.22118925 0)
(-0.041480899 -0.21813406 0)
(-0.045648007 -0.21517733 0)
(-0.049671833 -0.2123252 0)
(-0.053557958 -0.20958403 0)
(-0.057312432 -0.20696044 0)
(-0.060941798 -0.2044612 0)
(-0.064453125 -0.20209314 0)
(-0.067854024 -0.19986312 0)
(-0.071152671 -0.19777791 0)
(-0.074357814 -0.1958441 0)
(-0.077478764 -0.19406804 0)
(-0.080525374 -0.19245574 0)
(-0.08350815 -0.19101266 0)
(-0.086438539 -0.18974359 0)
(-0.089327725 -0.18865236 0)
(-0.092180252 -0.18774162 0)
(-0.094995815 -0.18701215 0)
(-0.097849932 -0.18646104 0)
(-0.10102938 -0.18608254 0)
(-0.10420888 -0.1858818 0)
(0.17699795 -0.3330329 0)
(0.16658482 -0.32774884 0)
(0.15640257 -0.32260082 0)
(0.14644869 -0.31758206 0)
(0.1367208 -0.31268592 0)
(0.12721659 -0.30790588 0)
(0.11793382 -0.30323563 0)
(0.10887031 -0.2986691 0)
(0.10002396 -0.29420048 0)
(0.091392732 -0.28982425 0)
(0.082974626 -0.28553524 0)
(0.074767694 -0.28132866 0)
(0.066770019 -0.27720009 0)
(0.058979701 -0.27314555 0)
(0.051394845 -0.26916148 0)
(0.044013546 -0.26524483 0)
(0.036833872 -0.26139298 0)
(0.029853853 -0.25760384 0)
(0.023071454 -0.25387585 0)
(0.016484565 -0.25020793 0)
(0.010090978 -0.24659957 0)
(0.0038883679 -0.24305079 0)
(-0.0021257275 -0.23956213 0)
(-0.0079539292 -0.23613469 0)
(-0.013599039 -0.2327701 0)
(-0.019064059 -0.22947051 0)
(-0.024352218 -0.22623857 0)
(-0.029466991 -0.22307747 0)
(-0.034412125 -0.21999082 0)
(-0.039191659 -0.21698273 0)
(-0.043809956 -0.21405771 0)
(-0.048271718 -0.21122065 0)
(-0.052582018 -0.2084768 0)
(-0.05674632 -0.2058317 0)
(-0.060770504 -0.20329113 0)
(-0.064660888 -0.20086107 0)
(-0.068424248 -0.19854759 0)
(-0.072067836 -0.19635684 0)
(-0.075599396 -0.19429495 0)
(-0.079027172 -0.19236793 0)
(-0.082359906 -0.19058166 0)
(-0.08560682 -0.18894173 0)
(-0.088777585 -0.18745343 0)
(-0.091882414 -0.18612158 0)
(-0.094932369 -0.18495038 0)
(-0.097938252 -0.18394316 0)
(-0.10090412 -0.18310221 0)
(-0.10382809 -0.18242821 0)
(-0.10678372 -0.18191823 0)
(-0.11006573 -0.18156592 0)
(-0.11335573 -0.18137552 0)
(0.17772511 -0.31928551 0)
(0.16690902 -0.31423563 0)
(0.15633665 -0.30932176 0)
(0.14600533 -0.30453714 0)
(0.13591246 -0.29987508 0)
(0.12605554 -0.29532907 0)
(0.1164321 -0.29089278 0)
(0.10703972 -0.28656013 0)
(0.097876043 -0.28232529 0)
(0.088938751 -0.27818274 0)
(0.080225565 -0.27412727 0)
(0.071734237 -0.27015405 0)
(0.063462538 -0.26625864 0)
(0.055408246 -0.26243699 0)
(0.047569135 -0.25868551 0)
(0.03994296 -0.25500104 0)
(0.032527442 -0.25138089 0)
(0.025320253 -0.24782287 0)
(0.018319 -0.24432527 0)
(0.011521205 -0.24088689 0)
(0.0049242912 -0.23750706 0)
(-0.0014744404 -0.23418559 0)
(-0.0076778274 -0.23092284 0)
(-0.013688868 -0.22771965 0)
(-0.019510739 -0.22457741 0)
(-0.025146818 -0.22149796 0)
(-0.030600704 -0.21848365 0)
(-0.035876239 -0.21553732 0)
(-0.04097753 -0.21266221 0)
(-0.045908967 -0.20986201 0)
(-0.05067525 -0.2071408 0)
(-0.055281409 -0.20450301 0)
(-0.059732819 -0.20195337 0)
(-0.06403523 -0.19949689 0)
(-0.068194777 -0.1971388 0)
(-0.072218001 -0.19488447 0)
(-0.076111864 -0.19273939 0)
(-0.079883758 -0.19070905 0)
(-0.083541514 -0.18879895 0)
(-0.087093403 -0.18701445 0)
(-0.090548133 -0.18536077 0)
(-0.093914816 -0.1838429 0)
(-0.097202933 -0.18246553 0)
(-0.10042241 -0.18123293 0)
(-0.10358396 -0.18014883 0)
(-0.10669806 -0.1792162 0)
(-0.10976839 -0.17843707 0)
(-0.11279166 -0.17781207 0)
(-0.1158391 -0.17733832 0)
(-0.11921249 -0.17700892 0)
(-0.1226034 -0.17682729 0)
(0.17819595 -0.30627678 0)
(0.16697936 -0.30144456 0)
(0.15601937 -0.2967481 0)
(0.14531311 -0.29218064 0)
(0.13485782 -0.28773551 0)
(0.12465076 -0.28340619 0)
(0.11468924 -0.27918637 0)
(0.10497059 -0.27506996 0)
(0.095492187 -0.27105113 0)
(0.086251435 -0.26712435 0)
(0.077245764 -0.26328442 0)
(0.06847262 -0.25952648 0)
(0.05992946 -0.25584606 0)
(0.051613734 -0.25223908 0)
(0.043522882 -0.24870188 0)
(0.035654316 -0.24523126 0)
(0.028005407 -0.24182445 0)
(0.02057347 -0.23847916 0)
(0.013355753 -0.23519357 0)
(0.0063494141 -0.23196634 0)
(-0.00044849153 -0.22879665 0)
(-0.0070410301 -0.22568414 0)
(-0.013431408 -0.22262896 0)
(-0.019622991 -0.21963174 0)
(-0.02561932 -0.21669361 0)
(-0.031424134 -0.21381615 0)
(-0.037041387 -0.21100142 0)
(-0.042475267 -0.20825189 0)
(-0.047730219 -0.20557049 0)
(-0.052810962 -0.2029605 0)
(-0.057722505 -0.20042559 0)
(-0.062470173 -0.19796974 0)
(-0.067059617 -0.19559723 0)
(-0.071496832 -0.19331258 0)
(-0.075788177 -0.19112048 0)
(-0.079940378 -0.18902579 0)
(-0.083960547 -0.18703342 0)
(-0.087856183 -0.18514832 0)
(-0.091635173 -0.18337539 0)
(-0.095305793 -0.18171946 0)
(-0.098876695 -0.18018516 0)
(-0.10235687 -0.17877696 0)
(-0.10575563 -0.17749904 0)
(-0.10908263 -0.17635525 0)
(-0.11234824 -0.17534893 0)
(-0.11556267 -0.17448275 0)
(-0.11872937 -0.17375856 0)
(-0.12184375 -0.17317699 0)
(-0.12497441 -0.17273526 0)
(-0.12842937 -0.17242597 0)
(-0.13191295 -0.17225175 0)
(0.17840044 -0.2939492 0)
(0.16678822 -0.28931976 0)
(0.15544545 -0.28482561 0)
(0.14436907 -0.28045998 0)
(0.13355612 -0.27621624 0)
(0.12300364 -0.27208789 0)
(0.11270869 -0.26806863 0)
(0.10266836 -0.26415239 0)
(0.092879765 -0.26033336 0)
(0.083340016 -0.25660603 0)
(0.07404625 -0.25296518 0)
(0.064995606 -0.24940596 0)
(0.05618522 -0.24592388 0)
(0.047612216 -0.24251484 0)
(0.039273697 -0.23917514 0)
(0.03116673 -0.23590153 0)
(0.023288337 -0.23269117 0)
(0.01563548 -0.22954168 0)
(0.008205048 -0.22645116 0)
(0.00099383866 -0.22341813 0)
(-0.0060014536 -0.22044164 0)
(-0.012784257 -0.21752116 0)
(-0.019358137 -0.21465666 0)
(-0.025726817 -0.21184856 0)
(-0.031894189 -0.20909776 0)
(-0.03786434 -0.20640558 0)
(-0.04364156 -0.20377379 0)
(-0.049230369 -0.20120457 0)
(-0.054635529 -0.19870049 0)
(-0.05986206 -0.19626449 0)
(-0.064915262 -0.19389985 0)
(-0.069800725 -0.19161014 0)
(-0.074524347 -0.1893992 0)
(-0.079092345 -0.1872711 0)
(-0.083511267 -0.18523007 0)
(-0.087788001 -0.18328046 0)
(-0.091929779 -0.1814267 0)
(-0.095944181 -0.17967323 0)
(-0.099839133 -0.17802444 0)
(-0.1036229 -0.17648465 0)
(-0.10730407 -0.17505803 0)
(-0.11089152 -0.17374857 0)
(-0.11439437 -0.17256006 0)
(-0.11782206 -0.17149594 0)
(-0.12118466 -0.17055926 0)
(-0.12449215 -0.16975245 0)
(-0.12774785 -0.16907725 0)
(-0.130946 -0.1685343 0)
(-0.13415224 -0.16812097 0)
(-0.13768013 -0.16782936 0)
(-0.14124932 -0.16766134 0)
(0.17833412 -0.28224785 0)
(0.16633325 -0.27780789 0)
(0.15461455 -0.27350248 0)
(0.1431748 -0.26932489 0)
(0.13201081 -0.26526853 0)
(0.12111941 -0.26132694 0)
(0.11049743 -0.25749385 0)
(0.1001417 -0.25376323 0)
(0.090049059 -0.2501293 0)
(0.080216335 -0.24658655 0)
(0.070640367 -0.24312981 0)
(0.061317984 -0.23975423 0)
(0.052246004 -0.2364553 0)
(0.043421221 -0.23322893 0)
(0.034840402 -0.23007138 0)
(0.026500273 -0.22697937 0)
(0.018397508 -0.22394999 0)
(0.010528719 -0.22098082 0)
(0.0028904396 -0.21806982 0)
(-0.0045208854 -0.21521547 0)
(-0.011708917 -0.21241663 0)
(-0.018677436 -0.20967265 0)
(-0.02543036 -0.20698333 0)
(-0.031971754 -0.20434889 0)
(-0.038305854 -0.20177001 0)
(-0.044437075 -0.19924779 0)
(-0.050370032 -0.19678371 0)
(-0.056109556 -0.19437969 0)
(-0.061660707 -0.19203796 0)
(-0.067028788 -0.18976115 0)
(-0.072219365 -0.18755217 0)
(-0.077238273 -0.18541421 0)
(-0.082091632 -0.18335072 0)
(-0.086785857 -0.18136534 0)
(-0.091327663 -0.17946188 0)
(-0.095724076 -0.17764425 0)
(-0.099982428 -0.17591642 0)
(-0.10411037 -0.17428239 0)
(-0.10811584 -0.1727461 0)
(-0.11200709 -0.17131143 0)
(-0.11579264 -0.16998211 0)
(-0.11948126 -0.16876177 0)
(-0.12308192 -0.16765379 0)
(-0.12660384 -0.16666134 0)
(-0.13005681 -0.1657872 0)
(-0.13345063 -0.16503362 0)
(-0.1367886 -0.16440221 0)
(-0.1400639 -0.16389371 0)
(-0.14333898 -0.16350563 0)
(-0.14693214 -0.16322961 0)
(-0.15058089 -0.16306672 0)
(0.17799755 -0.2711209 0)
(0.16561668 -0.26685852 0)
(0.15353059 -0.26272972 0)
(0.1417358 -0.25872782 0)
(0.13022895 -0.25484626 0)
(0.11900665 -0.25107865 0)
(0.10806547 -0.24741877 0)
(0.097401996 -0.24386063 0)
(0.087012783 -0.2403985 0)
(0.076894385 -0.2370269 0)
(0.067043338 -0.2337407 0)
(0.057456162 -0.23053505 0)
(0.048129356 -0.22740549 0)
(0.039059389 -0.22434789 0)
(0.030242693 -0.22135852 0)
(0.021675654 -0.21843406 0)
(0.013354604 -0.21557157 0)
(0.005275808 -0.21276856 0)
(-0.0025645468 -0.21002293 0)
(-0.010170364 -0.20733304 0)
(-0.017545651 -0.20469766 0)
(-0.024694533 -0.20211599 0)
(-0.031621267 -0.19958768 0)
(-0.038330251 -0.19711278 0)
(-0.044826048 -0.19469176 0)
(-0.051113391 -0.1923255 0)
(-0.057197203 -0.19001525 0)
(-0.063082609 -0.18776263 0)
(-0.068774949 -0.18556963 0)
(-0.074279791 -0.18343853 0)
(-0.079602947 -0.18137194 0)
(-0.084750478 -0.17937268 0)
(-0.089728706 -0.17744385 0)
(-0.094544223 -0.1755887 0)
(-0.099203895 -0.17381065 0)
(-0.10371487 -0.17211321 0)
(-0.10808456 -0.17049996 0)
(-0.11232066 -0.16897447 0)
(-0.11643115 -0.16754031 0)
(-0.12042423 -0.16620094 0)
(-0.12430838 -0.16495976 0)
(-0.12809227 -0.16382 0)
(-0.13178471 -0.16278478 0)
(-0.13539473 -0.16185697 0)
(-0.1389319 -0.16103915 0)
(-0.14240587 -0.16033341 0)
(-0.14581996 -0.15974129 0)
(-0.14916648 -0.1592636 0)
(-0.15250437 -0.15889802 0)
(-0.15615602 -0.15863575 0)
(-0.15987915 -0.15847704 0)
(0.17739544 -0.26051975 0)
(0.16464472 -0.25642441 0)
(0.15220108 -0.25246142 0)
(0.14006093 -0.24862417 0)
(0.12822067 -0.24490617 0)
(0.11667667 -0.24130109 0)
(0.10542529 -0.23780278 0)
(0.094462839 -0.23440531 0)
(0.08378561 -0.231103 0)
(0.073389867 -0.22789044 0)
(0.063271852 -0.22476252 0)
(0.053427776 -0.22171444 0)
(0.043853823 -0.21874174 0)
(0.034546136 -0.21584032 0)
(0.02550082 -0.21300646 0)
(0.016713925 -0.21023681 0)
(0.0081814465 -0.2075284 0)
(-0.00010069145 -0.20487869 0)
(-0.008136641 -0.20228554 0)
(-0.015930647 -0.1997472 0)
(-0.023487054 -0.19726235 0)
(-0.030810321 -0.19483008 0)
(-0.037905032 -0.19244988 0)
(-0.04477591 -0.19012165 0)
(-0.051427828 -0.18784569 0)
(-0.057865826 -0.18562266 0)
(-0.064095118 -0.18345359 0)
(-0.070121108 -0.18133987 0)
(-0.0759494 -0.17928321 0)
(-0.081585813 -0.17728562 0)
(-0.087036384 -0.17534938 0)
(-0.092307384 -0.17347702 0)
(-0.09740532 -0.17167129 0)
(-0.10233694 -0.16993511 0)
(-0.10710926 -0.16827154 0)
(-0.11172951 -0.16668372 0)
(-0.1162052 -0.16517487 0)
(-0.12054407 -0.1637482 0)
(-0.12475408 -0.16240692 0)
(-0.12884345 -0.16115415 0)
(-0.13282056 -0.15999295 0)
(-0.13669402 -0.15892627 0)
(-0.1404725 -0.15795693 0)
(-0.14416488 -0.15708759 0)
(-0.1477805 -0.15632063 0)
(-0.1513289 -0.15565802 0)
(-0.15481353 -0.15510124 0)
(-0.1582259 -0.15465118 0)
(-0.16162123 -0.15430572 0)
(-0.16532532 -0.1540556 0)
(-0.1691184 -0.15390023 0)
(0.17653616 -0.2503993 0)
(0.16342678 -0.24646167 0)
(0.1506366 -0.2426549 0)
(0.13816179 -0.23897249 0)
(0.12599854 -0.23540802 0)
(0.11414303 -0.23195524 0)
(0.10259136 -0.22860809 0)
(0.091339588 -0.2253607 0)
(0.080383734 -0.22220748 0)
(0.069719782 -0.21914306 0)
(0.059343677 -0.21616238 0)
(0.049251329 -0.21326071 0)
(0.039438607 -0.21043362 0)
(0.029901339 -0.20767702 0)
(0.020635302 -0.20498721 0)
(0.01163622 -0.20236083 0)
(0.0028997554 -0.19979491 0)
(-0.0055784979 -0.19728687 0)
(-0.013803027 -0.19483449 0)
(-0.021778405 -0.19243599 0)
(-0.029509307 -0.19008994 0)
(-0.037000512 -0.18779534 0)
(-0.044256925 -0.18555155 0)
(-0.051283575 -0.18335833 0)
(-0.05808564 -0.18121581 0)
(-0.064668447 -0.17912446 0)
(-0.07103749 -0.17708512 0)
(-0.077198437 -0.17509895 0)
(-0.083157144 -0.17316742 0)
(-0.088919658 -0.17129228 0)
(-0.094492233 -0.16947553 0)
(-0.099881331 -0.16771943 0)
(-0.10509363 -0.1660264 0)
(-0.11013604 -0.16439906 0)
(-0.11501566 -0.16284014 0)
(-0.11973986 -0.16135246 0)
(-0.1243162 -0.15993891 0)
(-0.12875245 -0.15860238 0)
(-0.13305659 -0.15734575 0)
(-0.13723681 -0.15617184 0)
(-0.14130145 -0.15508343 0)
(-0.14525902 -0.15408317 0)
(-0.14911812 -0.15317367 0)
(-0.15288744 -0.15235736 0)
(-0.15657617 -0.15163647 0)
(-0.16019373 -0.15101287 0)
(-0.16374378 -0.15048797 0)
(-0.16721716 -0.15006276 0)
(-0.17066516 -0.14973533 0)
(-0.17441628 -0.14949596 0)
(-0.17827551 -0.14934316 0)
(0.17543096 -0.24071801 0)
(0.16197507 -0.23692981 0)
(0.14885014 -0.23327079 0)
(0.13605218 -0.2297345 0)
(0.12357717 -0.22631465 0)
(0.11142105 -0.22300507 0)
(0.099579705 -0.21979979 0)
(0.088048928 -0.21669303 0)
(0.076824475 -0.21367927 0)
(0.06590205 -0.21075322 0)
(0.055277309 -0.20790991 0)
(0.044945863 -0.20514462 0)
(0.034903274 -0.202453 0)
(0.025145056 -0.199831 0)
(0.015666669 -0.19727491 0)
(0.0064635154 -0.19478141 0)