/*--------------------------------*- C++ -*----------------------------------*\
| =========                 |                                                 |
| \\      /  F ield         | OpenFOAM: The Open Source CFD Toolbox           |
|  \\    /   O peration     | Version:  2312                                  |
|   \\  /    A nd           | Website:  www.openfoam.com                      |
|    \\/     M anipulation  |                                                 |
\*---------------------------------------------------------------------------*/
FoamFile
{
    version     2.0;
    format      ascii;
    arch        "LSB;label=32;scalar=64";
    class       volScalarField;
    location    "0.08";
    object      CH4;
}
// * * * * * * * * * * * * * * * * * * * * * * * * * * * * * * * * * * * * * //

dimensions      [0 0 0 0 0 0 0];

internalField   nonuniform List<scalar> 
3250
(
0.10232588
0.10116027
0.10002161
0.098908064
0.097817858
0.096749327
0.095700881
0.094671004
0.093658245
0.092661217
0.091678583
0.09070906
0.089751411
0.088804441
0.087866995
0.086937957
0.086016245
0.085100815
0.084190651
0.083284774
0.082382235
0.081482118
0.080583542
0.079685656
0.078787646
0.077888734
0.076988178
0.076085277
0.075179369
0.074269837
0.073356108
0.072437657
0.071514009
0.07058474
0.06964948
0.068707916
0.067759792
0.066804914
0.065843148
0.064874422
0.063898728
0.062916123
0.061926728
0.060930735
0.059928432
0.058920124
0.057906164
0.056886977
0.055863046
0.10230235
0.1011377
0.099999942
0.098887246
0.097797845
0.096730072
0.095682343
0.094653143
0.093641026
0.092644604
0.091662545
0.090693568
0.089736437
0.088789959
0.087852982
0.08692439
0.086003105
0.08508808
0.084178304
0.083272797
0.082370613
0.081470836
0.080572586
0.079675012
0.078777303
0.07787868
0.076978403
0.07607577
0.075170122
0.074260841
0.073347355
0.072429139
0.07150572
0.070576672
0.069641629
0.068700276
0.067752358
0.066797682
0.065836112
0.064867579
0.063892076
0.062909659
0.061920451
0.060924644
0.059922516
0.058914373
0.057900577
0.056881558
0.0558578
0.10225479
0.10109205
0.099956114
0.098845129
0.097757341
0.096691089
0.095644796
0.094616953
0.09360612
0.092610914
0.091630008
0.090662124
0.089706031
0.08876054
0.087824501
0.086896803
0.085976369
0.085062156
0.084153156
0.08324839
0.082346914
0.081447816
0.080550215
0.079653266
0.078756155
0.077858107
0.076958384
0.076056285
0.075151151
0.074242367
0.073329362
0.072411612
0.071488643
0.070560034
0.069625416
0.068684477
0.067736964
0.066782682
0.065821498
0.064853343
0.063878211
0.062896158
0.061907309
0.060911857
0.05991007
0.058902259
0.057888791
0.0568701
0.055846673
0.10218323
0.10102338
0.099890163
0.098781743
0.097696373
0.096632403
0.095588264
0.094562456
0.093553549
0.092560166
0.091580988
0.090614744
0.089660208
0.088716197
0.087781566
0.086855208
0.08593605
0.085023056
0.084115217
0.083211562
0.082311148
0.081413067
0.08051644
0.079620424
0.078724209
0.077827023
0.076928128
0.076026827
0.075122463
0.074214422
0.073302135
0.072385079
0.071462784
0.070534829
0.069600846
0.068660525
0.067713614
0.066759919
0.065799309
0.064831716
0.063857133
0.06287562
0.061887303
0.060892373
0.059891095
0.058883782
0.057870804
0.056852599
0.055829657
0.10208773
0.10093173
0.099802144
0.098697141
0.097614991
0.096554059
0.095512787
0.094489691
0.093483348
0.092492394
0.091515519
0.090551459
0.089598997
0.088656957
0.0877242
0.086799627
0.085882171
0.084970798
0.084064508
0.083162332
0.082263333
0.081366605
0.080471274
0.079576502
0.078681481
0.077785442
0.07688765
0.075987411
0.075084071
0.074177018
0.073265685
0.072349554
0.071428154
0.070501067
0.069567928
0.068628427
0.067682315
0.0667294
0.065769552
0.064802703
0.06382885
0.062848053
0.061860438
0.060866199
0.059865596
0.058858945
0.057846619
0.056829058
0.055806757
0.10197522
0.10082376
0.09969844
0.098597455
0.097519092
0.096461731
0.095423833
0.094403926
0.0934006
0.092412503
0.091438336
0.090476846
0.089526824
0.088587103
0.087656554
0.086734081
0.085818627
0.084909163
0.084004695
0.083104259
0.082206924
0.081311789
0.080417984
0.079524674
0.078631058
0.077736367
0.076839873
0.075940883
0.075038747
0.074132857
0.073222647
0.072307603
0.071387255
0.070461189
0.069529041
0.068590505
0.067645332
0.066693332
0.065734378
0.064768404
0.063795406
0.062815449
0.061828658
0.060835228
0.059835418
0.058829544
0.057817984
0.05680118
0.055779627
0.10184923
0.10070285
0.099582295
0.098485802
0.097411673
0.096358308
0.095324182
0.094307841
0.093307889
0.092322989
0.091351852
0.090393237
0.089445945
0.08850882
0.087580739
0.086660617
0.085747402
0.084840074
0.083937645
0.083039157
0.082143684
0.081250331
0.080358234
0.079466562
0.078574517
0.077681336
0.076786293
0.075888702
0.074987913
0.074083322
0.073174369
0.07226054
0.07134137
0.070416445
0.069485406
0.068547948
0.067603825
0.06665285
0.065694895
0.064729898
0.063757857
0.062778837
0.061792966
0.060800439
0.059801515
0.058796512
0.057785809
0.05676985
0.055749132
0.10169995
0.10055957
0.099444661
0.098353483
0.097284364
0.096235724
0.095206063
0.094193942
0.093197984
0.092216867
0.091249316
0.090294104
0.089350044
0.088415991
0.087490833
0.086573494
0.085662931
0.084758133
0.083858118
0.082961937
0.08206867
0.081177428
0.080287353
0.07939762
0.078507435
0.077616042
0.076722719
0.075826783
0.07492759
0.07402454
0.073117075
0.072204684
0.071286908
0.070363335
0.069433609
0.068497428
0.067554548
0.066604784
0.065648012
0.064684171
0.063713262
0.062735352
0.061750569
0.06075911
0.059761235
0.058757263
0.057747574
0.056732616
0.055712885
0.10152577
0.10039238
0.09928404
0.098199053
0.097135769
0.096092636
0.095068176
0.094060973
0.093069669
0.092092961
0.09112959
0.090178346
0.089238055
0.088307583
0.087385833
0.08647174
0.085564269
0.084662421
0.083765222
0.082871732
0.081981037
0.081092258
0.080204541
0.07931707
0.078429056
0.077539749
0.076648432
0.075754427
0.074857096
0.073955842
0.073050112
0.072139401
0.07122325
0.070301254
0.069373059
0.068438367
0.067496936
0.066548586
0.065593194
0.064630701
0.063661112
0.062684495
0.061700981
0.060710767
0.059714115
0.058711344
0.057702839
0.056689048
0.055670468
0.10132499
0.10019964
0.099098867
0.098021002
0.096964433
0.095927637
0.094909163
0.09390762
0.092921675
0.091950042
0.090991486
0.090044809
0.089108858
0.088182512
0.087264688
0.086354332
0.085450425
0.084551975
0.083658021
0.08276763
0.0818799
0.080993958
0.08010896
0.079224095
0.078338584
0.07745168
0.076562675
0.075670896
0.07477571
0.073876527
0.072972797
0.072064021
0.071149745
0.070229567
0.069303137
0.06837016
0.067430401
0.066483679
0.065529877
0.064568938
0.06360087
0.062625742
0.06164369
0.060654911
0.059659667
0.058658283
0.057651141
0.056638695
0.055621442
0.10109588
0.099979678
0.098887517
0.097817763
0.096768841
0.095739263
0.094727608
0.093732515
0.092752675
0.091786828
0.090833758
0.089892289
0.088961285
0.088039643
0.087126295
0.086220203
0.085320359
0.084425786
0.083535532
0.082648678
0.081764331
0.080881626
0.079999729
0.079117839
0.078235182
0.077351022
0.076464655
0.075575417
0.07468268
0.073785859
0.072884413
0.071977846
0.071065709
0.070147605
0.069223189
0.068292172
0.067354319
0.066409456
0.065457469
0.064498304
0.063531971
0.062558544
0.061578159
0.060591017
0.059597382
0.058597579
0.057591995
0.056581083
0.055565344
0.10083661
0.09973074
0.0986483
0.097587703
0.096547416
0.095525989
0.094522038
0.093534231
0.092561289
0.091601979
0.090655109
0.089719527
0.088794116
0.087877793
0.086969506
0.086068235
0.085172987
0.084282798
0.083396731
0.082513878
0.081633356
0.080754314
0.079875928
0.078997403
0.078117977
0.077236921
0.076353541
0.075467178
0.074577213
0.073683068
0.072784206
0.071880139
0.070970424
0.070054669
0.069132534
0.068203734
0.06726804
0.066325282
0.065375349
0.064418192
0.063453824
0.062482322
0.061503824
0.060518536
0.059526722
0.05852871
0.057524889
0.056515716
0.055501691
0.10054532
0.099451018
0.098379469
0.097329134
0.096298525
0.095286236
0.094290921
0.093311284
0.09234608
0.091394103
0.09045419
0.089525214
0.088606079
0.087695726
0.086793122
0.085897263
0.085007176
0.08412191
0.083240545
0.082362185
0.081485962
0.080611035
0.079736592
0.078861849
0.077986054
0.077108487
0.076228463
0.075345331
0.074458482
0.073567343
0.072671388
0.071770131
0.070863139
0.069950024
0.069030453
0.068104146
0.06717088
0.066230488
0.065282866
0.064327966
0.063365808
0.062396469
0.061420095
0.06043689
0.059447124
0.058451126
0.057449288
0.056442069
0.055429972
0.10022007
0.099138645
0.098079221
0.097040309
0.096020478
0.095018366
0.094032672
0.09306214
0.092105559
0.091161756
0.0902296
0.089307988
0.088395854
0.08749216
0.086595894
0.085706075
0.084821745
0.083941975
0.083065858
0.082192514
0.08132109
0.080450757
0.079580717
0.078710197
0.077838457
0.076964787
0.076088511
0.075208991
0.074325622
0.073437843
0.072545133
0.071647018
0.070743068
0.069832904
0.068916199
0.067992679
0.067062125
0.066124379
0.065179338
0.064226962
0.063267273
0.062300354
0.061326352
0.060345476
0.059357999
0.058364253
0.057364632
0.056359598
0.055349656
0.099858879
0.098791705
0.097745698
0.096719432
0.095711533
0.094720693
0.093745656
0.092785211
0.091838185
0.090903444
0.089979886
0.089066441
0.088162071
0.087265762
0.086376529
0.085493411
0.084615471
0.0837418
0.082871508
0.082003733
0.081137637
0.080272407
0.079407256
0.078541427
0.077674191
0.07680485
0.07593274
0.075057231
0.07417773
0.073293685
0.072404584
0.071509959
0.070609391
0.069702508
0.068788988
0.067868566
0.066941029
0.066006224
0.065064053
0.064114484
0.06315754
0.062193312
0.061221948
0.060243663
0.059258732
0.05826749
0.057270335
0.056267731
0.055260186
0.099459726
0.098408234
0.097376999
0.096364658
0.095369901
0.094391479
0.093428187
0.092478861
0.091542371
0.090617622
0.089703549
0.088799115
0.087903312
0.087015155
0.086133685
0.085257966
0.084387084
0.083520148
0.082656291
0.081794669
0.08093446
0.080074868
0.079215122
0.078354478
0.077492222
0.076627668
0.075760164
0.074889091
0.074013868
0.073133953
0.072248843
0.071358081
0.070461255
0.069558001
0.068648007
0.067731013
0.066806814
0.065875264
0.064936271
0.063989807
0.063035903
0.062074652
0.06110621
0.060130792
0.059148679
0.05816021
0.057165785
0.056165871
0.05516098
0.099020546
0.097986231
0.096971182
0.095974101
0.094993751
0.094028945
0.093078536
0.09214141
0.091216483
0.090302704
0.089399046
0.088504509
0.087618117
0.086738918
0.085865979
0.084998392
0.084135269
0.08327574
0.082418961
0.081564106
0.080710374
0.079856986
0.079003188
0.078148251
0.077291476
0.076432192
0.075569759
0.074703572
0.073833061
0.072957694
0.072076981
0.071190473
0.07029777
0.069398515
0.068492406
0.067579191
0.066658671
0.065730708
0.064795218
0.063852178
0.062901625
0.061943657
0.060978434
0.060006179
0.059027173
0.05804176
0.057050345
0.056053399
0.055051435
0.098539252
0.097523668
0.09652627
0.095545838
0.094581212
0.093631274
0.092694936
0.091771138
0.090858849
0.089957061
0.089064791
0.088181079
0.087304984
0.086435586
0.085571985
0.084713302
0.083858673
0.083007256
0.08215823
0.081310789
0.080464155
0.079617566
0.078770287
0.077921607
0.077070842
0.076217337
0.075360466
0.074499638
0.073634296
0.07276392
0.071888032
0.071006194
0.070118015
0.069223151
0.068321307
0.067412239
0.06649576
0.065571737
0.064640093
0.063700813
0.06275394
0.061799578
0.060837893
0.05986911
0.058893518
0.057911463
0.056923355
0.055929668
0.054930919
0.098013746
0.097018498
0.096040266
0.095077922
0.094130389
0.093196618
0.092275586
0.091366293
0.09046776
0.08957903
0.088699165
0.087827246
0.086962372
0.086103659
0.085250241
0.084401267
0.083555905
0.08271334
0.081872773
0.081033427
0.08019454
0.079355376
0.078515217
0.077673372
0.076829174
0.075981983
0.075131191
0.074276221
0.073416529
0.07255161
0.071680998
0.070804268
0.069921038
0.069030977
0.068133798
0.067229269
0.066317211
0.065397499
0.064470065
0.063534901
0.062592056
0.061641641
0.060683828
0.059718848
0.058746994
0.057768616
0.056784128
0.055794009
0.054798781
0.098432052
0.097441937
0.09646866
0.095511156
0.094568389
0.093639363
0.092723107
0.091818664
0.090925096
0.090041483
0.089166919
0.088300517
0.087441401
0.086588712
0.085741605
0.08489925
0.084060829
0.083225541
0.0823926
0.081561234
0.080730691
0.079900236
0.079069151
0.078236743
0.077402338
0.07656529
0.075724977
0.074880806
0.074032218
0.073178683
0.072319712
0.07145485
0.070583687
0.069705854
0.068821029
0.067928939
0.067029361
0.066122125
0.065207116
0.064284275
0.063353602
0.062415153
0.061469047
0.06051546
0.05955463
0.058586855
0.05761249
0.056631954
0.055645729
0.054654344
0.097786756
0.096821708
0.095872091
0.094936923
0.094015266
0.093106209
0.092208858
0.091322328
0.090445749
0.089578261
0.088719014
0.087867172
0.087021908
0.086182406
0.085347864
0.084517489
0.083690499
0.082866126
0.082043614
0.081222223
0.080401227
0.079579915
0.078757595
0.077933597
0.077107267
0.07627798
0.075445134
0.074608154
0.073766497
0.072919651
0.072067141
0.071208529
0.070343417
0.06947145
0.068592318
0.067705761
0.066811567
0.065909576
0.064999683
0.064081839
0.063156052
0.062222386
0.061280968
0.060331981
0.059375668
0.058412333
0.057442337
0.056466101
0.055484115
0.054496912
0.097089108
0.096150964
0.095226743
0.094315563
0.09341659
0.092529002
0.091651986
0.090784736
0.089926449
0.089076329
0.088233587
0.087397441
0.086567114
0.085741839
0.084920856
0.084103412
0.083288765
0.082476182
0.081664939
0.080854328
0.080043651
0.079232226
0.078419387
0.077604485
0.076786894
0.075966007
0.075141244
0.07431205
0.073477899
0.072638299
0.071792789
0.070940949
0.070082395
0.069216787
0.068343828
0.067463271
0.066574915
0.065678613
0.06477427
0.063861847
0.062941361
0.062012887
0.061076556
0.060132562
0.059181153
0.058222638
0.057257384
0.056285817
0.05530843
0.054325765
0.096337038
0.095427666
0.094530604
0.093645099
0.092770417
0.091905833
0.091050621
0.09020405
0.089365394
0.088533922
0.087708909
0.086889629
0.086075361
0.085265385
0.084458988
0.083655462
0.082854102
0.082054215
0.081255112
0.080456116
0.079656562
0.078855797
0.078053181
0.077248093
0.07643993
0.07562811
0.074812072
0.073991285
0.073165242
0.072333468
0.071495523
0.070651001
0.069799536
0.068940802
0.068074519
0.06720045
0.06631841
0.065428262
0.064529925
0.063623369
0.062708621
0.061785765
0.060854943
0.059916354
0.058970254
0.05801696
0.057056841
0.05609033
0.055117922
0.054140166
0.096418527
0.095528565
0.09464983
0.093781718
0.092923597
0.092074843
0.091234828
0.090402914
0.089578455
0.088760799
0.087949287
0.087143257
0.086342047
0.085544989
0.084751417
0.083960666
0.083172073
0.082384977
0.081598722
0.080812658
0.080026144
0.079238545
0.078449241
0.07765762
0.07686309
0.076065072
0.07526301
0.074456368
0.073644634
0.072827324
0.072003984
0.071174191
0.070337558
0.069493736
0.068642415
0.067783331
0.066916263
0.066041037
0.065157532
0.064265677
0.063365454
0.062456902
0.061540114
0.06061524
0.05968249
0.058742126
0.057794471
0.056839902
0.055878852
0.054911823
0.053939363
0.095517327
0.094661779
0.093815557
0.092978198
0.09214919
0.09132802
0.09051416
0.089707064
0.088906172
0.088110911
0.087320696
0.086534933
0.085753021
0.084974354
0.084198319
0.083424302
0.082651686
0.081879857
0.0811082
0.080336104
0.079562963
0.07878818
0.078011164
0.077231337
0.076448134
0.075661006
0.074869421
0.074072868
0.073270859
0.072462933
0.071648656
0.070827626
0.069999476
0.069163874
0.06832053
0.067469192
0.066609657
0.065741768
0.064865414
0.063980539
0.063087138
0.06218526
0.061275009
0.060356545
0.059430087
0.058495906
0.057554331
0.056605745
0.055650587
0.054689357
0.0537226
0.094554056
0.09373488
0.092923055
0.092118256
0.091320097
0.090528176
0.08974207
0.088961327
0.088185476
0.087414024
0.086646464
0.085882273
0.085120913
0.08436184
0.083604499
0.082848327
0.082092759
0.081337226
0.080581156
0.079823981
0.079065133
0.07830405
0.077540176
0.076772966
0.076001886
0.075226415
0.074446049
0.073660303
0.072868715
0.072070847
0.071266287
0.070454656
0.069635606
0.068808824
0.067974039
0.067131018
0.066279573
0.065419562
0.064550891
0.063673516
0.062787445
0.06189274
0.060989516
0.060077945
0.059158254
0.058230722
0.057295688
0.056353541
0.055404726
0.054449747
0.093527082
0.092746224
0.091970665
0.091200226
0.090434647
0.089673642
0.088916891
0.088164043
0.087414715
0.0866685
0.085924967
0.085183667
0.084444129
0.083705873
0.082968401
0.082231208
0.081493778
0.080755591
0.080016121
0.079274843
0.078531227
0.077784752
0.077034897
0.076281151
0.075523011
0.074759988
0.073991606
0.073217409
0.072436961
0.071649847
0.070855681
0.070054105
0.069244793
0.068427455
0.067601835
0.066767722
0.065924944
0.065073375
0.064212938
0.063343604
0.062465393
0.061578382
0.060682697
0.059778521
0.05886609
0.057945696
0.057017684
0.056082453
0.055140458
0.054192216
0.09243499
0.091694349
0.090956896
0.090222593
0.089491308
0.088762872
0.088037072
0.087313655
0.086592334
0.085872785
0.085154658
0.084437577
0.083721143
0.083004938
0.082288526
0.081571459
0.080853274
0.080133501
0.079411662
0.078687273
0.077959852
0.077228912
0.076493972
0.075754556
0.075010195
0.074260432
0.073504821
0.072742935
0.071974365
0.071198723
0.070415648
0.069624806
0.068825893
0.06801864
0.067202814
0.06637822
0.065544707
0.064702166
0.063850536
0.062989803
0.062120004
0.061241226
0.060353611
0.059457352
0.058552698
0.057639948
0.056719459
0.055791639
0.054856957
0.053915935
0.091276592
0.090578011
0.089880453
0.089184021
0.088488711
0.087794471
0.087101197
0.086408737
0.085716895
0.085025436
0.084334091
0.083642559
0.082950512
0.082257598
0.081563445
0.08086766
0.080169838
0.079469559
0.078766394
0.078059906
0.077349654
0.076635193
0.075916082
0.07519188
0.074462155
0.073726481
0.072984446
0.072235651
0.071479718
0.070716286
0.069945019
0.069165608
0.068377774
0.067581269
0.066775882
0.06596144
0.06513781
0.064304902
0.063462671
0.062611121
0.061750303
0.06088032
0.060001325
0.059113526
0.058217182
0.057312604
0.056400157
0.055480262
0.054553398
0.05362009
0.090050969
0.089396209
0.088740267
0.088083385
0.087425684
0.086767229
0.086108023
0.085448016
0.084787106
0.084125144
0.083461944
0.082797282
0.082130901
0.081462517
0.08079182
0.080118479
0.079442143
0.078762445
0.078079006
0.077391437
0.07669934
0.076002314
0.075299958
0.074591868
0.073877649
0.07315691
0.072429272
0.071694367
0.070951845
0.070201377
0.069442652
0.068675388
0.06789933
0.067114255
0.066319973
0.065516333
0.064703222
0.063880569
0.063048349
0.062206581
0.061355334
0.060494724
0.059624921
0.058746143
0.057858661
0.0569628
0.056058935
0.055147495
0.054228972
0.053303892
0.088757501
0.088148224
0.087535534
0.086919805
0.086301282
0.085680144
0.085056503
0.084430406
0.083801845
0.08317076
0.082537046
0.081900556
0.081261106
0.080618479
0.07997243
0.079322688
0.078668958
0.078010929
0.077348271
0.076680643
0.076007694
0.075329067
0.0746444
0.073953331
0.073255499
0.072550552
0.071838143
0.071117938
0.070389618
0.069652881
0.068907448
0.068153061
0.067389493
0.066616545
0.06583405
0.065041879
0.06423994
0.063428185
0.062606604
0.061775236
0.060934166
0.060083527
0.059223502
0.058354324
0.057476277
0.056589696
0.055694967
0.054792532
0.053882889
0.052966569
0.087395906
0.086833653
0.086265744
0.085692679
0.085114822
0.084532463
0.083945818
0.083355034
0.082760194
0.082161325
0.081558404
0.080951359
0.08034008
0.079724418
0.079104191
0.07847919
0.077849178
0.077213897
0.07657307
0.075926405
0.075273597
0.074614333
0.073948293
0.073275157
0.072594602
0.071906311
0.071209973
0.070505288
0.069791969
0.069069744
0.068338364
0.067597599
0.066847247
0.066087136
0.065317124
0.064537104
0.063747007
0.062946804
0.062136507
0.061316173
0.060485903
0.059645849
0.058796206
0.057937224
0.057069199
0.056192479
0.05530746
0.054414594
0.053514389
0.052607381
0.085966278
0.085452451
0.084930725
0.084401722
0.083865918
0.08332371
0.082775416
0.082221277
0.081661468
0.0810961
0.08052523
0.079948863
0.079366959
0.078779438
0.078186183
0.077587044
0.076981843
0.076370376
0.075752418
0.075127727
0.074496046
0.073857105
0.07321063
0.072556339
0.071893949
0.071223182
0.070543762
0.069855423
0.069157911
0.068450986
0.067734428
0.067008038
0.06627164
0.065525088
0.064768267
0.064001092
0.063223519
0.062435538
0.061637183
0.06082853
0.060009699
0.059180857
0.058342217
0.057494042
0.056636642
0.055770378
0.054895658
0.054012942
0.053122749
0.05222562
0.084469128
0.084004965
0.083530678
0.083047002
0.082554519
0.082053727
0.081545041
0.081028794
0.080505249
0.079974599
0.079436978
0.078892467
0.078341096
0.077782851
0.077217679
0.076645491
0.076066165
0.075479554
0.074885484
0.074283763
0.07367418
0.073056513
0.072430529
0.071795989
0.071152651
0.070500272
0.069838616
0.069167449
0.068486553
0.06779572
0.067094759
0.066383503
0.065661803
0.064929541
0.064186627
0.063433002
0.062668643
0.061893565
0.061107822
0.060311509
0.059504767
0.058687778
0.057860773
0.05702403
0.056177873
0.055322674
0.054458855
0.053586886
0.052707293
0.051820626
0.082905422
0.082491976
0.082066215
0.081628979
0.081180947
0.080722709
0.080254773
0.079777562
0.079291421
0.078796622
0.078293374
0.077781829
0.077262086
0.076734199
0.076198174
0.075653983
0.075101561
0.074540815
0.073971622
0.07339384
0.072807307
0.072211844
0.071607264
0.070993368
0.070369956
0.069736823
0.069093768
0.068440597
0.067777123
0.067103172
0.066418585
0.065723223
0.06501697
0.064299732
0.063571446
0.062832081
0.062081636
0.061320149
0.060547696
0.059764393
0.058970398
0.058165914
0.057351188
0.056526512
0.055692226
0.054848715
0.053996411
0.053135797
0.052267407
0.051391798
0.081276609
0.080914738
0.080538398
0.080148543
0.079745935
0.07933124
0.078905066
0.078467914
0.078020208
0.077562293
0.07709445
0.0766169
0.076129809
0.075633292
0.075127419
0.074612218
0.074087679
0.073553763
0.073010398
0.072457491
0.071894927
0.071322573
0.070740285
0.070147907
0.069545277
0.068932232
0.068308608
0.067674244
0.067028991
0.066372706
0.065705264
0.065026555
0.064336493
0.063635014
0.062922081
0.062197687
0.061461858
0.060714655
0.059956176
0.059186557
0.058405978
0.057614658
0.056812862
0.056000898
0.055179121
0.054347928
0.053507765
0.052659123
0.051802549
0.050938605
0.079584631
0.079275023
0.078948779
0.078607056
0.07825067
0.077880335
0.077496781
0.077100574
0.076692208
0.076272096
0.075840585
0.075397962
0.074944457
0.074480245
0.074005454
0.073520168
0.073024432
0.072518257
0.072001622
0.071474482
0.070936767
0.070388391
0.069829252
0.069259236
0.068678222
0.068086085
0.067482698
0.066867939
0.06624169
0.065603844
0.064954308
0.064293003
0.063619873
0.062934882
0.062238022
0.06152931
0.0608088
0.060076574
0.059332754
0.058577498
0.057811004
0.057033511
0.056245301
0.0554467
0.054638074
0.053819838
0.052992448
0.052156405
0.051312268
0.050460604
0.077831778
0.077575214
0.077299419
0.077006382
0.076696841
0.076371464
0.076031232
0.075676696
0.075308434
0.074926914
0.074532537
0.074125661
0.073706572
0.073275505
0.072832642
0.072378119
0.071912033
0.071434445
0.070945381
0.070444844
0.06993281
0.069409236
0.068874062
0.068327216
0.067768617
0.067198179
0.066615811
0.066021428
0.065414947
0.064796295
0.064165411
0.063522247
0.062866777
0.062198995
0.061518919
0.060826595
0.060122099
0.05940554
0.058677062
0.057936844
0.057185105
0.056422104
0.055648138
0.054863551
0.054068725
0.053264087
0.052450105
0.051627293
0.050796218
0.049957454
0.076019714
0.075818667
0.075592845
0.075348932
0.075086719
0.074806561
0.074510224
0.074197899
0.073870351
0.073528066
0.073171482
0.072801046
0.072417088
0.072019897
0.071609707
0.071186703
0.07075103
0.070302796
0.069842075
0.069368912
0.068883329
0.068385325
0.067874883
0.067351969
0.066816543
0.066268556
0.065707955
0.06513469
0.064548713
0.063949984
0.063338474
0.062714168
0.062077069
0.0614272
0.060764606
0.060089362
0.059401568
0.058701358
0.057988897
0.057264388
0.056528069
0.055780219
0.055021153
0.054251231
0.05347085
0.052680451
0.051880514
0.051071565
0.050254179
0.049428939
0.074155751
0.074006515
0.073830161
0.073637722
0.07342337
0.073187887
0.072936152
0.072666289
0.072379917
0.072077361
0.071759047
0.071425611
0.071077361
0.070714657
0.070337772
0.069946937
0.069542344
0.069124142
0.06869245
0.068247356
0.067788924
0.067317193
0.066832187
0.066333912
0.065822366
0.065297536
0.064759407
0.064207962
0.063643189
0.06306508
0.062473638
0.06186888
0.061250838
0.060619564
0.059975133
0.059317643
0.058647221
0.057964026
0.057268246
0.056560105
0.055839862
0.055107815
0.054364297
0.053609684
0.052844388
0.052068864
0.051283605
0.050489148
0.049686077
0.048874981
0.072244338
0.072144404
0.072019237
0.071875585
0.071707343
0.071517274
0.071312419
0.071084374
0.070839633
0.070577166
0.070297312
0.070001335
0.069689211
0.06936147
0.069018396
0.068660265
0.068287306
0.067899712
0.06749764
0.067081221
0.066650556
0.066205725
0.06574679
0.065273795
0.064786775
0.064285752
0.063770747
0.063241777
0.062698863
0.062142031
0.061571314
0.060986759
0.060388429
0.059776405
0.059150787
0.058511702
0.057859302
0.057193769
0.056515315
0.055824184
0.055120658
0.054405051
0.053677717
0.052939045
0.052189466
0.051429445
0.050659488
0.049880143
0.049092005
0.048295668
0.070287072
0.070238119
0.070164404
0.07006665
0.069944426
0.069802917
0.0696394
0.069453558
0.06925271
0.069030588
0.068788686
0.068530798
0.068254933
0.067962515
0.067653617
0.067328588
0.066987699
0.066631171
0.066259204
0.065871963
0.065469588
0.065052196
0.064619885
0.064172735
0.063710816
0.063234185
0.062742896
0.062236999
0.061716548
0.061181598
0.060632217
0.06006848
0.059490478
0.05889832
0.058292135
0.057672075
0.057038316
0.056391065
0.055730556
0.055057057
0.054370866
0.053672318
0.052961784
0.052239671
0.051506422
0.050762516
0.050008473
0.04924485
0.04847225
0.047691276
0.068292343
0.068293063
0.068267702
0.068216864
0.068142343
0.068044574
0.067923098
0.067782736
0.067621473
0.067438494
0.067235115
0.067017645
0.066777196
0.066520529
0.066245982
0.065954309
0.065645796
0.065320662
0.064979166
0.064621495
0.064247827
0.063858313
0.063453085
0.063032258
0.062595934
0.062144203
0.061677151
0.061194859
0.060697411
0.060184895
0.059657406
0.059115049
0.058557944
0.057986226
0.057400051
0.056799596
0.056185063
0.055556681
0.054914706
0.054259427
0.053591163
0.052910267
0.052217126
0.051512164
0.050795838
0.050068641
0.049331102
0.04858379
0.047827318
0.047062292
0.066265915
0.066315261
0.066337046
0.066332357
0.066302796
0.066248439
0.066171423
0.066072123
0.06594937
0.06580795
0.065645219
0.065461853
0.065257773
0.065039123
0.064798557
0.064540359
0.064264413
0.063970836
0.063660055
0.063332217
0.062987556
0.062626248
0.06224846
0.061854337
0.061444012
0.061017604
0.060575229
0.060116998
0.059643024
0.059153423
0.058648319
0.058127846
0.057592149
0.057041392
0.056475755
0.05589544
0.055300673
0.054691704
0.054068813
0.053432308
0.052782527
0.052119841
0.051444656
0.050757408
0.050058568
0.049348644
0.048628176
0.047897741
0.047157961
0.046409447
0.06421478
0.064310928
0.064378585
0.064418905
0.064432948
0.064421687
0.064386552
0.064327152
0.064245924
0.064142984
0.064016469
0.063871832
0.063706127
0.063519552
0.063312417
0.063090223
0.062847
0.062584856
0.062304962
0.062007061
0.061691583
0.061358689
0.061008579
0.060641434
0.06025741
0.059856653
0.059439304
0.059005504
0.058555392
0.058089112
0.057606815
0.057108661
0.056594821
0.056065484
0.055520854
0.054961158
0.054386644
0.053797584
0.053194279
0.052577055
0.051946271
0.051302315
0.050645606
0.049976597
0.049295774
0.048603654
0.047900788
0.047187763
0.046465209
0.045733741
0.062146649
0.062287525
0.062399225
0.062482863
0.06253944
0.062569893
0.062575084
0.062555973
0.062513801
0.062447587
0.062360197
0.062251616
0.062119571
0.06196963
0.06179839
0.061606507
0.061394018
0.0611662
0.060917687
0.060649497
0.060363289
0.060058869
0.059736549
0.059396541
0.059039011
0.058664127
0.058272054
0.057862958
0.057437006
0.056994366
0.056535215
0.056059736
0.055568127
0.055060598
0.054537379
0.053998716
0.053444881
0.052876167
0.052292894
0.051695407
0.051084082
0.050459324
0.049821568
0.049171279
0.048508956
0.047835128
0.047150356
0.046455236
0.045750403
0.045036477
0.060069863
0.060253116
0.060406732
0.060531742
0.060629093
0.06069968
0.060744341
0.060763871
0.060759069
0.06073074
0.060679561
0.060605052
0.060509815
0.060393453
0.060253897
0.060096686
0.059917514
0.059718383
0.059498554
0.0592633
0.059006734
0.058730613
0.058436044
0.058123222
0.057792263
0.057443357
0.057076698
0.056692475
0.05629088
0.055872104
0.055436346
0.054983812
0.054514723
0.054029311
0.053527827
0.05301054
0.05247774
0.051929742
0.051366881
0.050789524
0.050198061
0.049592912
0.048974527
0.048343384
0.047699995
0.047044897
0.046378661
0.04570189
0.045015227
0.044319294
0.05799337
0.058216372
0.058409506
0.058573685
0.058709792
0.05881867
0.05890111
0.058957862
0.058989631
0.058997019
0.0589809
0.058941949
0.05888004
0.058795522
0.058690733
0.058564419
0.058415375
0.058249003
0.05806043
0.0578522
0.057622826
0.057378263
0.057111311
0.056825676
0.056521227
0.056198277
0.055857047
0.05549775
0.055120598
0.054725804
0.054313585
0.053884169
0.053437796
0.05297472
0.05249521
0.051999557
0.051488069
0.050961077
0.050418937
0.049862029
0.04929076
0.048705565
0.048106905
0.047495272
0.046871186
0.046235196
0.04558788
0.044929848
0.044261748
0.043584204
0.055635652
0.055926538
0.056186516
0.056416537
0.056617446
0.056790057
0.056935144
0.057053444
0.057145655
0.057212433
0.05725439
0.057272125
0.057266229
0.057237442
0.057186
0.057111989
0.057015535
0.056899236
0.056760356
0.056602715
0.056424911
0.056224419
0.056004914
0.05576429
0.0555089
0.055230626
0.054933459
0.054617544
0.054283099
0.053930359
0.05355955
0.053170907
0.052764675
0.052341111
0.051900489
0.051443097
0.050969242
0.050479251
0.049973472
0.049452275
0.048916055
0.048365234
0.047800259
0.047221604
0.04662977
0.046025287
0.045408713
0.044780632
0.044141661
0.043492452
0.042833629
0.053554815
0.05387939
0.05417329
0.054437364
0.054672362
0.054879013
0.055058019
0.055210051
0.055335749
0.055435719
0.055510536
0.055560747
0.055586865
0.055589326
0.055568901