/*--------------------------------*- C++ -*----------------------------------*\
| =========                 |                                                 |
| \\      /  F ield         | OpenFOAM: The Open Source CFD Toolbox           |
|  \\    /   O peration     | Version:  2312                                  |
|   \\  /    A nd           | Website:  www.openfoam.com                      |
|    \\/     M anipulation  |                                                 |
\*---------------------------------------------------------------------------*/
FoamFile
{
    version     2.0;
    format      ascii;
    arch        "LSB;label=32;scalar=64";
    class       volScalarField;
    location    "0.08";
    object      CO2;
}
// * * * * * * * * * * * * * * * * * * * * * * * * * * * * * * * * * * * * * //

dimensions      [0 0 0 0 0 0 0];

internalField   nonuniform List<scalar> 
3250
(
0.036840596
0.036457813
0.036086508
0.035726137
0.035376176
0.035036127
0.034705511
0.034383869
0.03407076
0.033765757
0.033468444
0.033178422
0.032895297
0.032618686
0.032348215
0.032083513
0.031824217
0.031569967
0.031320406
0.031075181
0.03083394
0.030596334
0.030362014
0.03013063
0.029901838
0.02967529
0.02945064
0.029227546
0.029005662
0.02878465
0.02856417
0.028343888
0.028123473
0.027902598
0.027680944
0.027458199
0.027234059
0.02700823
0.026780428
0.026550383
0.02631784
0.026082558
0.025844318
0.025602907
0.025358074
0.02510968
0.024857609
0.024601754
0.02434204
0.036831312
0.036448942
0.036078025
0.035718017
0.035368398
0.03502867
0.034698356
0.034376999
0.034064158
0.033759406
0.033462332
0.033172535
0.032889622
0.032613213
0.032342932
0.03207841
0.031819284
0.031565196
0.031315789
0.031070709
0.030829607
0.030592132
0.030357936
0.030126672
0.029897992
0.029671552
0.029447005
0.029224008
0.029002218
0.028781294
0.028560899
0.028340698
0.02812036
0.02789956
0.027677977
0.027455301
0.027231226
0.02700546
0.026777719
0.026547732
0.026315245
0.026080017
0.025841825
0.025600452
0.025355673
0.025107338
0.02485532
0.024599507
0.024339822
0.036812583
0.036431045
0.036060908
0.035701632
0.0353527
0.035013618
0.034683911
0.034363126
0.034050823
0.03374658
0.033449986
0.033160641
0.032878157
0.032602152
0.032332254
0.032068096
0.031809314
0.031555552
0.031306454
0.031061668
0.030820844
0.030583634
0.03034969
0.030118665
0.029890214
0.02966399
0.029439649
0.029216849
0.028995247
0.028774502
0.028554278
0.02833424
0.028114059
0.027893408
0.027671969
0.027449429
0.027225487
0.026999847
0.026772227
0.026542358
0.026309984
0.026074863
0.025836772
0.025595495
0.025350819
0.025102588
0.024850669
0.024594944
0.024335334
0.036784436
0.036404147
0.036035179
0.035677002
0.035329101
0.034990987
0.034662192
0.034342265
0.034030772
0.033727291
0.033431417
0.033142753
0.032860911
0.032585515
0.032316193
0.032052579
0.031794315
0.031541042
0.031292409
0.031048064
0.03080766
0.030570848
0.030337282
0.030106617
0.029878507
0.029652609
0.029428579
0.029206074
0.028984754
0.028764279
0.028544312
0.028324519
0.028104572
0.027884146
0.027662922
0.027440589
0.027216844
0.026991395
0.026763958
0.026534265
0.02630206
0.026067102
0.025829166
0.025588038
0.025343514
0.025095435
0.024843662
0.024588071
0.024328587
0.036746908
0.036368281
0.036000872
0.035644156
0.035297628
0.034960805
0.034633224
0.03431444
0.034004024
0.03370156
0.033406645
0.033118887
0.032837902
0.032563317
0.032294762
0.032031875
0.031774299
0.03152168
0.031273666
0.03102991
0.030790064
0.030553783
0.030320722
0.030090536
0.029862883
0.02963742
0.029413804
0.029191694
0.028970749
0.028750633
0.028531009
0.028311544
0.02809191
0.027871783
0.027650846
0.027428788
0.027205307
0.026980111
0.026752919
0.026523461
0.026291482
0.026056742
0.025819015
0.025578089
0.025333767
0.025085887
0.024834306
0.024578899
0.024319587
0.036702734
0.036326061
0.035960482
0.035605485
0.03526057
0.034925264
0.03459911
0.03428167
0.033972521
0.033671253
0.033377467
0.033090775
0.032810799
0.032537167
0.032269515
0.032007484
0.031750719
0.031498868
0.031251584
0.03100852
0.030769332
0.030533676
0.030301208
0.030071588
0.029844473
0.029619521
0.029396393
0.029174747
0.028954246
0.028734552
0.028515332
0.028296252
0.028076987
0.027857213
0.027636614
0.02741488
0.027191711
0.026966814
0.026739909
0.026510728
0.026279016
0.026044532
0.025807053
0.025566368
0.025322283
0.025074635
0.024823281
0.02456809
0.024308988
0.036653302
0.036278811
0.035915278
0.0355622
0.035219089
0.034885478
0.034560919
0.034244982
0.03393725
0.033637318
0.033344794
0.033059295
0.032780446
0.032507882
0.03224124
0.031980166
0.031724308
0.031473318
0.03122685
0.030984561
0.030746109
0.030511152
0.03027935
0.030050362
0.029823848
0.02959947
0.029376887
0.029155762
0.028935757
0.028716536
0.028497768
0.02827912
0.028060268
0.027840889
0.027620668
0.027399298
0.027176477
0.026951915
0.026725332
0.026496461
0.026265048
0.026030853
0.025793653
0.025553238
0.025309418
0.025062029
0.024810927
0.024555981
0.024297116
0.036594776
0.036222865
0.035861749
0.03551094
0.035169959
0.034838352
0.03451568
0.034201521
0.033895464
0.033597113
0.033306082
0.033021994
0.032744479
0.032473177
0.032207732
0.03194779
0.031693006
0.031443034
0.031197533
0.030956162
0.030718582
0.030484453
0.030253438
0.0300252
0.029799399
0.029575699
0.029353763
0.029133254
0.028913837
0.028695177
0.028476944
0.028258808
0.028040445
0.027821535
0.027601763
0.027380823
0.027158414
0.026934249
0.026708048
0.026479545
0.026248487
0.026014635
0.025777765
0.025537672
0.025294166
0.025047083
0.02479628
0.024541625
0.024283043
0.036526542
0.03615763
0.035799327
0.035451157
0.035112657
0.034783383
0.034462907
0.034150816
0.03384671
0.0335502
0.033260908
0.032978464
0.032702505
0.032432674
0.032168621
0.03191
0.031656468
0.031407684
0.031163309
0.030923008
0.030686444
0.030453282
0.030223185
0.029995821
0.029770852
0.029547944
0.029326762
0.029106972
0.02888824
0.028670235
0.028452627
0.028235088
0.028017296
0.027798933
0.027579684
0.027359246
0.02713732
0.026913618
0.026687863
0.02645979
0.026229146
0.025995693
0.025759211
0.025519494
0.025276354
0.025029629
0.024779174
0.024524858
0.024266609
0.036447962
0.036082495
0.035727422
0.035382285
0.035046635
0.034720042
0.034402091
0.034092379
0.033790517
0.033496125
0.033208834
0.032928281
0.03265411
0.032385973
0.032123524
0.031866423
0.031614332
0.031366915
0.031123838
0.030884769
0.030649376
0.030417326
0.030188288
0.02996193
0.029737919
0.029515924
0.029295611
0.02907665
0.028858709
0.028641458
0.02842457
0.028207719
0.027990586
0.027772852
0.027554208
0.027334349
0.027112979
0.026889811
0.026664571
0.026436993
0.026206826
0.025973836
0.025737801
0.025498518
0.025255801
0.025009488
0.024759435
0.024505511
0.024247645
0.03635838
0.035996828
0.035645427
0.035303738
0.034971329
0.034647786
0.034332706
0.034025701
0.033726393
0.033434413
0.033149399
0.032871
0.032598867
0.032332659
0.032072037
0.031816668
0.031566219
0.03132036
0.031078763
0.030841099
0.03060704
0.030376259
0.030148428
0.029923218
0.0297003
0.029479346
0.029260025
0.029042009
0.02882497
0.02860858
0.028392514
0.028176449
0.027960067
0.027743053
0.027525098
0.0273059
0.027085165
0.026862607
0.026637954
0.026410942
0.026181322
0.02594886
0.025713336
0.025474548
0.025232314
0.024986472
0.024736877
0.024483402
0.024225975
0.036257118
0.035899975
0.035552711
0.035214908
0.034886153
0.034566048
0.034254208
0.033950257
0.03365383
0.033364571
0.033082129
0.032806161
0.032536329
0.032272299
0.032013742
0.031760329
0.031511736
0.031267638
0.031027713
0.030791637
0.030559087
0.030329741
0.030103274
0.029879363
0.029657681
0.029437904
0.029219705
0.029002759
0.02878674
0.028571324
0.028356188
0.028141013
0.027925481
0.027709282
0.027492107
0.027273657
0.027053641
0.026831775
0.026607786
0.026381415
0.026152414
0.02592055
0.025685605
0.02544738
0.025205693
0.024960383
0.024711308
0.024458341
0.024201412
0.036143485
0.035791268
0.03544863
0.035115173
0.034790505
0.034474248
0.034166033
0.033865502
0.033572302
0.03328609
0.033006529
0.032733286
0.032466033
0.032204446
0.031948203
0.031696984
0.031450473
0.03120835
0.030970301
0.030736006
0.030505151
0.030277415
0.03005248
0.029830026
0.029609732
0.029391277
0.029174339
0.028958594
0.028743721
0.0285294
0.028315309
0.028101133
0.027886558
0.027671273
0.027454975
0.027237367
0.027018159
0.02679707
0.026573829
0.026348179
0.026119874
0.025888683
0.02565439
0.025416798
0.025175726
0.024931016
0.024682526
0.02443013
0.024173761
0.036016771
0.035670024
0.035332522
0.035003892
0.034683767
0.034371787
0.034067603
0.033770875
0.033481265
0.033198445
0.03292209
0.032651881
0.0323875
0.032128633
0.031874968
0.031626195
0.031382003
0.031142083
0.030906124
0.030673817
0.03044485
0.03021891
0.029995684
0.029774857
0.029556112
0.029339132
0.0291236
0.028909197
0.028695604
0.028482504
0.028269581
0.02805652
0.027843013
0.02762875
0.027413433
0.027196765
0.026978459
0.026758238
0.026535834
0.02631099
0.026083463
0.025853024
0.025619461
0.025382576
0.025142193
0.024898152
0.024650317
0.024398561
0.024142818
0.03587626
0.035535547
0.035203713
0.034880414
0.034565305
0.034258052
0.033958324
0.0336658
0.033380161
0.033101093
0.032828287
0.032561436
0.032300235
0.03204438
0.031793572
0.031547507
0.031305886
0.031068406
0.030834766
0.030604662
0.03037779
0.030153842
0.029932512
0.029713489
0.029496463
0.029281121
0.02906715
0.028854235
0.028642063
0.02843032
0.028218693
0.028006873
0.027794551
0.027581425
0.027367196
0.027151573
0.026934271
0.026715015
0.02649354
0.026269592
0.02604293
0.025813329
0.025580576
0.025344479
0.025104861
0.024861567
0.024614459
0.024363414
0.024108368
0.035721224
0.035387131
0.03506152
0.034744074
0.034434477
0.034132417
0.033837588
0.033549688
0.033268418
0.03299348
0.03272458
0.032461427
0.032203728
0.031951193
0.031703532
0.031460454
0.031221667
0.030986879
0.030755796
0.030528123
0.030303561
0.030081813
0.029862575
0.029645545
0.029430416
0.029216883
0.029004636
0.028793366
0.028582764
0.02837252
0.028162326
0.027951876
0.027740865
0.027528995
0.02731597
0.027101502
0.02688531
0.026667122
0.026446676
0.026223719
0.025998016
0.02576934
0.025537486
0.02530226
0.02506349
0.024821021
0.024574719
0.024324463
0.024070189
0.035550932
0.035224065
0.03490525
0.0345942
0.034290627
0.033994247
0.033704778
0.03342194
0.033145452
0.032875037
0.032610418
0.032351317
0.032097459
0.031848564
0.031604355
0.031364553
0.031128877
0.030897044
0.030668769
0.030443765
0.030221742
0.030002409
0.029785471
0.02957063
0.029357588
0.029146043
0.028935693
0.028726232
0.028517357
0.028308763
0.028100145
0.027891202
0.027681635
0.027471147
0.027259448
0.027046253
0.026831284
0.026614272
0.026394958
0.026173095
0.025948446
0.025720793
0.025489928
0.025255663
0.025017827
0.024776269
0.024530856
0.02428147
0.024028048
0.035364655
0.035045638
0.03473421
0.034430115
0.034133097
0.033842901
0.033559269
0.033281945
0.03301067
0.032745188
0.032485237
0.032230559
0.031980892
0.031735972
0.031495534
0.031259312
0.031027035
0.030798432
0.030573227
0.030351142
0.030131897
0.029915207
0.029700785
0.029488342
0.029277584
0.029068216
0.028859942
0.028652464
0.028445481
0.028238694
0.028031804
0.027824515
0.02761653
0.027407558
0.027197313
0.026985514
0.026771886
0.026556164
0.026338094
0.02611743
0.025893941
0.025667408
0.02543763
0.025204421
0.024967612
0.024727055
0.024482618
0.024234188
0.023981702
0.035161668
0.034851142
0.034547706
0.034251142
0.033961225
0.033677731
0.033400429
0.033129088
0.032863473
0.032603346
0.032348468
0.032098596
0.031853485
0.031612888
0.031376553
0.031144226
0.030915649
0.030690563
0.030468702
0.030249797
0.030033579
0.02981977
0.029608092
0.029398262
0.029189995
0.028983003
0.028776996
0.02857168
0.028366762
0.028161949
0.027956946
0.027751462
0.027545206
0.027337891
0.027129235
0.026918961
0.0267068
0.026492489
0.026275779
0.026056427
0.025834205
0.0256089
0.025380311
0.025148257
0.024912572
0.02467311
0.024429744
0.02418236
0.023930899
0.035249372
0.03494126
0.034639875
0.03434505
0.034056605
0.033774351
0.033498091
0.033227627
0.032962752
0.032703255
0.032448922
0.032199532
0.031954864
0.031714688
0.031478774
0.031246885
0.031018781
0.030794218
0.030572947
0.030354715
0.030139263
0.029926331
0.029715651
0.029506953
0.029299964
0.029094405
0.028889996
0.028686452
0.028483489
0.028280818
0.028078152
0.027875203
0.027671684
0.02746731
0.027261799
0.027054874
0.026846262
0.026635698
0.026422926
0.026207698
0.025989776
0.025768937
0.02554497
0.025317679
0.025086885
0.024852427
0.024614161
0.024371962
0.024125721
0.02387538
0.035000444
0.034702732
0.034411149
0.034125566
0.033845841
0.03357182
0.033303341
0.033040234
0.032782319
0.032529413
0.032281323
0.032037852
0.031798796
0.031563946
0.031333087
0.031106001
0.03088246
0.030662234
0.030445088
0.03023078
0.030019063
0.029809687
0.029602394
0.029396924
0.029193011
0.028990385
0.028788774
0.028587901
0.028387488
0.028187254
0.027986918
0.027786196
0.02758481
0.027382478
0.027178926
0.02697388
0.026767073
0.026558245
0.026347144
0.026133526
0.025917159
0.025697824
0.025475312
0.025249432
0.025020009
0.024786885
0.02454992
0.024308992
0.024063996
0.023814874
0.034732019
0.034445409
0.034164296
0.033888594
0.033618197
0.033352991
0.033092848
0.032837626
0.032587179
0.032341345
0.03209996
0.031862847
0.031629824
0.031400701
0.031175282
0.030953364
0.030734736
0.030519183
0.030306482
0.030096404
0.029888715
0.029683174
0.029479536
0.029277549
0.029076957
0.028877499
0.028678911
0.028480925
0.028283268
0.028085668
0.02788785
0.027689539
0.027490459
0.027290338
0.027088905
0.026885894
0.026681042
0.026474094
0.026264803
0.026052931
0.025838249
0.025620543
0.025399609
0.02517526
0.024947325
0.024715648
0.024480095
0.024240547
0.023996902
0.023749106
0.034443454
0.034168649
0.033898678
0.033633496
0.033373043
0.033117239
0.032865992
0.032619195
0.032376728
0.03213846
0.031904249
0.031673944
0.031447384
0.0312244
0.031004814
0.030788441
0.030575086
0.03036455
0.030156623
0.029951091
0.029747731
0.029546315
0.029346608
0.029148369
0.028951352
0.028755305
0.028559973
0.028365096
0.028170409
0.027975649
0.027780546
0.027584834
0.027388244
0.027190508
0.026991363
0.026790548
0.026587807
0.026382891
0.026175556
0.02596557
0.02575271
0.025536766
0.025317538
0.025094845
0.024868519
0.024638409
0.024404384
0.02416633
0.023924149
0.02367779
0.034400555
0.034134151
0.033871848
0.033613686
0.033359667
0.033109773
0.032863962
0.032622178
0.032384348
0.032150381
0.031920176
0.031693617
0.031470577
0.031250918
0.031034492
0.030821141
0.030610698
0.030402985
0.030197819
0.029995005
0.029794343
0.029595623
0.029398629
0.029203139
0.029008921
0.028815741
0.028623356
0.02843152
0.028239983
0.028048489
0.027856781
0.027664599
0.027471682
0.027277769
0.027082601
0.026885919
0.02668747
0.026487002
0.026284273
0.026079047
0.025871094
0.025660199
0.025446155
0.025228768
0.025007862
0.024783272
0.024554853
0.024322478
0.024086037
0.023845437
0.023600635
0.034056011
0.033803563
0.033554448
0.033308757
0.033066539
0.032827816
0.032592588
0.032360835
0.032132515
0.031907572
0.031685932
0.031467507
0.031252195
0.031039882
0.03083044
0.030623733
0.030419611
0.030217917
0.030018481
0.029821126
0.029625665
0.029431903
0.029239637
0.029048655
0.02885874
0.028669666
0.028481202
0.028293111
0.028105153
0.02791708
0.027728644
0.027539593
0.027349675
0.027158636
0.026966223
0.026772186
0.026576277
0.026378253
0.026177875
0.025974915
0.025769149
0.025560366
0.025348366
0.025132961
0.024913978
0.024691258
0.02446466
0.024234062
0.023999358
0.023760462
0.02351734
0.033689
0.033451202
0.033215948
0.032983379
0.032753589
0.032526644
0.032302584
0.032081425
0.031863159
0.031647763
0.031435192
0.031225385
0.031018267
0.030813746
0.030611719
0.030412069
0.030214667
0.030019372
0.029826033
0.029634489
0.029444568
0.029256089
0.029068863
0.02888269
0.028697364
0.028512673
0.028328395
0.028144304
0.027960169
0.027775753
0.027590816
0.027405115
0.027218405
0.027030442
0.02684098
0.026649776
0.026456588
0.026261182
0.026063326
0.025862795
0.025659375
0.02545286
0.025243054
0.025029776
0.024812858
0.024592146
0.024367505
0.024138816
0.023905978
0.023668912
0.033299133
0.033076654
0.032855912
0.032637097
0.03242035
0.032205778
0.031993461
0.031783452
0.031575779
0.031370449
0.031167448
0.030966743
0.030768284
0.030572006
0.030377826
0.030185649
0.029995367
0.029806857
0.029619987
0.029434611
0.029250573
0.029067707
0.028885837
0.028704778
0.028524336
0.028344309
0.028164489
0.02798466
0.027804599
0.027624082
0.027442876
0.027260749
0.027077464
0.026892785
0.026706474
0.026518296
0.026328018
0.026135411
0.025940251
0.025742321
0.025541411
0.025337323
0.025129867
0.024918868
0.024704163
0.024485604
0.02426306
0.024036417
0.023805579
0.023570471
0.032886108
0.032679586
0.032473979
0.032269527
0.032066416
0.031864796
0.031664784
0.031466471
0.031269919
0.031075168
0.030882232
0.030691109
0.030501773
0.030314184
0.030128283
0.029943996
0.029761236
0.0295799
0.029399872
0.029221023
0.029043215
0.028866296
0.028690104
0.028514469
0.028339208
0.028164134
0.027989047
0.027813745
0.027638016
0.027461644
0.027284408
0.027106084
0.026926446
0.026745264
0.026562311
0.026377359
0.026190183
0.026000561
0.025808278
0.025613124
0.025414895
0.025213399
0.025008455
0.024799892
0.024587553
0.024371296
0.024150996
0.023926543
0.023697843
0.023464832
0.032449722
0.032259755
0.032069873
0.031880364
0.031691458
0.031503344
0.031316181
0.031130093
0.030945178
0.030761505
0.030579122
0.030398051
0.030218296
0.030039839
0.029862646
0.029686665
0.029511827
0.029338051
0.029165238
0.028993279
0.028822049
0.028651413
0.028481224
0.028311324
0.028141547
0.027971714
0.027801642
0.027631138
0.027460001
0.027288026
0.027115002
0.026940716
0.02676495
0.026587484
0.0264081
0.026226578
0.026042702
0.025856258
0.025667038
0.025474839
0.025279467
0.025080735
0.024878468
0.024672503
0.024462689
0.024248889
0.024030985
0.02380887
0.023582456
0.023351688
0.031989883
0.031817022
0.031643414
0.031469392
0.031295226
0.031121147
0.03094735
0.030773995
0.030601213
0.030429106
0.030257747
0.03008719
0.029917463
0.029748573
0.02958051
0.029413243
0.029246726
0.029080894
0.028915669
0.028750958
0.028586654
0.028422637
0.028258776
0.028094926
0.027930935
0.027766638
0.027601864
0.02743643
0.027270149
0.027102826
0.026934261
0.02676425
0.026592586
0.026419059
0.02624346
0.026065577
0.025885203
0.025702133
0.025516167
0.025327109
0.025134773
0.02493898
0.024739562
0.024536362
0.024329236
0.024118054
0.023902702
0.02368308
0.023459105
0.023230728
0.031506618
0.03135136
0.031194526
0.031036491
0.030877564
0.030718015
0.030558073
0.030397933
0.030237758
0.03007768
0.029917802
0.029758203
0.029598938
0.02944004
0.029281519
0.029123367
0.028965559
0.02880805
0.028650781
0.028493674
0.028336642
0.028179579
0.028022369
0.027864883
0.027706981
0.027548514
0.02738932
0.027229232
0.027068072
0.026905658
0.026741801
0.026576307
0.026408979
0.026239617
0.02606802
0.025893989
0.025717323
0.025537827
0.025355309
0.025169582
0.024980467
0.024787793
0.0245914
0.024391137
0.024186867
0.023978467
0.023765829
0.02354886
0.023327481
0.02310165
0.031000082
0.030862865
0.030723251
0.030581654
0.03043842
0.030293855
0.030148221
0.030001746
0.029854624
0.029707014
0.029559049
0.029410834
0.029262448
0.029113949
0.028965369
0.028816723
0.028668004
0.028519188
0.028370234
0.028221083
0.028071661
0.027921883
0.027771645
0.027620834
0.027469324
0.027316978
0.027163649
0.02700918
0.026853409
0.026696162
0.026537262
0.026376527
0.026213769
0.0260488
0.025881429
0.025711464
0.025538716
0.025362997
0.025184125
0.025001922
0.024816216
0.024626845
0.024433655
0.024236505
0.024035264
0.023829815
0.023620058
0.023405905
0.023187284
0.022964158
0.030470572
0.030351766
0.030229756
0.030104992
0.029977855
0.029848682
0.029717768
0.029585371
0.029451712
0.02931698
0.029181333
0.029044903
0.028907792
0.02877008
0.028631824
0.028493057
0.028353794
0.028214029
0.02807374
0.027932885
0.027791408
0.027649237
0.027506286
0.027362456
0.027217635
0.0270717
0.026924517
0.026775942
0.026625823
0.026474001
0.026320309
0.026164575
0.026006624
0.025846277
0.025683353
0.025517672
0.025349052
0.025177317
0.025002292
0.024823808
0.024641702
0.024455821
0.024266018
0.02407216
0.023874124
0.0236718
0.023465093
0.023253923
0.023038226
0.022817969
0.029918535
0.029818434
0.029714344
0.029606746
0.029496052
0.029382628
0.029266799
0.029148848
0.029029026
0.028907545
0.028784591
0.028660316
0.028534849
0.028408291
0.028280718
0.028152186
0.028022728
0.027892357
0.027761069
0.027628839
0.027495628
0.027361379
0.027226022
0.027089473
0.026951633
0.026812393
0.026671632
0.026529219
0.026385016
0.026238873
0.026090637
0.025940147
0.025787239
0.025631743
0.02547349
0.025312309
0.025148031
0.024980485
0.024809509
0.024634942
0.02445663
0.024274428
0.024088198
0.023897815
0.023703162
0.023504138
0.023300656
0.023092642
0.022880038
0.022662816
0.029344577
0.029263394
0.029177465
0.029087298
0.02899333
0.028895954
0.02879552
0.028692338
0.028586679
0.028478783
0.028368857
0.028257077
0.028143592
0.028028524
0.02791197
0.027794004
0.02767468
0.027554028
0.027432059
0.027308768
0.027184131
0.027058107
0.02693064
0.02680166
0.026671085
0.026538816
0.026404748
0.026268763
0.026130732
0.02599052
0.025847985
0.025702977
0.025555344
0.025404927
0.025251568
0.025095105
0.024935379
0.024772231
0.024605507
0.024435055
0.024260732
0.0240824
0.023899931
0.023713206
0.023522118
0.023326574
0.023126492
0.022921807
0.022712468
0.022498451
0.028749471
0.028687333
0.028619726
0.028547178
0.028470151
0.028389058
0.028304272
0.028216124
0.028124908
0.028030884
0.02793428
0.027835294
0.027734093
0.027630819
0.02752559
0.027418496
0.027309609
0.027198976
0.027086627
0.02697257
0.026856798
0.026739285
0.02661999
0.026498858
0.026375818
0.026250789
0.026123675
0.025994372
0.025862764
0.025728728
0.025592134
0.025452844
0.025310715
0.025165601
0.025017355
0.024865825
0.024710863
0.024552319
0.024390049
0.024223912
0.024053772
0.023879501
0.023700981
0.0235181
0.023330761
0.023138877
0.022942374
0.022741195
0.022535295
0.022324656
0.028134166
0.028091108
0.028041898
0.027987078
0.027927131
0.027862487
0.027793536
0.027720629
0.027644078
0.027564163
0.027481129
0.027395191
0.027306537
0.027215326
0.027121691
0.027025743
0.026927568
0.02682723
0.026724774
0.026620225
0.026513589
0.026404856
0.026293999
0.026180975
0.02606573
0.025948193
0.025828284
0.025705908
0.025580965
0.025453343
0.025322922
0.025189577
0.025053177
0.024913587
0.024770669
0.024624284
0.024474292
0.024320556
0.024162941
0.024001315
0.023835553
0.023665536
0.023491152
0.023312302
0.023128895
0.022940852
0.022748108
0.022550612
0.022348328
0.022141242
0.02749979
0.027475753
0.027444925
0.027407854
0.027365049
0.027316944
0.027263948
0.027206424
0.027144701
0.027079074
0.027009804
0.026937122
0.026861233
0.02678231
0.026700503
0.026615939
0.026528717
0.026438919
0.026346602
0.026251808
0.026154555
0.026054848
0.025952674
0.025848003
0.025740794
0.025630989
0.025518519
0.025403306
0.025285257
0.025164274
0.02504025
0.02491307
0.024782615
0.024648761
0.024511382
0.024370348
0.024225531
0.024076803
0.02392404
0.02376712
0.023605928
0.023440353
0.023270294
0.023095659
0.022916367
0.022732347
0.022543542
0.022349907
0.022151415
0.021948057
0.026847635
0.026842488
0.02682994
0.026810536
0.02678486
0.026753299
0.026716304
0.026674236
0.026627438
0.026576218
0.02652085
0.026461579
0.026398621
0.026332167
0.026262378
0.026189395
0.026113332
0.026034284
0.025952321
0.025867499
0.025779849
0.02568939
0.02559612
0.025500025
0.025401072
0.02529922
0.02519441
0.025086575
0.024975637
0.024861508
0.024744092
0.024623287
0.024498984
0.024371071
0.024239431
0.024103948
0.023964503
0.023820978
0.02367326
0.023521237
0.023364802
0.023203856
0.023038307
0.022868071
0.022693075
0.022513258
0.02232857
0.022138975
0.021944451
0.021744996
0.026179418
0.026192647
0.026198208
0.026196316
0.026187707
0.026172592
0.026151574
0.02612496
0.026093113
0.026056355
0.026014964
0.0259692
0.025919289
0.025865432
0.025807805
0.025746557
0.025681817
0.02561369
0.025542261
0.025467595
0.025389737
0.025308718
0.025224548
0.025137224
0.025046728
0.024953027
0.024856077
0.024755821
0.024652192
0.024545115
0.024434505
0.024320271
0.024202315
0.024080537
0.02395483
0.023825088
0.023691204
0.02355307
0.023410583
0.023263641
0.023112148
0.022956013
0.022795154
0.022629496
0.022458975
0.022283538
0.022103144
0.021917765
0.021727385
0.021532008
0.025496382
0.025528142
0.025551454
0.025566638
0.025574829
0.025576014
0.025570918
0.025559665
0.02554272
0.025520415
0.025493008
0.025460788
0.025423979
0.025382794
0.025337419
0.025288013
0.025234714
0.025177639
0.025116882
0.02505252
0.024984609
0.02491319
0.024838285
0.024759902
0.024678034
0.02459266
0.024503747
0.024411248
0.024315109
0.024215265
0.024111642
0.02400416
0.023892733
0.023777269
0.023657675
0.023533854
0.02340571
0.023273147
0.023136068
0.022994385
0.02284801
0.022696862
0.022540868
0.022379963
0.022214092
0.022043209
0.021867283
0.021686291
0.021500228
0.021309101
0.024801479
0.024850778
0.02489093
0.024923281
0.024948002
0.024965072
0.024975613
0.024979562
0.024977421
0.024969509
0.024956009
0.024937312
0.024913596
0.024885101
0.024852015
0.024814506
0.024772719
0.024726779
0.024676791
0.024622839
0.024564991
0.024503296
0.024437788
0.024368484
0.024295388
0.024218489
0.024137764
0.024053178
0.023964686
0.023872235
0.02377576
0.023675194
0.023570459
0.023461476
0.023348161
0.023230429
0.023108193
0.022981366
0.022849865
0.022713608
0.022572518
0.022426526
0.022275566
0.022119582
0.021958528
0.021792368
0.021621077
0.021444642
0.021263063
0.021076354
0.024095905
0.024162826
0.024219509
0.02426813
0.024308444
0.024341485
0.024367488
0.024386174
0.024398623
0.024404861
0.02440515
0.024399936
0.024389223
0.024373374
0.024352559
0.024326944
0.024296688
0.024261918
0.024222748
0.02417927
0.024131559
0.024079675
0.024023658
0.023963536
0.023899323
0.023831015
0.023758602
0.023682056
0.023601345
0.023516423
0.023427237
0.023333729
0.023235833
0.023133479
0.023026593
0.0229151
0.022798924
0.022677989
0.02255222
0.022421546
0.022285901
0.022145221
0.021999454
0.021848551
0.021692476
0.021531199
0.021364705
0.021192989
0.021016058
0.02083393
0.023381688
0.023464935
0.023538902
0.023602908
0.023658854
0.023707328
0.023747755
0.023781236
0.02380815
0.023828049
0.023841943
0.023849918
0.023852091
0.023848818
0.023840198
0.023826411
0.023807654
0.023784034
0.023755683
0.023722694
0.023685151
0.02364312
0.02359665
0.023545776
0.02349052
0.023430889
0.023366878
0.023298473
0.023225646
0.023148364
0.023066583
0.022980253
0.022889319
0.022793721
0.022693395
0.022588276
0.022478297
0.022363392
0.022243497
0.022118549
0.021988492
0.021853273
0.021712846
0.021567174
0.021416228
0.021259987
0.021098443
0.0209316
0.020759472
0.020582081
0.02266157
0.022760438
0.02284973
0.022929758
0.023001534
0.023064072
0.02311897
0.023167035
0.023207208
0.023240801
0.023268257
0.023288917
0.023303747
0.023312823
0.023316214
0.023314169
0.023306842
0.023294289
0.023276708
0.023254172
0.02322678
0.023194599
0.023157688
0.023116087
0.023069826
0.023018918
0.022963368
0.022903168
0.022838301
0.022768741
0.022694452
0.022615396
0.022531524
0.022442787
0.022349131
0.022250499
0.022146835
0.022038081
0.021924184
0.02180509
0.021680751
0.021551125
0.021416174
0.02127587
0.021130192
0.020979128
0.020822678
0.020660852
0.020493672
0.020321166
0.021938309
0.022051994
0.022155993
0.022250732
0.022336708
0.022414115
0.02248381
0.022544792
0.022598168
0.022645549
0.022685331
0.022718682
0.022746172
0.022767048
0.022782236
0.02279173
0.022795605
0.022794019
0.022787135
0.022774951
0.022757645
0.022735265
0.022707879
0.022675533
0.022638262
0.022596087
0.022549019
0.022497056
0.02244019
0.022378401
0.022311664
0.022239946
0.02216321
0.022081415
0.021994513
0.02190246
0.021805206
0.021702705
0.021594911
0.02148178
0.021363273
0.021239356
0.021110001
0.020975187
0.020834903
0.020689144
0.020537917
0.020381241
0.020219145
0.02005166
0.021214761
0.021342335
0.021460193
0.021568741
0.021668374
0.021759439
0.021842383
0.021917499
0.021983773
0.022043206
0.022095612
0.02214173
0.022180645
0.022213362
0.022240303
0.02226078
0.022275679
0.022284849
0.022288398
0.022286461
0.022279153
0.022266465
0.022248526
0.022225372
0.022197045
0.02216357
0.022124963
0.022081232
0.022032371
0.02197837
0.021919211
0.021854868
0.021785312
0.021710509
0.021630422
0.021545013
0.021454243
0.021358073
0.021256465
0.021149386
0.021036804
0.020918694
0.020795037
0.02066582
0.020531038
0.020390697
0.020244809
0.020093402
0.019936509
0.019774168
0.020493926
0.020634365
0.020765133
0.020886586
0.02099907
0.021102913
0.021198438
0.021285891
0.021365386
0.021437748
0.021501762
0.02155878
0.021609742
0.021654275
0.021691785
0.021723368
0.021749134
0.021768545
0.021782339
0.021790409
0.021792844
0.021789749
0.021781142
0.021767071
0.021747593
0.021722742
0.021692538
0.021656992
0.021616104
0.021569872
0.021518281
0.021461315
0.021398951
0.021331163
0.021257921
0.021179195
0.021094954
0.021005168
0.020909807
0.020808845
0.02070226
0.020590035
0.020472157
0.020348623
0.020219435
0.020084605
0.019944155
0.019798118
0.019646533
0.019489443
0.019616679
0.019778875
0.019931132
0.020073805
0.020207212
0.020331658
0.02044744
0.020554836
0.020654103
0.020745487
0.020829349
0.02090589
0.020974071
0.021035698
0.021090724
0.021139434
0.021181903
0.021217494
0.021247444
0.02127096
0.021288656
0.021300691
0.021306911
0.021307399
0.021302319
0.021291548
0.021275202
0.021253298
0.021225848
0.021192862
0.021154338
0.021110271
0.021060649
0.021005455
0.020944671
0.020878273
0.020806239
0.020728545
0.020645168
0.020556087
0.020461283
0.020360742
0.020254454
0.020142415
0.020024628
0.019901103
0.019771859
0.019636925
0.019496339
0.019350149
0.0191984
0.018900206
0.019072902
0.019235854
0.019389371
0.019533729
0.019669197
0.019796034
0.01991449
0.020024803
0.020127206
0.020221931
0.020309144
0.020388905
0.020461899
0.020526908
0.020585133