/*--------------------------------*- C++ -*----------------------------------*\
| =========                 |                                                 |
| \\      /  F ield         | OpenFOAM: The Open Source CFD Toolbox           |
|  \\    /   O peration     | Version:  2312                                  |
|   \\  /    A nd           | Website:  www.openfoam.com                      |
|    \\/     M anipulation  |                                                 |
\*---------------------------------------------------------------------------*/
FoamFile
{
    version     2.0;
    format      ascii;
    arch        "LSB;label=32;scalar=64";
    class       volScalarField;
    location    "0.08";
    object      H2O;
}
// * * * * * * * * * * * * * * * * * * * * * * * * * * * * * * * * * * * * * //

dimensions      [0 0 0 0 0 0 0];

internalField   nonuniform List<scalar> 
3250
(
0.030161072
0.029847691
0.029543707
0.029248674
0.028962164
0.028683769
0.028413097
0.028149772
0.027893432
0.027643728
0.027400321
0.027162882
0.02693109
0.026704632
0.026483199
0.02626649
0.026054207
0.025846054
0.025641741
0.025440977
0.025243476
0.02504895
0.024857113
0.024667682
0.024480372
0.024294899
0.02411098
0.023928335
0.023746681
0.02356574
0.023385235
0.023204892
0.02302444
0.022843611
0.022662146
0.022479786
0.022296285
0.0221114
0.021924901
0.021736565
0.021546184
0.021353561
0.021158516
0.020960874
0.020760433
0.020557074
0.020350706
0.02014124
0.019928614
0.030153471
0.029840428
0.029536762
0.029242027
0.028955797
0.028677664
0.028407239
0.028144147
0.027888026
0.027638529
0.027395317
0.027158062
0.026926445
0.026700151
0.026478874
0.026262312
0.026050168
0.025842148
0.025637961
0.025437317
0.025239928
0.02504551
0.024853776
0.024664441
0.024477224
0.024291839
0.024108004
0.023925438
0.023743861
0.023562993
0.023382557
0.02320228
0.023021892
0.022841124
0.022659717
0.022477413
0.022293966
0.022109133
0.021922683
0.021734395
0.02154406
0.02135148
0.021156475
0.020958865
0.020758467
0.020555157
0.020348832
0.0201394
0.019926798
0.030138138
0.029825776
0.029522748
0.029228612
0.028942945
0.028665341
0.028395413
0.028132789
0.02787711
0.027628029
0.027385209
0.027148325
0.026917058
0.026691095
0.026470132
0.026253868
0.026042006
0.025834253
0.025630318
0.025429914
0.025232754
0.025038553
0.024847025
0.024657886
0.024470855
0.024285647
0.024101982
0.023919577
0.023738153
0.023557432
0.023377137
0.023196994
0.023016733
0.022836088
0.022654797
0.022472606
0.022289266
0.022104537
0.021918187
0.021729995
0.021539752
0.021347261
0.021152338
0.020954807
0.020754492
0.020551268
0.020345024
0.020135664
0.019923124
0.030115094
0.029803755
0.029501684
0.029208447
0.028923624
0.028646814
0.028377632
0.028115711
0.027860694
0.027612237
0.027370007
0.02713368
0.026902939
0.026677475
0.026456983
0.026241165
0.026029726
0.025822374
0.02561882
0.025418777
0.02522196
0.025028084
0.024836866
0.024648022
0.024461271
0.02427633
0.024092919
0.023910756
0.023729563
0.023549062
0.023368977
0.023189035
0.023008966
0.022828505
0.022647391
0.022465369
0.022282191
0.022097617
0.021911417
0.02172337
0.021533265
0.021340907
0.021146111
0.020948702
0.020748512
0.020545412
0.020339288
0.020130038
0.0199176
0.030084371
0.029774392
0.029473597
0.029181557
0.028897857
0.028622103
0.028353916
0.02809293
0.027838795
0.027591171
0.027349726
0.027114141
0.026884102
0.026659301
0.026439438
0.026224215
0.026013339
0.025806522
0.025603476
0.025403915
0.025207555
0.025014113
0.024823308
0.024634857
0.02444848
0.024263895
0.024080822
0.023898983
0.023718098
0.02353789
0.023358086
0.023178412
0.022998599
0.022818383
0.022637504
0.022455707
0.022272746
0.02208838
0.02190238
0.021714524
0.021524605
0.021332425
0.0211378
0.020940556
0.020740532
0.020537595
0.020331628
0.020122528
0.019910232
0.030048206
0.029739827
0.029440531
0.029149897
0.028867519
0.028593006
0.028325987
0.028066102
0.027813005
0.027566359
0.027325838
0.027091126
0.026861912
0.026637892
0.026418768
0.026204246
0.025994034
0.025787846
0.025585397
0.025386403
0.025190582
0.024997652
0.024807333
0.024619345
0.024433408
0.024249242
0.024066568
0.023885109
0.023704587
0.023524725
0.023345251
0.023165893
0.022986382
0.022806455
0.022625853
0.022444321
0.022261614
0.022077493
0.021891728
0.0217041
0.021514399
0.02132243
0.021128008
0.020930961
0.020731131
0.020528383
0.020322602
0.020113679
0.019901555
0.030007736
0.029701144
0.029403523
0.029114461
0.028833558
0.028560434
0.028294721
0.028036066
0.027784128
0.027538577
0.02729909
0.027065354
0.026837063
0.026613917
0.02639562
0.02618188
0.025972412
0.025766928
0.025565147
0.025366788
0.025171569
0.024979212
0.024789437
0.024601967
0.024416522
0.024232826
0.024050599
0.023869566
0.02368945
0.023509976
0.023330872
0.023151867
0.022972694
0.022793091
0.022612798
0.022431564
0.022249142
0.022065295
0.021879794
0.02169242
0.021502964
0.021311231
0.021117037
0.020920211
0.020720598
0.020518063
0.020312488
0.020103766
0.019891835
0.029959821
0.029655341
0.029359699
0.029072494
0.028793336
0.028521853
0.028257684
0.028000484
0.027749918
0.027505661
0.027267396
0.027034816
0.026807617
0.026585505
0.026368187
0.026155375
0.025946785
0.025742136
0.025541146
0.025343538
0.025149033
0.024957354
0.024768224
0.024581367
0.024396506
0.024213365
0.024031668
0.023851139
0.023671504
0.023492489
0.023313824
0.023135238
0.022956466
0.022777246
0.022597321
0.022416439
0.022234355
0.022050833
0.021865644
0.021678571
0.021489405
0.021297953
0.02110403
0.020907467
0.020708111
0.020505827
0.020300497
0.020092012
0.019880314
0.029903959
0.029601934
0.029308594
0.029023551
0.028746424
0.02847685
0.028214479
0.027958973
0.027710004
0.027467254
0.027230413
0.026999178
0.026773253
0.026552345
0.026336167
0.026124437
0.025916872
0.025713194
0.025513127
0.025316395
0.025122722
0.024931834
0.024743456
0.024557314
0.024373134
0.024190642
0.024009562
0.023829622
0.023650548
0.02347207
0.023293915
0.023115818
0.022937514
0.022758742
0.022579245
0.022398774
0.022217085
0.022033943
0.021849119
0.021662397
0.021473571
0.021282446
0.02108884
0.020892585
0.020693529
0.020491537
0.020286492
0.020078286
0.019866859
0.029839626
0.029540422
0.029249727
0.028967166
0.028692372
0.028424993
0.028164689
0.027911131
0.027663999
0.027422983
0.02718778
0.026958094
0.026733633
0.026514111
0.026299247
0.02608876
0.025882375
0.025679817
0.025480812
0.025285089
0.025092374
0.024902397
0.024714886
0.024529568
0.024346173
0.024164427
0.023984059
0.023804797
0.023626371
0.02344851
0.023270945
0.023093412
0.022915646
0.02273739
0.022558388
0.022378391
0.022197157
0.022014452
0.021830049
0.021643733
0.021455298
0.021264551
0.021071312
0.020875412
0.020676702
0.020475048
0.020270331
0.020062446
0.019851334
0.029766286
0.029470286
0.029182597
0.02890286
0.02863072
0.028365837
0.028107885
0.027856542
0.027611501
0.02737246
0.027139122
0.026911198
0.026688406
0.026470463
0.026257095
0.026048026
0.025842986
0.025641704
0.02544391
0.025249336
0.025057715
0.024868776
0.024682253
0.024497876
0.024315375
0.024134481
0.023954925
0.023776438
0.023598749
0.023421593
0.023244701
0.023067811
0.022890661
0.022712994
0.022534556
0.0223551
0.022174386
0.02199218
0.021808259
0.021622406
0.021434418
0.021244103
0.021051282
0.020855789
0.020657474
0.020456205
0.020251864
0.020044346
0.019833592
0.029683384
0.029390994
0.029106692
0.028830135
0.028560987
0.02829892
0.028043619
0.027794777
0.027552095
0.027315281
0.027084048
0.026858115
0.026637206
0.026421048
0.026209369
0.026001902
0.025798381
0.025598541
0.025402116
0.025208842
0.025018456
0.024830692
0.024645286
0.024461971
0.024280483
0.024100553
0.023921916
0.023744304
0.023567451
0.023391092
0.023214962
0.0230388
0.022862346
0.022685345
0.022507546
0.022328703
0.022148578
0.021966938
0.021783561
0.021598233
0.021410751
0.021220926
0.021028579
0.020833546
0.020635679
0.020434846
0.020230931
0.020023829
0.019813483
0.029590353
0.029301997
0.029021481
0.028748483
0.028482681
0.028223764
0.027971431
0.027725388
0.027485348
0.027251029
0.027022155
0.026798453
0.026579656
0.026365497
0.026155713
0.025950042
0.025748225
0.025550002
0.025355113
0.025163298
0.024974299
0.024787853
0.024603701
0.02442158
0.024241228
0.02406238
0.023884775
0.023708146
0.023532232
0.023356769
0.023181495
0.023006151
0.022830479
0.022654228
0.022477147
0.022298993
0.022119529
0.021938525
0.02175576
0.021571023
0.021384111
0.021194837
0.021003024
0.020808509
0.020611146
0.020410803
0.020207367
0.020000733
0.019790845
0.029486614
0.029202735
0.028926425
0.028657379
0.028395295
0.02813988
0.027890847
0.027647918
0.027410817
0.027179275
0.026953026
0.026731808
0.026515361
0.026303429
0.026095756
0.025892088
0.02569217
0.025495749
0.025302572
0.025112384
0.024924931
0.024739956
0.024557203
0.024376413
0.024197329
0.02401969
0.023843235
0.023667705
0.023492838
0.023318375
0.023144057
0.022969627
0.02279483
0.022619415
0.022443136
0.022265752
0.022087028
0.021906735
0.021724654
0.021540576
0.021354302
0.021165644
0.020974427
0.020780492
0.020583692
0.020383899
0.020180998
0.019974887
0.019765513
0.029371578
0.02909264
0.028820971
0.028556288
0.028298312
0.028046766
0.027801381
0.027561894
0.027328044
0.027099574
0.02687623
0.026657761
0.026443918
0.026234453
0.026029118
0.025827667
0.025629854
0.025435431
0.025244152
0.025055768
0.024870029
0.024686685
0.024505484
0.024326172
0.024148495
0.023972196
0.02379702
0.023622709
0.023449005
0.023275653
0.023102396
0.02292898
0.022755154
0.02258067
0.022405283
0.022228754
0.022050851
0.021871348
0.021690028
0.021506684
0.021321118
0.021133145
0.020942593
0.020749302
0.020553129
0.020353946
0.020151641
0.019946113
0.019737309
0.029244652
0.028971133
0.028704558
0.028444668
0.028191203
0.02794391
0.027702536
0.027466835
0.027236561
0.027011472
0.026791326
0.026575885
0.026364909
0.026158161
0.025955403
0.025756397
0.025560904
0.025368685
0.0251795
0.024993106
0.024809259
0.024627715
0.024448227
0.024270547
0.024094423
0.023919605
0.02374584
0.023572876
0.023400458
0.023228333
0.023056249
0.022883955
0.022711202
0.022537746
0.022363344
0.022187762
0.022010767
0.021832139
0.021651661
0.021469128
0.021284347
0.021097132
0.020907315
0.020714738
0.020519259
0.020320752
0.020119106
0.019914224
0.019706052
0.029105235
0.028837633
0.028576622
0.028321968
0.028073435
0.027830791
0.027593806
0.027362248
0.02713589
0.026914504
0.026697862
0.026485739
0.026277907
0.026074139
0.025874208
0.025677884
0.025484938
0.025295138
0.025108251
0.024924042
0.024742275
0.024562708
0.024385103
0.024209215
0.024034799
0.023861609
0.023689397
0.023517914
0.023346909
0.023176135
0.023005342
0.022834282
0.022662711
0.022490387
0.022317071
0.02214253
0.021966536
0.02178887
0.02160932
0.021427682
0.021243765
0.021057387
0.02086838
0.020676589
0.020481875
0.020284114
0.020083196
0.019879026
0.019671551
0.028952732
0.028691556
0.028436593
0.028187633
0.027944467
0.027706885
0.027474678
0.027247635
0.027025546
0.026808197
0.026595378
0.026386876
0.026182475
0.025981961
0.025785117
0.025591724
0.025401561
0.025214405
0.025030032
0.024848213
0.024668719
0.024491317
0.024315772
0.024141846
0.0239693
0.023797893
0.023627381
0.02345752
0.023288065
0.02311877
0.022949392
0.022779685
0.02260941
0.022438327
0.022266201
0.022092803
0.021917907
0.021741298
0.021562766
0.02138211
0.021199141
0.021013681
0.020825564
0.020634638
0.020440764
0.020243822
0.020043704
0.019840316
0.019633608
0.028786548
0.028532323
0.028283903
0.028041108
0.027803756
0.027571662
0.027344638
0.027122493
0.026905036
0.026692073
0.026483406
0.026278838
0.026078168
0.025881193
0.025687708
0.025497504
0.02531037
0.025126094
0.024944458
0.024765243
0.024588227
0.024413183
0.024239884
0.024068099
0.023897593
0.02372813
0.023559473
0.023391383
0.023223619
0.02305594
0.022888106
0.022719878
0.022551018
0.022381291
0.022210466
0.022038317
0.021864622
0.021689168
0.021511749
0.021332167
0.021150237
0.020965781
0.020778638
0.020588657
0.020395704
0.020199659
0.020000416
0.019797885
0.019592017
0.028858351
0.028606102
0.028359361
0.028117991
0.027881843
0.027650764
0.027424593
0.027203166
0.026986315
0.026773867
0.026565647
0.026361474
0.026161166
0.025964536
0.025771395
0.02558155
0.025394804
0.025210956
0.025029803
0.024851138
0.02467475
0.024500424
0.024327942
0.024157083
0.023987623
0.023819334
0.023651985
0.023485346
0.023319182
0.023153257
0.022987336
0.022821184
0.022654565
0.022487245
0.022318995
0.022149587
0.021978798
0.021806412
0.021632217
0.021456012
0.021277601
0.021096802
0.020913442
0.020727361
0.020538412
0.020346463
0.020151397
0.019953111
0.019751515
0.019546563
0.028654556
0.028410821
0.028172105
0.027938301
0.027709293
0.027484954
0.027265153
0.027049749
0.026838597
0.026631544
0.026428435
0.026229107
0.026033394
0.025841125
0.025652123
0.025466209
0.025283198
0.025102902
0.024925126
0.024749674
0.024576343
0.024404929
0.02423522
0.024067003
0.023900061
0.023734173
0.023569116
0.023404664
0.023240587
0.023076657
0.022912643
0.022748315
0.022583441
0.022417794
0.022251148
0.022083278
0.021913967
0.021743002
0.021570175
0.021395288
0.021218151
0.021038582
0.020856414
0.020671488
0.020483662
0.020292805
0.020098804
0.019901558
0.019700982
0.019497028
0.028434798
0.028200153
0.027970009
0.027744294
0.027522923
0.027305801
0.027092823
0.026883876
0.026678837
0.026477575
0.026279955
0.026085832
0.025895059
0.025707478
0.02552293
0.025341247
0.025162258
0.024985787
0.02481165
0.024639661
0.024469628
0.024301354
0.024134637
0.023969272
0.023805049
0.023641755
0.023479172
0.023317082
0.023155263
0.022993489
0.022831537
0.022669182
0.022506197
0.02234236
0.022177449
0.022011245
0.021843534
0.021674108
0.021502763
0.021329305
0.021153548
0.020975313
0.020794437
0.020610764
0.020424155
0.020234484
0.020041639
0.019845523
0.019646053
0.019443184
0.028198553
0.027973572
0.027752549
0.027535447
0.027322217
0.027112793
0.026907099
0.026705048
0.026506543
0.026311474
0.026119728
0.025931179
0.025745697
0.025563141
0.025383368
0.025206226
0.025031554
0.02485919
0.024688962
0.024520695
0.024354206
0.024189308
0.02402581
0.023863514
0.023702217
0.023541716
0.023381799
0.023222254
0.023062866
0.022903418
0.022743689
0.022583461
0.022422514
0.02226063
0.022097592
0.021933186
0.021767204
0.021599441
0.021429697
0.021257784
0.021083517
0.020906726
0.020727246
0.020544929
0.020359638
0.020171249
0.019979655
0.019784762
0.01958649
0.019384799
0.028163432
0.02794533
0.027730584
0.027519229
0.027311266
0.02710668
0.026905437
0.026707491
0.026512781
0.026321234
0.026132767
0.025947285
0.025764685
0.025584852
0.025407666
0.025232997
0.025060709
0.024890657
0.024722689
0.024556647
0.024392367
0.024229676
0.024068399
0.023908353
0.023749349
0.023591193
0.02343369
0.023276636
0.023119826
0.022963051
0.022806101
0.022648764
0.022490824
0.02233207
0.022172287
0.022011266
0.021848797
0.021684676
0.021518703
0.021350686
0.021180437
0.021007779
0.020832543
0.020654571
0.020473716
0.020289847
0.020102842
0.019912599
0.019719026
0.01952205
0.019321632
0.027881357
0.02767468
0.027470732
0.027269587
0.027071285
0.026875844
0.026683266
0.026493531
0.026306608
0.026122449
0.025940994
0.025762172
0.025585897
0.025412078
0.02524061
0.025071381
0.024904268
0.024739143
0.024575866
0.024414294
0.024254272
0.02409564
0.023938234
0.023781879
0.023626397
0.023471603
0.02331731
0.023163322
0.023009441
0.022855468
0.022701197
0.022546423
0.022390938
0.022234536
0.02207701
0.021918154
0.021757765
0.021595644
0.021431596
0.021265434
0.021096976
0.020926047
0.020752485
0.020576135
0.020396855
0.020214516
0.020029002
0.019840213
0.019648063
0.019452481
0.019253439
0.027580888
0.027386205
0.027193605
0.027003202
0.026815076
0.026629278
0.026445842
0.02626478
0.026086088
0.025909745
0.025735715
0.025563948
0.025394382
0.025226943
0.025061545
0.024898093
0.024736482
0.024576596
0.024418311
0.024261496
0.024106009
0.023951703
0.023798422
0.023646004
0.02349428
0.023343074
0.023192208
0.023041494
0.022890744
0.022739765
0.022588358
0.022436327
0.022283469
0.022129585
0.021974474
0.021817937
0.021659776
0.021499799
0.021337815
0.021173643
0.021007105
0.020838032
0.020666266
0.020491658
0.020314069
0.020133374
0.019949462
0.019762236
0.019571614
0.01937753
0.027261707
0.027079566
0.026898846
0.026719704
0.026542255
0.026366587
0.026192765
0.026020833
0.025850813
0.025682711
0.025516516
0.0253522
0.025189724
0.025029032
0.024870059
0.024712725
0.024556943
0.024402612
0.024249623
0.024097857
0.023947187
0.023797476
0.023648581
0.023500349
0.023352623
0.023205237
0.02305802
0.022910795
0.022763381
0.022615593
0.022467241
0.022318136
0.022168082
0.022016887
0.021864356
0.021710296
0.021554517
0.021396831
0.021237055
0.021075011
0.020910529
0.020743443
0.020573601
0.020400858
0.020225081
0.020046149
0.019863954
0.019678403
0.019489418
0.019296937
0.026923567
0.02675449
0.026586161
0.026418778
0.026252493
0.026087428
0.02592368
0.025761323
0.025600408
0.025440967
0.025283012
0.025126541
0.024971533
0.024817956
0.02466576
0.024514887
0.024365262
0.024216804
0.024069416
0.023922995
0.023777425
0.023632583
0.023488336
0.023344545
0.023201061
0.023057729
0.022914387
0.022770868
0.022627001
0.022482606
0.022337505
0.022191513
0.022044444
0.021896112
0.02174633
0.021594912
0.021441672
0.021286431
0.021129011
0.020969239
0.020806951
0.020641988
0.020474202
0.020303453
0.020129613
0.019952566
0.019772208
0.01958845
0.019401216
0.019210452
0.026566302
0.026410778
0.026255323
0.026100174
0.025945518
0.025791511
0.025638282
0.025485933
0.025334545
0.025184174
0.025034858
0.024886617
0.024739453
0.024593352
0.024448286
0.024304211
0.024161073
0.024018804
0.023877324
0.023736542
0.023596358
0.02345666
0.023317327
0.023178232
0.023039237
0.022900197
0.02276096
0.02262137
0.022481261
0.022340467
0.022198814
0.022056127
0.021912229
0.021766939
0.021620079
0.021471469
0.021320931
0.021168291
0.021013378
0.020856027
0.020696077
0.020533377
0.020367783
0.020199161
0.020027388
0.019852352
0.019673956
0.019492112
0.01930675
0.019117821
0.026189836
0.026048316
0.025906185
0.025763714
0.025621126
0.025478609
0.025336323
0.025194399
0.025052944
0.024912041
0.024771752
0.024632118
0.024493164
0.024354896
0.024217304
0.024080364
0.023944037
0.023808272
0.023673004
0.023538156
0.023403642
0.023269363
0.023135211
0.023001069
0.022866811
0.022732303
0.022597403
0.022461964
0.022325831
0.022188845
0.022050842
0.021911656
0.021771116
0.021629052
0.02148529
0.021339658
0.021191988
0.02104211
0.020889861
0.020735081
0.020577618
0.020417324
0.020254062
0.020087704
0.019918132
0.019745239
0.019568932
0.019389129
0.019205763
0.019018793
0.025794191
0.025667083
0.025538684
0.025409302
0.02527919
0.025148568
0.025017625
0.024886521
0.024755387
0.024624332
0.024493441
0.024362779
0.02423239
0.024102302
0.023972522
0.023843045
0.023713849
0.023584897
0.023456142
0.023327521
0.023198959
0.023070373
0.022941667
0.022812735
0.022683462
0.022553726
0.022423396
0.022292333
0.022160393
0.022027426
0.021893278
0.021757789
0.021620799
0.021482143
0.021341659
0.021199181
0.021054546
0.020907595
0.020758169
0.020606116
0.020451289
0.020293549
0.020132763
0.019968809
0.019801575
0.01963096
0.019456875
0.019279244
0.019098004
0.018913118
0.025379494
0.025267157
0.025152856
0.025036931
0.024919667
0.024801312
0.024682084
0.024562166
0.024441718
0.024320871
0.024199733
0.024078391
0.023956909
0.023835334
0.023713693
0.023591998
0.023470243
0.023348409
0.023226461
0.023104352
0.022982022
0.0228594
0.022736401
0.022612934
0.022488894
0.022364169
0.02223864
0.022112178
0.02198465
0.021855913
0.021725823
0.021594231
0.021460983
0.021325924
0.021188898
0.021049749
0.020908322
0.020764463
0.020618022
0.020468854
0.020316818
0.020161781
0.020003619
0.019842213
0.019677459
0.01950926
0.019337534
0.019162208
0.018983226
0.018800554
0.02494599
0.024848724
0.024748835
0.024646692
0.024542606
0.024436853
0.024329675
0.024221283
0.024111857
0.024001553
0.023890501
0.023778806
0.023666555
0.023553812
0.023440623
0.023327015
0.023213002
0.023098578
0.022983724
0.022868407
0.022752581
0.022636187
0.022519154
0.022401402
0.022282838
0.022163363
0.022042865
0.021921228
0.021798327
0.021674031
0.021548205
0.021420707
0.021291395
0.02116012
0.021026736
0.020891093
0.020753046
0.020612448
0.020469156
0.020323033
0.020173945
0.020021765
0.019866376
0.019707666
0.019545535
0.019379894
0.019210665
0.019037783
0.018861193
0.018680871
0.024494042
0.02441209
0.024326872
0.024238782
0.024148158
0.024055299
0.023960471
0.023863906
0.023765808
0.023666353
0.023565691
0.023463949
0.02336123
0.023257618
0.023153175
0.023047947
0.022941961
0.022835228
0.022727743
0.022619487
0.022510429
0.02240052
0.022289705
0.022177913
0.022065065
0.02195107
0.02183583
0.021719239
0.021601181
0.021481535
0.021360175
0.02123697
0.021111785
0.020984482
0.020854922
0.020722965
0.020588472
0.020451304
0.020311327
0.020168411
0.020022428
0.019873261
0.019720796
0.019564931
0.01940557
0.019242631
0.019076042
0.018905743
0.018731686
0.018553848
0.024024147
0.023957683
0.023887334
0.023813515
0.023736584
0.023656864
0.023574639
0.023490164
0.023403663
0.02331533
0.023225334
0.023133821
0.023040911
0.022946706
0.022851284
0.022754707
0.022657017
0.02255824
0.022458386
0.022357449
0.022255409
0.022152234
0.022047878
0.021942284
0.021835382
0.021727096
0.021617335
0.021506005
0.021393
0.02127821
0.021161518
0.021042802
0.020921935
0.02079879
0.020673236
0.020545142
0.020414375
0.020280808
0.020144312
0.020004765
0.019862048
0.019716049
0.019566663
0.019413793
0.019257351
0.019097261
0.018933456
0.018765882
0.018594498
0.018419284
0.023536939
0.023486067
0.023430718
0.023371324
0.023308262
0.023241872
0.023172459
0.023100292
0.023025614
0.022948638
0.02286955
0.02278851
0.022705658
0.022621109
0.022534958
0.022447282
0.022358136
0.022267562
0.022175583
0.022082206
0.021987424
0.021891218
0.021793552
0.021694382
0.021593651
0.02149129
0.021387223
0.021281363
0.021173617
0.021063884
0.020952055
0.020838019
0.02072166
0.020602857
0.020481488
0.020357432
0.020230566
0.020100768
0.019967919
0.019831903
0.019692611
0.019549938
0.019403784
0.019254062
0.019100689
0.018943595
0.01878272
0.018618016
0.018449448
0.018277
0.023033194
0.022997943
0.022957655
0.022912774
0.022863697
0.022810773
0.022754324
0.022694635
0.022631964
0.022566538
0.022498558
0.022428202
0.022355622
0.022280948
0.02220429
0.022125738
0.022045363
0.021963217
0.021879337
0.021793744
0.021706442
0.021617423
0.021526665
0.021434134
0.021339784
0.021243558
0.021145389
0.021045201
0.020942911
0.020838428
0.020731654
0.020622485
0.020510816
0.020396534
0.020279529
0.020159684
0.020036888
0.019911026
0.019781988
0.019649666
0.019513958
0.019374766
0.019232
0.019085577
0.018935423
0.018781474
0.018623676
0.018461988
0.01829638
0.01812684
0.022513837
0.022494158
0.022468919
0.022438569
0.022403525
0.022364142
0.022320754
0.02227366
0.022223128
0.0221694
0.022112689
0.022053185
0.021991055
0.021926441
0.021859467
0.021790235
0.021718827
0.02164531
0.021569732
0.021492124
0.021412504
0.021330875
0.021247226
0.021161533
0.021073762
0.020983865
0.020891787
0.020797463
0.020700818
0.02060177
0.020500233
0.020396112
0.020289309
0.020179724
0.020067253
0.019951789
0.019833229
0.019711467
0.019586401
0.019457933
0.019325966
0.019190411
0.019051185
0.018908213
0.018761428
0.018610773
0.018456199
0.018297673
0.018135169
0.017968681
0.021979923
0.021975709
0.021965436
0.02194955
0.021928529
0.021902691
0.021872403
0.021837963
0.02179965
0.021757716
0.021712386
0.021663862
0.021612319
0.021557913
0.021500778
0.021441027
0.021378756
0.021314039
0.021246937
0.021177494
0.021105736
0.021031678
0.020955319
0.020876646
0.020795635
0.020712249
0.020626442
0.020538159
0.020447334
0.020353898
0.020257771
0.020158868
0.020057103
0.019952381
0.019844609
0.01973369
0.019619528
0.019502026
0.01938109
0.01925663
0.019128558
0.018996793
0.018861259
0.018721889
0.018578621
0.018431406
0.018280204
0.018124984
0.017965729
0.017802437
0.021432859
0.02144369
0.021448243
0.021446694
0.021439645
0.021427271
0.021410064
0.021388275
0.021362202
0.021332109
0.021298223
0.021260756
0.021219894
0.021175802
0.021128623
0.02107848
0.021025478
0.020969703
0.020911224
0.020850096
0.020786355
0.020720025
0.020651116
0.020579625
0.020505536
0.020428824
0.020349452
0.020267373
0.020182533
0.02009487
0.020004315
0.019910792
0.019814223
0.019714524
0.019611608
0.01950539
0.01939578
0.019282691
0.019166039
0.019045738
0.018921712
0.018793886
0.018662192
0.018526569
0.018386966
0.018243337
0.01809565
0.017943881
0.017788019
0.017628066
0.020873664
0.020899666
0.020918751
0.020931182
0.020937888
0.020938858
0.020934686
0.020925473
0.0209116
0.020893339
0.020870901
0.020844523
0.020814388
0.02078067
0.020743522
0.020703074
0.020659439
0.020612712
0.02056297
0.020510278
0.02045468
0.020396209
0.020334885
0.020270714
0.02020369
0.020133795
0.020061002
0.019985274
0.019906566
0.019824825
0.019739989
0.019651995
0.01956077
0.019466241
0.01936833
0.01926696
0.019162049
0.01905352
0.018941296
0.018825301
0.018705465
0.018581721
0.018454011
0.018322279
0.018186482
0.018046582
0.017902552
0.017754376
0.017602048
0.017445573
0.020304753
0.020345113
0.020377986
0.020404471
0.020424709
0.020438685
0.020447315
0.020450548
0.020448795
0.020442318
0.020431265
0.020415958
0.020396542
0.020373213
0.020346126
0.020315417
0.020281207
0.020243596
0.020202671
0.020158502
0.020111142
0.020060633
0.020007002
0.019950264
0.019890421
0.019827464
0.019761375
0.019692125
0.019619678
0.019543989
0.019465006
0.019382673
0.019296928
0.019207704
0.019114934
0.019018548
0.018918474
0.018814642
0.018706983
0.018595431
0.018479922
0.018360399
0.01823681
0.018109107
0.017977254
0.01784122
0.017700985
0.01755654
0.017407883
0.017255026
0.019727106
0.019781893
0.019828299
0.019868105
0.019901109
0.01992816
0.019949448
0.019964747
0.019974938
0.019980045
0.019980282
0.019976013
0.019967242
0.019954267
0.019937226
0.019916255
0.019891484
0.019863019
0.01983095
0.019795355
0.019756295
0.019713818
0.019667958
0.019618737
0.019566165
0.019510243
0.019450958
0.019388291
0.019322214
0.019252689
0.019179673
0.019103119
0.019022972
0.018939176
0.018851669
0.018760391
0.018665279
0.01856627
0.018463304
0.018356323
0.018245271
0.018130098
0.01801076
0.017887217
0.017759439
0.017627403
0.017491096
0.017350514
0.017205662
0.017056555
0.019142382
0.019210536
0.019271092
0.019323493
0.019369295
0.019408981
0.019442079
0.019469489
0.019491523
0.019507815
0.019519189
0.019525718
0.019527497
0.019524818
0.019517761
0.019506474
0.019491117
0.01947178
0.019448569
0.019421561
0.019390825
0.019356414
0.01931837
0.01927672
0.019231482
0.019182663
0.019130258
0.019074255
0.019014632
0.018951362
0.018884408
0.018813731
0.018739284
0.018661019
0.018578883
0.018492823
0.018402784
0.018308713
0.018210555
0.018108262
0.018001785
0.017891082
0.017776116
0.017656856
0.017533277
0.017405364
0.01727311
0.017136517
0.016995597
0.016850369
0.018552828
0.018633771
0.018706873
0.018772391
0.018831154
0.018882353
0.018927298
0.018966647
0.018999538
0.019027039
0.019049518
0.019066432
0.019078572
0.019086003
0.01908878
0.019087106
0.019081107
0.01907083
0.019056436
0.019037986
0.01901556
0.018989214
0.018958995
0.018924937
0.018887063
0.018845386
0.018799908
0.018750623
0.018697516
0.018640568
0.018579749
0.018515026
0.018446361
0.018373713
0.018297037
0.018216288
0.018131419
0.018042383
0.017949136
0.017851635
0.01774984
0.017643716
0.017533234
0.017418368
0.017299102
0.017175427
0.017047343
0.016914858
0.016777989
0.01663676
0.017960701
0.018053773
0.018138917
0.018216479
0.018286866
0.018350239
0.018407298
0.018457223
0.018500921
0.018539712
0.018572281
0.018599586
0.018622091
0.018639182
0.018651616
0.018659389
0.018662562
0.018661263
0.018655627
0.018645652
0.018631484
0.018613161
0.018590741
0.01856426
0.018533746
0.018499218
0.018460683
0.018418142
0.018371586
0.018321
0.018266363
0.018207648
0.018144825
0.01807786
0.018006715
0.017931351
0.017851731
0.017767814
0.017679564
0.017586944
0.017489924
0.017388474
0.017282572
0.017172201
0.017057352
0.01693802
0.016814212
0.016685943
0.016553236
0.016416117
0.017368338
0.017472782
0.017569271
0.017658138
0.017739707
0.017814262
0.017882167
0.017943664
0.017997922
0.018046579
0.018089483
0.01812724
0.018159099
0.018185884
0.01820794
0.018224705
0.018236902
0.01824441
0.018247315
0.018245729
0.018239747
0.018229359
0.018214672
0.018195717
0.018172525
0.01814512
0.018113513
0.01807771
0.018037709
0.017993499
0.017945065
0.017892388
0.017835443
0.017774203
0.017708636
0.017638713
0.0175644
0.017485666
0.017402481
0.017314816
0.017222646
0.017125951
0.017024714
0.016918925
0.016808581
0.016693684
0.016574248
0.016450291
0.016321845
0.016188937
0.016778197
0.016893173
0.017000232
0.017099664
0.017191754
0.017276769
0.017354975
0.017426571
0.017491654
0.017550896
0.017603304
0.017649983
0.017691706
0.017728164
0.017758873
0.01778473
0.017805825
0.017821717
0.017833009
0.017839616
0.01784161
0.017839076
0.01783203
0.017820509
0.017804563
0.017784218
0.01775949
0.017730389
0.017696915
0.017659064
0.017616827
0.01757019
0.017519133
0.017463635
0.017403673
0.017339221
0.017270254
0.017196746
0.017118675
0.017036019
0.016948758
0.01685688
0.016760375
0.016659238
0.016553473
0.01644309
0.016328105
0.016208545
0.016084444
0.015955836
0.016060002
0.016192791
0.016317443
0.016434248
0.016543467
0.01664535
0.016740139
0.016828064
0.016909332
0.016984148
0.017052805
0.017115468
0.017171288
0.017221741
0.01726679
0.017306669
0.017341438
0.017370576
0.017395095
0.017414348
0.017428835
0.017438688
0.017443781
0.01744418
0.017440021
0.017431203
0.017417821
0.017399888
0.017377415
0.01735041
0.017318871
0.017282794
0.017242168
0.017196982
0.017147218
0.017092858
0.017033885
0.016970277
0.016902017
0.016829087
0.016751472
0.01666916
0.016582143
0.016490418
0.016393987
0.016292858
0.016187047
0.016076578
0.015961482
0.015841797
0.015717561
0.015473432
0.015614817
0.015748225
0.015873908
0.015992093
0.016102999
0.016206839
0.016303818
0.01639413
0.016477966