/*--------------------------------*- C++ -*----------------------------------*\
| =========                 |                                                 |
| \\      /  F ield         | OpenFOAM: The Open Source CFD Toolbox           |
|  \\    /   O peration     | Version:  2312                                  |
|   \\  /    A nd           | Website:  www.openfoam.com                      |
|    \\/     M anipulation  |                                                 |
\*---------------------------------------------------------------------------*/
FoamFile
{
    version     2.0;
    format      ascii;
    arch        "LSB;label=32;scalar=64";
    class       volScalarField;
    location    "0.08";
    object      N2;
}
// * * * * * * * * * * * * * * * * * * * * * * * * * * * * * * * * * * * * * //

dimensions      [0 0 0 0 0 0 0];

internalField   nonuniform List<scalar> 
3250
(
0.68086894
0.68187385
0.68285477
0.68381329
0.68475092
0.68566907
0.6865691
0.68745232
0.68831997
0.68917323
0.69001325
0.69084113
0.69165793
0.69246469
0.69326239
0.69405201
0.69483447
0.69561068
0.69638152
0.69714786
0.69791051
0.69867028
0.69942795
0.70018427
0.70093996
0.70169572
0.70245223
0.70321011
0.70396997
0.70473238
0.70549788
0.70626698
0.70704011
0.70781772
0.70860016
0.70938777
0.71018083
0.71097957
0.71178418
0.71259479
0.71341147
0.71423425
0.7150631
0.71589792
0.71673856
0.71758483
0.71843648
0.71929323
0.72015472
0.68088965
0.68189371
0.68287383
0.68383159
0.6847685
0.68568598
0.68658538
0.687468
0.68833507
0.68918779
0.6900273
0.6908547
0.69167104
0.69247737
0.69327465
0.69406387
0.69484596
0.69562181
0.69639232
0.69715833
0.69792066
0.69868014
0.69943752
0.70019356
0.70094899
0.7017045
0.70246076
0.70321841
0.70397804
0.70474024
0.70550553
0.70627442
0.70704736
0.70782477
0.70860702
0.70939445
0.71018733
0.7109859
0.71179034
0.71260078
0.7134173
0.71423992
0.71506861
0.71590327
0.71674377
0.71758989
0.71844141
0.71929801
0.72015936
0.68093151
0.68193386
0.68291237
0.68386861
0.68480408
0.6857202
0.68661833
0.68749974
0.68836568
0.68921732
0.69005581
0.69088223
0.69169766
0.69250311
0.69329957
0.694088
0.69486933
0.69564447
0.69641429
0.69717964
0.69794136
0.69870023
0.69945705
0.70021254
0.70096745
0.70172245
0.70247823
0.70323541
0.70399459
0.70475636
0.70552123
0.70628971
0.70706226
0.70783929
0.70862118
0.70940825
0.71020078
0.71099901
0.71180312
0.71261323
0.71342943
0.71425174
0.71508012
0.71591448
0.71675469
0.71760052
0.71845176
0.71930809
0.72016916
0.6809945
0.68199427
0.68297035
0.68392431
0.68485763
0.68577172
0.68666793
0.68754754
0.68841177
0.68926179
0.69009875
0.69092372
0.69173777
0.69254191
0.69333712
0.69412437
0.69490457
0.69567863
0.69644743
0.6972118
0.69797258
0.69873057
0.69948652
0.7002412
0.70099532
0.70174957
0.70250462
0.7032611
0.70401961
0.70478073
0.70554497
0.70631285
0.70708482
0.70786128
0.70864262
0.70942915
0.71022116
0.71101889
0.7118225
0.71263214
0.71344786
0.71426971
0.71509763
0.71593155
0.71677132
0.71761673
0.71846755
0.71932347
0.72018413
0.68107854
0.68207488
0.68304773
0.68399865
0.68492911
0.6858405
0.68673416
0.68761136
0.68847331
0.68932118
0.69015609
0.69097913
0.69179134
0.69259373
0.69338729
0.69417296
0.69495166
0.69572429
0.69649172
0.69725479
0.69801432
0.69877112
0.69952593
0.70027952
0.70103259
0.70178583
0.70253992
0.70329547
0.70405309
0.70481334
0.70557676
0.70634383
0.70711502
0.70789073
0.70867133
0.70945716
0.71024848
0.71104553
0.71184849
0.71265748
0.71347258
0.71429381
0.71512114
0.71595447
0.71679366
0.71763851
0.71848877
0.71934414
0.72020426
0.68117755
0.68216985
0.6831389
0.68408624
0.68501333
0.68592155
0.68681221
0.68768658
0.68854585
0.68939118
0.69022369
0.69104446
0.6918545
0.69265484
0.69344645
0.69423026
0.69500719
0.69577814
0.69654396
0.6973055
0.69806356
0.69881895
0.69957243
0.70032473
0.70107657
0.70182863
0.70258158
0.70333604
0.70409261
0.70485184
0.70561428
0.70638041
0.70715068
0.70792551
0.70870525
0.70949024
0.71028076
0.71107702
0.71187921
0.71268745
0.71350181
0.71432232
0.71514894
0.71598158
0.71682009
0.71766427
0.71851388
0.71936861
0.72022809
0.68128842
0.6822762
0.683241
0.68418434
0.68510767
0.68601233
0.68689964
0.68777084
0.68862712
0.68946962
0.69029944
0.69111765
0.69192528
0.69272333
0.69351275
0.69429448
0.69506943
0.69583849
0.69660251
0.69736234
0.69811876
0.69887258
0.69962456
0.70037542
0.70112588
0.70187662
0.7026283
0.70338153
0.70413692
0.70489503
0.70565637
0.70642144
0.70719069
0.70796453
0.70874331
0.70952737
0.71031698
0.71111235
0.71191368
0.71272108
0.71353462
0.71435433
0.71518016
0.71601203
0.71684978
0.71769322
0.7185421
0.71939611
0.72025488
0.68141977
0.6824022
0.68336198
0.6843006
0.68521946
0.68611993
0.68700327
0.68787072
0.68872345
0.6895626
0.69038924
0.69120444
0.69200921
0.69280453
0.69359136
0.69437063
0.69514324
0.69591007
0.69667196
0.69742975
0.69818424
0.6989362
0.69968639
0.70043555
0.70118438
0.70193355
0.70268372
0.70343551
0.70418951
0.70494627
0.70570632
0.70647014
0.70723818
0.70801084
0.70878849
0.70957144
0.71035997
0.7111543
0.71195461
0.71276102
0.71357359
0.71439234
0.71521724
0.71604819
0.71688505
0.71772761
0.71857562
0.71942878
0.72028671
0.68157302
0.68254923
0.68350316
0.68443627
0.68534995
0.68624552
0.68712424
0.68798732
0.68883592
0.68967115
0.69049409
0.69130577
0.6921072
0.69289935
0.69368317
0.69445958
0.69522945
0.69599368
0.69675309
0.6975085
0.69826072
0.69901052
0.69975864
0.70050581
0.70125273
0.70200008
0.70274849
0.70349859
0.70425096
0.70500616
0.70576469
0.70652705
0.70729367
0.70806497
0.70884129
0.70962295
0.71041023
0.71120335
0.71200247
0.71280771
0.71361915
0.7144368
0.71526061
0.7160905
0.71692631
0.71776784
0.71861484
0.719467
0.72032395
0.68174965
0.6827187
0.68366591
0.68459268
0.68550038
0.68639032
0.68726373
0.68812179
0.68896563
0.68979636
0.69061503
0.69142266
0.69222025
0.69300875
0.6937891
0.69456219
0.69532893
0.69609015
0.6968467
0.69759938
0.69834899
0.69909628
0.69984202
0.7005869
0.70133163
0.70207686
0.70282325
0.70357141
0.7043219
0.70507529
0.70583208
0.70659276
0.70735776
0.70812747
0.70890226
0.70968244
0.71046828
0.71125999
0.71205774
0.71286165
0.71367178
0.71448815
0.71531071
0.71613937
0.71697397
0.71781432
0.71866016
0.71951117
0.720367
0.68195119
0.6829121
0.68385164
0.6847712
0.68567211
0.68655563
0.68742298
0.68827531
0.68911374
0.68993934
0.69075314
0.69155616
0.69234937
0.69313371
0.69391009
0.69467942
0.69544257
0.69620037
0.69695365
0.69770321
0.69844984
0.69919429
0.6999373
0.70067957
0.70142179
0.70216462
0.70290871
0.70365464
0.704403
0.70515432
0.70590912
0.70666788
0.70743101
0.70819893
0.70897198
0.70975046
0.71053465
0.71132476
0.71212094
0.71292333
0.71373197
0.71454688
0.71536801
0.71619527
0.7170285
0.7178675
0.718712
0.71956171
0.72041624
0.68217923
0.68313094
0.68406184
0.68497325
0.68586649
0.68674277
0.68760328
0.68844915
0.68928145
0.69010126
0.69090957
0.69170737
0.69249563
0.69327526
0.69404717
0.69481224
0.69557132
0.69632525
0.69707484
0.69782088
0.69856414
0.69930537
0.70004529
0.7007846
0.70152399
0.7022641
0.70300557
0.70374899
0.70449492
0.70524391
0.70599647
0.70675304
0.70751408
0.70827996
0.70905103
0.70982759
0.71060992
0.71139821
0.71219262
0.71299328
0.71380023
0.71461349
0.715433
0.71625868
0.71709035
0.71792782
0.71877082
0.71961905
0.72047212
0.68243539
0.68337682
0.68429803
0.68520032
0.68608496
0.68695313
0.68780597
0.68864458
0.68947003
0.69028333
0.69108547
0.69187743
0.69266013
0.69343448
0.69420136
0.69496165
0.69571618
0.69646576
0.6972112
0.69795328
0.69869276
0.69943037
0.70016682
0.70090281
0.70163902
0.70237607
0.7031146
0.70385519
0.70459841
0.70534478
0.7060948
0.70684893
0.7076076
0.70837119
0.70914003
0.70991445
0.71069467
0.71148092
0.71227335
0.71307206
0.71387712
0.71468852
0.71550621
0.7163301
0.71716002
0.71799577
0.71883708
0.71968364
0.72053507
0.68272138
0.68365136
0.68456179
0.68545393
0.68632899
0.68718813
0.68803243
0.68886297
0.68968076
0.69048682
0.69128209
0.69206752
0.69284403
0.69361249
0.69437377
0.69512872
0.69587816
0.6966229
0.69736371
0.69810137
0.69883662
0.69957019
0.70030277
0.70103506
0.7017677
0.70250134
0.70323659
0.70397403
0.7047142
0.70545764
0.70620484
0.70695624
0.70771226
0.70847329
0.70923966
0.71001166
0.71078954
0.71157351
0.71236371
0.71316025
0.71396319
0.71477251
0.71558817
0.71641007
0.71723803
0.71807186
0.71891128
0.71975597
0.72060556
0.68303892
0.68395622
0.68485473
0.68573564
0.68660011
0.68744924
0.68828408
0.68910567
0.689915
0.69071302
0.69150068
0.69227888
0.69304852
0.69381044
0.69456551
0.69531454
0.69605834
0.6967977
0.69753338
0.69826613
0.69899669
0.69972577
0.70045406
0.70118222
0.70191092
0.70264077
0.70337237
0.7041063
0.7048431
0.70558328
0.70632733
0.70707569
0.70782878
0.70858696
0.70935057
0.71011989
0.71089517
0.7116766
0.71246433
0.71325846
0.71405903
0.71486605
0.71567945
0.71649913
0.71732492
0.71815661
0.71899392
0.71983654
0.72068409
0.68338976
0.68429313
0.68517852
0.68604706
0.68689987
0.68773797
0.6885624
0.68937413
0.69017412
0.69096329
0.69174255
0.69251278
0.69327483
0.69402955
0.69477776
0.69552025
0.69625783
0.69699124
0.69772125
0.69844858
0.69917396
0.69989808
0.70062162
0.70134524
0.70206956
0.70279522
0.70352279
0.70425284
0.7049859
0.70572249
0.70646306
0.70720806
0.7079579
0.70871294
0.70947349
0.71023985
0.71101224
0.71179086
0.71257586
0.71336732
0.71416528
0.71496974
0.71578064
0.71659787
0.71742125
0.71825056
0.71908555
0.71992588
0.72077116
0.68377571
0.68466382
0.68553484
0.68638984
0.68722986
0.68805589
0.68886889
0.68966981
0.69045955
0.69123901
0.69200905
0.69277052
0.69352425
0.69427105
0.69501172
0.69574703
0.69647776
0.69720464
0.69792841
0.69864979
0.69936946
0.70008813
0.70080644
0.70152505
0.70224457
0.70296561
0.70368874
0.70441452
0.70514347
0.70587609
0.70661284
0.70735414
0.7081004
0.70885196
0.70960915
0.71037224
0.71114146
0.71191699
0.71269897
0.71348748
0.71428257
0.71508421
0.71589235
0.71670687
0.7175276
0.7183543
0.71918672
0.72002452
0.7208673
0.68419857
0.68507006
0.68592541
0.68676564
0.68759171
0.68840455
0.68920509
0.68999419
0.69077274
0.69154158
0.69230154
0.69305344
0.69379806
0.6945362
0.69526862
0.69599608
0.69671931
0.69743904
0.69815598
0.69887083
0.69958426
0.70029695
0.70100954
0.70172265
0.70243691
0.70315288
0.70387115
0.70459225
0.70531669
0.70604495
0.7067775
0.70751474
0.70825707
0.70900483
0.70975833
0.71051783
0.71128356
0.71205569
0.71283436
0.71361964
0.71441156
0.71521012
0.71601523
0.71682677
0.71764458
0.71846842
0.71929801
0.72013303
0.72097307
0.68466017
0.68551361
0.68635196
0.68717615
0.68798706
0.68878558
0.68957255
0.69034881
0.69111518
0.69187246
0.69262145
0.69336291
0.69409762
0.69482632
0.69554975
0.69626864
0.69698369
0.69769562
0.69840511
0.69911283
0.69981945
0.70052562
0.70123195
0.70193907
0.70264757
0.70335802
0.70407097
0.70478695
0.70550646
0.70622997
0.70695792
0.70769072
0.70842875
0.70917235
0.70992181
0.71067738
0.7114393
0.71220771
0.71298275
0.71376449
0.71455296
0.71534813
0.71614992
0.71695821
0.71777282
0.71859352
0.71942003
0.720252
0.72108905
0.68431347
0.6851623
0.68599627
0.68681624
0.68762307
0.68841759
0.68920059
0.68997287
0.69073521
0.69148837
0.69223312
0.6929702
0.69370035
0.69442429
0.69514273
0.6958564
0.69656598
0.69727215
0.6979756
0.69867698
0.69937696
0.70007617
0.70077523
0.70147476
0.70217535
0.70287758
0.70358201
0.70428917
0.70499958
0.70571372
0.70643204
0.70715499
0.70788295
0.7086163
0.70935536
0.71010041
0.71085171
0.71160946
0.71237382
0.7131449
0.71392278
0.71470748
0.71549895
0.71629712
0.71710186
0.71791299
0.71873026
0.71955339
0.72038204
0.72121581
0.6848802
0.68570681
0.6865198
0.68731998
0.68810812
0.68888495
0.68965121
0.69040763
0.69115493
0.69189383
0.69262504
0.69334924
0.69406715
0.69477944
0.6954868
0.69618989
0.69688939
0.69758594
0.6982802
0.6989728
0.69966438
0.70035555
0.70104691
0.70173906
0.70243257
0.70312801
0.7038259
0.70452677
0.70523113
0.70593943
0.70665213
0.70736963
0.70809234
0.7088206
0.70955472
0.71029498
0.71104163
0.71179485
0.7125548
0.71332158
0.71409526
0.71487585
0.7156633
0.71645754
0.71725841
0.71806574
0.71887928
0.71969874
0.72052378
0.72135398
0.68549271
0.68629549
0.68708599
0.68786493
0.68863298
0.6893908
0.69013907
0.69087843
0.69160955
0.6923331
0.69304971
0.69376005
0.69446476
0.69516449
0.69585988
0.69655157
0.69724018
0.69792634
0.69861068
0.6992938
0.6999763
0.70065878
0.70134182
0.70202598
0.70271183
0.70339991
0.70409073
0.7047848
0.7054826
0.70618458
0.70689118
0.7076028
0.70831981
0.70904254
0.70977132
0.71050639
0.71124799
0.7119963
0.71275147
0.71351359
0.71428271
0.71505884
0.71584193
0.71663189
0.71742857
0.71823178
0.71904127
0.71985675
0.72067786
0.7215042
0.68615278
0.68693009
0.68769655
0.68845277
0.68919933
0.6899368
0.69066578
0.69138686
0.69210063
0.69280769
0.69350864
0.69420408
0.69489461
0.69558084
0.69626336
0.69694278
0.69761968
0.69829466
0.69896831
0.69964121
0.70031393
0.70098704
0.70166111
0.70233666
0.70301425
0.70369439
0.70437758
0.7050643
0.70575502
0.70645018
0.70715019
0.70785545
0.7085663
0.70928307
0.71000606
0.71073552
0.71147166
0.71221466
0.71296465
0.71372172
0.71448591
0.71525722
0.71603559
0.71682092
0.71761306
0.71841181
0.71921691
0.72002808
0.72084495
0.7216671
0.68610208
0.6868621
0.68761231
0.68835317
0.68908517
0.6898088
0.69052455
0.69123294
0.69193448
0.69262969
0.69331912
0.69400331
0.6946828
0.69535814
0.6960299
0.69669863
0.69736488
0.69802921
0.69869219
0.69935436
0.70001629
0.7006785
0.70134155
0.70200596
0.70267226
0.70334096
0.70401256
0.70468753
0.70536634
0.70604944
0.70673725
0.70743017
0.70812856
0.70883277
0.70954312
0.71025987
0.71098327
0.71171353
0.7124508
0.7131952
0.71394683
0.71470569
0.71547179
0.71624506
0.71702539
0.71781262
0.71860655
0.71940692
0.72021343
0.72102571
0.72184334
0.68689269
0.6876223
0.68834378
0.68905746
0.68976373
0.69046299
0.69115563
0.69184209
0.69252282
0.69319825
0.69386888
0.69453518
0.69519764
0.69585677
0.69651306
0.69716704
0.69781922
0.69847011
0.69912024
0.69977012
0.70042029
0.70107124
0.7017235
0.70237757
0.70303394
0.7036931
0.70435553
0.70502168
0.705692
0.70636692
0.70704683
0.70773211
0.70842313
0.70912021
0.70982364
0.71053368
0.71125057
0.71197449
0.71270559
0.71344398
0.71418974
0.71494287
0.71570336
0.71647114
0.71724608
0.71802802
0.71881676
0.71961202
0.7204135
0.72122084
0.72203361
0.68773741
0.6884349
0.689126
0.68981093
0.69048997
0.6911634
0.69183154
0.69249474
0.69315336
0.69380778
0.69445842
0.69510569
0.69575003
0.69639188
0.6970317
0.69766996
0.69830712
0.69894367
0.69958009
0.70021685
0.70085446
0.70149338
0.70213411
0.70277711
0.70342286
0.70407181
0.70472443
0.70538114
0.70604236
0.7067085
0.70737995
0.70805705
0.70874016
0.70942958
0.71012559
0.71082844
0.71153833
0.71225544
0.71297992
0.71371186
0.71445131
0.71519828
0.71595274
0.71671461
0.71748376
0.71826002
0.71904316
0.71983293
0.720629
0.72143101
0.6886376
0.68930129
0.68996039
0.69061501
0.6912653
0.69191145
0.69255369
0.69319228
0.69382751
0.69445968
0.69508913
0.69571623
0.69634133
0.69696484
0.69758716
0.69820871
0.69882991
0.69945119
0.70007301
0.70069581
0.70132003
0.70194613
0.70257456
0.70320576
0.70384017
0.70447824
0.70512037
0.70576699
0.70641849
0.70707526
0.70773765
0.70840601
0.70908066
0.70976189
0.71044995
0.71114509
0.71184749
0.71255731
0.71327469
0.71399971
0.7147324
0.71547276
0.71622075
0.71697629
0.71773922
0.71850938
0.71928652
0.72007039
0.72086064
0.7216569
0.68959444
0.69022268
0.6908482
0.69147096
0.69209102
0.69270846
0.69332342
0.69393606
0.6945466
0.69515527
0.69576234
0.6963681
0.69697285
0.69757695
0.69818073
0.69878456
0.69938883
0.69999393
0.70060025
0.70120821
0.70181822
0.70243068
0.70304603
0.70366468
0.70428703
0.70491349
0.70554446
0.70618033
0.70682147
0.70746823
0.70812097
0.70878
0.70944562
0.7101181
0.71079768
0.71148457
0.71217897
0.712881
0.71359079
0.7143084
0.71503386
0.71576715
0.71650823
0.71725698
0.71801326
0.71877688
0.7195476
0.72032514
0.72110915
0.72189926
0.6906089
0.69120011
0.69179049
0.6923799
0.69296827
0.69355559
0.6941419
0.69472728
0.69531186
0.69589579
0.69647928
0.69706254
0.69764583
0.69822942
0.69881362
0.69939874
0.69998511
0.70057307
0.70116299
0.70175523
0.70235017
0.70294819
0.70354967
0.70415498
0.70476453
0.70537867
0.70599778
0.70662222
0.70725234
0.70788847
0.70853093
0.70918002
0.70983602
0.71049918
0.71116972
0.71184783
0.71253369
0.71322741
0.7139291
0.71463881
0.71535655
0.71608229
0.71681597
0.71755748
0.71830665
0.71906328
0.71982713
0.72059791
0.72137526
0.72215879
0.69168171
0.69223438
0.69278815
0.69334276
0.69389804
0.69445387
0.6950102
0.69556702
0.69612437
0.69668234
0.69724106
0.69780069
0.6983614
0.69892342
0.699487
0.70005239
0.70061988
0.70118976
0.70176236
0.70233801
0.70291702
0.70349976
0.70408655
0.70467777
0.70527374
0.70587483
0.70648137
0.70709369
0.70771212
0.70833696
0.70896851
0.70960705
0.71025283
0.71090608
0.711567
0.71223578
0.71291255
0.71359743
0.71429049
0.71499178
0.7157013
0.716419
0.7171448
0.71787858
0.71862017
0.71936935
0.72012587
0.72088943
0.72165967
0.72243618
0.69281335
0.69332606
0.69384182
0.69436026
0.69488109
0.69540411
0.69592916
0.69645616
0.69698507
0.6975159
0.69804869
0.69858354
0.69912059
0.69965997
0.70020189
0.70074655
0.70129419
0.70184506
0.70239942
0.70295758
0.70351981
0.70408642
0.70465773
0.70523405
0.7058157
0.70640299
0.70699624
0.70759574
0.70820179
0.70881468
0.70943468
0.71006203
0.71069697
0.71133971
0.71199044
0.7126493
0.71331642
0.71399191
0.71467581
0.71536815
0.71606892
0.71677807
0.71749549
0.71822105
0.71895457
0.71969582
0.72044454
0.72120042
0.72196308
0.72273213
0.69400399
0.69447543
0.69495188
0.69543285
0.69591797
0.69640692
0.69689947
0.69739545
0.69789473
0.69839725
0.69890299
0.69941198
0.69992427
0.70043998
0.70095922
0.70148217
0.70200899
0.7025399
0.70307513
0.7036149
0.70415949
0.70470915
0.70526416
0.7058248
0.70639135
0.7069641
0.70754332
0.70812929
0.70872228
0.70932254
0.70993033
0.71054585
0.71116934
0.71180096
0.71244088
0.71308924
0.71374615
0.71441167
0.71508586
0.71576872
0.71646021
0.71716028
0.7178688
0.71858563
0.71931058
0.72004341
0.72078384
0.72153155
0.72228617
0.72304728
0.69525348
0.69568246
0.69611841
0.69656073
0.69700895
0.69746267
0.69792156
0.69838537
0.6988539
0.69932701
0.69980461
0.70028667
0.70077318
0.70126419
0.70175977
0.70226003
0.7027651
0.70327513
0.70379031
0.70431084
0.70483693
0.70536881
0.70590671
0.70645087
0.70700156
0.70755901
0.70812348
0.70869521
0.70927444
0.7098614
0.71045631
0.71105936
0.71167075
0.71229063
0.71291914
0.71355641
0.71420251
0.7148575
0.71552141
0.71619423
0.7168759
0.71756635
0.71826545
0.71897303
0.71968889
0.72041279
0.72114443
0.72188348
0.72262957
0.72338226
0.6965613
0.69694679
0.69734118
0.69774378
0.69815403
0.69857144
0.6989956
0.69942618
0.6998629
0.70030556
0.700754
0.70120812
0.70166785
0.70213319
0.70260415
0.70308078
0.70356317
0.70405143
0.70454569
0.70504611
0.70555286
0.70606613
0.70658612
0.70711304
0.70764709
0.70818851
0.70873749
0.70929427
0.70985904
0.71043202
0.71101338
0.71160331
0.71220196
0.71280947
0.71342596
0.71405153
0.71468624
0.71533012
0.71598318
0.71664539
0.71731668
0.71799697
0.7186861
0.7193839
0.72009015
0.7208046
0.72152694
0.72225683
0.72299387
0.72373765
0.69792653
0.69826766
0.69861959
0.69898154
0.69935287
0.69973301
0.70012147
0.70051785
0.70092179
0.70133303
0.70175135
0.70217658
0.7026086
0.70304734
0.70349276
0.70394487
0.7044037
0.70486931
0.7053418
0.70582128
0.70630788
0.70680174
0.70730303
0.70781193
0.7083286
0.70885323
0.70938602
0.70992713
0.71047676
0.71103506
0.71160222
0.71217836
0.71276364
0.71335816
0.71396201
0.71457527
0.71519798
0.71583016
0.71647179
0.71712282
0.71778318
0.71845275
0.71913136
0.71981884
0.72051495
0.72121941
0.72193192
0.72265213
0.72337963
0.72411399
0.69934785
0.69964392
0.69995266
0.70027318
0.70060477
0.70094682
0.70129873
0.70166004
0.70203034
0.70240929
0.70279661
0.70319207
0.7035955
0.70400677
0.7044258
0.70485253
0.70528696
0.7057291
0.70617901
0.70663674
0.70710239
0.70757607
0.7080579
0.70854802
0.70904658
0.70955371
0.71006958
0.71059434
0.71112813
0.71167109
0.71222338
0.71278509
0.71335635
0.71393724
0.71452784
0.71512818
0.7157383
0.71635818
0.7169878
0.71762708
0.71827593
0.71893422
0.71960177
0.72027837
0.72096379
0.72165774
0.72235989
0.72306989
0.72378732
0.72451174
0.7008235
0.70107397
0.70133897
0.70161745
0.70190867
0.70221193
0.70252659
0.7028521
0.70318799
0.70353387
0.7038894
0.7042543
0.70462835
0.70501136
0.7054032
0.70580377
0.70621302
0.70663091
0.70705745
0.70749267
0.70793663
0.70838938
0.70885102
0.70932164
0.70980136
0.71029029
0.71078855
0.71129627
0.71181355
0.71234052
0.71287728
0.71342392
0.71398053
0.71454718
0.71512389
0.71571072
0.71630764
0.71691464
0.71753165
0.71815861
0.71879538
0.71944182
0.72009774
0.72076292
0.72143711
0.72211999
0.72281125
0.72351051
0.72421734
0.72493131
0.70235139
0.70255568
0.70277668
0.70301269
0.70326302
0.70352703
0.70380385
0.70409295
0.7043938
0.70470596
0.70502903
0.70536269
0.70570666
0.7060607
0.70642463
0.70679832
0.70718166
0.70757458
0.70797705
0.70838905
0.70881059
0.70924171
0.70968246
0.71013289
0.7105931
0.71106315
0.71154313
0.71203314
0.71253327
0.71304359
0.71356419
0.71409513
0.71463647
0.71518825
0.71575049
0.71632319
0.71690632
0.71749985
0.71810368
0.71871773
0.71934186
0.71997589
0.72061962
0.72127283
0.72193522
0.7226065
0.72328633
0.72397431
0.72467001
0.72537299
0.70392989
0.70408613
0.70426352
0.70445675
0.70466583
0.70489038
0.70512891
0.70538117
0.70564648
0.70592438
0.70621446
0.70651629
0.70682958
0.70715403
0.70748944
0.7078356
0.70819239
0.70855969
0.70893743
0.70932555
0.70972402
0.71013286
0.71055206
0.71098166
0.7114217
0.71187223
0.7123333
0.71280498
0.71328732
0.71378037
0.7142842
0.71479882
0.71532429
0.7158606
0.71640776
0.71696575
0.71753451
0.71811398
0.71870407
0.71930464
0.71991555
0.72053661
0.72116761
0.72180828
0.72245834
0.72311747
0.72378532
0.72446148
0.72514552
0.72583699
0.70555289
0.70566408
0.70579829
0.70594697
0.70611441
0.70629994
0.70649964
0.70671488
0.70694428
0.70718753
0.70744422
0.70771377
0.7079959
0.70829026
0.70859661
0.70891471
0.70924439
0.7095855
0.70993792
0.71030158
0.7106764
0.71106235
0.71145941
0.71186758
0.71228685
0.71271726
0.71315882
0.71361156
0.71407552
0.71455072
0.71503717
0.7155349
0.71604391
0.71656418
0.71709568
0.71763838
0.7181922
0.71875706
0.71933282
0.71991936
0.7205165
0.72112404
0.72174174
0.72236933
0.72300651
0.72365296
0.72430829
0.72497211
0.72564396
0.72632337
0.70721661
0.70728464
0.70737445
0.70748078
0.70760799
0.70775398
0.70791312
0.70809184
0.70828501
0.70849334
0.70871648
0.70895339
0.70920402
0.70946791
0.70974478
0.71003437
0.71033648
0.71065092
0.71097754
0.71131622
0.71166687
0.71202941
0.71240379
0.71278998
0.71318795
0.71359768
0.71401918
0.71445243
0.71489745
0.71535423
0.71582277
0.71630304
0.71679503
0.7172987
0.717814
0.71834086
0.71887919
0.71942887
0.71998978
0.72056174
0.72114457
0.72173804
0.7223419
0.72295588
0.72357965
0.72421287
0.72485516
0.7255061
0.72616523
0.72683208
0.70891899
0.70894285
0.70898832
0.70905448
0.70914163
0.70924577
0.70936869
0.70951064
0.70966586
0.70983908
0.7100291
0.71023289
0.71045192
0.71068505
0.71093215
0.71119292
0.7114671
0.71175449
0.7120549
0.71236819
0.71269423
0.71303291
0.71338416
0.71374789
0.71412406
0.71451264
0.71491357
0.71532684
0.71575241
0.71619026
0.71664035
0.71710265
0.71757711
0.71806366
0.71856223
0.71907272
0.71959503
0.72012903
0.72067454
0.7212314
0.72179939
0.72237827
0.72296778
0.72356762
0.72417745
0.72479693
0.72542566
0.72606321
0.72670911
0.72736289
0.71065326
0.71063391
0.71063752
0.71066299
0.71070903
0.71077501
0.71086121
0.71096401
0.71108466
0.71122376
0.71138025
0.71154913
0.71173724
0.71193929
0.7121565
0.71238824
0.71263426
0.71289433
0.71316825
0.71345583
0.71375691
0.71407137
0.7143991
0.71473998
0.71509395
0.71546093
0.71584087
0.7162337
0.71663937
0.71705783
0.71748901
0.71793286
0.71838931
0.71885825
0.7193396
0.71983325
0.72033905
0.72085685
0.72138648
0.72192773
0.72248038
0.72304418
0.72361883
0.72420403
0.72479943
0.72540467
0.72601933
0.72664299
0.72727516
0.72791536
0.71241439
0.71235302
0.71231547
0.71230109
0.71230812
0.71233634
0.71238427
0.7124513
0.71253823
0.7126415
0.71276287
0.71290179
0.71305828
0.71322753
0.71341514
0.71361779
0.7138355
0.71406815
0.71431537
0.71457703
0.71485293
0.7151429
0.71544681
0.71576453
0.71609596
0.71644101
0.71679958
0.71717159
0.71755697
0.71795564
0.7183675
0.71879248
0.71923048
0.71968138
0.72014507
0.72062142
0.72111025
0.72161141
0.72212469
0.72264987
0.72318671
0.72373494
0.72429427
0.72486435
0.72544484
0.72603535
0.72663548
0.72724476
0.72786272
0.72848887
0.71419623
0.71409445
0.71401728
0.71396375
0.71393276
0.71392385
0.71393546
0.71396768
0.71401891
0.71408871
0.71417839
0.71428392
0.71440732
0.71454839
0.7147069
0.71487852
0.71506782
0.71527316
0.71549358
0.71572925
0.71597982
0.71624515
0.71652506
0.7168194
0.71712806
0.7174509
0.71778782
0.71813871
0.71850348
0.71888201
0.71927421
0.71967996
0.72009913
0.72053161
0.72097725
0.72143589
0.72190735
0.72239144
0.72288795
0.72339664
0.72391724
0.72444947
0.72499302
0.72554754
0.72611268
0.72668802
0.72727315
0.72786761
0.72847091
0.72908255
0.71599209
0.71585171
0.71573649
0.71564548
0.71557776
0.71553256
0.71550897
0.71550653
0.71552399
0.71556164
0.71561773
0.71569194
0.71578586
0.71589542
0.71602297
0.71616802
0.71633051
0.71650633
0.71669958
0.71690947
0.71713467
0.71737531
0.71763115
0.717902
0.71818772
0.71848818
0.71880325
0.71913281
0.71947672
0.71983487
0.72020712
0.72059334
0.72099339
0.72140712
0.72183437
0.72227495
0.72272869
0.72319535
0.72367471
0.72416652
0.7246705
0.72518633
0.72571371
0.72625227
0.72680163
0.72736139
0.72793112
0.72851033
0.72909855
0.72969526
0.71779474
0.71761782
0.71746644
0.7173397
0.71723675
0.71715681
0.71709911
0.71706296
0.71704802
0.71705312
0.71707778
0.71712217
0.71718455
0.71726492
0.71736478
0.71748004
0.71761378
0.7177645
0.71793273
0.71811437
0.71831394
0.71853007
0.71876188
0.71900921
0.71927196
0.71954997
0.7198431
0.72015118
0.72047409
0.72081167
0.72116377
0.72153024
0.72191093
0.72230566
0.72271426
0.72313651
0.72357222
0.72402115
0.72448305
0.72495765
0.72544466
0.72594376
0.72645461
0.72697685
0.72751008
0.72805389
0.72860783
0.72917143
0.72974418
0.73032558
0.71959643
0.7193853
0.71919987
0.71903934
0.71890295
0.71878994
0.71869962
0.71863135
0.71858454
0.71855851
0.71855292
0.71856687
0.7186002
0.71865274
0.71872285
0.71881121
0.7189187
0.71904131
0.71918259
0.71934062
0.71951651
0.71970564
0.71991357
0.72013741
0.72037726
0.72063286
0.72090404
0.72119063
0.72149247
0.72180939
0.72214124
0.72248783
0.72284901
0.72322456
0.7236143
0.72401802
0.72443548
0.72486643
0.72531061
0.72576774
0.72623751
0.72671958
0.72721361
0.72771922
0.72823601
0.72876354
0.72930138
0.72984903
0.73040599
0.73097175
0.72165859
0.7213891
0.72114618
0.720929
0.72073684
0.72056899
0.72042475
0.72030349
0.7202046
0.7201275
0.72007163
0.72003645
0.72002182
0.72002665
0.72005077
0.72009405
0.72015635
0.72023587
0.72033435
0.72044909
0.72058098
0.72073193
0.72089915
0.72108424
0.72128227
0.72149951
0.72173287
0.72198222
0.72224739
0.72252821
0.7228245
0.72313607
0.72346275
0.72380434
0.72416063
0.72453141
0.72491645
0.72531551
0.72572832
0.72615461
0.72659407
0.72704638
0.72751121
0.72798819
0.72847693
0.72897702
0.72948803
0.73000949
0.73054092
0.73108181
0.73163164
0.72346246
0.72316408
0.72289205
0.72264562
0.72242414
0.72222699
0.72205354
0.7219032
0.72177543
0.72166969
0.72158546
0.72152228
0.72147975
0.72145733
0.72145477
0.72147131
0.72150723
0.72156179
0.72163522
0.72172491
0.72183406
0.72195899
0.72210243
0.72226381
0.72244225
0.72263464
0.72284545
0.7230732
0.72331716
0.72357711
0.72385287
0.72414426
0.72445107
0.72477311
0.72511014
0.72546195
0.72582827
0.72620887
0.72660346
0.72701174
0.72743342
0.72786815
0.72831559
0.72877535
0.72924705
0.72973027
0.73022455
0.73072945
0.73124445
0.73176905
0.73230274
0.72523687
0.72491252
0.72461413
0.72434105
0.72409272
0.72386857
0.72366806
0.72349068
0.72333593
0.72320331
0.72309238
0.72300269
0.72293383
0.7228854
0.72285701
0.72284852
0.72285917
0.72288896
0.72293774
0.72300504
0.72308946
0.72319236
0.723312
0.7234493
0.72360528
0.72377786
0.72396824
0.72417189
0.724395
0.72463431
0.72488978
0.72516118
0.7254483
0.72575092
0.72606881
0.72640171
0.72674938
0.72711155
0.72748792
0.7278782
0.72828206
0.72869916
0.72912914
0.72957162
0.73002619
0.73049242
0.73096988
0.73145808
0.73195653
0.7324647
0.7329821
0.72697254
0.7266252
0.72630329
0.72600624
0.72573359
0.72548487
0.7252596
0.72505734
0.72487763
0.72472006
0.72458421
0.72446969
0.72437613
0.72430315
0.72425043
0.72421762
0.7242047
0.72421084
0.72423594
0.72427997
0.72434238
0.72442337
0.72452057
0.72463717
0.72476945
0.72492081
0.72508979
0.7252758
0.72547565
0.72569431
0.72592984
0.72618157
0.72644929
0.72673274
0.7270317
0.72734589
0.72767507
0.72801893
0.7283772
0.72874956
0.72913567
0.72953519
0.72994775
0.73037295
0.73081039
0.73125964
0.73172023
0.7321917
0.73267355
0.73316525
0.7336663
0.72865995
0.7282926
0.72795001
0.72763174
0.7273374
0.7270666
0.72681894
0.72659404
0.72639153
0.72621103
0.72605219
0.72591466
0.7257981
0.7257022
0.72562664
0.72557113
0.72553539
0.72551944
0.72552244
0.72554421
0.72558495
0.72564427
0.72572189
0.72581626
0.72592905
0.72605827
0.72620623
0.72637208
0.72655498
0.72675183
0.72696695
0.72719948
0.7274482
0.72771286
0.72799322
0.72828901
0.72859996
0.72892578
0.72926616
0.72962079
0.72998933
0.73037142
0.73076669
0.73117474
0.73159515
0.73202749
0.7324713
0.7329261
0.7333914
0.73386666
0.73435138
0.73028937
0.72990493
0.72954452
0.72920776
0.72889436
0.72860401
0.72833638
0.72809118
0.72786807
0.72766676
0.72748694
0.72732831
0.72719059
0.72707349
0.72697673
0.72690006
0.72684322
0.72680596
0.72678835
0.72678956
0.72680941
0.72684822
0.72690552
0.72698114
0.72707353
0.72718379
0.72731109
0.72745664
0.72762031
0.727801
0.72799566
0.7282082
0.72843847