/*--------------------------------*- C++ -*----------------------------------*\
| =========                 |                                                 |
| \\      /  F ield         | OpenFOAM: The Open Source CFD Toolbox           |
|  \\    /   O peration     | Version:  2312                                  |
|   \\  /    A nd           | Website:  www.openfoam.com                      |
|    \\/     M anipulation  |                                                 |
\*---------------------------------------------------------------------------*/
FoamFile
{
    version     2.0;
    format      ascii;
    arch        "LSB;label=32;scalar=64";
    class       volScalarField;
    location    "0.08";
    object      O2;
}
// * * * * * * * * * * * * * * * * * * * * * * * * * * * * * * * * * * * * * //

dimensions      [0 0 0 0 0 0 0];

internalField   nonuniform List<scalar> 
3250
(
0.14980351
0.15066038
0.1514934
0.15230383
0.15309288
0.15386171
0.15461141
0.15534303
0.15605759
0.15675607
0.1574394
0.15810851
0.15876427
0.15940755
0.1600392
0.16066003
0.16127087
0.16187249
0.16246568
0.16305121
0.16362984
0.16420232
0.16476938
0.16533176
0.16589018
0.16644535
0.16699797
0.16754874
0.16809832
0.16864739
0.1691966
0.16974659
0.17029797
0.17085134
0.17140727
0.17196633
0.17252903
0.17309588
0.17366734
0.17424384
0.17482578
0.17541351
0.17600734
0.17660757
0.1772145
0.17782829
0.17844904
0.1790768
0.17971158
0.14982321
0.15067923
0.15151144
0.15232112
0.15310946
0.15387762
0.15462668
0.15535772
0.15607172
0.15676967
0.1574525
0.15812114
0.15877645
0.15941931
0.16005056
0.16067101
0.16128148
0.16188276
0.16247563
0.16306085
0.16363919
0.16421139
0.16477818
0.16534031
0.16589849
0.16645343
0.16700583
0.16755638
0.16810576
0.16865463
0.16920366
0.16975346
0.17030467
0.17085788
0.17141366
0.17197256
0.17253512
0.17310182
0.17367314
0.17424951
0.17483132
0.17541892
0.17601264
0.17661276
0.17721958
0.17783324
0.17845387
0.17908152
0.17971622
0.14986298
0.15071727
0.15154786
0.15235602
0.15314294
0.15390975
0.15465755
0.15538739
0.15610027
0.15679716
0.15747899
0.15814668
0.15880109
0.1594431
0.16007354
0.16069324
0.16130298
0.16190357
0.16249578
0.16308038
0.16365813
0.16422976
0.16479602
0.16535764
0.16591533
0.1664698
0.16702176
0.16757188
0.16812086
0.16866934
0.16921799
0.16976744
0.17031831
0.17087118
0.17142664
0.17198524
0.1725475
0.17311392
0.17368497
0.17426107
0.17484262
0.17542998
0.17602346
0.17662336
0.17722993
0.17784336
0.17846376
0.1790912
0.17972571
0.14992275
0.15077445
0.15160262
0.1524085
0.15319327
0.15395807
0.15470398
0.15543203
0.15614322
0.15683851
0.15751884
0.1581851
0.15883817
0.15947891
0.16010814
0.16072668
0.16133534
0.1619349
0.16252613
0.16310979
0.16368665
0.16425744
0.16482289
0.16538374
0.1659407
0.16649447
0.16704576
0.16759524
0.16814361
0.16869151
0.1692396
0.16978851
0.17033886
0.17089124
0.17144623
0.17200437
0.17256619
0.17313218
0.17370281
0.17427851
0.17485968
0.17544666
0.17603979
0.17663934
0.17724556
0.17785864
0.1784787
0.17910582
0.17974003
0.15000245
0.15085071
0.15167565
0.1524785
0.15326042
0.15402253
0.15476591
0.15549158
0.15620052
0.1568937
0.15757202
0.15823638
0.15888766
0.15952669
0.16015431
0.16077133
0.16137853
0.16197671
0.16256663
0.16314905
0.16372472
0.16429438
0.16485877
0.16541859
0.16597457
0.16652741
0.16707781
0.16762644
0.16817399
0.16872112
0.16926846
0.16981666
0.17036632
0.17091804
0.17147239
0.17202992
0.17259115
0.17315657
0.17372666
0.17430183
0.17488248
0.17546897
0.17606161
0.17666069
0.17726645
0.17787907
0.17849868
0.17912538
0.17975917
0.15009629
0.1509405
0.15176164
0.15256092
0.15333949
0.15409845
0.15483886
0.15556172
0.15626803
0.1569587
0.15763466
0.1582968
0.15894596
0.15958299
0.16020872
0.16082393
0.16142943
0.16202599
0.16261437
0.16319532
0.1637696
0.16433793
0.16490105
0.16545967
0.1660145
0.16656624
0.16711559
0.16766322
0.16820981
0.16875602
0.16930249
0.16984984
0.17039869
0.17094964
0.17150324
0.17206005
0.17262059
0.17318534
0.17375478
0.17432932
0.17490937
0.17549527
0.17608734
0.17668586
0.17729108
0.17790316
0.17852225
0.17914844
0.17978174
0.15020131
0.151041
0.1518579
0.15265319
0.15342801
0.15418345
0.15492053
0.15564027
0.15634361
0.1570315
0.15770482
0.15836446
0.15901126
0.15964606
0.16026966
0.16088286
0.16148645
0.16208119
0.16266784
0.16324716
0.16381987
0.16438672
0.16494842
0.16550569
0.16605923
0.16660975
0.16715792
0.16770444
0.16824996
0.16879514
0.16934062
0.16988703
0.17043498
0.17098505
0.17153782
0.17209382
0.17265358
0.17321759
0.1737863
0.17436014
0.17493951
0.17552475
0.17611618
0.17671408
0.17731869
0.17793018
0.17854868
0.1791743
0.17980704
0.15032568
0.15116002
0.15197191
0.15276249
0.15353288
0.15428414
0.1550173
0.15573333
0.15643318
0.15711776
0.15778797
0.15844465
0.15908865
0.1597208
0.16034189
0.16095271
0.16155403
0.16214663
0.16273124
0.16330861
0.16387948
0.16444457
0.16500459
0.16556026
0.16611228
0.16666134
0.16720812
0.16775331
0.16829756
0.16884152
0.16938584
0.16993113
0.17047801
0.17102705
0.17157882
0.17213387
0.17269271
0.17325583
0.17382368
0.1743967
0.17497526
0.17555972
0.17615039
0.17674756
0.17735144
0.17796222
0.17858003
0.17920497
0.17983705
0.15047071
0.15129883
0.15210488
0.15288997
0.15365521
0.15440162
0.1551302
0.15584192
0.15653769
0.15721843
0.157885
0.15853824
0.15917899
0.15980804
0.16042621
0.16103425
0.16163294
0.16222302
0.16280526
0.16338036
0.16394908
0.16451211
0.16507018
0.16562399
0.16617423
0.16672159
0.16726675
0.16781039
0.16835315
0.1688957
0.16943865
0.16998264
0.17052827
0.1710761
0.17162672
0.17218066
0.17273842
0.17330051
0.17386736
0.1744394
0.17501702
0.17560057
0.17619036
0.17678666
0.1773897
0.17799965
0.17861665
0.17924081
0.17987211
0.15063777
0.15145874
0.15225808
0.15303687
0.15379618
0.154537
0.15526033
0.15596708
0.15665818
0.15733449
0.15799687
0.15864615
0.15928315
0.15990865
0.16052345
0.16112829
0.16172394
0.16231115
0.16289063
0.16346313
0.16402936
0.16459003
0.16514585
0.16569751
0.1662457
0.16679111
0.1673344
0.16787625
0.16841731
0.16895821
0.1694996
0.17004209
0.17058627
0.17113272
0.171682
0.17223465
0.17279118
0.17335207
0.17391776
0.17448869
0.17506523
0.17564772
0.17623649
0.17683179
0.17743386
0.17804286
0.17865893
0.17928217
0.17991258
0.15082827
0.15164111
0.15243282
0.15320444
0.153957
0.15469148
0.15540882
0.15610993
0.15679569
0.15746696
0.15812458
0.15876935
0.15940207
0.16002353
0.16063448
0.16123568
0.16182787
0.16241178
0.16298815
0.16355767
0.16412107
0.16467904
0.16523229
0.1657815
0.16632735
0.16687053
0.16741169
0.1679515
0.16849061
0.16902965
0.16956925
0.17011002
0.17065255
0.17119742
0.17174518
0.17229636
0.17285148
0.173411
0.17397537
0.17454502
0.17512032
0.17570162
0.17628922
0.17688338
0.17748433
0.17809225
0.17870726
0.17932946
0.17995885
0.15104366
0.15184735
0.15263046
0.153394
0.15413896
0.15486627
0.15557685
0.15627159
0.15695133
0.15761691
0.15826915
0.15890883
0.15953672
0.1601536
0.16076022
0.1613573
0.16194558
0.16252577
0.1630986
0.16366476
0.16422496
0.16477989
0.16533023
0.16587666
0.16641987
0.16696052
0.16749927
0.16803677
0.16857367
0.1691106
0.16964818
0.170187
0.17072767
0.17127075
0.17181679
0.17236631
0.17291982
0.1734778
0.17404068
0.17460888
0.17518278
0.17576271
0.17634899
0.17694186
0.17754156
0.17814824
0.17876205
0.17938307
0.1800113
0.15128545
0.1520789
0.15285239
0.15360689
0.15434333
0.15506262
0.15576564
0.15645324
0.15712624
0.15778545
0.15843165
0.15906562
0.15968811
0.16029986
0.1609016
0.16149406
0.16207795
0.16265398
0.16322284
0.16378523
0.16434183
0.16489333
0.16544041
0.16598373
0.16652397
0.16706178
0.16759782
0.16813274
0.16866716
0.16920171
0.16973701
0.17027366
0.17081223
0.17135329
0.17189739
0.17244505
0.17299676
0.173553
0.1741142
0.17468077
0.17525309
0.17583149
0.17641628
0.1770077
0.17760598
0.17821128
0.17882373
0.17944343
0.18007035
0.15155517
0.15233724
0.15310004
0.15384449
0.15457147
0.15528184
0.15597645
0.1566561
0.1573216
0.15797371
0.15861319
0.1592408
0.15985726
0.16046329
0.16105961
0.16164692
0.16222592
0.1627973
0.16336173
0.16391991
0.16447251
0.16502019
0.16556362
0.16610348
0.1666404
0.16717505
0.16770806
0.16824008
0.16877173
0.16930364
0.16983639
0.1703706
0.17090683
0.17144564
0.17198758
0.17253315
0.17308285
0.17363714
0.17419647
0.17476122
0.17533178
0.17590847
0.17649159
0.17708139
0.17767808
0.17828184
0.17889277
0.17951098
0.18013645
0.15185437
0.15262388
0.15337488
0.15410822
0.15482474
0.15552525
0.15621056
0.15688142
0.15753861
0.15818287
0.15881492
0.15943548
0.16004526
0.16064496
0.16123527
0.16181687
0.16239045
0.16295666
0.1635162
0.1640697
0.16461785
0.16516129
0.16570069
0.16623669
0.16676993
0.16730106
0.16783072
0.16835953
0.1688881
0.16941706
0.169947
0.17047849
0.17101212
0.17154843
0.17208796
0.17263122
0.17317868
0.17373081
0.17428805
0.17485078
0.17541938
0.17599416
0.17657543
0.17716342
0.17775836
0.17836039
0.17896964
0.1795862
0.18021005
0.15218464
0.15294037
0.1536784
0.15439953
0.15510455
0.15579422
0.15646929
0.15713048
0.15777853
0.15841413
0.15903799
0.15965079
0.16025322
0.16084594
0.16142962
0.16200493
0.16257252
0.16313305
0.16368716
0.16423552
0.16477876
0.16531752
0.16585246
0.1663842
0.16691338
0.16744063
0.16796657
0.16849183
0.16901701
0.16954271
0.17006952
0.17059802
0.17112878
0.17166232
0.17219919
0.17273988
0.17328487
0.17383461
0.17438954
0.17495003
0.17551645
0.17608913
0.17666835
0.17725434
0.17784733
0.17844745
0.17905484
0.17966956
0.18029162
0.15254758
0.15328825
0.15401211
0.15471989
0.15541233
0.15609013
0.15675399
0.15740459
0.15804262
0.15866875
0.15928363
0.15988792
0.16048227
0.16106733
0.16164374
0.16221214
0.16277316
0.16332744
0.16387561
0.1644183
0.16495614
0.16548977
0.1660198
0.16654686
0.16707157
0.16759455
0.16811641
0.16863776
0.1691592
0.16968132
0.1702047
0.1707299
0.17125749
0.17178799
0.17232192
0.17285978
0.17340205
0.17394916
0.17450154
0.17505957
0.1756236
0.17619395
0.1767709
0.1773547
0.17794553
0.17854355
0.17914888
0.17976159
0.18038166
0.15294479
0.15366908
0.15437752
0.15507078
0.15574952
0.15641439
0.15706603
0.15770509
0.15833219
0.15894797
0.15955305
0.16014805
0.16073359
0.16131028
0.16187874
0.16243958
0.16299342
0.16354087
0.16408253
0.16461903
0.16515097
0.16567896
0.16620362
0.16672555
0.16724537
0.16776367
0.16828106
0.16879813
0.16931547
0.16983366
0.17035327
0.17087486
0.17139897
0.17192613
0.17245685
0.17299161
0.17353089
0.17407511
0.17462469
0.17518001
0.17574142
0.17630922
0.17688369
0.17746506
0.17805353
0.17864924
0.17925231
0.1798628
0.1804807
0.15337787
0.15408442
0.15477616
0.15545368
0.15611757
0.15676841
0.1574068
0.15803331
0.15864855
0.15925309
0.15984751
0.16043241
0.16100835
0.16157594
0.16213575
0.16268837
0.16323438
0.16377438
0.16430896
0.1648387
0.1653642
0.16588605
0.16640486
0.1669212
0.16743567
0.16794887
0.16846137
0.16897377
0.16948663
0.17000053
0.17051603
0.17103367
0.17155398
0.17207749
0.17260469
0.17313607
0.17367207
0.17421313
0.17475966
0.17531201
0.17587054
0.17643555
0.1770073
0.17758602
0.17817191
0.17876509
0.17936568
0.17997375
0.18058926
0.15314675
0.1538484
0.15453584
0.15520957
0.15587009
0.15651793
0.15715362
0.15777768
0.15839063
0.15899303
0.15958539
0.16016828
0.16074222
0.16130778
0.16186549
0.16241592
0.16295961
0.16349713
0.16402905
0.16455593
0.16507834
0.16559684
0.16611203
0.16662446
0.16713472
0.16764339
0.16815103
0.16865822
0.16916553
0.16967353
0.17018276
0.17069377
0.17120711
0.17172329
0.17224282
0.17276619
0.17329387
0.17382631
0.17436392
0.17490711
0.17545624
0.17601163
0.17657359
0.17714238
0.17771821
0.17830127
0.17889169
0.17948958
0.18009499
0.1807079
0.15367804
0.15435793
0.15502485
0.15567923
0.15632148
0.15695207
0.15757144
0.15818006
0.1587784
0.15936695
0.15994619
0.16051662
0.16107875
0.16163308
0.16218013
0.16272041
0.16325446
0.1637828
0.16430597
0.16482452
0.16533899
0.16584992
0.16635788
0.16686341
0.16736709
0.16786945
0.16837108
0.16887251
0.1693743
0.16987701
0.17038117
0.17088733
0.17139599
0.17190768
0.17242289
0.1729421
0.17346577
0.17399433
0.1745282
0.17506776
0.17561338
0.17616536
0.176724
0.17728956
0.17786225
0.17844224
0.17902966
0.1796246
0.18022713
0.1808372
0.15425136
0.15490799
0.15555296
0.15618662
0.15680931
0.1574214
0.15802328
0.15861533
0.15919798
0.15977165
0.16033679
0.16089383
0.16144324
0.16198549
0.16252105
0.16305041
0.16357406
0.1640925
0.16460625
0.16511581
0.16562171
0.16612447
0.16662462
0.16712271
0.16761927
0.16811483
0.16860994
0.16910514
0.16960097
0.17009796
0.17059664
0.17109753
0.17160114
0.17210797
0.1726185
0.1731332
0.17365252
0.17417689
0.1747067
0.17524233
0.17578413
0.17633242
0.17688747
0.17744953
0.1780188
0.17859545
0.17917961
0.17977137
0.18037075
0.18097775
0.15486817
0.15550002
0.15612162
0.15673319
0.157335
0.15792734
0.15851051
0.15908485
0.15965071
0.16020846
0.16075848
0.16130117
0.16183694
0.16236623
0.16288946
0.16340709
0.16391958
0.16442738
0.16493099
0.16543089
0.16592757
0.16642154
0.16691329
0.16740336
0.16789225
0.16838048
0.16886858
0.16935706
0.16984646
0.17033728
0.17083005
0.17132526
0.17182341
0.17232499
0.17283047
0.1733403
0.17385492
0.17437475
0.17490017
0.17543155
0.17596924
0.17651352
0.17706468
0.17762295
0.17818853
0.17876158
0.17934221
0.1799305
0.18052649
0.18113015
0.15491541
0.15552985
0.15613543
0.1567322
0.1573203
0.1578999
0.15847122
0.15903448
0.15958994
0.16013789
0.16067865
0.16121253
0.16173989
0.1622611
0.16277652
0.16328657
0.16379164
0.16429217
0.16478858
0.16528132
0.16577086
0.16625766
0.16674218
0.16722493
0.16770638
0.16818703
0.16866739
0.16914795
0.16962921
0.17011169
0.17059588
0.17108228
0.17157138
0.17206365
0.17255958
0.17305962
0.1735642
0.17407376
0.17458869
0.17510939
0.17563619
0.17616943
0.1767094
0.17725636
0.17781054
0.17837213
0.17894128
0.1795181
0.18010266
0.18069498
0.18129503
0.15565261
0.15623768
0.15681549
0.157386
0.15794926
0.15850533
0.15905435
0.15959648
0.16013189
0.16066081
0.1611835
0.16170021
0.16221124
0.16271692
0.16321757
0.16371354
0.16420522
0.16469298
0.16517722
0.16565835
0.16613681
0.16661303
0.16708746
0.16756056
0.16803279
0.16850462
0.16897654
0.16944902
0.16992255
0.1703976
0.17087468
0.17135425
0.17183678
0.17232275
0.1728126
0.17330679
0.17380574
0.17430985
0.17481953
0.17533513
0.175857
0.17638546
0.17692078
0.17746322
0.178013
0.1785703
0.17913525
0.17970796
0.18028849
0.18087686
0.18147301
0.15643865
0.15699281
0.15754139
0.15808423
0.15862127
0.15915251
0.15967797
0.16019773
0.16071192
0.16122068
0.16172421
0.1622227
0.16271641
0.16320559
0.16369053
0.16417155
0.16464897
0.16512314
0.16559441
0.16606318
0.16652983
0.16699478
0.16745843
0.16792123
0.16838361
0.16884602
0.16930892
0.16977276
0.17023801
0.17070514
0.17117459
0.17164685
0.17212236
0.17260156
0.17308491
0.17357283
0.17406573
0.17456401
0.17506805
0.17557819
0.17609477
0.17661809
0.17714842
0.17768601
0.17823106
0.17878374
0.17934418
0.17991248
0.18048868
0.1810728
0.15727448
0.15779627
0.15831418
0.15882796
0.15933745
0.15984254
0.16034319
0.16083939
0.16133118
0.16181866
0.16230193
0.16278116
0.16325653
0.16372825
0.16419655
0.16466171
0.16512401
0.16558375
0.16604126
0.16649688
0.16695098
0.16740393
0.16785612
0.16830796
0.16875986
0.16921223
0.16966551
0.17012015
0.17057657
0.17103522
0.17149655
0.171961
0.172429
0.17290099
0.17337738
0.1738586
0.17434503
0.17483707
0.17533506
0.17583936
0.17635027
0.17686809
0.17739308
0.17792546
0.17846544
0.17901317
0.17956878
0.18013234
0.1807039
0.18128347
0.1581609
0.15864889
0.15913477
0.15961814
0.16009877
0.16057645
0.16105105
0.16152249
0.16199073
0.16245581
0.16291776
0.16337668
0.1638327
0.16428598
0.16473671
0.1651851
0.1656314
0.16607587
0.1665188
0.1669605
0.16740129
0.16784152
0.16828155
0.16872175
0.16916251
0.16960422
0.17004729
0.17049212
0.17093915
0.17138879
0.17184147
0.17229759
0.1727576
0.17322189
0.17369087
0.17416494
0.17464447
0.17512984
0.17562138
0.17611943
0.17662429
0.17713623
0.17765551
0.17818233
0.17871688
0.17925931
0.17980974
0.18036823
0.18093483
0.18150952
0.15909849
0.15955135
0.16000386
0.16045554
0.16090604
0.16135508
0.16180244
0.16224795
0.16269152
0.16313309
0.16357265
0.16401023
0.16444591
0.16487979
0.165312
0.16574272
0.16617215
0.16660051
0.16702805
0.16745504
0.16788177
0.16830854
0.1687357
0.16916358
0.16959254
0.17002294
0.17045518
0.17088962
0.17132669
0.17176675
0.17221023
0.17265753
0.17310903
0.17356513
0.17402622
0.17449268
0.17496487
0.17544313
0.17592781
0.1764192
0.17691761
0.17742328
0.17793645
0.17845733
0.17898609
0.17952287
0.18006777
0.18062085
0.18118214
0.18175162
0.1600876
0.16050407
0.16092198
0.16134075
0.16175993
0.16217915
0.16259811
0.16301657
0.16343437
0.16385136
0.16426749
0.16468272
0.16509707
0.16551059
0.16592337
0.16633553
0.16674722
0.16715863
0.16756996
0.16798144
0.16839334
0.16880593
0.1692195
0.16963437
0.17005086
0.17046932
0.17089009
0.17131355
0.17174006
0.17216999
0.17260373
0.17304165
0.17348414
0.17393156
0.17438428
0.17484266
0.17530704
0.17577776
0.17625513
0.17673945
0.17723098
0.17772997
0.17823666
0.17875121
0.17927381
0.17980456
0.18034356
0.18089086
0.18144649
0.1820104
0.16112834
0.16150727
0.16188943
0.16227415
0.16266087
0.16304916
0.16343864
0.16382898
0.16421994
0.16461133
0.16500302
0.16539492
0.16578698
0.16617921
0.16657164
0.16696435
0.16735744
0.16775107
0.16814538
0.16854059
0.1689369
0.16933456
0.16973383
0.170135
0.17053835
0.17094422
0.17135291
0.17176476
0.17218013
0.17259935
0.1730228
0.17345081
0.17388376
0.17432198
0.17476584
0.17521566
0.17567177
0.17613449
0.17660411
0.17708091
0.17756515
0.17805706
0.17855685
0.17906468
0.17958072
0.18010506
0.18063779
0.18117895
0.18172854
0.18228653
0.16222052
0.1625609
0.16290627
0.16325589
0.16360913
0.16396545
0.1643244
0.1646856
0.16504874
0.16541354
0.16577982
0.16614744
0.16651629
0.16688632
0.16725752
0.16762992
0.16800358
0.1683786
0.16875511
0.16913326
0.16951323
0.16989523
0.1702795
0.17066628
0.17105583
0.17144845
0.17184442
0.17224406
0.17264769
0.17305564
0.17346822
0.17388579
0.17430867
0.17473718
0.17517167
0.17561244
0.17605981
0.17651406
0.17697549
0.17744434
0.17792085
0.17840525
0.17889772
0.17939843
0.1799075
0.18042504
0.18095111
0.18148574
0.18202893
0.18258062
0.16336368
0.1636646
0.16397227
0.16428586
0.16460467
0.16492809
0.16525558
0.1655867
0.16592107
0.16625836
0.16659832
0.16694076
0.16728551
0.16763248
0.1679816
0.16833285
0.16868626
0.16904189
0.16939981
0.16976014
0.17012304
0.17048867
0.17085722
0.17122893
0.17160402
0.17198274
0.17236538
0.1727522
0.1731435
0.17353958
0.17394075
0.17434732
0.1747596
0.17517789
0.1756025
0.17603374
0.17647187
0.17691719
0.17736996
0.1778304
0.17829875
0.17877521
0.17925994
0.1797531
0.18025481
0.18076514
0.18128415
0.18181187
0.18234826
0.18289328
0.164557
0.16481772
0.16508693
0.16536369
0.16564724
0.16593691
0.16623209
0.16653228
0.16683702
0.16714595
0.16745874
0.16777515
0.16809497
0.16841805
0.16874428
0.1690736
0.16940598
0.16974143
0.17008001
0.1704218
0.1707669
0.17111545
0.17146762
0.17182359
0.17218356
0.17254776
0.17291643
0.17328982
0.17366821
0.17405185
0.17444105
0.17483607
0.17523722
0.17564476
0.176059
0.17648019
0.17690862
0.17734453
0.17778817
0.17823975
0.17869949
0.17916757
0.17964413
0.18012932
0.18062324
0.18112596
0.18163751
0.1821579
0.18268711
0.18322506
0.16579932
0.16601929
0.16624939
0.16648867
0.16673627
0.16699147
0.1672536
0.16752209
0.16779644
0.16807623
0.16836108
0.16865069
0.16894481
0.16924324
0.16954581
0.16985244
0.17016305
0.17047761
0.17079613
0.17111866
0.17144528
0.17177607
0.17211118
0.17245076
0.17279498
0.17314403
0.17349813
0.1738575
0.17422239
0.17459303
0.17496969
0.17535263
0.17574211
0.1761384
0.17654174
0.1769524
0.17737063
0.17779666
0.1782307
0.17867297
0.17912364
0.17958289
0.18005086
0.18052765
0.18101336
0.18150804
0.18201172
0.18252438
0.183046
0.18357648
0.16708913
0.16726794
0.1674585
0.16765978
0.16787088
0.16809101
0.16831947
0.16855563
0.16879893
0.16904889
0.16930511
0.16956723
0.16983494
0.17010801
0.17038624
0.17066947
0.17095761
0.1712506
0.17154839
0.171851
0.17215846
0.17247085
0.17278827
0.17311083
0.17343868
0.17377198
0.17411091
0.17445569
0.1748065
0.17516359
0.17552717
0.17589749
0.17627478
0.17665929
0.17705124
0.17745087
0.17785842
0.17827408
0.17869806
0.17913055
0.17957171
0.18002169
0.18048061
0.18094857
0.18142564
0.18191186
0.18240725
0.18291178
0.18342539
0.183948
0.16842451
0.16856195
0.1687127
0.16887564
0.16904984
0.16923447
0.16942877
0.16963207
0.16984376
0.17006334
0.17029033
0.17052434
0.17076503
0.17101212
0.17126536
0.17152458
0.17178962
0.17206039
0.17233681
0.17261888
0.17290658
0.17319995
0.17349907
0.17380401
0.1741149
0.17443187
0.17475508
0.17508468
0.17542088
0.17576387
0.17611384
0.17647101
0.1768356
0.17720782
0.17758789
0.17797601
0.17837238
0.17877721
0.17919066
0.17961291
0.1800441
0.18048437
0.1809338
0.1813925
0.1818605
0.18233784
0.18282451
0.18332048
0.18382568
0.18434001
0.1698032
0.16989919
0.17001006
0.1701345
0.17027156
0.17042042
0.17058022
0.17075027
0.17092993
0.17111865
0.17131594
0.17152134
0.17173448
0.17195504
0.17218275
0.17241739
0.17265876
0.17290674
0.17316124
0.17342218
0.17368954
0.17396333
0.17424358
0.17453035
0.17482373
0.17512382
0.17543075
0.17574466
0.17606571
0.17639407
0.17672992
0.17707344
0.17742483
0.17778427
0.17815196
0.17852808
0.17891282
0.17930634
0.17970881
0.18012037
0.18054114
0.18097124
0.18141076
0.18185975
0.18231826
0.18278629
0.18326383
0.18375082
0.18424719
0.18475282
0.17122284
0.171277
0.17134826
0.17143423
0.17153406
0.17164707
0.17177216
0.17190873
0.17205608
0.17221362
0.17238083
0.17255722
0.1727424
0.17293599
0.1731377
0.17334727
0.17356449
0.17378919
0.17402124
0.17426055
0.17450706
0.17476075
0.17502162
0.1752897
0.17556505
0.17584775
0.17613789
0.1764356
0.176741
0.17705424
0.17737547
0.17770485
0.17804256
0.17838875
0.17874359
0.17910725
0.17947989
0.17986166
0.18025268
0.1806531
0.18106302
0.18148252
0.18191167
0.18235053
0.18279912
0.18325741
0.1837254
0.18420299
0.18469012
0.18518664
0.17267908
0.17269307
0.1727251
0.17277229
0.17283487
0.17291231
0.17300256
0.1731056
0.17322048
0.17334664
0.17348355
0.17363066
0.17378756
0.17395384
0.17412919
0.17431332
0.17450597
0.17470697
0.17491614
0.17513338
0.17535858
0.17559171
0.17583274
0.17608166
0.17633852
0.17660335
0.17687624
0.17715728
0.17744656
0.17774422
0.17805037
0.17836515
0.17868872
0.1790212
0.17936274
0.1797135
0.18007359
0.18044316
0.18082231
0.18121115
0.18160977
0.18201825
0.18243662
0.18286492
0.18330316
0.1837513
0.18420931
0.1846771
0.18515456
0.18564157
0.17416901
0.17414315
0.17413611
0.17414582
0.17417195
0.17421387
0.17426886
0.17433865
0.17442104
0.17451575
0.1746223
0.17473996
0.1748684
0.17500716
0.17515589
0.17531428
0.17548206
0.17565902
0.17584497
0.17603976
0.17624329
0.17645547
0.17667625
0.17690561
0.17714356
0.17739011
0.17764533
0.17790927
0.17818201
0.17846365
0.17875429
0.17905405
0.17936304
0.17968138
0.18000921
0.18034662
0.18069375
0.18105069
0.18141754
0.18179439
0.1821813
0.18257833
0.1829855
0.18340284
0.18383031
0.18426789
0.18471552
0.18517309
0.18564049
0.18611757
0.1756877
0.17562314
0.17557836
0.17555111
0.17554123
0.17554756
0.17556899
0.17560569
0.17565521
0.1757185
0.17579494
0.17588305
0.17598301
0.17609412
0.17621609
0.17634857
0.17649128
0.17664397
0.17680643
0.1769785
0.17716005
0.17735096
0.17755117
0.17776063
0.17797931
0.17820723
0.1784444
0.17869086
0.17894668
0.17921192
0.17948666
0.179771
0.18006503
0.18036884
0.18068254
0.18100623
0.18133998
0.1816839
0.18203806
0.18240251
0.18277731
0.18316249
0.18355806
0.18396402
0.18438034
0.18480696
0.1852438
0.18569076
0.18614769
0.18661446
0.17723139
0.1771283
0.17704697
0.17698391
0.17693908
0.17691077
0.17689875
0.17690233
0.17692031
0.17695284
0.1769992
0.17705728
0.17712909
0.17721254
0.17730773
0.17741425
0.17753178
0.17766007
0.17779889
0.17794805
0.17810741
0.17827682
0.1784562
0.17864549
0.17884463
0.17905361
0.17927242
0.17950109
0.17973966
0.17998817
0.18024667
0.18051524
0.18079395
0.18108287
0.18138208
0.18169167
0.18201169
0.18234221
0.18268329
0.18303497
0.18339728
0.18377024
0.18415383
0.18454804
0.18495282
0.18536809
0.18579377
0.18622972
0.18667581
0.18713187
0.17879563
0.17865625
0.17853749
0.17844015
0.17836093
0.17829891
0.17825447
0.17822585
0.17821273
0.17821468
0.17823078
0.17826072
0.17830436
0.17835972
0.17842834
0.17850897
0.17860132
0.1787052
0.17882032
0.1789465
0.17908354
0.17923132
0.17938971
0.17955863
0.17973802
0.17992784
0.18012806
0.18033868
0.18055972
0.18079121
0.18103318
0.18128569
0.18154877
0.18182248
0.18210689
0.18240204
0.18270799
0.18302478
0.18335245
0.18369101
0.18404048
0.18440086
0.18477212
0.18515421
0.18554709
0.18595065
0.18636479
0.18678938
0.18722425
0.18766924
0.18037459
0.18020041
0.18004754
0.1799152
0.1798016
0.17970804
0.17963172
0.17957149
0.17952842
0.17950046
0.17948737
0.1794889
0.17950424
0.17953323
0.17957569
0.17962998
0.17969723
0.17977686
0.17986832
0.17997153
0.18008625
0.18021235
0.18034968
0.18049814
0.18065765
0.18082815
0.1810096
0.18120199
0.18140531
0.18161957
0.18184477
0.18208096
0.18232816
0.1825864
0.18285573
0.18313617
0.18342775
0.18373051
0.18404445
0.18436958
0.1847059
0.18505337
0.18541197
0.18578162
0.18616226
0.18655377
0.18695604
0.18736892
0.18779222
0.18822579
0.18196225
0.181755
0.18156937
0.18140445
0.18125923
0.1811332
0.18102484
0.18093548
0.18086312
0.18080551
0.18076446
0.18073817
0.1807263
0.18072872
0.18074479
0.18077436
0.18081731
0.18087219
0.18093997
0.18102043
0.18111292
0.18121739
0.18133368
0.18146167
0.18160126
0.18175239
0.18191499
0.18208903
0.1822745
0.18247137
0.18267964
0.18289933
0.18313045
0.18337301
0.18362703
0.18389252
0.18416949
0.18445796
0.18475792
0.18506935
0.18539223
0.18572651
0.18607215
0.18642906
0.18679716
0.18717632
0.1875664
0.18796725
0.18837867
0.18880048
0.1835523
0.18331395
0.18309736
0.18290168
0.18272608
0.18256981
0.182432
0.18231201
0.18221121
0.18212635
0.18205756
0.1820038
0.1819659
0.18194238
0.18193308
0.18193779
0.18195612
0.18198786
0.18203301
0.18209014
0.18216043
0.18224349
0.18233888
0.18244648
0.18256621
0.18269798
0.18284173
0.1829974
0.18316495
0.18334436
0.18353561
0.18373869
0.18395359
0.18418031
0.18441886
0.18466922
0.1849314
0.18520537
0.18549112
0.18578862
0.18609783
0.18641868
0.18675111
0.18709502
0.18745031
0.18781684
0.18819446
0.18858299
0.18898224
0.18939202
0.18513807
0.18487079
0.18462526
0.18440072
0.18419644
0.18401171
0.18384585
0.18369833
0.18356879
0.18345583
0.18336112
0.18328242
0.18321831
0.1831693
0.18313576
0.18311628
0.18311097
0.18311943
0.18314163
0.18317715
0.18322621
0.18328727
0.18336195
0.18344933
0.18354936
0.18366191
0.18378689
0.18392424
0.18407392
0.18423587
0.18441007
0.18459649
0.18479511
0.18500592
0.18522889
0.18546401
0.18571125
0.18597058
0.18624197
0.18652537
0.18682071
0.18712794
0.18744695
0.18777764
0.1881199
0.18847357
0.18883848
0.18921446
0.18960129
0.18999877
0.18702907
0.1867127
0.18641873
0.18614641
0.18589503
0.18566395
0.18545252
0.18526016
0.18508631
0.18493043
0.18479183
0.18467006
0.18456659
0.18447847
0.18440571
0.18434786
0.18430477
0.18427683
0.18426275
0.18426289
0.18427662
0.18430427
0.18434524
0.18439989
0.18446649
0.18454711
0.18464065
0.18474705
0.18486624
0.18499816
0.18514274
0.18529996
0.18546976
0.18565212
0.18584699
0.18605436
0.18627418
0.18650642
0.18675102
0.18700794
0.18727712
0.18755848
0.18785193
0.18815738
0.18847469
0.18880373
0.18914436
0.18949638
0.18985959
0.1902338
0.19061877
0.18860909
0.18826881
0.18795058
0.18765374
0.18737767
0.1871218
0.18688557
0.18666844
0.18646989
0.18628942
0.18612656
0.18598091
0.18585226
0.18573947
0.18564423
0.18556456
0.18549898
0.18544848
0.18541254
0.1853915
0.18538439
0.18539125
0.18541199
0.18544659
0.18549478
0.18555555
0.18563019
0.18571829
0.18581957
0.18593394
0.18606134
0.18620171
0.18635502
0.1865212
0.18670022
0.18689203
0.18709657
0.18731381
0.18754367
0.18778609
0.18804099
0.1883083
0.1885879
0.18887967
0.18918349
0.18949921
0.18982666
0.19016565
0.19051596
0.19087738
0.19124968
0.19016039
0.18979884
0.18945885
0.18913986
0.18884135
0.18856281
0.18830377
0.18806374
0.18784227
0.18763892
0.18745325
0.1872849
0.18713346
0.18699843
0.18687952
0.18677827
0.18669238
0.18662078
0.18656394
0.18652187
0.18649483
0.18648181
0.18648299
0.18649806
0.18652722
0.18657006
0.18662688
0.18669611
0.18677985
0.18687697
0.18698745
0.18711123
0.18724825
0.18739844
0.18756175
0.18773813
0.1879275
0.18812981
0.18834499
0.18857295
0.1888136
0.18906685
0.18933258
0.18961066
0.18990095
0.19020329
0.19051749
0.19084336
0.19118068
0.19152921
0.19188875
0.19167516
0.19129498
0.19093577
0.19059706
0.19027841
0.18997941
0.18969964
0.1894387
0.18919618
0.18897171
0.1887649
0.18857541
0.18840287
0.18824693
0.18810729
0.18798366
0.18787762
0.18778686
0.18771061
0.18764889
0.18760208
0.18756982
0.18755238
0.18754903
0.18755975
0.18758466
0.18762365
0.18767653
0.18774224
0.18782237
0.18791631
0.18802384
0.18814487
0.18827935
0.1884272
0.18858835
0.18876275
0.1889503
0.18915092
0.18936454
0.18959104
0.18983031
0.19008223
0.19034666
0.19062344
0.19091241
0.19121337
0.19152611
0.19185042
0.19218604
0.19253275
0.19314541
0.19274923
0.19237333
0.19201734
0.19168089
0.19136367
0.19106532
0.1907855
0.19052389
0.19028015
0.19005397
0.18984503
0.18965303
0.18947767
0.18931868
0.1891758
0.1890488
0.18893929
0.18884498
0.18876542
0.18870006
0.18864956
0.18861378
0.18859293
0.18858629
0.18859384
0.18861565
0.18865171
0.18870182
0.18876498
0.18884252
0.18893423
0.18903969
0.18915882
0.18929154
0.18943779
0.18959748
0.18977052
0.18995682
0.19015629
0.19036881
0.19059427
0.19083252
0.19108342
0.19134681
0.19162249
0.19191029
0.19220997
0.19252132
0.19284406
0.19317799
0.19456297
0.19415336
0.19376327
0.19339241
0.1930405
0.1927073
0.19239254
0.19209593
0.19181722
0.19155614
0.19131241
0.19108578
0.19087598
0.19068279
0.19050595
0.19034525
0.19020048
0.19007144
0.18995977
0.18986323
0.18978154
0.18971379
0.18966094
0.18962287
0.1895998
0.18959099
0.1895965
0.18961631
0.18965052
0.1896989
0.18976049
0.18983645
0.18992684