/*--------------------------------*- C++ -*----------------------------------*\
| =========                 |                                                 |
| \\      /  F ield         | OpenFOAM: The Open Source CFD Toolbox           |
|  \\    /   O peration     | Version:  2312                                  |
|   \\  /    A nd           | Website:  www.openfoam.com                      |
|    \\/     M anipulation  |                                                 |
\*---------------------------------------------------------------------------*/
FoamFile
{
    version     2.0;
    format      ascii;
    arch        "LSB;label=32;scalar=64";
    class       volScalarField;
    location    "0.03";
    object      alphat;
}
// * * * * * * * * * * * * * * * * * * * * * * * * * * * * * * * * * * * * * //

dimensions      [1 -1 -1 0 0 0 0];

internalField   nonuniform List<scalar> 
3257
(
0.046039725
0.046108141
0.046178928
0.046252421
0.046328876
0.046408479
0.046491339
0.046577471
0.046666789
0.046759087
0.046854014
0.046951043
0.047049417
0.047148118
0.047245882
0.047341361
0.047433454
0.047521781
0.047607119
0.047691537
0.047778084
0.047870103
0.047970465
0.048081047
0.048202605
0.048334966
0.048477381
0.048628875
0.048788515
0.048955503
0.049129235
0.049309147
0.049494493
0.049684239
0.049877458
0.050073784
0.05027338
0.050476687
0.050683808
0.050894194
0.051105973
0.051317234
0.051527241
0.051735873
0.051943399
0.05214912
0.052351017
0.052540671
0.052695682
0.052839319
0.053104454
0.042332154
0.042437764
0.042546996
0.042660227
0.042777715
0.042899644
0.043026116
0.043157138
0.043292598
0.043432251
0.043575714
0.043722463
0.043871844
0.044023087
0.044175344
0.044327752
0.044479571
0.04463041
0.044780475
0.044930732
0.045082831
0.045238787
0.045400522
0.04556947
0.0457464
0.045931464
0.046124407
0.046324815
0.046532319
0.046746764
0.046968205
0.047196781
0.047432498
0.047675186
0.047924685
0.048181124
0.048445101
0.048717645
0.048999593
0.049290883
0.049590478
0.049897074
0.050209974
0.050529482
0.05085699
0.051194317
0.051543426
0.051905898
0.052282735
0.052676569
0.05309753
0.0389174
0.039055772
0.039198991
0.03934745
0.039501413
0.039661081
0.039826582
0.039997962
0.04017516
0.040357999
0.040546174
0.040739262
0.040936732
0.04113796
0.041342243
0.041548819
0.041756929
0.04196593
0.042175487
0.042385753
0.042597448
0.04281177
0.043030143
0.043253933
0.043484229
0.043721779
0.043967054
0.044220378
0.044482077
0.044752561
0.045032341
0.045321949
0.045621814
0.045932229
0.046253445
0.04658595
0.046930364
0.047287549
0.047658259
0.048042794
0.048440792
0.048851653
0.049274946
0.049710686
0.05015931
0.050621266
0.051096786
0.05158581
0.052088017
0.052602267
0.053125799
0.035816607
0.035983033
0.036155478
0.036334348
0.036519915
0.036712401
0.036911975
0.037118741
0.03733272
0.037553835
0.037781908
0.038016653
0.038257682
0.038504503
0.038756531
0.039013092
0.039273462
0.039536969
0.039803132
0.040071842
0.040343468
0.040618852
0.04089917
0.041185705
0.041479654
0.041782014
0.042093556
0.042414884
0.042746512
0.043088927
0.043442616
0.043808045
0.044185613
0.04457563
0.044978316
0.045393921
0.04582291
0.046265707
0.046722658
0.047193912
0.047679274
0.048178259
0.048690314
0.049214949
0.049751712
0.05030006
0.050859274
0.051428427
0.052006374
0.052591561
0.053181664
0.03303205
0.033222324
0.033419733
0.033624699
0.033837503
0.034058391
0.034287576
0.034525221
0.03477143
0.035026234
0.035289582
0.035561338
0.03584127
0.036129054
0.036424272
0.036726418
0.037034948
0.037349348
0.037669249
0.037994558
0.038325538
0.038662805
0.03900724
0.039359838
0.039721554
0.040093207
0.040475442
0.040868751
0.041273518
0.041690062
0.04211867
0.042559603
0.043013086
0.043479248
0.043958251
0.044450237
0.044955367
0.045473786
0.046005556
0.046550602
0.047108662
0.04767928
0.048261879
0.048855795
0.049460287
0.050074512
0.050697514
0.051328238
0.051965529
0.052608115
0.053254449
0.030555919
0.030766732
0.030985734
0.031213376
0.031449945
0.031695714
0.031950931
0.032215817
0.032490544
0.032775236
0.033069956
0.033374697
0.033689381
0.034013853
0.034347881
0.034691154
0.035043339
0.03540412
0.035773279
0.036150771
0.036536777
0.036931697
0.037336087
0.037750571
0.038175742
0.038612101
0.039060032
0.039519806
0.039991615
0.040475595
0.040971857
0.041480483
0.042001514
0.042535031
0.043081088
0.043639718
0.044210932
0.044794705
0.045390942
0.045999451
0.046619916
0.047251893
0.047894821
0.048548037
0.049210786
0.049882231
0.050561464
0.051247537
0.051939464
0.052636228
0.053336621
0.028378069
0.028607032
0.028845163
0.029092948
0.029350684
0.02961866
0.029897158
0.030186436
0.030486722
0.030798207
0.031121037
0.031455303
0.031801049
0.032158254
0.032526836
0.032906659
0.033297554
0.033699357
0.034111949
0.034535307
0.034969522
0.035414799
0.03587142
0.036339696
0.036819912
0.0373123
0.037817012
0.038334139
0.038863729
0.03940578
0.039960257
0.040527135
0.041106408
0.041698059
0.042302057
0.042918347
0.043546845
0.044187429
0.044839916
0.045504049
0.046179484
0.046865783
0.047562417
0.048268773
0.048984164
0.049707843
0.050439025
0.051176905
0.051920667
0.052669464
0.053422243
0.026489908
0.026735265
0.026990667
0.027256639
0.027533483
0.027821505
0.028121
0.028432254
0.02875553
0.029091056
0.02943903
0.02979961
0.030172915
0.030559013
0.030957928
0.031369635
0.031794078
0.032231187
0.0326809
0.033143194
0.033618088
0.034105646
0.034605963
0.035119141
0.035645263
0.03618439
0.03673651
0.037301582
0.037879533
0.038470289
0.039073778
0.039689918
0.040318622
0.040959799
0.041613343
0.042279126
0.042956996
0.04364676
0.044348179
0.045060953
0.04578472
0.04651905
0.047263448
0.048017357
0.048780169
0.049551238
0.050329899
0.051115479
0.051907299
0.05270464
0.053506543
0.024883531
0.025143741
0.025414747
0.025697109
0.025991133
0.026297125
0.026615397
0.026946242
0.027289938
0.027646734
0.028016853
0.028400488
0.028797798
0.029208903
0.029633884
0.030072785
0.030525615
0.030992358
0.031472989
0.031967483
0.032475826
0.03299799
0.033533961
0.034083717
0.034647221
0.035224403
0.035815198
0.036419511
0.037037226
0.037668215
0.038312349
0.038969488
0.03963949
0.040322203
0.041017461
0.041725077
0.042444841
0.043176508
0.043919795
0.044674374
0.045439872
0.046215867
0.047001893
0.047797445
0.048601987
0.049414961
0.050235801
0.051063942
0.051898812
0.052739794
0.053586003
0.023548017
0.023821419
0.024106232
0.024403035
0.024712135
0.025033843
0.025368467
0.025716307
0.026077641
0.026452726
0.026841796
0.027245061
0.027662697
0.028094845
0.028541617
0.029003091
0.029479313
0.029970299
0.030476041
0.030996509
0.031531661
0.032081466
0.032645867
0.033224793
0.033818154
0.034425845
0.035047746
0.035683718
0.036333604
0.036997247
0.037674472
0.038365103
0.039068954
0.039785826
0.040515506
0.04125776
0.042012332
0.042778937
0.043557259
0.044346951
0.04514763
0.045958886
0.046780276
0.04761134
0.048451597
0.04930056
0.050157742
0.051022659
0.051894818
0.052773677
0.053658416
0.022465872
0.022750568
0.023047155
0.023356216
0.02367806
0.024012996
0.024361331
0.024723359
0.025099358
0.025489583
0.025894266
0.026313615
0.026747818
0.027197039
0.027661407
0.028141022
0.02863595
0.029146228
0.029671868
0.030212855
0.030769156
0.031340719
0.031927474
0.032529329
0.033146177
0.033777892
0.034424339
0.035085364
0.035760764
0.036450407
0.037154009
0.037871408
0.038602392
0.039346727
0.040104164
0.040874433
0.041657244
0.042452282
0.043259208
0.044077662
0.044907258
0.045747593
0.046598247
0.047458793
0.048328797
0.049207823
0.050095442
0.050991228
0.051894746
0.052805504
0.053722734
0.02161181
0.021905757
0.022211926
0.022530921
0.022863057
0.02320864
0.023567974
0.02394135
0.024329041
0.024731301
0.025148364
0.02558044
0.02602772
0.026490369
0.026968527
0.027462302
0.027971778
0.028497007
0.029038016
0.029594805
0.030167349
0.0307556
0.03135949
0.031978928
0.0326138
0.033263977
0.033929303
0.034609608
0.035304741
0.036014454
0.036738623
0.037476979
0.038229274
0.038995245
0.039774617
0.040567094
0.04137236
0.04219008
0.043019899
0.043861447
0.044714337
0.045578174
0.046452556
0.047337077
0.048231338
0.04913494
0.050047494
0.05096861
0.051897888
0.052834867
0.053778815
0.020954232
0.021255219
0.02156883
0.021895546
0.022235663
0.022589482
0.022957301
0.02333941
0.023736077
0.024147555
0.024574076
0.025015855
0.025473082
0.025945927
0.026434533
0.026939021
0.027459484
0.027995988
0.028548571
0.029117249
0.029702007
0.03030281
0.030919597
0.031552285
0.032200769
0.03286492
0.033544591
0.034239617
0.034949822
0.035674995
0.036414923
0.037169363
0.037938055
0.038720722
0.039517071
0.040326787
0.041149539
0.041984978
0.042832737
0.043692441
0.044563704
0.045446135
0.046339345
0.047242947
0.048156563
0.049079819
0.050012348
0.050953783
0.051903743
0.05286178
0.05382718
0.020459624
0.020766071
0.021085313
0.021417827
0.021763919
0.022123886
0.022498028
0.022886627
0.023289953
0.023708259
0.024141776
0.02459072
0.025055284
0.025535643
0.026031945
0.026544317
0.027072863
0.027617657
0.028178752
0.028756173
0.029349919
0.029959965
0.030586261
0.031228735
0.031887288
0.032561801
0.033252131
0.033958115
0.034679571
0.035416292
0.036168053
0.036934607
0.037715687
0.038511007
0.03932026
0.040143123
0.040979251
0.041828287
0.042689859
0.043563587
0.044449086
0.045345971
0.046253861
0.04717238
0.048101163
0.049039852
0.049988093
0.050945528
0.051911778
0.052886399
0.053868681
0.020095574
0.020405973
0.020729318
0.021066051
0.021416477
0.021780899
0.02215961
0.022552895
0.022961022
0.023384244
0.023822795
0.024276891
0.02474673
0.025232489
0.025734323
0.026252365
0.026786724
0.027337487
0.027904713
0.028488438
0.029088672
0.029705401
0.030338585
0.030988159
0.031654035
0.032336099
0.033034217
0.033748227
0.034477949
0.035223177
0.035983684
0.036759219
0.037549513
0.038354272
0.039173183
0.040005915
0.040852118
0.041711429
0.042583473
0.043467869
0.044364231
0.045272179
0.046191337
0.047121337
0.04806182
0.049012437
0.049972836
0.050942659
0.051921526
0.052908983
0.053904317
0.019832431
0.020145649
0.020471925
0.020811665
0.021165176
0.021532762
0.021914715
0.02231132
0.022722845
0.023149544
0.023591652
0.024049389
0.024522955
0.025012531
0.025518277
0.026040331
0.026578809
0.027133803
0.027705382
0.028293589
0.028898444
0.02951994
0.030158047
0.030812707
0.03148384
0.03217134
0.032875076
0.033594893
0.034330612
0.03508203
0.035848919
0.036631029
0.037428086
0.038239795
0.03906584
0.039905885
0.040759577
0.041626551
0.042506429
0.04339883
0.044303371
0.045219672
0.046147362
0.047086075
0.048035458
0.048995159
0.049964829
0.050944103
0.05193259
0.052929825
0.053935083
0.01964507
0.019960293
0.020288653
0.020630527
0.020986224
0.021356046
0.021740288
0.022139233
0.02255315
0.022982295
0.023426905
0.023887201
0.024363386
0.024855645
0.025364142
0.025889019
0.026430397
0.026988375
0.027563027
0.028154402
0.028762527
0.029387404
0.030029006
0.030687286
0.031362167
0.03205355
0.032761309
0.033485293
0.034225327
0.034981208
0.035752711
0.036539586
0.037341559
0.038158334
0.038989593
0.039834999
0.040694197
0.041566821
0.042452494
0.043350834
0.044261459
0.045183991
0.046118061
0.047063304
0.048019367
0.048985898
0.04996254
0.050948921
0.051944636
0.052949203
0.053961887
0.019513272
0.019829941
0.020159802
0.02050321
0.020860474
0.021231897
0.021617774
0.022018388
0.02243401
0.022864895
0.023311282
0.023773396
0.024251441
0.024745604
0.025256052
0.025782932
0.026326368
0.026886463
0.027463296
0.028056921
0.028667371
0.029294651
0.029938742
0.0305996
0.031277154
0.031971309
0.032681944
0.03340891
0.034152036
0.034911122
0.035685944
0.036476253
0.037281776
0.038102217
0.038937257
0.039786559
0.04064977
0.041526522
0.042416439
0.043319139
0.044234243
0.045161373
0.046100159
0.047050239
0.048011255
0.048982853
0.049964668
0.050956317
0.051957382
0.052967365
0.053985515
0.019421458
0.019739207
0.020070186
0.020414732
0.020773156
0.021145762
0.021532845
0.021934686
0.022351558
0.022783717
0.023231403
0.023694841
0.02417424
0.024669786
0.025181651
0.025709983
0.026254909
0.026816536
0.027394945
0.027990195
0.028602321
0.029231333
0.029877215
0.030539928
0.031219404
0.031915553
0.032628254
0.033357364
0.034102713
0.034864102
0.035641311
0.036434091
0.03724217
0.038065253
0.038903022
0.039755141
0.040621256
0.041501001
0.042394
0.043299874
0.044218243
0.04514873
0.046090965
0.047044584
0.048009228
0.048984536
0.049970136
0.050965634
0.051970596
0.05298451
0.054006611
0.019357813
0.019676415
0.020008275
0.020353716
0.02071305
0.021086581
0.021474603
0.0218774
0.022295242
0.022728387
0.023177076
0.023641535
0.024121973
0.024618578
0.025131523
0.025660956
0.026207008
0.026769787
0.027349377
0.027945839
0.028559212
0.029189506
0.029836711
0.030500787
0.031181673
0.031879276
0.032593483
0.03332415
0.034071109
0.034834165
0.035613097
0.03640766
0.037217581
0.038042567
0.038882301
0.039736448
0.040604655
0.041486557
0.04238178
0.043289945
0.044210672
0.045143585
0.046088314
0.047044493
0.048011758
0.048989745
0.049978071
0.050976333
0.051984084
0.053000795
0.054025692
0.019313839
0.019633151
0.01996574
0.02031192
0.020672004
0.021046297
0.021435091
0.02183867
0.022257305
0.022691253
0.023140756
0.023606041
0.024087316
0.024584772
0.025098581
0.025628895
0.026175843
0.026739535
0.027320057
0.02791747
0.028531814
0.029163102
0.029811325
0.030476445
0.0311584
0.031857102
0.032572438
0.033304266
0.034052419
0.034816703
0.035596899
0.036392761
0.037204021
0.038030384
0.038871537
0.039727144
0.040596855
0.041480306
0.042377122
0.043286927
0.044209342
0.04514399
0.0460905
0.047048504
0.048017635
0.048997522
0.049987777
0.050987984
0.051997684
0.053016337
0.054043156
0.019283513
0.019603448
0.019936674
0.0202835
0.020644239
0.021019194
0.021408659
0.021812917
0.022232237
0.022666879
0.023117082
0.023583074
0.024065064
0.024563243
0.025077783
0.025608836
0.026156532
0.026720981
0.02730227
0.02790046
0.028515592
0.02914768
0.029796715
0.03046266
0.031145455
0.031845013
0.032561219
0.033293934
0.034042992
0.0348082
0.035589341
0.036386168
0.037198415
0.038025788
0.038867974
0.039724639
0.040595434
0.041479996
0.042377952
0.043288926
0.044212538
0.045148414
0.046096179
0.047055465
0.048025902
0.049007111
0.049998697
0.051000237
0.052011259
0.053031215
0.054059307
0.019262559
0.019583063
0.019916871
0.020264286
0.020625621
0.021001179
0.021391254
0.021796127
0.022216069
0.022651337
0.023102172
0.0235688
0.024051431
0.024550255
0.025065445
0.025597151
0.026145504
0.026710614
0.027292567
0.027891426
0.02850723
0.029139995
0.029789709
0.030456339
0.031139823
0.031840073
0.032556977
0.033290396
0.034040163
0.034806087
0.03558795
0.036385508
0.037198494
0.038026615
0.03886956
0.039726996
0.040598574
0.041483933
0.0423827
0.0432945
0.044218954
0.045155686
0.046104322
0.04706449
0.048035818
0.049017921
0.050010399
0.051012818
0.052024699
0.053045484
0.05407437
0.019248007
0.019569046
0.019903399
0.020251366
0.020613261
0.020989385
0.021380031
0.02178548
0.022206003
0.022641856
0.02309328
0.0235605
0.024043726
0.024543146
0.025058934
0.02559124
0.026140193
0.026705903
0.027288456
0.027887914
0.028504316
0.029137676
0.029787985
0.030455205
0.031139277
0.031840113
0.0325576
0.033291598
0.034041942
0.03480844
0.035590874
0.036389002
0.037202556
0.038031244
0.038874757
0.039732761
0.040604909
0.04149084
0.042390183
0.043302563
0.044227601
0.04516492
0.046114147
0.047074905
0.04804682
0.049029504
0.050022549
0.051025514
0.052037913
0.053059182
0.05408851
0.019237814
0.019559362
0.019894236
0.02024273
0.020605159
0.020981823
0.021373013
0.021779012
0.022200089
0.022636498
0.023088482
0.023556265
0.024040054
0.024540039
0.025056392
0.025589261
0.026138777
0.026705047
0.027288157
0.027888168
0.028505117
0.02913902
0.029789865
0.030457615
0.031142208
0.031843557
0.032561548
0.033296042
0.034046872
0.034813847
0.035596749
0.036395334
0.037209337
0.038038467
0.038882413
0.039740843
0.040613411
0.041499756
0.042399509
0.043312292
0.04423773
0.045175443
0.046125057
0.047086194
0.048058477
0.049041512
0.050034888
0.051038157
0.052050827
0.053072328
0.054101845
0.019230581
0.019552619
0.019887993
0.020236995
0.020599938
0.020977121
0.021368836
0.021775364
0.022196973
0.022633918
0.02308644
0.023554762
0.024039092
0.024539618
0.02505651
0.025589918
0.026139969
0.026706771
0.027290407
0.027890938
0.028508401
0.029142809
0.029794149
0.030462385
0.031147454
0.031849266
0.032567708
0.033302639
0.034053893
0.034821277
0.035604574
0.036403541
0.037217912
0.038047395
0.03889168
0.039750437
0.04062332
0.041509967
0.04241001
0.043323073
0.044248778
0.045186746
0.046136602
0.047097967
0.048070458
0.049053681
0.050047218
0.051050617
0.05206338
0.053084933
0.054114461
0.019225356
0.019547867
0.019883725
0.020233217
0.020596656
0.020974341
0.021366562
0.0217736
0.022195722
0.022633184
0.023086225
0.023555068
0.024039919
0.024540966
0.025058377
0.025592302
0.026142866
0.026710177
0.027294315
0.027895342
0.028513292
0.029148177
0.029799984
0.030468674
0.031154184
0.031856423
0.032575277
0.033310604
0.034062238
0.034829984
0.035613626
0.036412921
0.0372276
0.038057375
0.038901935
0.039760949
0.040634071
0.041520942
0.042421192
0.043334446
0.044260325
0.045198452
0.046148446
0.04710993
0.048082517
0.04906581
0.050059387
0.051062792
0.052075524
0.053097004
0.054126415
0.019221493
0.01954446
0.019880788
0.020230754
0.020594671
0.020972839
0.021365548
0.021773077
0.022195695
0.022633656
0.023087197
0.023556542
0.024041896
0.024543445
0.025061357
0.02559578
0.026146838
0.026714637
0.027299257
0.027900758
0.028519173
0.029154513
0.029806762
0.030475882
0.031161806
0.031864445
0.032583682
0.033319375
0.034071355
0.03483943
0.03562338
0.036422963
0.037237911
0.038067934
0.038912721
0.039771943
0.040645253
0.041532293
0.042432691
0.043346074
0.044272063
0.045210277
0.046160338
0.047121864
0.048094468
0.049077749
0.050071283
0.051074608
0.05208722
0.053108541
0.05413775
0.019218539
0.019541955
0.019878744
0.020229168
0.020593545
0.020972177
0.021365355
0.021773358
0.022196452
0.022634893
0.023088916
0.023558745
0.024044583
0.024546616
0.02506501
0.025599911
0.026151444
0.026719713
0.027304796
0.027906751
0.028525611
0.029161385
0.029814056
0.030483584
0.031169902
0.031872918
0.032592514
0.033328548
0.034080851
0.034849227
0.035633459
0.036433301
0.037248487
0.038078727
0.038923709
0.039783104
0.040656566
0.041543735
0.042444241
0.04335771
0.044283762
0.045222016
0.046172093
0.047133609
0.048106175
0.049089388
0.050082819
0.051086006
0.052098441
0.053119545
0.054148497
0.019216143
0.019540073
0.019877298
0.020228164
0.020592981
0.020972058
0.021365684
0.02177414
0.022197693
0.022636594
0.02309108
0.023561374
0.024047677
0.024550174
0.025069031
0.025604392
0.026156381
0.0267251
0.027310627
0.027913017
0.028532303
0.029168492
0.029821566
0.030491483
0.031178175
0.031881548
0.032601485
0.03333784
0.034090444
0.034859101
0.035643593
0.036443674
0.037259076
0.038089509
0.038934662
0.039794205
0.040667791
0.041555062
0.042455648
0.043369172
0.044295256
0.045233518
0.046183576
0.047145046
0.048117537
0.049100643
0.050093934
0.051096944
0.052109164
0.053130015
0.054158675
0.019538582
0.019876259
0.020227542
0.020592777
0.020972276
0.021366332
0.021775221
0.022199211
0.022638552
0.023093482
0.02356422
0.024050968
0.02455391
0.02507321
0.025609012
0.026161438
0.026730587
0.027316539
0.027919346
0.02853904
0.029175625
0.029829083
0.030499371
0.031186418
0.031890131
0.03261039
0.033347049
0.034099937
0.034868858
0.035653592
0.036453894
0.037269494
0.038100103
0.038945409
0.039805081
0.040678774
0.041566128
0.042466773
0.043380332
0.044306426
0.045244673
0.04619469
0.047156091
0.048128483
0.049111458
0.050104584
0.051107393
0.052119376
0.053139953
0.054168303
0.019537503
0.019875502
0.020227166
0.020592794
0.020972695
0.021367158
0.02177646
0.022200866
0.022640628
0.02309598
0.023567143
0.024054316
0.024557683
0.025077406
0.025613628
0.02616647
0.026736032
0.027322388
0.027925593
0.028545675
0.029182638
0.029836462
0.030507103
0.031194489
0.031898524
0.032619089
0.033356035
0.034109192
0.034878362
0.035663323
0.036463831
0.037279615
0.038110386
0.038955831
0.039815619
0.040689405
0.041576828
0.042477518
0.043391099
0.044317189
0.045255406
0.046205367
0.047166684
0.048138961
0.049121791
0.050114738
0.051117334
0.052129067
0.053149362
0.054177393
0.019536578
0.019874911
0.020226936
0.020592937
0.020973218
0.021368067
0.021777761
0.022202563
0.022642725
0.023098479
0.023570045
0.024057623
0.024561394
0.02508152
0.025618142
0.026171381
0.026741334
0.027328076
0.027931659
0.02855211
0.029189433
0.029843605
0.030514581
0.031202289
0.031906631
0.032627485
0.033364704
0.034118115
0.034887519
0.035672695
0.036473396
0.037289353
0.038120273
0.038965846
0.03982574
0.040699608
0.04158709
0.042487816
0.043401408
0.044327486
0.045265665
0.04621556
0.047176784
0.04814894
0.049131616
0.050124377
0.051126754
0.052138235
0.053158245
0.054185959
0.019535753
0.019874417
0.020226786
0.02059314
0.020973781
0.021368996
0.021779061
0.022204239
0.022644779
0.023100914
0.023572863
0.024060825
0.024564979
0.025085487
0.025622489
0.026176104
0.026746429
0.027333537
0.027937479
0.028558281
0.029195944
0.029850447
0.030521741
0.031209753
0.031914386
0.032635515
0.033372991
0.034126642
0.034896268
0.035681646
0.03648253
0.037298648
0.038129709
0.0389754
0.039835391
0.040709333
0.041596867
0.042497622
0.04341122
0.044337279
0.045275415
0.04622524
0.047186367
0.048158397
0.049140917
0.050133492
0.051135649
0.052146879
0.053166608
0.054194011
0.019534994
0.019873976
0.020226672
0.020593359
0.020974339
0.0213699
0.021780316
0.022205848
0.022646747
0.023103243
0.023575554
0.024063878
0.024568395
0.025089265
0.025626626
0.026180598
0.026751274
0.027338729
0.02794301
0.028564144
0.02920213
0.029856945
0.03052854
0.031216841
0.031921748
0.032643136
0.033380857
0.034134735
0.03490457
0.035690139
0.036491194
0.037307464
0.038138656
0.038984458
0.039844539
0.04071855
0.041606131
0.04250691
0.04342051
0.044346547
0.045284636
0.04623439
0.047195418
0.048167322
0.049149688
0.050142077
0.051144019
0.052155004
0.053174461
0.054201563
0.019534276
0.019873558
0.020226562
0.020593563
0.020974864
0.021370751
0.021781497
0.022207364
0.0226486
0.023105437
0.02357809
0.024066757
0.024571616
0.025092827
0.025630528
0.026184835
0.026755844
0.027343625
0.027948227
0.028569674
0.029207965
0.029863075
0.030534954
0.031223526
0.031928692
0.032650326
0.033388277
0.034142368
0.034912401
0.03569815
0.036499366
0.037315779
0.038147095
0.038993001
0.039853166
0.04072724
0.041614863
0.042515664
0.043429262
0.044355276
0.045293318
0.046243001
0.047203932
0.048175712
0.049157926
0.050150136
0.051151869
0.052162616
0.053181812
0.054208625
0.019533578
0.019873144
0.020226436
0.020593733
0.020975335
0.021371529
0.021782586
0.022208769
0.022650323
0.02310748
0.023580455
0.024069444
0.024574626
0.025096158
0.025634178
0.026188802
0.026760123
0.027348212
0.027953116
0.028574857
0.029213435
0.029868822
0.030540969
0.031229797
0.031935207
0.032657072
0.033395239
0.034149532
0.034919751
0.035705669
0.036507038
0.037323585
0.038155017
0.039001021
0.039861264
0.040735397
0.041623059
0.042523879
0.043437475
0.044363465
0.04530146
0.046251073
0.04721191
0.04818357
0.049165638
0.050157674
0.051159206
0.052169727
0.053188673
0.054215213
0.019532887
0.019872717
0.020226281
0.020593855
0.02097574
0.021372222
0.021783572
0.02221005
0.022651903
0.023109362
0.023582639
0.024071931
0.024577416
0.02509925
0.02563757
0.026192491
0.026764106
0.027352484
0.027957671
0.028579689
0.029218535
0.029874184
0.030546581
0.03123565
0.031941289
0.03266337
0.033401741
0.034156224
0.034926617
0.035712695
0.036514206
0.03733088
0.038162422
0.039008517
0.039868833
0.040743022
0.04163072
0.042531557
0.04344515
0.044371116
0.045309067
0.046258612
0.047219358
0.048190903
0.04917283
0.0501647
0.051166042
0.052176347
0.053195058
0.054221339
0.019532193
0.01987227
0.020226087
0.02059392
0.020976071
0.021372823
0.021784447
0.022211203
0.022653337
0.023111077
0.023584638
0.024074215
0.024579983
0.025102101
0.025640702
0.026195901
0.026767791
0.027356439
0.027961892
0.028584169
0.029223268
0.02987916
0.030551793
0.031241087
0.031946941
0.032669225
0.033407787
0.034162447
0.034933004
0.035719231
0.036520877
0.037337669
0.038169313
0.039015495
0.03987588
0.04075012
0.041637853
0.042538705
0.043452295
0.044378239
0.045316146
0.046265627
0.047226286
0.048197721
0.049179515
0.050171228
0.051172388
0.052182491
0.05320098
0.054227019
0.019531488
0.019871795
0.020225849
0.020593925
0.020976323
0.021373328
0.021785209
0.022212225
0.022654621
0.023112626
0.023586452
0.024076295
0.024582329
0.025104711
0.025643575
0.026199035
0.026771182
0.027360083
0.027965784
0.028588303
0.029227637
0.029883758
0.03055661
0.031246115
0.031952169
0.032674644
0.033413383
0.03416821
0.03493892
0.035725287
0.036527058
0.037343962
0.038175702
0.039021964
0.039882415
0.040756704
0.041644468
0.042545335
0.043458922
0.044384844
0.04532271
0.04627213
0.047232707
0.048204039
0.049185707
0.050177271
0.05117826
0.052188172
0.053206455
0.054232268
0.019530768
0.019871288
0.020225562
0.020593864
0.020976495
0.021373736
0.021785857
0.022213117
0.022655758
0.023114009
0.023588084
0.024078175
0.024584457
0.025107086
0.025646196
0.026201899
0.026774285
0.027363423
0.027969354
0.028592099
0.029231653
0.029887986
0.030561043
0.031250744
0.031956985
0.032679636
0.033418543
0.034173524
0.034944378
0.035730875
0.036532764
0.037349772
0.038181602
0.03902794
0.039888451
0.040762785
0.04165058
0.04255146
0.043465044
0.044390946
0.045328774
0.046278136
0.047238636
0.04820987
0.049191419
0.050182844
0.051183674
0.052193407
0.053211499
0.054237102
0.019530029
0.019870746
0.020225224
0.020593737
0.020976585
0.021374047
0.021786393
0.022213879
0.022656749
0.023115231
0.023589536
0.024079859
0.024586372
0.025109232
0.02564857
0.026204499
0.026777109
0.027366466
0.027972612
0.028595567
0.029235325
0.029891855
0.030565102
0.031254986
0.031961401
0.032684217
0.033423278
0.034178404
0.034949391
0.035736009
0.036538008
0.037355113
0.038187027
0.039033435
0.039894003
0.040768381
0.041656203
0.042557097
0.043470678
0.044396561
0.045334353
0.046283661
0.047244089
0.048215231
0.049196669
0.050187964
0.051188645
0.052198213
0.053216128
0.054241537
0.019529269
0.019870166
0.020224834
0.020593544
0.020976594
0.021374263
0.021786818
0.022214516
0.022657599
0.023116295
0.023590816
0.024081353
0.024588082
0.025111155
0.025650706
0.026206845
0.026779662
0.027369223
0.027975569
0.028598718
0.029238665
0.029895378
0.030568802
0.031258855
0.031965431
0.0326884
0.033427604
0.034182864
0.034953974
0.035740706
0.036542807
0.037360002
0.038191994
0.039038469
0.03989909
0.040773507
0.041661356
0.042562262
0.043475841
0.044401706
0.045339464
0.046288723
0.047249083
0.048220139
0.049201475
0.050192648
0.05119319
0.052202606
0.053220359
0.05424559
0.019528484
0.019869547
0.020224391
0.020593285
0.020976524
0.021374386
0.021787136
0.02221503
0.022658311
0.023117207
0.023591927
0.024082665
0.024589593
0.025112865
0.025652613
0.026208947
0.026781956
0.027371705
0.027978235
0.028601565
0.029241687
0.029898569
0.030572156
0.031262365
0.031969091
0.0326922
0.033431537
0.034186921
0.034958146
0.035744983
0.036547178
0.037364456
0.038196522
0.039043058
0.039903728
0.040778183
0.041666057
0.042566974
0.043480551
0.0444064
0.045344127
0.046293339
0.047253636
0.048224613
0.049205852
0.050196913
0.051197328
0.052206603
0.053224207
0.054249276
0.019527674
0.019868889
0.020223895
0.02059296
0.020976376
0.021374418
0.02178735
0.022215427
0.022658892
0.023117973
0.023592878
0.024083801
0.024590915
0.02511437
0.0256543
0.026210815
0.026784001
0.027373924
0.027980625
0.02860412
0.029244403
0.029901442
0.030575179
0.031265532
0.031972395
0.032695634
0.033435094
0.034190592
0.034961923
0.035748856
0.036551139
0.037368495
0.038200628
0.03904722
0.039907937
0.040782426
0.041670323
0.042571251
0.043484827
0.044410661
0.045348359
0.046297528
0.047257767
0.048228671
0.049209821
0.050200778
0.051201076
0.052210221
0.053227691
0.054252613
0.019526837
0.019868189
0.020223346
0.020592572
0.020976154
0.021374363
0.021787464
0.022215712
0.022659347
0.023118598
0.023593675
0.02408477
0.024592054
0.02511568
0.025655778
0.026212459
0.026785808
0.027375891
0.027982749
0.028606397
0.029246828
0.02990401
0.030577885
0.031268371
0.03197536
0.032698719
0.033438291
0.034193895
0.034965322
0.035752345
0.036554708
0.037372136
0.038204331
0.039050976
0.039911735
0.040786257
0.041674175
0.042575113
0.043488688
0.044414508
0.04535218
0.046301308
0.047261494
0.04823233
0.049213399
0.050204261
0.051204451
0.052213478
0.053230827
0.054255616
0.01952597
0.019867447
0.020222745
0.020592122
0.020975859
0.021374225
0.021787484
0.022215888
0.022659681
0.02311909
0.023594325
0.024085578
0.02459302
0.025116802
0.025657056
0.026213889
0.026787389
0.02737762
0.027984621
0.028608409
0.029248976
0.029906289
0.030580291
0.031270897
0.031978001
0.03270147
0.033441146
0.034196845
0.034968362
0.035755466
0.036557903
0.037375397
0.038207649
0.039054343
0.039915141
0.040789693
0.041677631
0.042578579
0.043492152
0.04441796
0.045355608
0.0463047
0.047264836
0.04823561
0.049216604
0.050207378
0.05120747
0.052216391
0.053233632
0.054258302
0.019525073
0.019866663
0.020222093
0.020591612
0.020975495
0.021374008
0.021787413
0.022215962
0.0226599
0.023119454
0.023594835
0.024086234
0.024593821
0.025117748
0.025658144
0.026215117
0.026788755
0.02737912
0.027986253
0.028610169
0.02925086
0.029908293
0.030582409
0.031273127
0.031980336
0.032703905
0.033443674
0.034199462
0.03497106
0.035758239
0.036560744
0.037378297
0.038210602
0.03905734
0.039918175
0.040792754
0.041680711
0.042581668
0.04349524
0.044421037
0.045358662
0.046307721
0.047267812
0.048238529
0.049219454
0.05021015
0.051210152
0.052218977
0.053236122
0.054260686
0.019524142
0.019865834
0.020221391
0.020591045
0.020975066
0.021373717
0.021787256
0.022215939
0.02266001
0.023119697
0.023595212
0.024086745
0.024594466
0.025118525
0.025659052
0.026216154
0.026789917
0.027380405
0.027987657