/*--------------------------------*- C++ -*----------------------------------*\
| =========                 |                                                 |
| \\      /  F ield         | OpenFOAM: The Open Source CFD Toolbox           |
|  \\    /   O peration     | Version:  2312                                  |
|   \\  /    A nd           | Website:  www.openfoam.com                      |
|    \\/     M anipulation  |                                                 |
\*---------------------------------------------------------------------------*/
FoamFile
{
    version     2.0;
    format      ascii;
    arch        "LSB;label=32;scalar=64";
    class       volScalarField;
    location    "0.03";
    object      CO2;
}
// * * * * * * * * * * * * * * * * * * * * * * * * * * * * * * * * * * * * * //

dimensions      [0 0 0 0 0 0 0];

internalField   nonuniform List<scalar> 
3257
(
5.3903423e-05
4.9203431e-05
4.4884204e-05
4.0917823e-05
3.727857e-05
3.3942321e-05
3.0886476e-05
2.8089926e-05
2.5533033e-05
2.3197625e-05
2.1067012e-05
1.9126011e-05
1.7360969e-05
1.5759716e-05
1.4311388e-05
1.3006045e-05
1.1834102e-05
1.078567e-05
9.8500324e-06
9.0154971e-06
8.2697486e-06
7.6005927e-06
6.9968044e-06
6.4487721e-06
5.9487319e-06
5.4906355e-06
5.0697877e-06
4.6824124e-06
4.3252851e-06
3.995507e-06
3.6904646e-06
3.4079676e-06
3.1464016e-06
2.9046407e-06
2.6815473e-06
2.4754637e-06
2.284093e-06
2.1047197e-06
1.9348075e-06
1.7726318e-06
1.617703e-06
1.4696762e-06
1.3273049e-06
1.1887545e-06
1.0517985e-06
9.1530426e-07
7.8008273e-07
6.5688406e-07
5.9290475e-07
4.3326884e-07
1.573309e-07
0.00017205083
0.00015684359
0.00014288234
0.00013007523
0.00011833716
0.00010758848
9.7754612e-05
8.8765935e-05
8.0557708e-05
7.3070002e-05
6.6247691e-05
6.0040439e-05
5.4402624e-05
4.9293062e-05
4.4674385e-05
4.0511954e-05
3.6772389e-05
3.3421994e-05
3.0425599e-05
2.7746345e-05
2.5346629e-05
2.3189925e-05
2.1242789e-05
1.9476348e-05
1.7866836e-05
1.6395248e-05
1.5046426e-05
1.380798e-05
1.2669345e-05
1.1621172e-05
1.0655117e-05
9.7639576e-06
8.9416985e-06
8.1833011e-06
7.4838596e-06
6.8378296e-06
6.2388763e-06
5.6803195e-06
5.1560262e-06
4.6612237e-06
4.1928016e-06
3.7480609e-06
3.3236053e-06
2.9154651e-06
2.519491e-06
2.1322568e-06
1.7510668e-06
1.374654e-06
1.0010902e-06
6.1461652e-07
2.0674759e-07
0.00029721435
0.00027063656
0.00024625807
0.00022391581
0.00020345836
0.00018474394
0.00016763979
0.00015202196
0.00013777501
0.00012479192
0.00011297384
0.00010222997
9.2477237e-05
8.363981e-05
7.5648113e-05
6.8437429e-05
6.1946101e-05
5.6113717e-05
5.0879847e-05
4.6183843e-05
4.1965901e-05
3.8169033e-05
3.4741197e-05
3.1636827e-05
2.8817343e-05
2.6250685e-05
2.3910226e-05
2.1773497e-05
1.9821041e-05
1.803562e-05
1.6401792e-05
1.4905797e-05
1.3535464e-05
1.2279878e-05
1.1128764e-05
1.0071934e-05
9.0991585e-06
8.2004968e-06
7.366846e-06
6.5903995e-06
5.8647296e-06
5.1840835e-06
4.5428073e-06
3.9353078e-06
3.3562524e-06
2.800893e-06
2.2650621e-06
1.7451297e-06
1.2374741e-06
7.3790413e-07
2.4392185e-07
0.00042610666
0.00038755632
0.00035222933
0.00031988501
0.00029029956
0.0002632633
0.0002385799
0.00021606594
0.00019555047
0.00017687466
0.00015989136
0.00014446475
0.00013046979
0.00011779145
0.00010632366
9.596783e-05
8.6631152e-05
7.8224937e-05
7.0663488e-05
6.3863856e-05
5.7746605e-05
5.2237272e-05
4.7267921e-05
4.2778194e-05
3.8715562e-05
3.5034784e-05
3.1696886e-05
2.8667978e-05
2.591817e-05
2.3420757e-05
2.115168e-05
1.9089213e-05
1.7213714e-05
1.5507303e-05
1.3953465e-05
1.2536694e-05
1.1242371e-05
1.005688e-05
8.9677931e-06
7.9640093e-06
7.0357082e-06
6.1740443e-06
5.3708619e-06
4.6185999e-06
3.9103093e-06
3.2397053e-06
2.6011366e-06
1.9895211e-06
1.4002357e-06
8.2912771e-07
2.7280482e-07
0.0005550842
0.000504282
0.00045777343
0.00041523558
0.00037636757
0.00034088745
0.00030853127
0.00027905236
0.00025222074
0.00022782242
0.00020565885
0.00018554621
0.00016731468
0.00015080752
0.00013587989
0.00012239754
0.00011023522
9.9275332e-05
8.9406874e-05
8.0525062e-05
7.2531603e-05
6.5335414e-05
5.8853386e-05
5.3010823e-05
4.7741344e-05
4.29863e-05
3.8693859e-05
3.4818009e-05
3.1317629e-05
2.8155726e-05
2.5298866e-05
2.2716758e-05
2.038191e-05
1.8269307e-05
1.6356098e-05
1.4621302e-05
1.3045659e-05
1.1611555e-05
1.0302991e-05
9.1055382e-06
8.0062208e-06
6.9933325e-06
6.0562525e-06
5.185323e-06
4.3717707e-06
3.6076461e-06
2.885752e-06
2.1995713e-06
1.5432028e-06
9.1133726e-07
2.9924998e-07
0.00068048619
0.00061750806
0.0005599104
0.00050728553
0.00045925278
0.00041545544
0.00037555963
0.0003392534
0.00030624585
0.00027626627
0.00024906326
0.00022440381
0.00020207236
0.00018186972
0.00016361185
0.00014712855
0.00013226209
0.00011886592
0.00010680369
9.5948584e-05
8.618316e-05
7.7399341e-05
6.9498505e-05
6.2391372e-05
5.5997607e-05
5.0245163e-05
4.5069453e-05
4.0412487e-05
3.6222064e-05
3.2451065e-05
2.9056875e-05
2.6000907e-05
2.3248193e-05
2.0767025e-05
1.8528624e-05
1.6506843e-05
1.4677943e-05
1.30204e-05
1.1514752e-05
1.0143439e-05
8.890634e-06
7.7420699e-06
6.6848611e-06
5.7073566e-06
4.7990132e-06
3.9502829e-06
3.1525109e-06
2.3978462e-06
1.6791705e-06
9.9004578e-07
3.2465087e-07
0.00079901807
0.00072428956
0.00065601302
0.00059369595
0.0005368774
0.00048512549
0.00043803615
0.00039523202
0.00035636133
0.00032109678
0.00028913443
0.00026019254
0.00023401043
0.00021034724
0.00018898059
0.00016970529
0.00015233193
0.00013668567
0.00012260509
0.00010994137
9.8557621e-05
8.8328414e-05
7.9139338e-05
7.0886475e-05
6.347576e-05
5.6822234e-05
5.084923e-05
4.5487563e-05
4.0674763e-05
3.6354393e-05
3.2475437e-05
2.8991773e-05
2.5861704e-05
2.3047535e-05
2.0515193e-05
1.8233886e-05
1.6175799e-05
1.4315829e-05
1.2631342e-05
1.110195e-05
9.7092903e-06
8.4368252e-06
7.2696466e-06
6.1943011e-06
5.1986326e-06
4.2716407e-06
3.4033567e-06
2.584738e-06
1.8075843e-06
1.0644706e-06
3.4866734e-07
0.00090809693
0.00082234832
0.00074407737
0.00067270911
0.00060770417
0.00054855728
0.000494796
0.00044597936
0.00040169654
0.0003615655
0.00032523165
0.00029236646
0.00026266609
0.00023584996
0.00021165932
0.00018985582
0.00017022006
0.0001525502
0.0001366608
0.00012238165
0.00010955682
9.8043839e-05
8.7712842e-05
7.8445785e-05
7.0135595e-05
6.2685314e-05
5.6007245e-05
5.0022113e-05
4.4658296e-05
3.9851095e-05
3.5542092e-05
3.1678555e-05
2.8212903e-05
2.5102223e-05
2.2307827e-05
1.9794851e-05
1.7531893e-05
1.5490682e-05
1.3645778e-05
1.1974296e-05
1.0455649e-05
9.0713095e-06
7.8045941e-06
6.6404601e-06
5.5653263e-06
4.5669112e-06
3.6340914e-06
2.7567825e-06
1.9258445e-06
1.1330039e-06
3.7076643e-07
0.0010060892
0.00091027777
0.00082289816
0.0007432976
0.00067086226
0.00060501731
0.00054522558
0.00049098607
0.00044183236
0.00039733102
0.00035708004
0.00032070725
0.00028786866
0.0002582469
0.00023154965
0.00020750795
0.00018587474
0.00016642327
0.00014894573
0.00013325191
0.00011916803
0.00010653558
9.5210241e-05
8.5060885e-05
7.5968545e-05
6.7825455e-05
6.0534099e-05
5.4006339e-05
4.8162568e-05
4.2930922e-05
3.8246587e-05
3.405113e-05
3.0291908e-05
2.6921523e-05
2.3897315e-05
2.1180912e-05
1.8737807e-05
1.6536985e-05
1.455057e-05
1.2753515e-05
1.1123304e-05
9.6396904e-06
8.2844526e-06
7.0411722e-06
5.8950341e-06
4.8326489e-06
3.8418977e-06
2.9118014e-06
2.0324164e-06
1.1947491e-06
3.9066348e-07
0.0010923976
0.00098760874
0.00089211656
0.0008051967
0.00072616653
0.00065438708
0.00058926167
0.00053023419
0.0004767873
0.00042844066
0.00038474912
0.00034530095
0.00030971575
0.00027764291
0.00024875982
0.00022277008
0.00019940174
0.00017840564
0.0001595538
0.00014263797
0.00012746817
0.00011387138
0.00010169026
9.0781983e-05
8.1017012e-05
7.2278074e-05
6.4459071e-05
5.7464205e-05
5.1207032e-05
4.5609488e-05
4.0601344e-05
3.6119274e-05
3.2106308e-05
2.8511216e-05
2.5287949e-05
2.2395135e-05
1.9795613e-05
1.7456012e-05
1.5346371e-05
1.3439785e-05
1.1712088e-05
1.0141559e-05
8.7086617e-06
7.3957989e-06
6.1871016e-06
5.0682354e-06
4.0262344e-06
3.049361e-06
2.126993e-06
1.2495323e-06
4.0830759e-07
0.001167382
0.0010547257
0.00095213343
0.00085881625
0.00077402939
0.00069707618
0.00062730653
0.00056411499
0.00050693873
0.00045525556
0.00040858183
0.0003664705
0.00032850926
0.00029431839
0.00026354866
0.0002358795
0.00021101708
0.00018869252
0.0001686601
0.00015069564
0.00013459489
0.00012017201
0.00010725822
9.5700413e-05
8.5359815e-05
7.6110924e-05
6.7840165e-05
6.0445143e-05
5.3833786e-05
4.7922281e-05
4.2636508e-05
3.7908583e-05
3.3677798e-05
2.9889658e-05
2.6495228e-05
2.3450578e-05
2.0716282e-05
1.8256963e-05
1.6040876e-05
1.4039534e-05
1.2227359e-05
1.0581375e-05
9.0809219e-06
7.7074009e-06
6.4440457e-06
5.2757194e-06
4.1887384e-06
3.170724e-06
2.2104829e-06
1.2979099e-06
4.2388925e-07
0.0012321214
0.0011126318
0.0010038846
0.0009050271
0.00081525892
0.0007338324
0.0006600504
0.00059326407
0.00053287062
0.00047831118
0.00042906854
0.00038466499
0.00034466011
0.00030864856
0.00027625794
0.00024714663
0.00022100185
0.00019753759
0.00017649277
0.00015762937
0.00014073078
0.00012560009
0.00011205856
9.9944146e-05
8.9110216e-05
7.9424112e-05
7.0766177e-05
6.3028298e-05
5.6112737e-05
4.9932355e-05
4.4407342e-05
3.9467178e-05
3.5048167e-05
3.1093051e-05
2.7550433e-05
2.4374193e-05
2.1522964e-05
1.8959647e-05
1.6650968e-05
1.4567077e-05
1.2681188e-05
1.0969245e-05
9.4096261e-06
7.9828724e-06
6.6714496e-06
5.4595348e-06
4.3328318e-06
3.2784165e-06
2.2846105e-06
1.3408792e-06
4.3773167e-07
0.001288157
0.0011627875
0.0010487195
0.00094506913
0.00085099125
0.00076569451
0.00068844101
0.00061854425
0.00055536683
0.00049831809
0.00044685174
0.0004004635
0.00035868871
0.00032109997
0.00028730486
0.00025694367
0.00022968721
0.00020523471
0.0001833118
0.00016366853
0.00014607755
0.00013033236
0.00011624562
0.0001036476
9.2384785e-05
8.2318399e-05
7.3323216e-05
6.5286249e-05
5.8105678e-05
5.168998e-05
4.5956718e-05
4.0831907e-05
3.6249076e-05
3.2148557e-05
2.8476811e-05
2.5185825e-05
2.2232551e-05
1.9578395e-05
1.7188757e-05
1.5032608e-05
1.3082113e-05
1.1312279e-05
9.7006512e-06
8.2270263e-06
6.873206e-06
5.6227748e-06
4.4609088e-06
3.3742144e-06
2.3505962e-06
1.3791513e-06
4.5006638e-07
0.0013371725
0.0012066474
0.0010879368
0.00098010688
0.00088227027
0.00079359707
0.00071331387
0.00064070149
0.00057509243
0.00051586848
0.0004624581
0.00041433395
0.00037101035
0.00033204078
0.00029701546
0.00026555897
0.0002373279
0.00021200866
0.0001893153
0.0001689875
0.00015078855
0.00013450358
0.00011993776
0.00010691466
9.527474e-05
8.4873875e-05
7.5582025e-05
6.7281959e-05
5.9868102e-05
5.3245486e-05
4.7328721e-05
4.2041105e-05
3.7313778e-05
3.3084952e-05
2.9299214e-05
2.5906883e-05
2.2863433e-05
2.0128954e-05
1.7667679e-05
1.5447541e-05
1.3439778e-05
1.1618576e-05
9.9607443e-06
8.4454265e-06
7.0538404e-06
5.7690504e-06
4.5757699e-06
3.460194e-06
2.4098626e-06
1.4135499e-06
4.6115956e-07
0.001380622
0.0012455553
0.0011227467
0.0010112249
0.00091006605
0.00081840656
0.00073544204
0.00066042466
0.00059266068
0.00053150771
0.00047637215
0.00042670646
0.00038200653
0.0003418091
0.00030568918
0.00027325752
0.00024415824
0.00021806644
0.00019468602
0.00017374747
0.00015500584
0.00013823886
0.00012324507
0.00010984209
9.7865056e-05
8.716509e-05
7.7607893e-05
6.9072448e-05
6.1449805e-05
5.4641973e-05
4.8560881e-05
4.3127437e-05
3.8270653e-05
3.3926853e-05
3.0038947e-05
2.6555764e-05
2.343145e-05
2.0624921e-05
1.8099362e-05
1.5821774e-05
1.3762567e-05
1.189519e-05
1.0195794e-05
8.6429358e-06
7.2173121e-06
5.9015222e-06
4.6798659e-06
3.538171e-06
2.4636513e-06
1.4447919e-06
4.7124187e-07
0.0014197829
0.0012806464
0.0011541621
0.0010393261
0.00093518249
0.00084083804
0.00075546085
0.00067827779
0.00060857181
0.00054567912
0.00048898649
0.00043792845
0.00039198453
0.00035067654
0.00031356592
0.00028025112
0.00025036509
0.00022357285
0.00019956917
0.00017807633
0.00015884199
0.00014163721
0.00012625456
0.00011250631
0.0001002228
8.9250855e-05
7.9452328e-05
7.0702774e-05
6.2890182e-05
5.591383e-05
4.9683212e-05
4.4117068e-05
3.9142481e-05
3.4694059e-05
3.0713183e-05
2.7147325e-05
2.3949427e-05
2.1077328e-05
1.849326e-05
1.6163376e-05
1.405733e-05
1.2147896e-05
1.0410628e-05
8.823548e-06
7.3668768e-06
6.0227909e-06
4.7752136e-06
3.6096384e-06
2.5129819e-06
1.4734647e-06
4.8050177e-07
0.0014556534
0.0013128087
0.0011829726
0.001065112
0.00095824242
0.00086144384
0.00077385974
0.00069469421
0.00062320921
0.00055872165
0.00050060063
0.00044826444
0.00040117782
0.00035884907
0.00032082734
0.0002866999
0.00025608957
0.00022865218
0.00020407421
0.00018207043
0.00016238175
0.00014477317
0.00012903177
0.00011496492
0.00010239857
9.1175576e-05
8.1154284e-05
7.2207086e-05
6.4219154e-05
5.7087249e-05
5.0718623e-05
4.5030014e-05
3.9946725e-05
3.5401778e-05
3.1335143e-05
2.7693038e-05
2.4427284e-05
2.1494732e-05
1.8856727e-05
1.6478637e-05
1.4329415e-05
1.2381215e-05
1.0609033e-05
8.9904001e-06
7.5050953e-06
6.134904e-06
4.8634016e-06
3.675772e-06
2.5586564e-06
1.5000295e-06
4.8908683e-07
0.0014889722
0.0013426982
0.0012097602
0.0010890987
0.00097970284
0.00088062846
0.00079099645
0.0007099901
0.00063685214
0.00057088187
0.00051143211
0.00045790631
0.00040975559
0.00036647583
0.00032760486
0.00029271966
0.00026143367
0.00023339427
0.00020828024
0.00018579942
0.00016568647
0.00014770072
0.0001316242
0.00011725972
0.00010442911
9.2971582e-05
8.2742177e-05
7.3610349e-05
6.5458642e-05
5.8181465e-05
5.1683975e-05
4.5881041e-05
4.06963e-05
3.6061289e-05
3.1914658e-05
2.8201448e-05
2.4872437e-05
2.1883543e-05
1.9195284e-05
1.6772291e-05
1.4582862e-05
1.2598566e-05
1.0793882e-05
9.1458754e-06
7.6339155e-06
6.2394205e-06
4.9456398e-06
3.7374673e-06
2.6012853e-06
1.5248366e-06
4.9710889e-07
0.001520261
0.0013707776
0.0012349347
0.0011116488
0.00099988458
0.00089867545
0.00080712143
0.00072438655
0.00064969573
0.00058233185
0.00052163268
0.00046698783
0.00041783574
0.00037366074
0.00033399007
0.00029839109
0.00026646853
0.00023786181
0.00021224252
0.000189312
0.00016879905
0.0001504577
0.00013406521
0.00011942009
0.00010634034
9.46617e-05
8.4236118e-05
7.4930276e-05
6.6624236e-05
5.9210193e-05
5.2591324e-05
4.6680735e-05
4.1400488e-05
3.668072e-05
3.2458833e-05
2.8678756e-05
2.5290278e-05
2.2248437e-05
1.951297e-05
1.7047811e-05
1.4820639e-05
1.2802471e-05
1.0967294e-05
9.2917377e-06
7.7547815e-06
6.3374976e-06
5.0228271e-06
3.7953893e-06
2.6413214e-06
1.5481458e-06
5.0465065e-07
0.0015498751
0.0013973611
0.0012587743
0.0011330081
0.0010190048
0.00091577653
0.0008224039
0.00073803284
0.00066187161
0.00059318769
0.00053130469
0.00047559923
0.00042549784
0.00038047392
0.0003400448
0.00030376875
0.00027124225
0.00024209723
0.0002159985
0.00019264124
0.0001717487
0.0001530699
0.00013637757
0.00012146618
0.00010815004
9.6261644e-05
8.5649988e-05
7.6179124e-05
6.7726758e-05
6.018298e-05
5.3449089e-05
4.7436511e-05
4.2065815e-05
3.7265805e-05
3.2972694e-05
2.9129358e-05
2.5684644e-05
2.2592754e-05
1.981268e-05
1.7307694e-05
1.5044887e-05
1.2994751e-05
1.1130806e-05
9.4292675e-06
7.8687437e-06
6.4299779e-06
5.0956183e-06
3.8500228e-06
2.6790948e-06
1.5701458e-06
5.1177212e-07
0.0015780483
0.0014226557
0.0012814618
0.0011533382
0.0010372061
0.00093205756
0.00083695487
0.0007510269
0.00067346614
0.00060352554
0.0005405153
0.00048379974
0.00043279411
0.00038696149
0.00034580974
0.00030888856
0.00027578658
0.00024612861
0.000219573
0.0001958091
0.00017455485
0.00015555452
0.00013857652
0.00012341146
0.00010987017
9.7782012e-05
8.699318e-05
7.7365216e-05
6.8773581e-05
6.1106355e-05
5.4263045e-05
4.8153476e-05
4.2696789e-05
3.7820517e-05
3.3459741e-05
2.9556327e-05
2.6058226e-05
2.2918842e-05
2.0096455e-05
1.7553708e-05
1.5257127e-05
1.3176705e-05
1.1285517e-05
9.559382e-06
7.9765557e-06
6.5174672e-06
5.1644848e-06
3.9017168e-06
2.7148429e-06
1.5909723e-06
5.1851633e-07
0.001604931
0.0014467943
0.0013031143
0.0011727426
0.0010545797
0.00094759906
0.00085084538
0.00076343138
0.00068453459
0.00061339415
0.00054930753
0.00049162736
0.00043975813
0.0003931531
0.00035131114
0.00031377374
0.00028012207
0.00024997415
0.00022298217
0.0001988299
0.00017723022
0.00015792285
0.00014067211
0.00012526487
0.00011150867
9.9229864e-05
8.8271973e-05
7.8494138e-05
6.976967e-05
6.1984732e-05
5.5037113e-05
4.8835109e-05
4.3296496e-05
3.8347589e-05
3.3922388e-05
2.9961793e-05
2.6412898e-05
2.3228342e-05
2.0365729e-05
1.7787095e-05
1.5458431e-05
1.3349252e-05
1.1432207e-05
9.6827349e-06
8.0787561e-06
6.6003989e-06
5.2297642e-06
3.9507215e-06
2.748736e-06
1.6107226e-06
5.2491405e-07
0.0016306178
0.0014698602
0.0013238058
0.0011912863
0.0010711831
0.00096245169
0.00086412011
0.00077528572
0.00069511178
0.00062282428
0.00055770857
0.00049910611
0.00044641117
0.00039906759
0.00035656569
0.00031843912
0.00028426189
0.00025364556
0.00022623642
0.0002017129
0.00017978307
0.00016018227
0.00014267089
0.00012703228
0.00011307078
0.00010060988
8.9490551e-05
7.9569628e-05
7.0718368e-05
6.2821096e-05
5.5773958e-05
4.9483787e-05
4.3867051e-05
3.8848903e-05
3.4362304e-05
3.0347234e-05
2.6749964e-05
2.3522404e-05
2.0621509e-05
1.8008736e-05
1.5649563e-05
1.3513047e-05
1.1571432e-05
9.7997939e-06
8.1757311e-06
6.6790847e-06
5.2916998e-06
3.9972172e-06
2.7808967e-06
1.6294667e-06
5.3098739e-07
0.0016551679
0.0014919059
0.0013435822
0.0012090101
0.0010870523
0.00097664725
0.00087680718
0.00078661475
0.00070521966
0.00063183536
0.00056573562
0.00050625125
0.00045276674
0.00040471699
0.00036158409
0.0003228942
0.00028821453
0.00025715041
0.00022934252
0.00020446417
0.00018221882
0.00016233763
0.00014457724
0.0001287176
0.00011456001
0.00010192522
9.0651746e-05
8.0594229e-05
7.1621957e-05
6.3617494e-05
5.6475417e-05
5.0101155e-05
4.4409928e-05
3.9325774e-05
3.4780665e-05
3.0713695e-05
2.7070352e-05
2.3801848e-05
2.0864515e-05
1.821926e-05
1.583107e-05
1.3668563e-05
1.1703597e-05
9.9109e-06
8.267763e-06
6.7537529e-06
5.35047e-06
4.0413365e-06
2.8114155e-06
1.6472561e-06
5.3675266e-07
0.0016786192
0.0015129648
0.0013624732
0.0012259401
0.0011022104
0.00099020624
0.00088892471
0.00079743452
0.00071487246
0.00064043999
0.00057339987
0.00051307274
0.00045883375
0.00041010922
0.00036637341
0.00032714533
0.00029198566
0.00026049381
0.00023230505
0.00020708782
0.00018454117
0.00016439227
0.00014639416
0.00013032354
0.0001159788
0.00010317808
9.1757551e-05
8.156974e-05
7.2482059e-05
6.437539e-05
5.7142807e-05
5.06884e-05
4.4926193e-05
3.9779161e-05
3.5178326e-05
3.1061941e-05
2.7374743e-05
2.4067278e-05
2.1095283e-05
1.8419139e-05
1.6003362e-05
1.3816157e-05
1.1829006e-05
1.001631e-05
8.3550656e-06
6.8245768e-06
5.4062108e-06
4.0831807e-06
2.8403613e-06
1.6641303e-06
5.422223e-07
0.0017009969
0.0015330595
0.001380499
0.0012420944
0.0011166735
0.0010031429
0.0009004853
0.00080775622
0.00072408011
0.00064864704
0.00058070924
0.00051957765
0.00046461851
0.00041524995
0.00037093875
0.00033119709
0.00029557941
0.00026367945
0.00023512735
0.00020958689
0.00018675287
0.00016634867
0.00014812389
0.00013185213
0.000117329
0.00010437014
9.2809476e-05
8.2497529e-05
7.3299913e-05
6.5095903e-05
5.777714e-05
5.1246434e-05
4.5416668e-05
4.0209802e-05
3.5555952e-05
3.1392568e-05
2.766367e-05
2.4319166e-05
2.1314231e-05
1.860874e-05
1.6166764e-05
1.3956107e-05
1.19479e-05
1.0116229e-05
8.4378087e-06
6.8916946e-06
5.4590306e-06
4.1228306e-06
2.8677895e-06
1.6801209e-06
5.474064e-07
0.00172232
0.0015522078
0.0013976753
0.001257487
0.0011304541
0.0010154683
0.00091149887
0.00081758867
0.00073285048
0.00065646353
0.00058767002
0.00052577163
0.00047012609
0.00042014375
0.00037528423
0.00033505319
0.00029899914
0.0002667104
0.0002378122
0.00021196386
0.00018885618
0.00016820888
0.00014976829
0.00013330506
0.00011861214
0.00010550278
9.3808776e-05
8.3378732e-05
7.4076547e-05
6.5779964e-05
5.8379258e-05
5.1776017e-05
4.588204e-05
4.0618315e-05
3.5914099e-05
3.1706072e-05
2.7937576e-05
2.455791e-05
2.152171e-05
1.8788374e-05
1.6321545e-05
1.408865e-05
1.2060482e-05
1.0210828e-05
8.5161361e-06
6.9552233e-06
5.5090219e-06
4.1603554e-06
2.8937476e-06
1.6952554e-06
5.5231361e-07
0.0017426038
0.0015704255
0.0014140169
0.0012721309
0.0011435636
0.0010271926
0.00092197436
0.00082693985
0.00074119072
0.00066389588
0.00059428797
0.00053165986
0.00047536117
0.00042479483
0.00037941366
0.00033871708
0.00030224796
0.00026958945
0.00024036212
0.00021422104
0.00019085317
0.00016997479
0.00015132907
0.00013468387
0.00011982961
0.00010657727
9.4756601e-05
8.4214389e-05
7.4812901e-05
6.6428423e-05
5.8949927e-05
5.2277841e-05
4.6322929e-05
4.1005258e-05
3.6253266e-05
3.2002903e-05
2.8196861e-05
2.4783865e-05
2.1718037e-05
1.8958319e-05
1.646795e-05
1.4213998e-05
1.2166935e-05
1.0300263e-05
8.5901771e-06
7.0152686e-06
5.5562678e-06
4.1958176e-06
2.9182787e-06
1.7095586e-06
5.5695188e-07
0.001761864
0.0015877291
0.0014295401
0.0012860395
0.0011560136
0.0010383259
0.00093192083
0.00083581784
0.00074910806
0.00067095058
0.00060056892
0.0005372476
0.0004803285
0.00042920748
0.00038333089
0.00034219225
0.00030532902
0.00027231947
0.00024277969
0.00021636076
0.00019274596
0.00017164829
0.00015280794
0.00013599012
0.00012098282
0.00010759487
9.5654085e-05
8.5005522e-05
7.5509896e-05
6.7042107e-05
5.9489891e-05
5.2752574e-05
4.6739936e-05
4.1371171e-05
3.6573936e-05
3.228349e-05
2.8441909e-05
2.499737e-05
2.190351e-05
1.9118838e-05
1.660621e-05
1.4332351e-05
1.226743e-05
1.038468e-05
8.6600544e-06
7.0719305e-06
5.6008474e-06
4.2292766e-06
2.9414236e-06
1.7230541e-06
5.6132881e-07
0.0017801264
0.0016041358
0.0014442616
0.0012992276
0.0011678166
0.0010488792
0.00094134791
0.00084423126
0.00075661025
0.00067763459
0.00060651917
0.0005425405
0.00048503317
0.00043338629
0.00038704007
0.00034548242
0.00030824567
0.00027490346
0.00024506764
0.00021838546
0.00019453675
0.00017323136
0.0001542067
0.00013722541
0.0001220732
0.00010855687
9.6502396e-05
8.575318e-05
7.6168473e-05
6.7621861e-05
5.9999908e-05
5.3200894e-05
4.7133668e-05
4.1716593e-05
3.687659e-05
3.2548262e-05
2.86731e-05
2.5198763e-05
2.2078428e-05
1.9270194e-05
1.6736553e-05
1.4443907e-05
1.2362139e-05
1.0464224e-05
8.7258883e-06
7.1253074e-06
5.6428386e-06
4.2607909e-06
2.963223e-06
1.7357656e-06
5.6545199e-07
0.001619675
0.0014581997
0.00131171
0.0011789856
0.0010588641
0.00095026608
0.00085218954
0.00076370578
0.00068395556
0.00061214557
0.00054754474
0.00048948072
0.00043733625
0.00039054569
0.00034859163
0.00031100156
0.0002773447
0.0002472289
0.00022029778
0.0001962279
0.00017472615
0.00015552725
0.00013839144
0.0001231023
0.00010946466
9.7302762e-05
8.6458463e-05
7.6789615e-05
6.8168564e-05
6.0480762e-05
5.3623501e-05
4.7504748e-05
4.2042082e-05
3.7161724e-05
3.2797658e-05
2.8890823e-05
2.5388387e-05
2.2243092e-05
1.941265e-05
1.6859209e-05
1.4548866e-05
1.2451231e-05
1.0539039e-05
8.7877999e-06
7.1754981e-06
5.6823195e-06
4.2904195e-06
2.9837176e-06
1.7477167e-06
5.6932906e-07
0.0016343513
0.0014713642
0.0013234999
0.001189534
0.0010682931
0.00095868675
0.00085970299
0.0007704039
0.00068992182
0.00061745562
0.00055226708
0.00049367724
0.00044106281
0.00039385264
0.00035152427
0.00031360062
0.00027964671
0.00024926664
0.00022210057
0.00019782196
0.00017613491
0.00015677162
0.00013949005
0.00012407173
0.00011031968
9.8056484e-05
8.7122531e-05
7.7374358e-05
6.8683138e-05
6.0933275e-05
5.4021126e-05
4.7853826e-05
4.2348213e-05
3.7429849e-05
3.3032132e-05
2.9095478e-05
2.5566596e-05
2.2397814e-05
1.9546479e-05
1.6974416e-05
1.4647432e-05
1.2534883e-05
1.0609273e-05
8.8459125e-06
7.2226031e-06
5.7193696e-06
4.3182221e-06
3.0029488e-06
1.7589315e-06
5.729678e-07
0.001648192
0.0014837745
0.0013346137
0.0011994768
0.0010771799
0.00096662229
0.00086678276
0.0007767147
0.00069554244
0.00062245748
0.00055671481
0.00049762927
0.00044457185
0.00039696619
0.00035428507
0.00031604708
0.0002818133
0.00025118424
0.00022379684
0.00019932164
0.00017746007
0.00015794197
0.00014052316
0.00012498323
0.00011112347
9.8764929e-05
8.77466e-05
7.7923786e-05
6.9166548e-05
6.1358305e-05
5.4394532e-05
4.8181579e-05
4.2635587e-05
3.7681496e-05
3.3252151e-05
2.9287479e-05
2.5733752e-05
2.254291e-05
1.9671958e-05
1.7082413e-05
1.4739813e-05
1.2613271e-05
1.0675078e-05
8.9003519e-06
7.266725e-06
5.7540699e-06
4.3442598e-06
3.020959e-06
1.7694349e-06
5.7637621e-07
0.001661218
0.0014954516
0.0013450698
0.0012088305
0.0010855392
0.000974086
0.00087344084
0.00078264894
0.00070082708
0.00062715982
0.00056089574
0.0005013438
0.00044786963
0.00039989195
0.00035687905
0.00031834543
0.00028384846
0.00025298529
0.00022538981
0.00020072979
0.00017870419
0.00015904059
0.00014149279
0.00012583859
0.00011187764
9.9429525e-05
8.8331944e-05
7.8439028e-05
6.9619798e-05
6.1756742e-05
5.4744507e-05
4.8488706e-05
4.2904822e-05
3.7917211e-05
3.3458199e-05
2.9467251e-05
2.5890228e-05
2.2678708e-05
1.9789372e-05
1.7183449e-05
1.4826223e-05
1.2686579e-05
1.0736607e-05
8.9512462e-06
7.3079684e-06
5.786503e-06
4.3685948e-06
3.0377912e-06
1.7792518e-06
5.795624e-07
0.0016734523
0.0015064173
0.0013548879
0.0012176124
0.0010933867
0.000981092
0.00087968992
0.00078821802
0.000705786
0.00063157183
0.0005648181
0.00050482822
0.00045096277
0.00040263583
0.00035931149
0.00032050038
0.00028575642
0.00025467356
0.00022688283
0.00020204941
0.00017986992
0.00016006983
0.00014240107
0.00012663969
0.00011258385
0.00010005176
8.8879878e-05
7.8921253e-05
7.0043923e-05
6.2129504e-05
5.5071866e-05
4.8775928e-05
4.3156555e-05
3.8137557e-05
3.365077e-05
2.9635228e-05
2.6036408e-05
2.2805543e-05
1.9899012e-05
1.7277776e-05
1.4906878e-05
1.2754992e-05
1.0794018e-05
8.9987261e-06
7.3464395e-06
5.8167529e-06
4.3912903e-06
3.0534892e-06
1.7884078e-06
5.8253462e-07
0.00168492
0.0015166945
0.0013640884
0.0012258409
0.0011007389
0.00098765508
0.00088554327
0.00079343388
0.00071042987
0.0006357031
0.00056849047
0.0005080902
0.00045385812
0.00040520396
0.00036158786
0.00032251684
0.00028754153
0.00025625293
0.00022827936
0.00020328358
0.00018096001
0.00016103215
0.00014325015
0.00012738847
0.00011324383
0.00010063315
8.9391755e-05
7.9371659e-05
7.0439986e-05
6.2477533e-05
5.5377441e-05
4.9043979e-05
4.3391436e-05
3.8343106e-05
3.383037e-05
2.9791856e-05
2.6172679e-05
2.2923754e-05
2.0001175e-05
1.7365651e-05
1.4982e-05
1.2818698e-05
1.0847468e-05
9.0429236e-06
7.3822458e-06
5.8449045e-06
4.4124101e-06
3.0680972e-06
1.7969286e-06
5.8530123e-07
0.0016956476
0.001526307
0.0013726925
0.0012335352
0.0011076129
0.00099379052
0.00089101464
0.00079830882
0.00071476976
0.00063956352
0.0005719217
0.00051113766
0.00045656276
0.00040760267
0.00036371381
0.00032439984
0.00028920829
0.0002577274
0.00022958296
0.00020443546
0.00018197728
0.00016193005
0.00014404226
0.0001280869
0.00011385931
0.00010117525
8.9868951e-05
7.9791467e-05
7.0809068e-05
6.2801785e-05
5.5662077e-05
4.9293607e-05
4.3610123e-05
3.853444e-05
3.399751e-05
2.9937582e-05
2.6299435e-05
2.3033684e-05
2.0096159e-05
1.7447331e-05
1.5051811e-05
1.2877888e-05
1.0897119e-05
9.083972e-06
7.4154959e-06
5.8710432e-06
4.4320186e-06
3.0816599e-06
1.8048404e-06
5.8787063e-07
0.0017056622
0.001535279
0.0013807221
0.0012407146
0.0011140261
0.00099951404
0.00089611811
0.00080285548
0.00071881698
0.00064316323
0.00057512087
0.00051397871
0.00045908393
0.00040983842
0.00036569511
0.0003261545
0.00029076126
0.00025910103
0.00023079726
0.00020550829
0.00018292459
0.00016276607
0.00014477967
0.00012873697
0.00011443209
0.00010167964
9.031286e-05
8.0181912e-05
7.1152261e-05
6.3103225e-05
5.5926628e-05
4.9525566e-05
4.3813282e-05
3.8712143e-05
3.4152704e-05
3.0072858e-05
2.6417071e-05
2.313568e-05
2.0184264e-05
1.7523078e-05
1.5116535e-05
1.2932751e-05
1.0943132e-05
9.1220047e-06
7.4462983e-06
5.8952549e-06
4.4501803e-06
3.0942219e-06
1.8121691e-06
5.9025122e-07
0.0017149913
0.0015436352
0.0013881991
0.0012473989
0.0011199963
0.0010048416
0.00090086798
0.0008070867
0.00072258302
0.0006465125
0.00057809716
0.00051662154
0.00046142896
0.00041191773
0.00036753756
0.00032778601
0.00029220507
0.00026037795
0.0002319259
0.0002065053
0.00018380482
0.00016354277
0.00014546464
0.00012934071
0.00011496394
0.00010214789
9.0724884e-05
8.0544232e-05
7.147066e-05
6.3382823e-05
5.617195e-05
4.974061e-05
4.4001578e-05
3.8876802e-05
3.4296467e-05
3.0198137e-05
2.6525984e-05
2.3230085e-05
2.0265791e-05
1.759315e-05
1.5176395e-05
1.2983479e-05
1.0985666e-05
9.1571552e-06
7.4747615e-06
5.9176251e-06
4.4669595e-06
3.1058277e-06
1.8189406e-06
5.9245141e-07
0.0017236625
0.0015514002
0.0013951457
0.0012536081
0.0011255413
0.0010097892
0.00090527871
0.00081101542
0.00072607947
0.00064962171
0.00058085983
0.00051907444
0.00046360521
0.00041384718
0.00036924704
0.00032929959
0.00029354435
0.00026156227
0.00023297256
0.00020742975
0.00018462086
0.00016426272
0.00014609944
0.00012990013
0.00011545665
0.0001025816
9.1106422e-05
8.0879666e-05
7.1765362e-05
6.3641545e-05
5.6398896e-05
4.9939493e-05
4.4175675e-05
3.9029002e-05
3.4429314e-05
3.0313869e-05
2.6626567e-05
2.3317245e-05
2.0341039e-05
1.7657806e-05
1.5231612e-05
1.3030261e-05
1.1024881e-05
9.189556e-06
7.5009933e-06
5.9382388e-06
4.4824201e-06
3.1165216e-06
1.8251808e-06
5.9447954e-07
0.0017317035
0.0015585988
0.0014015842
0.0012593621
0.0011306793
0.0010143731
0.00090936477
0.00081465462
0.00072931795
0.00065250124
0.00058341816
0.00052134566
0.00046562007
0.00041563335
0.00037082939
0.00033070045
0.00029478374
0.00026265811
0.00023394089
0.0002082849
0.00018537561
0.00016492847
0.00014668635
0.00013041724
0.000115912
0.00010298233
9.1458867e-05
8.1189446e-05
7.2037454e-05
6.3880354e-05
5.6608316e-05
5.0122964e-05
4.4336232e-05
3.9169322e-05
3.4551753e-05
3.04205e-05
2.6719212e-05
2.33975e-05
2.0410303e-05
1.7717303e-05
1.5282408e-05
1.3073284e-05
1.1060936e-05
9.2193383e-06
7.5251004e-06
5.9571801e-06
4.4966254e-06
3.1263473e-06
1.8309152e-06
5.9634386e-07
0.0017391417
0.0015652555
0.0014075366
0.0012646808
0.0011354279
0.0010186093
0.00091314062
0.00081801726
0.00073231005
0.00065516144
0.00058578138
0.00052344344
0.00046748087
0.00041728276
0.00037229043
0.00033199377
0.00029592785
0.00026366957
0.00023483453
0.00020907396
0.00018607191
0.00016554255
0.00014722761
0.00013089403
0.00011633175
0.00010335164
9.1783596e-05