/*--------------------------------*- C++ -*----------------------------------*\
| =========                 |                                                 |
| \\      /  F ield         | OpenFOAM: The Open Source CFD Toolbox           |
|  \\    /   O peration     | Version:  2312                                  |
|   \\  /    A nd           | Website:  www.openfoam.com                      |
|    \\/     M anipulation  |                                                 |
\*---------------------------------------------------------------------------*/
FoamFile
{
    version     2.0;
    format      ascii;
    arch        "LSB;label=32;scalar=64";
    class       volScalarField;
    location    "0.03";
    object      f_Bilger;
}
// * * * * * * * * * * * * * * * * * * * * * * * * * * * * * * * * * * * * * //

dimensions      [0 0 0 0 0 0 0];

internalField   nonuniform List<scalar> 
3257
(
2.0947242e-05
1.9085117e-05
1.7378308e-05
1.5814898e-05
1.4383924e-05
1.3075165e-05
1.1879107e-05
1.0786913e-05
9.7904045e-06
8.8820441e-06
8.0549372e-06
7.3028243e-06
6.6200963e-06
6.0017487e-06
5.4433354e-06
4.9407868e-06
4.4902232e-06
4.0876654e-06
3.7288668e-06
3.4092241e-06
3.1239367e-06
2.8682589e-06
2.6378473e-06
2.4289709e-06
2.2386285e-06
2.0644636e-06
1.9046564e-06
1.7577291e-06
1.6224312e-06
1.4976323e-06
1.3823219e-06
1.2756481e-06
1.1769796e-06
1.0858732e-06
1.0018782e-06
9.2435976e-07
8.5244342e-07
7.8510497e-07
7.2138997e-07
6.6065413e-07
6.0269178e-07
5.4738225e-07
4.9421704e-07
4.4252197e-07
3.9144342e-07
3.4056668e-07
2.9019666e-07
2.4432591e-07
2.2048869e-07
1.6112315e-07
5.850524e-08
6.6839442e-05
6.0818453e-05
5.5305094e-05
5.0260201e-05
4.5647608e-05
4.1433634e-05
3.7586951e-05
3.4078469e-05
3.0881273e-05
2.7970559e-05
2.5323591e-05
2.2919685e-05
2.0740131e-05
1.876809e-05
1.6988319e-05
1.538675e-05
1.3949919e-05
1.2664343e-05
1.1516087e-05
1.0490661e-05
9.5733716e-06
8.7500091e-06
8.0075901e-06
7.3349192e-06
6.7227744e-06
6.1637759e-06
5.6520261e-06
5.1827049e-06
4.7516969e-06
4.3553757e-06
3.9904991e-06
3.6542725e-06
3.3443559e-06
3.058799e-06
2.7956858e-06
2.5528978e-06
2.328019e-06
2.118509e-06
1.9220788e-06
1.7368823e-06
1.5617629e-06
1.3956475e-06
1.2372268e-06
1.0850023e-06
9.3738405e-07
7.9311591e-07
6.5118704e-07
5.1112615e-07
3.7218795e-07
2.2849395e-07
7.6860906e-08
0.00011539456
0.00010488195
9.5264002e-05
8.6471317e-05
7.843969e-05
7.1109321e-05
6.4424576e-05
5.8333779e-05
5.2789066e-05
4.7746251e-05
4.316469e-05
3.9007195e-05
3.5239848e-05
3.1831789e-05
2.8754796e-05
2.5982738e-05
2.3490857e-05
2.125505e-05
1.9251387e-05
1.7455996e-05
1.5845467e-05
1.4397574e-05
1.3092069e-05
1.1911241e-05
1.0840105e-05
9.8661959e-06
8.979166e-06
8.1702761e-06
7.4319704e-06
6.7575626e-06
6.1410695e-06
5.5771751e-06
5.0611592e-06
4.5888241e-06
4.1561893e-06
3.7593676e-06
3.3944485e-06
3.0576432e-06
2.7455357e-06
2.4551125e-06
2.1839693e-06
1.9298617e-06
1.6906254e-06
1.4641417e-06
1.2483632e-06
1.0415413e-06
8.4210301e-07
6.4869499e-07
4.5994271e-07
2.7424978e-07
9.0654852e-08
0.00016529372
0.00015006534
0.00013614568
0.00012343257
0.00011183136
0.0001012539
9.1618133e-05
8.2847829e-05
7.4872305e-05
6.7626193e-05
6.1049197e-05
5.5085895e-05
4.9685435e-05
4.4801231e-05
4.0390468e-05
3.641352e-05
3.2833262e-05
2.9614391e-05
2.6722992e-05
2.4126388e-05
2.1793434e-05
1.9695025e-05
1.7804675e-05
1.6098884e-05
1.4557228e-05
1.3162118e-05
1.1898421e-05
1.075298e-05
9.7142137e-06
8.7717888e-06
7.9164066e-06
7.1396971e-06
6.4340791e-06
5.7926969e-06
5.2091926e-06
4.6776502e-06
4.1924891e-06
3.7485135e-06
3.3410421e-06
2.9658109e-06
2.6191289e-06
2.297591e-06
1.9980836e-06
1.717752e-06
1.4539327e-06
1.2043002e-06
9.6671748e-07
7.3928757e-07
5.2025995e-07
3.0804672e-07
1.0135357e-07
0.00021508527
0.00019504919
0.0001767524
0.00016005817
0.0001448397
0.00013097886
0.00011836571
0.00010689807
9.6481152e-05
8.7027202e-05
7.8455138e-05
7.0690229e-05
6.3663687e-05
5.7312279e-05
5.1577791e-05
4.6406465e-05
4.1748364e-05
3.7556786e-05
3.3787848e-05
3.0400281e-05
2.735552e-05
2.4617932e-05
2.2155088e-05
1.9937889e-05
1.7940527e-05
1.6140217e-05
1.4516864e-05
1.3052644e-05
1.1731658e-05
1.0539631e-05
9.4636738e-06
8.4921453e-06
7.6144732e-06
6.8210856e-06
6.1032214e-06
5.4528797e-06
4.8627229e-06
4.3260323e-06
3.8367709e-06
3.3894194e-06
2.9790928e-06
2.6013159e-06
2.2520532e-06
1.9276585e-06
1.6247902e-06
1.3404868e-06
1.0720346e-06
8.1699466e-07
5.7313781e-07
3.3844693e-07
1.111312e-07
0.00026332067
0.00023852882
0.00021591083
0.00019529462
0.00017652036
0.00015943918
0.00014391253
0.00012981166
0.00011701711
0.00010541825
9.4912802e-05
8.5406374e-05
7.681198e-05
6.9049556e-05
6.2045396e-05
5.5731594e-05
5.0045443e-05
4.4928895e-05
4.0328135e-05
3.6193283e-05
3.2478287e-05
2.9140885e-05
2.6142613e-05
2.3448715e-05
2.1027988e-05
1.8852487e-05
1.6897212e-05
1.5139752e-05
1.3559967e-05
1.2139718e-05
1.0862615e-05
9.7138609e-06
8.680046e-06
7.749056e-06
6.9098904e-06
6.1525876e-06
5.4681171e-06
4.8482831e-06
4.2857306e-06
3.7737723e-06
3.3064396e-06
2.8783108e-06
2.4844984e-06
2.1206143e-06
1.782654e-06
1.4670529e-06
1.1705492e-06
8.9020386e-07
6.2333282e-07
3.6749876e-07
1.2050545e-07
0.00030870671
0.00027935094
0.00025259448
0.00022823009
0.00020606505
0.00018591986
0.00016762754
0.00015103293
0.00013599215
0.00012237194
0.0001100491
9.8909921e-05
8.8849592e-05
7.977164e-05
7.1587322e-05
6.4215034e-05
5.7579713e-05
5.1612284e-05
4.6249193e-05
4.143201e-05
3.7107153e-05
3.3225648e-05
2.9742937e-05
2.661863e-05
2.3816252e-05
2.1302913e-05
1.9048997e-05
1.7027824e-05
1.5215345e-05
1.3589879e-05
1.2131849e-05
1.0823601e-05
9.6491838e-06
8.5942165e-06
7.6457056e-06
6.7919336e-06
6.0223345e-06
5.3273661e-06
4.6984735e-06
4.1279151e-06
3.6087658e-06
3.1347616e-06
2.7002642e-06
2.3002078e-06
1.9299951e-06
1.5855063e-06
1.2629939e-06
9.5906746e-07
6.7064122e-07
3.949126e-07
1.2935032e-07
0.00035024116
0.00031663363
0.00028602934
0.00025818716
0.0002328826
0.00020990658
0.00018906468
0.00017017637
0.00015307426
0.00013760342
0.00012362068
0.00011099393
9.9601446e-05
8.9331257e-05
8.0080458e-05
7.1754568e-05
6.4266899e-05
5.7537961e-05
5.1494921e-05
4.607112e-05
4.1205666e-05
3.6843045e-05
3.2932787e-05
2.9429107e-05
2.6290571e-05
2.3479727e-05
2.0962768e-05
1.870919e-05
1.669148e-05
1.4884833e-05
1.326688e-05
1.1817473e-05
1.0518448e-05
9.3534597e-06
8.3077829e-06
7.3681707e-06
6.5227094e-06
5.7606737e-06
5.0724493e-06
4.4493714e-06
3.8836751e-06
3.368365e-06
2.8971412e-06
2.4643481e-06
2.0648604e-06
1.6940773e-06
1.3478188e-06
1.0223056e-06
7.1410201e-07
4.2009406e-07
1.3746874e-07
0.00038730446
0.00034984501
0.00031576102
0.00028477974
0.00025664684
0.00023112555
0.00020799579
0.00018705332
0.0001681089
0.00015098745
0.00013552729
0.00012157932
0.00010900624
9.768186e-05
8.7490305e-05
7.8325333e-05
7.0089634e-05
6.2694166e-05
5.6057552e-05
5.0105511e-05
4.4770343e-05
3.9990441e-05
3.5709853e-05
3.187784e-05
2.8448468e-05
2.5380206e-05
2.2635546e-05
2.0180646e-05
1.7984992e-05
1.6021087e-05
1.4264165e-05
1.2691941e-05
1.1284358e-05
1.0023393e-05
8.8928376e-06
7.8781356e-06
6.9662137e-06
6.1453271e-06
5.4049493e-06
4.7356154e-06
4.128842e-06
3.5769974e-06
3.0732177e-06
2.6113332e-06
2.1857692e-06
1.7915048e-06
1.4239938e-06
1.0791202e-06
7.5315343e-07
4.4271421e-07
1.4475639e-07
0.0004196905
0.0003788261
0.0003416709
0.00030792338
0.00027730204
0.00024954493
0.00022440866
0.00020166751
0.00018111246
0.00016255026
0.00014580259
0.00013070511
0.00011710657
0.00010486804
9.3862103e-05
8.3972045e-05
7.5091107e-05
6.7121745e-05
5.9974955e-05
5.3569629e-05
4.7831963e-05
4.2694888e-05
3.8097559e-05
3.3984844e-05
3.0306847e-05
2.701848e-05
2.4079027e-05
2.1451784e-05
1.9103687e-05
1.7004929e-05
1.5128729e-05
1.3450982e-05
1.1950023e-05
1.0606407e-05
9.4026683e-06
8.3231397e-06
7.3537623e-06
6.481923e-06
5.696318e-06
4.9868014e-06
4.3442753e-06
3.7605688e-06
3.2283343e-06
2.7409687e-06
2.2925101e-06
1.8775871e-06
1.4913377e-06
1.1293661e-06
7.8769072e-07
4.6271515e-07
1.5119645e-07
0.00044757141
0.00040375428
0.00036393888
0.00032779807
0.00029502618
0.0002653389
0.00023847227
0.00021418159
0.0001922404
0.00017243947
0.0001545858
0.00013850164
0.00012402365
0.00011100188
9.9298877e-05
8.8788819e-05
7.9356732e-05
7.0897671e-05
6.3315989e-05
5.6524628e-05
5.0444456e-05
4.5003634e-05
4.013705e-05
3.5785759e-05
3.1896435e-05
2.842094e-05
2.5315787e-05
2.2541834e-05
2.0063934e-05
1.785016e-05
1.5872289e-05
1.4104538e-05
1.2523867e-05
1.1109626e-05
9.8432897e-06
8.7082489e-06
7.6896118e-06
6.7740296e-06
5.9495412e-06
5.2054207e-06
4.5320527e-06
3.9208052e-06
3.363924e-06
2.8544363e-06
2.3860561e-06
1.9531122e-06
1.5504803e-06
1.1735268e-06
8.1806361e-07
4.803091e-07
1.5686163e-07
0.00047140004
0.00042504824
0.00038295315
0.00034476296
0.0003101507
0.00027881266
0.000250467
0.00022485258
0.00020172788
0.00018086983
0.00016207284
0.00014514765
0.00012992042
0.00011623165
0.00010393522
9.2897524e-05
8.2996532e-05
7.4120962e-05
6.616948e-05
5.904992e-05
5.2678584e-05
4.6979558e-05
4.1884063e-05
3.732987e-05
3.3260767e-05
2.962599e-05
2.6379823e-05
2.3481029e-05
2.0892388e-05
1.8580753e-05
1.6515827e-05
1.4670859e-05
1.3021721e-05
1.1546752e-05
1.0226529e-05
9.0436456e-06
7.9825008e-06
7.0291198e-06
6.1709819e-06
5.3968672e-06
4.696718e-06
4.0615108e-06
3.483143e-06
2.9543291e-06
2.4685043e-06
2.0197471e-06
1.6027073e-06
1.212553e-06
8.449186e-07
4.9587184e-07
1.618735e-07
0.00049180519
0.00044329926
0.00039925741
0.00035931545
0.00032312957
0.00029037969
0.00026076874
0.00023402157
0.00020988376
0.0001881205
0.00016851539
0.00015086941
0.00013499974
0.00012073877
0.00010793305
9.6442321e-05
8.6138545e-05
7.6905042e-05
6.8635622e-05
6.1233763e-05
5.461186e-05
4.8690497e-05
4.3397774e-05
3.8668666e-05
3.444446e-05
3.0672173e-05
2.7304067e-05
2.429714e-05
2.1612692e-05
1.9215988e-05
1.7075782e-05
1.5164066e-05
1.345571e-05
1.1928181e-05
1.056128e-05
9.3369184e-06
8.2388861e-06
7.2526696e-06
6.3652676e-06
5.5650341e-06
4.841532e-06
4.1853995e-06
3.5882346e-06
3.0424828e-06
2.5413412e-06
2.0786713e-06
1.6489324e-06
1.2471212e-06
8.6872356e-07
5.0967414e-07
1.6632046e-07
0.00050946456
0.00045909359
0.00041337387
0.0003719226
0.00033438036
0.00030041288
0.00026971006
0.00024198475
0.00021697155
0.00019442558
0.00017412124
0.00015585112
0.00013942477
0.00012466764
0.00011142
9.9535894e-05
8.8882151e-05
7.9337459e-05
7.0791453e-05
6.3143869e-05
5.6303736e-05
5.0188626e-05
4.472394e-05
3.9842249e-05
3.5482675e-05
3.1590314e-05
2.81157e-05
2.5014306e-05
2.2246088e-05
1.9775072e-05
1.7568955e-05
1.5598756e-05
1.3838485e-05
1.2264851e-05
1.0856984e-05
9.5961944e-06
8.4657451e-06
7.4506502e-06
6.5374899e-06
5.7142446e-06
4.970146e-06
4.295536e-06
3.6817513e-06
3.121002e-06
2.606277e-06
2.1312505e-06
1.6902145e-06
1.2780176e-06
8.9001473e-07
5.2202828e-07
1.7030315e-07
0.0005249636
0.00047296915
0.00042578555
0.00038301613
0.00034428823
0.00030925543
0.0002775964
0.00024901372
0.00022323249
0.00019999915
0.0001790802
0.00016026096
0.00014334439
0.00012814997
0.0001145125
0.00010228109
9.1318138e-05
8.1498289e-05
7.2707553e-05
6.4842397e-05
5.7808918e-05
5.152205e-05
4.5904836e-05
4.088773e-05
3.6407963e-05
3.2408936e-05
2.8839673e-05
2.5654298e-05
2.2811569e-05
2.0274436e-05
1.8009644e-05
1.598736e-05
1.4180839e-05
1.2566117e-05
1.1121729e-05
9.8284547e-06
8.669085e-06
7.6282158e-06
6.6920534e-06
5.8482477e-06
5.085733e-06
4.3945902e-06
3.7659196e-06
3.1917256e-06
2.664809e-06
2.1786794e-06
1.7274798e-06
1.305928e-06
9.0926312e-07
5.3320467e-07
1.7390882e-07
0.00053881192
0.00048537801
0.00043689481
0.00039295386
0.0003531711
0.0003171895
0.000284678
0.00025533015
0.0002288628
0.0002050148
0.0001835457
0.00016423446
0.00014687829
0.00013129134
0.00011730366
0.00010476001
9.3518826e-05
8.3451214e-05
7.4439962e-05
6.6378639e-05
5.917073e-05
5.2728829e-05
4.6973869e-05
4.183442e-05
3.7246015e-05
3.3150545e-05
2.9495676e-05
2.6234325e-05
2.3324167e-05
2.0727191e-05
1.8409279e-05
1.6339837e-05
1.4491435e-05
1.2839504e-05
1.1362039e-05
1.003934e-05
8.8537713e-06
7.7895488e-06
6.8325427e-06
5.970099e-06
5.1908874e-06
4.4847464e-06
3.8425679e-06
3.2561635e-06
2.7181691e-06
2.2219416e-06
1.7614917e-06
1.3314178e-06
9.2685309e-07
5.4342627e-07
1.7720882e-07
0.00055140639
0.00049667247
0.00044701428
0.00040201303
0.00036127458
0.00032443252
0.00029114713
0.00026110399
0.00023401259
0.00020960501
0.00018763461
0.0001678747
0.00015011727
0.00013417178
0.00011986396
0.00010703467
9.5538806e-05
8.5244257e-05
7.6030913e-05
6.778972e-05
6.0421803e-05
5.3837626e-05
4.7956212e-05
4.2704411e-05
3.8016219e-05
3.3832141e-05
3.0098611e-05
2.6767436e-05
2.3795308e-05
2.1143328e-05
1.8776596e-05
1.666381e-05
1.477692e-05
1.3090796e-05
1.1582939e-05
1.0233206e-05
9.0235704e-06
7.9378974e-06
6.9617449e-06
6.0821843e-06
5.287635e-06
4.5677191e-06
3.9131292e-06
3.3155054e-06
2.7673271e-06
2.2618131e-06
1.7928523e-06
1.3549317e-06
9.4309026e-07
5.528675e-07
1.8025915e-07
0.00056303994
0.00050711215
0.00045637389
0.00041039711
0.00036877857
0.00033114343
0.00029714416
0.0002664591
0.00023879109
0.00021386608
0.0001914318
0.00017125639
0.00015312714
0.0001368492
0.00012224437
0.00010914993
9.7417543e-05
8.6912139e-05
7.7510946e-05
6.9102502e-05
6.1585757e-05
5.4869211e-05
4.8870123e-05
4.3513754e-05
3.8732676e-05
3.4466115e-05
3.0659356e-05
2.7263184e-05
2.4233368e-05
2.1530194e-05
1.9118026e-05
1.6964912e-05
1.5042214e-05
1.3324289e-05
1.178817e-05
1.0413306e-05
9.1813012e-06
8.0756969e-06
7.0817584e-06
6.1863001e-06
5.3775091e-06
4.6448043e-06
3.9786928e-06
3.3706546e-06
2.8130213e-06
2.2988858e-06
1.8220195e-06
1.376811e-06
9.5820475e-07
5.6166172e-07
1.831023e-07
0.0005739192
0.00051687993
0.00046513536
0.00041824901
0.00037580928
0.00033743363
0.00030276733
0.00027148209
0.00024327461
0.00021786522
0.00019499644
0.00017443167
0.0001559538
0.00013936401
0.00012448045
0.0001111371
9.9182587e-05
8.8479113e-05
7.8901415e-05
7.0335788e-05
6.2679146e-05
5.5838163e-05
4.9728439e-05
4.4273755e-05
3.9405343e-05
3.5061231e-05
3.1185628e-05
2.7728355e-05
2.4644321e-05
2.1893037e-05
1.9438182e-05
1.7247185e-05
1.5290865e-05
1.3543082e-05
1.1980443e-05
1.0581999e-05
9.3290175e-06
8.2047241e-06
7.1941189e-06
6.283764e-06
5.4616371e-06
4.7169567e-06
4.0400632e-06
3.4222778e-06
2.8557995e-06
2.3335959e-06
1.849335e-06
1.3973053e-06
9.7236932e-07
5.6990711e-07
1.8576953e-07
0.00058418482
0.0005261001
0.00047340847
0.00042566561
0.00038245221
0.00034337849
0.00030808307
0.00027623148
0.00024751473
0.00022164786
0.00019836855
0.00017743573
0.00015862825
0.00014174351
0.00012659627
0.00011301737
0.00010085262
8.9961641e-05
8.0216837e-05
7.1502377e-05
6.3713267e-05
5.6754444e-05
5.0539957e-05
4.4992176e-05
4.0041071e-05
3.5623537e-05
3.1682764e-05
2.8167662e-05
2.5032319e-05
2.2235521e-05
1.9740288e-05
1.7513472e-05
1.5525365e-05
1.3749371e-05
1.2161674e-05
1.0740967e-05
9.4681796e-06
8.3262552e-06
7.2999253e-06
6.375529e-06
5.540831e-06
4.7848725e-06
4.0978236e-06
3.4708657e-06
2.8960597e-06
2.3662673e-06
1.8750456e-06
1.4166013e-06
9.8570799e-07
5.7767514e-07
1.8828354e-07
0.00059392954
0.00053485464
0.00048126561
0.0004327108
0.00038876364
0.00034902763
0.00031313511
0.00028074582
0.00025154538
0.00022524388
0.00020157445
0.00018029181
0.00016117094
0.00014400573
0.0001286077
0.00011480476
0.00010244001
9.1370651e-05
8.1466858e-05
7.2610798e-05
6.4695653e-05
5.7624723e-05
5.1310571e-05
4.5674233e-05
4.0644478e-05
3.615712e-05
3.2154382e-05
2.8584303e-05
2.5400197e-05
2.2560149e-05
2.0026561e-05
1.7765726e-05
1.5747445e-05
1.3944674e-05
1.2333207e-05
1.0891384e-05
9.5998237e-06
8.4411896e-06
7.3999681e-06
6.4622762e-06
5.6156842e-06
4.8490551e-06
4.1524073e-06
3.5167731e-06
2.9341016e-06
2.3971317e-06
1.8993386e-06
1.4348314e-06
9.983136e-07
5.8501801e-07
1.906608e-07
0.00060321341
0.00054319642
0.00048875335
0.00043942562
0.00039477978
0.00035441295
0.00031795156
0.00028504985
0.00025538837
0.00022867252
0.00020463109
0.00018301483
0.00016359505
0.00014616231
0.00013052504
0.00011650835
0.0001039528
9.2713254e-05
8.265778e-05
7.366663e-05
6.5631256e-05
5.8453388e-05
5.2044176e-05
4.6323384e-05
4.1218633e-05
3.6664708e-05
3.2602905e-05
2.8980434e-05
2.5749865e-05
2.2868621e-05
2.0298508e-05
1.8005288e-05
1.5958288e-05
1.4130042e-05
1.2495969e-05
1.1034071e-05
9.7246703e-06
8.5501634e-06
7.4948014e-06
6.5444903e-06
5.6866126e-06
4.9098651e-06
4.2041121e-06
3.5602585e-06
2.9701271e-06
2.4263629e-06
1.9223414e-06
1.4520959e-06
1.0102517e-06
5.9197352e-07
1.9291348e-07
0.00061207406
0.00055115871
0.00049590106
0.00044583597
0.00040052345
0.00035955457
0.00032255015
0.00028915922
0.0002590575
0.00023194594
0.00020754921
0.00018561428
0.00016590898
0.00014822067
0.00013235485
0.00011813397
0.00010539615
9.3994036e-05
8.3793677e-05
7.46735e-05
6.65233e-05
5.9243313e-05
5.2743337e-05
4.6941918e-05
4.176558e-05
3.7148124e-05
3.3029961e-05
2.9357507e-05
2.6082624e-05
2.3162096e-05
2.0557162e-05
1.8233076e-05
1.6158713e-05
1.4306203e-05
1.2650603e-05
1.1169597e-05
9.8432198e-06
8.6536148e-06
7.584807e-06
6.6225012e-06
5.7539003e-06
4.9675408e-06
4.2531444e-06
3.6014875e-06
3.0042819e-06
2.4540724e-06
1.9441482e-06
1.468463e-06
1.0215709e-06
5.9856967e-07
1.9505034e-07
0.00062053539
0.00055876252
0.00050272725
0.00045195816
0.00040600904
0.00036446518
0.00032694208
0.00029308379
0.00026256148
0.00023507184
0.00021033563
0.0001880962
0.00016811808
0.00015018555
0.00013410136
0.00011968538
0.00010677341
9.5215974e-05
8.4877207e-05
7.5633782e-05
6.7373913e-05
5.9996403e-05
5.3409759e-05
4.7531362e-05
4.228669e-05
3.7608598e-05
3.3436654e-05
2.9716514e-05
2.639936e-05
2.3441369e-05
2.0803235e-05
1.8449728e-05
1.6349289e-05
1.4473663e-05
1.279756e-05
1.129836e-05
9.9558237e-06
8.7518523e-06
7.6702543e-06
6.6965424e-06
5.8177481e-06
5.0222552e-06
4.2996492e-06
3.6405852e-06
3.0366674e-06
2.4803462e-06
1.9648255e-06
1.4839837e-06
1.0323055e-06
6.0482604e-07
1.9707754e-07
0.0006286126
0.00056602131
0.0005092438
0.00045780271
0.00041124585
0.000369153
0.00033113459
0.00029683
0.00026590599
0.00023805525
0.0002129948
0.00019046455
0.00017022585
0.00015206009
0.00013576735
0.00012116506
0.0001080868
9.6381072e-05
8.5910167e-05
7.654909e-05
6.8184542e-05
6.0713958e-05
5.4044613e-05
4.8092772e-05
4.2782912e-05
3.8046987e-05
3.3823755e-05
3.0058149e-05
2.6700699e-05
2.3707003e-05
2.1037235e-05
1.86557e-05
1.6530426e-05
1.4632787e-05
1.2937167e-05
1.1420651e-05
1.0062741e-05
8.8451052e-06
7.7513455e-06
6.7667915e-06
5.8783111e-06
5.0741426e-06
4.343742e-06
3.6776488e-06
3.0673647e-06
2.5052488e-06
1.9844236e-06
1.4986945e-06
1.0424808e-06
6.1075697e-07
1.9899968e-07
0.00063631588
0.00057294417
0.00051545881
0.00046337683
0.00041624026
0.00037362369
0.00033513273
0.00030040228
0.00026909499
0.00024089969
0.00021552985
0.00019272211
0.0001722348
0.00015384652
0.00013735482
0.00012257481
0.00010933794
9.7490777e-05
8.689386e-05
7.7420598e-05
6.8956247e-05
6.1396938e-05
5.4648765e-05
4.862693e-05
4.3254954e-05
3.846393e-05
3.4191843e-05
3.0382935e-05
2.6987115e-05
2.3959426e-05
2.1259546e-05
1.8851338e-05
1.6702434e-05
1.4783856e-05
1.3069676e-05
1.1536697e-05
1.0164174e-05
8.933553e-06
7.82824e-06
6.8333893e-06
5.9357131e-06
5.123311e-06
4.3855158e-06
3.7127569e-06
3.0964386e-06
2.5288323e-06
2.0029827e-06
1.5126254e-06
1.0521168e-06
6.1637422e-07
2.0082045e-07
0.00064365268
0.00057953796
0.00052137845
0.00046868604
0.00042099722
0.00037788164
0.00033894035
0.00030380408
0.00027213153
0.00024360788
0.00021794322
0.00019487107
0.00017414688
0.00015554661
0.00013886537
0.00012391606
0.00011052811
9.8546255e-05
8.7829339e-05
7.8249258e-05
6.9689891e-05
6.2046122e-05
5.5222921e-05
4.9134476e-05
4.3703394e-05
3.885995e-05
3.4541392e-05
3.0691301e-05
2.7258995e-05
2.4198988e-05
2.1470485e-05
1.9036928e-05
1.6865571e-05
1.4927103e-05
1.3195295e-05
1.1646684e-05
1.0260289e-05
9.0173454e-06
7.9010711e-06
6.8964541e-06
5.9900584e-06
5.1698517e-06
4.4250496e-06
3.745977e-06
3.123945e-06
2.5511419e-06
2.020538e-06
1.5258023e-06
1.0612314e-06
6.216878e-07
2.0254304e-07
0.00065062868
0.00058580858
0.00052700826
0.00047373526
0.00042552108
0.00038193068
0.00034256088
0.00030703843
0.00027501832
0.00024618224
0.00022023709
0.00019691339
0.00017596385
0.00015716192
0.00014030041
0.0001251901
0.00011165849
9.9548556e-05
8.8717555e-05
7.9035931e-05
7.0386252e-05
6.2662215e-05
5.5767718e-05
4.9615985e-05
4.4128755e-05
3.9235521e-05
3.4872829e-05
3.0983633e-05
2.7516687e-05
2.4426003e-05
2.1670337e-05
1.9212726e-05
1.702007e-05
1.5062736e-05
1.3314211e-05
1.1750781e-05
1.0351238e-05
9.0966164e-06
7.9699579e-06
6.9560912e-06
6.0414397e-06
5.2138458e-06
4.4624135e-06
3.7773685e-06
3.1499335e-06
2.5722176e-06
2.0371208e-06
1.5382486e-06
1.0698405e-06
6.2670696e-07
2.0417043e-07
0.00065724915
0.00059176194
0.00053235425
0.00047852954
0.00042981617
0.0003857746
0.00034599766
0.00031010832
0.00027775802
0.00024862518
0.0002224136
0.00019885099
0.00017768745
0.00015869404
0.00014166137
0.00012639821
0.00011273022
0.00010049872
8.955945e-05
7.9781468e-05
7.1046097e-05
6.3245909e-05
5.6283782e-05
5.0072024e-05
4.4531547e-05
3.9591101e-05
3.5186569e-05
3.1260304e-05
2.776053e-05
2.4640776e-05
2.1859373e-05
1.9378979e-05
1.716615e-05
1.5190951e-05
1.3426602e-05
1.1849145e-05
1.0437159e-05
9.1714911e-06
8.0350113e-06
7.0123988e-06
6.0899432e-06
5.2553682e-06
4.4976721e-06
3.8069865e-06
3.1744501e-06
2.5920973e-06
2.0527608e-06
1.5499865e-06
1.0779595e-06
6.3144057e-07
2.0570543e-07
0.0006635214
0.00059740522
0.00053742258
0.00048307427
0.00043388704
0.00038941736
0.00034925419
0.00031301686
0.00028035344
0.00025093919
0.00022447501
0.00020068591
0.00017931952
0.00016014462
0.00014294973
0.00012754172
0.00011374452
0.00010139785
9.0356004e-05
8.0486751e-05
7.1670223e-05
6.3797921e-05
5.6771759e-05
5.0503173e-05
4.4912291e-05
3.9927162e-05
3.5483034e-05
3.1521695e-05
2.7990862e-05
2.4843612e-05
2.2037869e-05
1.953593e-05
1.730403e-05
1.5311947e-05
1.3532642e-05
1.1941932e-05
1.0518194e-05
9.2420931e-06
8.0963404e-06
7.0654725e-06
6.1356526e-06
5.2944916e-06
4.5308879e-06
3.834884e-06
3.1975391e-06
2.6108169e-06
2.0674867e-06
1.5610374e-06
1.0856031e-06
6.3589724e-07
2.0715082e-07
0.00060274801
0.00054222045
0.00048737494
0.00043773838
0.00039286312
0.00035233419
0.0003157674
0.00028280759
0.000253127
0.00022642376
0.00020242034
0.00018086202
0.00016151543
0.00014416709
0.00012862208
0.00011470267
0.00010224709
9.1108264e-05
8.1152721e-05
7.2259474e-05
6.431901e-05
5.7232329e-05
5.0910042e-05
4.5271536e-05
4.0244193e-05
3.5762663e-05
3.1768199e-05
2.8208037e-05
2.5034826e-05
2.2206107e-05
1.9683833e-05
1.7433936e-05
1.5425921e-05
1.3632509e-05
1.20293e-05
1.0594481e-05
9.3085453e-06
8.1540535e-06
7.1154074e-06
6.1786506e-06
5.3312877e-06
4.5621225e-06
3.8611133e-06
3.2192442e-06
2.6284122e-06
2.0813266e-06
1.5714229e-06
1.0927863e-06
6.4008552e-07
2.0850937e-07
0.00060779881
0.00054675222
0.00049143636
0.00044137495
0.00039611628
0.00035524167
0.00031836357
0.00028512371
0.00025519152
0.00022826249
0.00020405667
0.00018231711
0.00016280838
0.00014531517
0.00012964083
0.00011560607
0.00010304769
9.1817347e-05
8.178038e-05
7.2814748e-05
6.4809981e-05
5.7666213e-05
5.1293277e-05
4.560986e-05
4.0542711e-05
3.6025919e-05
3.200023e-05
2.8412424e-05
2.5214747e-05
2.2364378e-05
1.9822948e-05
1.7556099e-05
1.5533082e-05
1.3726387e-05
1.2111413e-05
1.0666164e-05
9.3709745e-06
8.2082618e-06
7.1623006e-06
6.2190217e-06
5.3658294e-06
4.5914382e-06
3.8857271e-06
3.2396096e-06
2.6449192e-06
2.0943092e-06
1.5811642e-06
1.0995237e-06
6.4401423e-07
2.0978388e-07
0.00061255987
0.00055102343
0.00049526403
0.00044480192
0.00039918159
0.00035798094
0.00032080925
0.00028730535
0.00025713594
0.00022999405
0.00020559744
0.00018368706
0.00016402556
0.00014639583
0.00013059963
0.0001164562
0.000103801
9.2484447e-05
8.2370797e-05
7.3337002e-05
6.5271688e-05
5.8074175e-05
5.165356e-05
4.5927869e-05
4.082326e-05
3.6273286e-05
3.2218216e-05
2.8604406e-05
2.5383717e-05
2.2512988e-05
1.9953545e-05
1.767076e-05
1.563364e-05
1.3814463e-05
1.2188434e-05
1.0733389e-05
9.4295092e-06
8.259078e-06
7.2062506e-06
6.2568515e-06
5.3981905e-06
4.6188983e-06
3.9087789e-06
3.2586794e-06
2.6603742e-06
2.106463e-06
1.5902832e-06
1.1058307e-06
6.4769186e-07
2.1097719e-07
0.00061703843
0.00055504099
0.00049886419
0.00044802493
0.00040206418
0.00036055664
0.00032310863
0.00028935623
0.00025896362
0.00023162147
0.00020704539
0.00018497433
0.00016516913
0.00014741103
0.00013150025
0.00011725464
0.00010450841
9.3110823e-05
8.2925096e-05
7.382724e-05
6.5705029e-05
5.8457015e-05
5.1991605e-05
4.6226203e-05
4.1086406e-05
3.6505269e-05
3.242261e-05
2.8784383e-05
2.5542091e-05
2.2652251e-05
2.0075904e-05
1.7778166e-05
1.5727817e-05
1.3896932e-05
1.2260537e-05
1.0796307e-05
9.4842823e-06
8.3066184e-06
7.2473587e-06
6.2922278e-06
5.4284467e-06
4.6445673e-06
3.9303234e-06
3.2764996e-06
2.6748142e-06
2.1178176e-06
1.5988018e-06
1.1117222e-06
6.5112774e-07
2.1209214e-07
0.00062124294
0.00055881247
0.00050224357
0.00045105
0.00040476945
0.00036297364
0.0003252661
0.00029128033
0.00026067813
0.00023314795
0.00020840337
0.00018618148
0.00016624141
0.00014836283
0.00013234452
0.00011800304
0.0001051714
9.3697791e-05
8.3444452e-05
7.4286509e-05
6.6110936e-05
5.8815565e-05
5.2308153e-05
4.6505518e-05
4.1332736e-05
3.6722388e-05
3.2613873e-05
2.8952766e-05
2.5690234e-05
2.2782491e-05
2.0190312e-05
1.7878571e-05
1.5815836e-05
1.3973992e-05
1.2327896e-05
1.0855073e-05
9.5354283e-06
8.3510007e-06
7.2857275e-06
6.3252395e-06
5.4566747e-06
4.6685108e-06
3.9504158e-06
3.2931157e-06
2.6882768e-06
2.1284022e-06
1.6067423e-06
1.1172139e-06
6.543303e-07
2.1313172e-07
0.00062518241
0.00056234584
0.00050540926
0.00045388349
0.00040730312
0.00036523706
0.00032728626
0.00029308178
0.00026228317
0.00023457682
0.00020967437
0.00018731119
0.00016724479
0.00014925336
0.00013313436
0.0001187031
0.00010579149
9.4246712e-05
8.393008e-05
7.4715892e-05
6.6490376e-05
5.9150684e-05
5.2603967e-05
4.6766496e-05
4.1562854e-05
3.6925182e-05
3.2792482e-05
2.9109979e-05
2.582852e-05
2.2904042e-05
2.0297063e-05
1.7972236e-05
1.5897928e-05
1.4045846e-05
1.239069e-05
1.0909842e-05
9.5830853e-06
8.3923456e-06
7.321462e-06
6.3559776e-06
5.4829526e-06
4.6907954e-06
3.9691124e-06
3.3085748e-06
2.7007999e-06
2.1382473e-06
1.6141274e-06
1.1223215e-06
6.5730942e-07
2.1409878e-07
0.00062886609
0.00056564935
0.00050836862
0.00045653196
0.00040967107
0.00036735221
0.00032917388
0.00029476486
0.00026378259
0.00023591151
0.00021086148
0.00018836623
0.00016818174
0.00015008484
0.00013387173
0.00011935659
0.00010637026
9.4758983e-05
8.4383223e-05
7.5116497e-05
6.6844332e-05
5.9463249e-05
5.2879827e-05
4.7009828e-05
4.1777374e-05
3.7114193e-05
3.2958921e-05
2.9256449e-05
2.595733e-05
2.3017237e-05
2.0396454e-05
1.8059422e-05
1.5974324e-05
1.4112698e-05
1.2449098e-05
1.0960774e-05
9.6273916e-06
8.4307739e-06
7.3546673e-06
6.3845332e-06
5.5073589e-06
4.711488e-06
3.9864697e-06
3.3229238e-06
2.7124219e-06
2.1473827e-06
1.6209797e-06
1.1270604e-06
6.6007336e-07
2.1499642e-07
0.00063230341
0.00056873138
0.00051112913
0.00045900215
0.00041187934
0.0003693245
0.00033093382
0.00029633394
0.0002651803
0.00023715555
0.00021196785
0.00018934939
0.00016905477
0.00015085952
0.00013455865
0.00011996529
0.00010690929
9.5236029e-05
8.4805149e-05
7.5489452e-05
6.7173809e-05
5.975415e-05
5.3136526e-05
4.7236218e-05
4.197692e-05
3.7289978e-05
3.3113681e-05
2.9392611e-05
2.607705e-05
2.3122419e-05
2.0488786e-05
1.8140397e-05
1.6045259e-05
1.4174756e-05
1.2503302e-05
1.1008027e-05
9.6684873e-06
8.466408e-06
7.38545e-06
6.4109984e-06
5.5299727e-06
4.7306563e-06
4.0025447e-06
3.33621e-06
2.7231813e-06
2.155839e-06
1.6273222e-06
1.1314469e-06
6.6263238e-07
2.1582745e-07
0.0006355039
0.00057160044
0.00051369842
0.00046130087
0.00041393406
0.00037115945
0.00033257104
0.00029779346
0.00026648031
0.0002383125
0.00021299666
0.00019026355
0.00016986643
0.00015157966
0.00013519715
0.00012053101
0.00010741021
9.5679281e-05
8.5197134e-05
7.5835892e-05
6.7479814e-05
6.0024284e-05
5.3374857e-05
4.744637e-05
4.2162118e-05
3.7453089e-05
3.3257251e-05
2.9518901e-05
2.6188062e-05
2.3219928e-05
2.0574361e-05
1.8215426e-05
1.6110967e-05
1.4232224e-05
1.2553485e-05
1.1051762e-05
9.7065118e-06
8.4993694e-06
7.4139158e-06
6.4354647e-06
5.5508727e-06
4.7483672e-06
4.0173939e-06
3.3484804e-06
2.7331162e-06
2.1636462e-06
1.6331774e-06
1.1354962e-06
6.6499446e-07
2.1659502e-07
0.00063847709
0.00057426508
0.00051608415
0.00046343501
0.00041584143
0.00037286263
0.00033409055
0.00029914793
0.00026768662
0.00023938597
0.00021395115
0.00019111157
0.0001706193
0.00015224757
0.00013578926
0.00012105558
0.00010787463
9.6090187e-05
8.5560464e-05
7.6156958e-05
6.7763362e-05
6.0274551e-05
5.359562e-05
4.7640994e-05
4.2333597e-05
3.7604085e-05
3.3390127e-05
2.9635756e-05
2.6290754e-05
2.3310105e-05
2.065348e-05
1.8284774e-05
1.6171683e-05
1.4285311e-05
1.2599827e-05
1.1092137e-05
9.7416045e-06
8.52978e-06
7.4401704e-06
6.4580238e-06
5.5701378e-06
4.7646881e-06
4.031074e-06
3.3597821e-06
2.742265e-06
2.1708347e-06
1.6385681e-06
1.1392244e-06
6.6717004e-07
2.1730186e-07
0.00064123252
0.00057673381
0.00051829397
0.00046541146
0.00041760765
0.00037443962
0.00033549736
0.00030040183
0.00026880327
0.00024037956
0.00021483452
0.00019189633
0.00017131594
0.00015286552
0.00013633703
0.00012154081
0.00010830417
9.647018e-05
8.5896414e-05
7.6453784e-05
6.8025461e-05
6.0505846e-05
5.3799608e-05
4.7820792e-05
4.2491979e-05
3.7743515e-05
3.3512796e-05
2.9743605e-05
2.6385507e-05
2.3393286e-05
2.072644e-05
1.8348706e-05
1.6227638e-05
1.433422e-05
1.2642507e-05
1.112931e-05
9.7739031e-06
8.5577598e-06
7.4643183e-06
6.4787657e-06
5.5878454e-06
4.7796848e-06
4.0436406e-06
3.3701612e-06
2.7506652e-06
2.1774338e-06
1.6435165e-06
1.1426466e-06
6.691667e-07
2.1795115e-07
0.00064377961
0.00057901511
0.00052033548
0.00046723707
0.00041923891
0.00037589599
0.00033679648
0.00030155966
0.00026983429
0.00024129687
0.00021564999
0.0001926207
0.0001719589
0.0001534358
0.0001368425