/*--------------------------------*- C++ -*----------------------------------*\
| =========                 |                                                 |
| \\      /  F ield         | OpenFOAM: The Open Source CFD Toolbox           |
|  \\    /   O peration     | Version:  2312                                  |
|   \\  /    A nd           | Website:  www.openfoam.com                      |
|    \\/     M anipulation  |                                                 |
\*---------------------------------------------------------------------------*/
FoamFile
{
    version     2.0;
    format      ascii;
    arch        "LSB;label=32;scalar=64";
    class       volScalarField;
    location    "0.03";
    object      k;
}
// * * * * * * * * * * * * * * * * * * * * * * * * * * * * * * * * * * * * * //

dimensions      [0 2 -2 0 0 0 0];

internalField   nonuniform List<scalar> 
3257
(
10.912648
10.912379
10.912143
10.911938
10.911765
10.911622
10.911508
10.911417
10.911347
10.91129
10.91125
10.911247
10.91134
10.911646
10.912341
10.913643
10.915756
10.918803
10.922773
10.927509
10.93275
10.938203
10.943608
10.948773
10.953587
10.957997
10.96199
10.965576
10.968776
10.971602
10.974058
10.97616
10.977965
10.979604
10.981231
10.982922
10.984689
10.986465
10.988128
10.989516
10.99071
10.991958
10.993298
10.994899
10.996644
10.998631
10.999734
10.997987
10.986038
10.978839
10.989187
10.751565
10.750223
10.748959
10.747771
10.746658
10.745616
10.744641
10.743727
10.742871
10.742075
10.741366
10.740813
10.740568
10.740884
10.742117
10.744674
10.748897
10.754939
10.762667
10.771666
10.781342
10.791072
10.800338
10.808784
10.816206
10.822512
10.827688
10.831761
10.834784
10.836847
10.838078
10.838663
10.838835
10.838883
10.839032
10.839358
10.839886
10.840695
10.84188
10.843489
10.845646
10.848441
10.85183
10.856039
10.861652
10.869659
10.881054
10.896852
10.917501
10.944042
10.97916
10.589717
10.586797
10.583987
10.581283
10.57868
10.576172
10.573754
10.571423
10.569178
10.567027
10.565005
10.563188
10.561726
10.560849
10.560857
10.562055
10.564649
10.568637
10.573743
10.579459
10.585172
10.59033
10.594559
10.597695
10.59975
10.600846
10.601165
10.600913
10.600314
10.599604
10.59904
10.598898
10.599464
10.601013
10.603752
10.607831
10.613384
10.620585
10.62965
10.640777
10.654156
10.669943
10.688265
10.709389
10.733749
10.761866
10.794207
10.831192
10.873107
10.920044
10.971918
10.409952
10.405115
10.400432
10.395897
10.391507
10.387257
10.383147
10.379177
10.375351
10.371683
10.368203
10.364969
10.362085
10.359697
10.357977
10.357079
10.357066
10.357854
10.359194
10.360719
10.362058
10.362951
10.363315
10.363247
10.362968
10.362761
10.362917
10.363713
10.365399
10.368208
10.372356
10.378051
10.385485
10.394818
10.406173
10.419649
10.435349
10.453391
10.473927
10.497131
10.523161
10.552123
10.584119
10.619294
10.65784
10.699955
10.745801
10.795494
10.84908
10.90651
10.967619
10.195647
10.189067
10.182721
10.176612
10.170739
10.165105
10.159719
10.154592
10.14974
10.145184
10.140957
10.137104
10.133694
10.13081
10.12854
10.12695
10.12605
10.125778
10.125998
10.126553
10.127325
10.128295
10.129568
10.131355
10.133926
10.137564
10.142526
10.149034
10.157272
10.16739
10.179516
10.193757
10.210209
10.228944
10.250023
10.273492
10.299408
10.327846
10.358895
10.392655
10.429218
10.468664
10.511066
10.556502
10.605055
10.656797
10.711781
10.770034
10.831559
10.89633
10.964302
9.9355798
9.9281191
9.9210299
9.9143242
9.9080098
9.9021015
9.8966205
9.8915933
9.8870507
9.8830286
9.8795692
9.8767214
9.8745421
9.8730921
9.8724292
9.8725923
9.8735974
9.8754296
9.8780577
9.8814609
9.8856625
9.8907515
9.8968846
9.9042654
9.9131138
9.9236378
9.9360155
9.9503896
9.9668691
9.9855365
10.006454
10.029672
10.05523
10.083165
10.113506
10.146281
10.181524
10.219278
10.259597
10.302537
10.348158
10.396514
10.447657
10.501634
10.558487
10.618248
10.680937
10.746565
10.815137
10.886656
10.961125
9.628418
9.6215707
9.6152847
9.6095837
9.6044838
9.6000111
9.5961992
9.5930881
9.590723
9.5891538
9.5884346
9.5886211
9.5897742
9.5919528
9.5952103
9.5995897
9.6051217
9.6118268
9.6197259
9.6288549
9.6392795
9.6511012
9.6644527
9.6794835
9.6963419
9.7151608
9.7360495
9.7590924
9.7843514
9.8118711
9.8416838
9.8738145
9.9082842
9.9451128
9.9843185
10.025921
10.069943
10.116413
10.165364
10.216834
10.270859
10.327479
10.386727
10.448634
10.513226
10.58052
10.65053
10.723265
10.798735
10.876953
10.957933
9.2845697
9.2801551
9.2765228
9.2737055
9.2717251
9.2706156
9.2704164
9.2711766
9.2729492
9.275791
9.2797621
9.2849244
9.2913403
9.2990701
9.3081688
9.318684
9.3306557
9.3441185
9.3591087
9.3756712
9.393866
9.4137697
9.4354717
9.4590655
9.4846405
9.5122747
9.5420319
9.5739606
9.608097
9.6444672
9.6830907
9.723983
9.767158
9.8126289
9.8604091
9.9105131
9.9629576
10.017762
10.074947
10.134538
10.19656
10.261038
10.327996
10.397454
10.469429
10.543936
10.620983
10.700582
10.782745
10.867486
10.954818
8.9241011
8.9238187
8.9245396
8.9263007
8.9291248
8.933046
8.9381069
8.9443561
8.9518467
8.9606347
8.9707788
8.9823386
8.9953735
9.0099408
9.0260929
9.0438766
9.0633322
9.0844956
9.1074011
9.1320856
9.1585915
9.1869671
9.2172649
9.2495378
9.2838353
9.3202008
9.3586698
9.3992698
9.442022
9.4869425
9.5340439
9.5833366
9.6348303
9.6885341
9.7444576
9.8026109
9.8630049
9.9256524
9.9905673
10.057765
10.127263
10.199077
10.273224
10.349719
10.428576
10.509804
10.593414
10.679418
10.767827
10.858656
10.951913
8.5714737
8.5764935
8.5827093
8.5901561
8.5988536
8.6088319
8.6201295
8.6327901
8.6468605
8.6623904
8.6794311
8.6980344
8.7182523
8.7401345
8.7637271
8.7890715
8.8162038
8.8451555
8.8759548
8.908629
8.9432057
8.9797133
9.0181809
9.0586371
9.1011077
9.1456158
9.19218
9.2408157
9.2915342
9.3443451
9.3992548
9.4562699
9.5153962
9.5766389
9.6400034
9.7054953
9.7731206
9.8428864
9.9148008
9.9888733
10.065115
10.143537
10.224151
10.30697
10.392004
10.479264
10.568758
10.6605
10.7545
10.850772
10.949322
8.2492607
8.2600052
8.2720927
8.2855531
8.3004004
8.3166585
8.3343585
8.3535359
8.3742293
8.3964792
8.4203276
8.4458175
8.4729914
8.5018901
8.5325519
8.5650118
8.5993004
8.6354444
8.6734668
8.7133882
8.7552278
8.7990028
8.8447304
8.8924266
8.9421044
8.9937768
9.0474524
9.1031398
9.1608452
9.2205732
9.2823218
9.3460956
9.4118968
9.4797269
9.5495866
9.6214772
9.6954
9.7713572
9.8493524
9.9293904
10.011478
10.095622
10.181833
10.27012
10.360494
10.452963
10.547536
10.644226
10.743042
10.843997
10.947097
7.9733165
7.9894848
8.0070954
8.0261734
8.0467272
8.0687733
8.092335
8.1174394
8.1441165
8.1723982
8.2023179
8.2339097
8.2672079
8.302246
8.3390557
8.3776665
8.4181046
8.4603933
8.5045528
8.5506004
8.5985512
8.6484187
8.7002143
8.7539471
8.8096265
8.8672577
8.9268473
8.9883976
9.05191
9.1173846
9.1848261
9.2542314
9.325597
9.39892
9.474197
9.5514248
9.6306007
9.7117227
9.7947902
9.8798043
9.9667681
10.055687
10.146567
10.239417
10.334245
10.43106
10.529871
10.630686
10.733515
10.838368
10.945251
7.7508717
7.7716282
7.7939037
7.8177082
7.8430418
7.8699137
7.8983402
7.9283415
7.9599405
7.9931623
8.0280337
8.0645824
8.1028368
8.1428252
8.1845749
8.2281116
8.2734591
8.3206388
8.36967
8.4205691
8.4733503
8.5280258
8.5846058
8.6430983
8.7035101
8.7658456
8.830108
8.8962986
8.9644176
9.0344632
9.1064328
9.1803214
9.256123
9.3338312
9.4134391
9.4949396
9.5783262
9.6635932
9.7507363
9.8397534
9.9306443
10.023412
10.11806
10.214596
10.313025
10.413356
10.515595
10.619748
10.725822
10.833825
10.943762
7.581166
7.6054947
7.6313779
7.658821
7.6878206
7.7183815
7.7505152
7.7842371
7.8195654
7.8565208
7.8951256
7.9354037
7.9773801
8.0210798
8.0665278
8.1137481
8.1627635
8.2135949
8.2662617
8.3207807
8.3771667
8.4354326
8.4955887
8.5576436
8.6216037
8.6874731
8.7552543
8.8249476
8.8965514
8.9700622
9.0454745
9.1227814
9.2019743
9.283044
9.3659803
9.4507729
9.537412
9.6258885
9.7161949
9.8083258
9.9022784
9.9980526
10.09565
10.195076
10.296334
10.399429
10.504365
10.611147
10.719776
10.830258
10.942595
7.458349
7.485222
7.5136692
7.5436912
7.5752829
7.6084464
7.6431903
7.679527
7.717472
7.7570435
7.7982616
7.8411484
7.885727
7.9320211
7.9800549
8.0298519
8.0814349
8.1348253
8.1900432
8.2471064
8.306031
8.3668308
8.4295175
8.4941004
8.5605863
8.62898
8.6992836
8.7714969
8.8456177
8.9216411
8.9995602
9.0793663
9.1610487
9.2445959
9.329995
9.4172329
9.5062969
9.5971748
9.6898564
9.7843335
9.8806004
9.9786544
10.078495
10.180124
10.283543
10.388754
10.495759
10.604556
10.715146
10.827528
10.941704
7.3741363
7.4026733
7.4327942
7.4644964
7.4977734
7.5326265
7.5690623
7.6070918
7.6467294
7.6879921
7.7308995
7.7754727
7.8217347
7.8697092
7.9194201
7.9708917
8.0241472
8.0792091
8.1360984
8.1948345
8.2554346
8.3179141
8.3822858
8.44856
8.5167447
8.586845
8.6588634
8.7327998
8.8086513
8.8864126
8.9660757
9.0476305
9.1310648
9.2163651
9.3035164
9.3925034
9.4833107
9.575924
9.6703303
9.7665188
9.8644815
9.9642129
10.06571
10.168972
10.273997
10.380786
10.489334
10.599638
10.711693
10.825495
10.941041
7.3199248
7.3494434
7.3805493
7.4132375
7.4475016
7.4833421
7.5207651
7.5597813
7.6004047
7.6426523
7.6865438
7.7321006
7.7793462
7.8283047
7.879001
7.9314601
7.9857064
8.0417635
8.0996538
8.1593979
8.2210148
8.2845208
8.3499302
8.4172545
8.4865025
8.5576802
8.6307905
8.7058335
8.7828062
8.861703
8.9425152
9.0252318
9.1098396
9.1963233
9.2846666
9.3748522
9.4668628
9.560682
9.6562947
9.7536879
9.8528512
9.9537769
10.056459
10.160895
10.267079
10.375008
10.484676
10.596074
10.709194
10.824026
10.940563
7.2880133
7.3180202
7.3496139
7.3827879
7.417536
7.4538589
7.4917628
7.5312584
7.5723601
7.6150854
7.6594547
7.7054903
7.7532163
7.8026581
7.8538416
7.9067929
7.9615376
8.0181008
8.0765061
8.1367755
8.1989293
8.2629852
8.3289587
8.3968623
8.4667058
8.538496
8.6122364
8.6879274
8.7655663
8.8451472
8.9266611
9.0100965
9.0954393
9.1826733
9.2717809
9.3627435
9.4555423
9.5501591
9.6465771
9.7447816
9.8447599
9.9465022
10.050001
10.155249
10.26224
10.370966
10.481418
10.593584
10.707449
10.823002
10.940231
7.2721145
7.302273
7.3340151
7.3673334
7.4022223
7.4386829
7.4767218
7.5163502
7.5575832
7.6004392
7.6449394
7.6911073
7.7389682
7.7885485
7.8398755
7.8929766
7.9478787
8.0046081
8.0631897
8.123647
8.1860013
8.2502717
8.3164748
8.3846243
8.4547308
8.5268018
8.6008415
8.6768506
8.7548267
8.834764
8.9166534
9.000483
9.0862382
9.1739022
9.2634566
9.3548817
9.4481577
9.543265
9.6401855
9.7389028
9.8394027
9.9416733
10.045705
10.151488
10.259013
10.368271
10.479247
10.591926
10.706291
10.822325
10.940013
7.2673166
7.2974104
7.329083
7.3623264
7.3971359
7.4335131
7.4714651
7.5110038
7.5521453
7.5949087
7.6393165
7.6853933
7.7331655
7.7826607
7.8339074
7.8869338
7.9417685
7.998439
8.0569716
8.1173909
8.1797195
8.2439777
8.3101831
8.3783502
8.4484907
8.5206128
8.5947213
8.6708174
8.7488992
8.8289608
8.9109935
8.9949852
9.080921
9.1687839
9.2585545
9.3502129
9.4437382
9.53911
9.636309
9.7353175
9.8361199
9.9387027
10.043054
10.149162
10.257017
10.366603
10.477905
10.590905
10.70558
10.821912
10.939882
7.2700289
7.2999221
7.3313883
7.3644192
7.399011
7.4351658
7.4728915
7.5122006
7.5531101
7.5956404
7.6398147
7.685659
7.7332007
7.7824689
7.833493
7.8863033
7.9409286
7.9973979
8.0557384
8.1159759
8.1781341
8.242234
8.3082944
8.3763306
8.4463549
8.5183764
8.5924005
8.6684288
8.7464598
8.8264881
8.9085047
8.9924978
9.0784526
9.1663516
9.2561756
9.3479039
9.4415153
9.5369886
9.6343037
9.7334418
9.8343863
9.9371221
10.041636
10.147914
10.255943
10.365707
10.477188
10.590362
10.705206
10.821698
10.939815
7.2776875
7.3073007
7.3384804
7.3712185
7.4055116
7.4413628
7.4787804
7.5177779
7.5583732
7.6005875
7.6444453
7.6899735
7.7372008
7.7861572
7.8368734
7.8893805
7.9437089
7.9998883
8.0579472
8.1179123
8.1798081
8.2436567
8.3094774
8.3772867
8.4470974
8.5189191
8.5927579
8.6686161
8.7464922
8.8263814
8.9082751
8.9921614
9.0780255
9.16585
9.2556155
9.3473009
9.4408847
9.5363452
9.6336618
9.7328148
9.8337865
9.9365608
10.041123
10.147458
10.25555
10.365381
10.47693
10.590171
10.70508
10.82163
10.939796
7.2884746
7.317765
7.3486152
7.3810171
7.4149682
7.4504721
7.4875378
7.5261798
7.5664164
7.6082702
7.6517665
7.6969332
7.7438001
7.7923983
7.8427596
7.8949158
7.9488986
8.0047386
8.0624651
8.1221058
8.1836861
8.2472288
8.3127541
8.3802788
8.4498168
8.521378
8.594969
8.6705927
8.7482479
8.8279302
8.9096312
8.9933392
9.0790397
9.1667152
9.2563462
9.3479117
9.4413898
9.5367585
9.6339967
9.7330841
9.8340022
9.9367339
10.041263
10.147574
10.255648
10.365466
10.477004
10.590236
10.705133
10.821667
10.939811
7.3011315
7.3300799
7.3605811
7.3926274
7.4262171
7.4613541
7.4980483
7.5363148
7.576173
7.6176461
7.6607605
7.705545
7.7520303
7.8002486
7.8502326
7.9020151
7.9556285
8.0111045
8.0684733
8.1277631
8.1890002
8.2522081
8.3174076
8.3846163
8.4538484
8.5251145
8.5984216
8.6737729
8.7511678
8.830602
8.9120676
8.9955531
9.081044
9.168523
9.2579707
9.3493659
9.4426867
9.537911
9.635017
9.7339841
9.8347932
9.9374262
10.041866
10.148095
10.256095
10.365844
10.477316
10.590483
10.705314
10.821779
10.93985
7.314798
7.3433996
7.3735471
7.4052334
7.4384569
7.4732226
7.5095408
7.5474274
7.5869024
7.6279901
7.6707175
7.7151146
7.7612128
7.8090453
7.8586455
7.9100473
7.9632838
8.0183875
8.0753893
8.1343182
8.1952011
8.2580622
8.3229228
8.3898011
8.4587116
8.5296656
8.6026705
8.6777298
8.7548432
8.8340068
8.9152129
8.9984502
9.0837045
9.1709585
9.260193
9.3513869
9.444518
9.539564
9.6365031
9.7353142
9.8359776
9.9384745
10.042787
10.148897
10.256783
10.366423
10.47779
10.590854
10.705582
10.821943
10.939906
7.3288923
7.3571512
7.3869495
7.41828
7.4511421
7.4855411
7.5214881
7.5589994
7.5980961
7.638803
7.6811481
7.7251621
7.7708774
7.8183278
7.8675478
7.9185718
7.9714339
8.0261672
8.0828032
8.1413718
8.2019002
8.2644134
8.328933
8.3954778
8.4640627
8.5346995
8.6073957
8.6821554
8.7589786
8.8378615
8.9187968
9.0017733
9.0867771
9.1737911
9.262796
9.3537707
9.4466933
9.5415412
9.6382923
9.7369254
9.83742
9.9397571
10.043918
10.149882
10.25763
10.367136
10.478372
10.591307
10.705908
10.82214
10.939973
7.3430248
7.3709508
7.4004093
7.431394
7.4639046
7.4979471
7.5335331
7.5706797
7.6094084
7.6497449
7.6917179
7.735359
7.7807013
7.8277794
7.8766286
7.927284
7.9797804
8.0341515
8.0904295
8.1486448
8.2088253
8.2709963
8.33518
8.4013955
8.4696582
8.5399802
8.6123693
8.6868299
8.7633623
8.841963
8.9226248
9.0053368
9.0900853
9.1768532
9.2656214
9.3563689
9.4490737
9.5437132
9.6402651
9.7387078
9.8390207
9.941184
10.045178
10.150983
10.258576
10.367932
10.479022
10.591812
10.706269
10.822358
10.940047
7.3569384
7.3845438
7.4136754
7.4443271
7.4764994
7.5101988
7.5454373
7.5822326
7.620607
7.6605867
7.7022013
7.745483
7.7904657
7.8371848
7.8856761
7.9359756
7.9881187
8.0421396
8.0980713
8.1559445
8.2157877
8.2776265
8.3414838
8.4073788
8.4753274
8.5453419
8.6174306
8.6915979
8.7678444
8.8461669
8.9265583
9.009008
9.0935023
9.1800245
9.2685554
9.3590741
9.4515586
9.5459862
9.6423346
9.7405818
9.8407069
9.9426896
10.04651
10.152146
10.259576
10.368774
10.479708
10.592345
10.70665
10.822588
10.940124
7.3704654
7.3977644
7.4265834
7.4569169
7.4887659
7.5221372
7.5570435
7.5935029
7.6315383
7.6711766
7.7124482
7.7553859
7.8000243
7.8463995
7.894548
7.9445064
7.9963106
8.0499956
8.1055948
8.1631393
8.2226583
8.2841776
8.3477205
8.4133067
8.4809522
8.5506696
8.6224675
8.6963506
8.7723196
8.8503715
8.9304995
9.012693
9.0969386
9.1832195
9.2715168
9.3618096
9.4540758
9.5482928
9.6444381
9.7424895
9.8424257
9.9442261
10.04787
10.153336
10.2606
10.369634
10.480409
10.592889
10.707038
10.822821
10.940202
7.3834995
7.4105068
7.4390286
7.4690596
7.5006011
7.5336603
7.5682505
7.6043902
7.6421029
7.6814162
7.7223611
7.764971
7.8092813
7.8553287
7.9031504
7.9527834
8.0042644
8.0576289
8.1129106
8.1701413
8.2293504
8.2905643
8.3538064
8.4190969
8.486452
8.5558846
8.6274034
8.7010133
8.7767154
8.8545067
8.9343804
9.0163265
9.1003312
9.1863781
9.2744484
9.3645212
9.4565743
9.5505852
9.6465312
9.7443899
9.8441398
9.9457597
10.049229
10.154524
10.261622
10.370494
10.48111
10.593432
10.707425
10.823053
10.940279
7.422706
7.4509468
7.4806916
7.5119418
7.5447053
7.5789957
7.6148322
7.6522387
7.6912436
7.7318784
7.7741772
7.818176
7.8639121
7.9114233
7.9607472
8.0119211
8.0649808
8.1199606
8.1768929
8.2358071
8.2967303
8.3596862
8.4246949
8.4917733
8.5609342
8.6321866
8.7055358
8.7809826
8.8585245
8.9381549
9.0198636
9.1036371
9.1894591
9.2773108
9.3671714
9.4590187
9.5528301
9.6485828
9.7462542
9.8458226
9.9472664
10.050564
10.155693
10.262628
10.37134
10.481798
10.593966
10.707805
10.823281
10.940355
7.4343251
7.4623018
7.4917767
7.5227519
7.5552359
7.589243
7.6247926
7.6619096
7.7006226
7.7409639
7.7829681
7.826672
7.8721133
7.9193303
7.9683614
8.0192442
8.0720151
8.1267089
8.1833581
8.2419928
8.3026403
8.3653244
8.4300658
8.4968814
8.5657843
8.6367837
8.7098849
8.785089
8.8623936
8.941792
9.0232744
9.1068274
9.1924346
9.2800773
9.3697348
9.4613849
9.5550048
9.6505716
9.7480627
9.847456
9.9487296
10.051862
10.156829
10.263605
10.372162
10.482468
10.594484
10.708174
10.823502
10.940429
7.4453491
7.473077
7.5022978
7.5330139
7.5652345
7.5989742
7.6342533
7.6710969
7.7095344
7.7495985
7.7913245
7.8347497
7.8799124
7.9268515
7.9756058
8.0262135
8.0787114
8.1331346
8.1895162
8.2478865
8.3082731
8.3707002
8.4351886
8.5017555
8.5704142
8.6411739
8.7140402
8.7890143
8.8660938
8.9452724
9.0265401
9.1098836
9.1952867
9.2827306
9.3721947
9.4636568
9.5570941
9.6524835
9.7498022
9.8490279
9.9501383
10.053111
10.157923
10.264547
10.372954
10.483112
10.594983
10.70853
10.823714
10.9405
7.4557746
7.4832687
7.5122505
7.5427229
7.5746957
7.6081838
7.6432081
7.6797942
7.7179721
7.757775
7.7992388
7.8424012
7.8873012
7.9339782
7.9824715
8.0328196
8.0850598
8.1392278
8.1953568
8.2534777
8.313618
8.3758025
8.4400522
8.5063842
8.5748122
8.6453456
8.71799
8.7927469
8.8696137
8.9485844
9.029649
9.1127943
9.1980043
9.28526
9.3745409
9.4658248
9.5590887
9.6543096
9.7514644
9.8505305
9.9514854
10.054306
10.158969
10.265448
10.373712
10.483729
10.59546
10.708869
10.823917
10.940568
7.465607
7.4928817
7.5216393
7.551883
7.5836229
7.6168747
7.6516595
7.6880035
7.7259373
7.7654944
7.8067115
7.8496267
7.8942794
7.9407097
7.9889571
8.0390608
8.0910585
8.144986
8.2008772
8.258763
8.3186715
8.3806274
8.4446521
8.5107629
8.5789736
8.6492938
8.7217291
8.7962811
8.8729476
8.9517223
9.0325954
9.1155539
9.2005815
9.2876596
9.3767675
9.4678831
9.5609832
9.6560447
9.7530443
9.8519592
9.9527666
10.055443
10.159965
10.266305
10.374433
10.484315
10.595914
10.709192
10.82411
10.940632
7.4748575
7.5019269
7.5304745
7.5605038
7.5920255
7.6250556
7.6596157
7.6957326
7.7334371
7.7727635
7.8137488
7.8564317
7.9008522
7.9470505
7.9950669
8.0449409
8.0967105
8.150412
8.2060795
8.2637443
8.3234347
8.3851757
8.4489888
8.5148917
8.582898
8.6530177
8.7252564
8.7996159
8.8760939
8.9546842
9.0353773
9.11816
9.2030162
9.2899272
9.3788723
9.4698293
9.5627751
9.6576863
9.7545396
9.8533118
9.9539799
10.05652
10.160909
10.267117
10.375116
10.484871
10.596344
10.709497
10.824293
10.940692
7.4835415
7.5104191
7.5387703
7.5685992
7.5999167
7.6327393
7.667089
7.702993
7.7404827
7.7795928
7.8203608
7.8628258
7.9070283
7.953009
8.0008086
8.050467
8.1020225
8.1555119
8.2109694
8.2684268
8.3279125
8.3894518
8.4530663
8.5187739
8.5865885
8.65652
8.7285742
8.8027529
8.879054
8.9574714
9.0379955
9.1206133
9.2053085
9.2920626
9.3808549
9.471663
9.5644639
9.659234
9.7559497
9.8545876
9.9551246
10.057537
10.161799
10.267884
10.375761
10.485395
10.59675
10.709785
10.824465
10.940749
7.4916771
7.5183758
7.5465439
7.5761856
7.6073124
7.639941
7.6740939
7.7097988
7.7470875
7.7859952
7.8265598
7.8688208
7.9128192
7.9585961
8.0061926
8.0556489
8.1070039
8.1602944
8.2155552
8.2728181
8.332112
8.3934622
8.4568907
8.5224153
8.5900501
8.6598053
8.7316866
8.805696
8.8818315
8.9600869
9.0404528
9.122916
9.2074606
9.2940678
9.3827169
9.4733857
9.5660507
9.6606885
9.7572752
9.8557873
9.9562012
10.058493
10.162637
10.268605
10.376367
10.485888
10.597131
10.710056
10.824626
10.940803
7.499284
7.5258163
7.5538139
7.5832813
7.6142301
7.6466777
7.680647
7.716166
7.753267
7.7919855
7.8323599
7.8744303
7.9182378
7.9638241
8.0112307
8.060498
8.1116653
8.1647698
8.2198465
8.2769275
8.3360419
8.3972152
8.4604695
8.5258229
8.5932897
8.6628798
8.7345995
8.8084506
8.8844312
8.9625352
9.0427531
9.125072
9.2094757
9.2959457
9.384461
9.4749995
9.5675376
9.6620517
9.7585178
9.8569121
9.9572107
10.059389
10.163422
10.269281
10.376936
10.486351
10.597488
10.71031
10.824778
10.940853
7.5063833
7.5327612
7.5606003
7.5899054
7.6206886
7.6529676
7.6867658
7.7221115
7.7590374
7.7975795
7.8377765
7.8796689
7.9232982
7.9687066
8.0159357
8.0650266
8.1160186
8.1689493
8.2238541
8.2807651
8.3397118
8.4007198
8.4638115
8.529005
8.5963147
8.6657509
8.7373196
8.8110229
8.8868588
8.9648216
9.0449015
9.1270856
9.211358
9.2977
9.3860906
9.4765075
9.5689273
9.6633261
9.7596796
9.8579639
9.9581549
10.060228
10.164157
10.269914
10.377468
10.486783
10.597822
10.710547
10.824919
10.9409
7.5129964
7.5392313
7.5669234
7.5960778
7.6267071
7.6588293
7.6924683
7.7276527
7.7644156
7.8027934
7.8428252
7.8845518
7.9280151
7.9732576
8.0203214
8.0692476
8.1200762
8.1728449
8.2275892
8.2843418
8.343132
8.4039859
8.4669258
8.5319703
8.5991336
8.6684261
8.7398541
8.8134197
8.8891209
8.966952
9.0469034
9.1289621
9.2131123
9.299335
9.3876096
9.4779135
9.5702231
9.6645145
9.7607632
9.8589452
9.9590359
10.061011
10.164843
10.270505
10.377964
10.487186
10.598134
10.710768
10.825051
10.940944
7.5191453
7.545248
7.5728039
7.6018185
7.632305
7.6642817
7.6977728
7.7328073
7.7694188
7.8076439
7.847522
7.8890944
7.9324034
7.9774915
8.0244014
8.0731745
8.1238509
8.1764687
8.2310637
8.2876686
8.3463132
8.4070236
8.4698223
8.5347279
8.6017549
8.6709138
8.7422108
8.8156482
8.8912242
8.9689328
9.0487647
9.1307069
9.2147434
9.3008555
9.3890223
9.4792211
9.5714285
9.6656201
9.7617716
9.8598583
9.9598559
10.061739
10.165481
10.271054
10.378426
10.487561
10.598424
10.710973
10.825173
10.940985
7.5248517
7.5508323
7.5782624
7.6071477
7.6375019
7.6693437
7.7026976
7.7375932
7.7740642
7.8121476
7.8518832
7.8933124
7.936478
7.9814228
8.0281897
8.0768204
8.1273554
8.1798331
8.2342892
8.290757
8.3492662
8.4098431
8.4725105
8.5372871
8.6041874
8.6732221
8.7443976
8.817716
8.8931756
8.9707706
9.0504916
9.1323257
9.2162569
9.3022663
9.3903331
9.4804347
9.5725473
9.6666464
9.7627077
9.8607062
9.9606172
10.062415
10.166074
10.271564
10.378854
10.48791
10.598692
10.711164
10.825287
10.941022
7.5301371
7.5560055
7.5833195
7.6120853
7.642317
7.674034
7.707261
7.742028
7.7783689
7.8163211
7.8559246
7.8972212
7.9402538
7.9850658
8.0317001
8.0801988
8.1306027
8.1829502
8.2372776
8.2936181
8.3520016
8.4124548
8.4750004
8.5396573
8.6064401
8.6753597
8.7464223
8.8196304
8.8949821
8.9724719
9.0520902
9.1338242
9.2176579
9.3035723
9.3915467
9.4815583
9.5735832
9.6675969
9.7635746
9.8614915
9.9613225
10.063042
10.166623
10.272037
10.379252
10.488232
10.598941
10.71134
10.825392
10.941057
7.5350228
7.5607882
7.5879952
7.6166507
7.6467694
7.6783711
7.7114809
7.746129
7.7823497
7.8201807
7.859662
7.900836
7.9437456
7.9884346
8.0349462
8.0833228
8.1336053
8.1858324
8.2400405
8.2962631
8.3545303
8.4148688
8.4773016
8.5418476
8.6085217
8.6773346
8.7482929
8.8213989
8.8966509
8.9740434
9.0535668
9.1352083
9.2189518
9.3047786
9.3926677
9.4825962
9.5745401
9.668475
9.7643757
9.8622172
9.9619743
10.063621
10.167131
10.272474
10.379618
10.48853
10.599171
10.711503
10.825489
10.941089
7.5395297
7.5652007
7.5923093
7.6208632
7.6508776
7.6823729
7.7153747
7.7499133
7.7860232
7.8237423
7.863111
7.9041717
7.9469678
7.9915433
8.0379416
8.0862053
8.1363755
8.1884914
8.2425893
8.2987029
8.3568626
8.4170952
8.4794238
8.5438673
8.6104409
8.6791553
8.7500172
8.8230289
8.8981889
8.9754915
9.0549273
9.1364835
9.2201441
9.3058901
9.3937005
9.4835525
9.575422
9.6692842
9.765114
9.8628861
9.9625751
10.064155
10.167598
10.272876
10.379956
10.488804
10.599382
10.711652
10.825578
10.941118
7.5436779
7.5692628
7.5962811
7.6247413
7.6546598
7.6860572
7.7189596
7.7533974
7.7894053
7.8270215
7.8662865
7.9072429
7.9499345
7.9944053
8.0406991
8.0888588
8.1389257
8.1909389
8.2449352
8.3009483
8.3590089
8.4191437
8.4813761
8.5457252
8.6122061
8.6808297
8.7516027
8.8245276
8.8996028
8.9768227
9.0561779
9.1376557
9.2212398
9.3069116
9.3946498
9.4844315
9.5762326
9.6700281
9.7657927
9.863501
9.9631274
10.064646
10.168028
10.273246
10.380267
10.489056
10.599576
10.71179
10.825659
10.941145
7.5474874
7.5729937
7.5999291
7.6283033
7.6581334
7.689441
7.7222521
7.7565974
7.7925118
7.8300335
7.8692032
7.9100638
7.9526593
7.9970339
8.0432317
8.0912957
8.1412674
8.1931862
8.247089
8.3030097
8.360979
8.421024
8.4831679
8.5474301
8.6138257
8.6823657
8.753057
8.825902
8.9008992
8.9780431
9.0573244
9.1387301
9.2222442
9.3078479
9.3955199
9.4852372
9.5769756
9.6707099
9.7664149
9.8640647
9.9636337
10.065095
10.168422
10.273585
10.380551
10.489287
10.599754
10.711915
10.825734
10.94117
7.5509774
7.5764122
7.6032715
7.6315665
7.6613156
7.6925408
7.7252683
7.7595291
7.7953578
7.8327929
7.8718754
7.9126482
7.9551555
7.9994419
8.0455516
8.0935279
8.1434123
8.1952444
8.2490614
8.3048972
8.3627827
8.4227451
8.4848078
8.5489902
8.6153075
8.6837709
8.7543872
8.827159
8.9020847
8.979159
9.0583725
9.1397122
9.2231623
9.3087036
9.396315
9.4859735
9.5776545
9.6713331
9.7669834
9.8645799
9.9640964
10.065506
10.168782
10.273894
10.380811
10.489497
10.599916
10.71203
10.825802
10.941192
7.5541663
7.5795362
7.6063256
7.6345478
7.6642226
7.6953725
7.7280238
7.7622074
7.797958
7.8353141
7.8743168
7.9150093
7.957436
8.0016417
8.0476708
8.0955667
8.1453712
8.197124
8.2508624
8.3066206
8.3644294
8.4243161
8.4863044
8.5504138
8.6166594
8.6850526
8.7556003
8.828305
8.9031655
8.9801761
9.0593276
9.1406072
9.2239987
9.3094832
9.3970394
9.4866442
9.578273
9.6719006
9.7675013
9.8650491
9.9645177
10.065881
10.16911
10.274176
10.381047
10.489688
10.600063
10.712133
10.825863
10.941212
7.5570724
7.5823829
7.609108
7.6372634
7.6668703
7.6979516
7.7305336
7.7646469
7.8003265
7.8376106
7.8765406
7.9171599
7.9595131
8.0036452
8.0496007
8.0974233
8.1471548
8.1988353
8.252502
8.3081892
8.3659279
8.4257457
8.487666
8.5517086
8.6178888
8.686218
8.756703
8.8293466
8.9041474
8.9811
9.0601951
9.1414198
9.2247581
9.3101909
9.3976969
9.4872529
9.5788343
9.6724157
9.7679713
9.8654748
9.9649
10.06622
10.169407
10.274431
10.381261
10.489861
10.600196
10.712227
10.825919
10.941231
7.5597132
7.5849688
7.6116344
7.6397287
7.6692737
7.7002926
7.7328118
7.7668617
7.8024768
7.8396957
7.8785596
7.9191124
7.9613987
8.0054638
8.0513524
8.0991082
8.1487735
8.2003881
8.2539894
8.309612
8.367287
8.4270419
8.4889004
8.5528822
8.6190029
8.6872737
8.7577018
8.8302898
8.9050364
8.9819363
9.0609801
9.142155
9.225445
9.3108309
9.3982914
9.4878033
9.5793418
9.6728813
9.768396
9.8658595
9.9652454
10.066527
10.169675
10.274662
10.381454
10.490017
10.600316
10.712311
10.825968
10.941247
7.5621061
7.5873092
7.6139199
7.6419583
7.6714471
7.7024099
7.7348724
7.768865
7.8044221
7.8415819
7.8803861
7.9208785
7.9631042
8.0071085
8.0529364
8.1006318
8.1502369
8.2017917
8.2553339
8.3108979
8.368515
8.4282129
8.4900152
8.5539419
8.6200085
8.6882265
8.7586028
8.8311404
8.9058379
8.98269
9.0616874
9.1428173
9.2260636
9.3114072
9.3988267
9.4882987
9.5797984
9.6733003
9.7687781
9.8662056
9.965556
10.066802
10.169916
10.274869
10.381627
10.490157
10.600423
10.712387
10.826013
10.941261
7.5642686
7.5894171
7.6159783
7.6439663
7.6734045
7.7043167
7.7367286
7.7706698
7.8061747
7.8432814
7.8820316
7.9224696
7.9646405
8.0085899
8.054363
8.1020038
8.1515545
8.2030554
8.256544
8.312055
8.3696198
8.4292661
8.4910177
8.5548946
8.6209123
8.6890824
8.759412
8.8319041
8.9065573
8.9833663
9.0623219
9.1434112
9.2266182
9.3119237
9.3993063
9.4887425
9.5802075
9.6736755
9.7691202
9.8665153
9.9658339
10.067049
10.170132
10.275053
10.381782
10.490282
10.600519
10.712454
10.826052
10.941274
7.5913076
7.6178231
7.6457659
7.6751588
7.706026
7.7383928
7.7722883
7.8077466
7.8448057
7.8835074
7.9238963
7.9660179
8.009918
8.0556418
8.1032334
8.1527352
8.2041875
8.257628
8.3130914
8.3706091
8.430209
8.4919149
8.5557468
8.6217206
8.6898476
8.7601352
8.8325863
8.9071997
8.98397
9.062888
9.143941
9.2271127
9.3123841
9.3997337
9.4891379
9.5805718
9.6740095
9.7694248
9.866791
9.9660811
10.067268
10.170323
10.275218
10.381919
10.490393
10.600603
10.712513
10.826087
10.941285
7.5929909
7.6194667
7.6473694
7.6767226
7.70755
7.739877
7.7737322
7.8091491
7.8461658
7.8848242
7.9251691
7.9672465
8.0111024
8.0567821
8.1043297
8.1537877
8.2051966
8.2585939
8.3140146
8.3714901
8.4310484
8.4927133
8.5565051
8.6224394
8.6905279
8.7607778
8.8331923
8.90777
8.9845057
9.0633902
9.1444107
9.227551
9.3127921
9.4001123
9.489488
9.5808943
9.6743052
9.7696943
9.8670348
9.9662998
10.067462
10.170493
10.275363
10.38204
10.49049
10.600678
10.712565
10.826117
10.941295
7.5944884
7.6209204
7.6487889
7.6781075
7.7089004
7.7411927
7.7750127
7.8103932
7.8473721
7.8859919
7.9262976
7.9683357
8.0121522
8.0577925
8.105301
8.1547201
8.2060903
8.2594492
8.3148319
8.3722698
8.431791
8.4934195
8.5571754
8.6230746
8.6911287
8.7613451
8.8337269
8.9082729
8.9849779
9.0638326
9.1448243
9.2279369
9.313151
9.4004453
9.4897959
9.5811779
9.6745651
9.7699311
9.867249
9.9664918
10.067632
10.170641
10.27549
10.382146
10.490576
10.600743
10.712611
10.826144
10.941303
7.6221972
7.6500358
7.6793249
7.7100881
7.7423507
7.7761401
7.8114889
7.8484347
7.8870202
7.9272912
7.9692943
8.013076
8.0586816
8.1061555
8.1555401
8.2068761
8.2602011
8.3155501
8.3729548
8.4324431
8.4940393
8.5577635
8.6236315
8.6916553
8.7618421
8.834195
8.908713
8.9853908
9.0642193
9.1451857
9.2282737
9.3134643
9.4007358
9.4900644
9.581425
9.6747916
9.7701374
9.8674355
9.9666589
10.06778
10.17077
10.2756
10.382238
10.49065
10.6008
10.71265
10.826168
10.941311
7.6233049
7.6511211
7.6803854
7.7111238
7.7433613
7.7771248
7.8124462
7.8493631
7.8879183
7.9281586
7.9701311
8.0138821
8.0594572
8.1069007
8.1562552
8.2075612
8.2608564