/*--------------------------------*- C++ -*----------------------------------*\
| =========                 |                                                 |
| \\      /  F ield         | OpenFOAM: The Open Source CFD Toolbox           |
|  \\    /   O peration     | Version:  2312                                  |
|   \\  /    A nd           | Website:  www.openfoam.com                      |
|    \\/     M anipulation  |                                                 |
\*---------------------------------------------------------------------------*/
FoamFile
{
    version     2.0;
    format      ascii;
    arch        "LSB;label=32;scalar=64";
    class       volScalarField;
    location    "0.03";
    object      Ma;
}
// * * * * * * * * * * * * * * * * * * * * * * * * * * * * * * * * * * * * * //

dimensions      [0 0 0 0 0 0 0];

internalField   nonuniform List<scalar> 
3257
(
0.0028835053
0.0028332893
0.0027808117
0.0027260803
0.0026690972
0.0026098621
0.0025483911
0.002484758
0.0024191651
0.0023520446
0.0022841735
0.0022167496
0.0021513514
0.0020897104
0.0020332997
0.0019828849
0.0019382884
0.0018985922
0.0018627314
0.0018301308
0.0018009151
0.0017755344
0.0017540862
0.0017358597
0.0017193648
0.0017027419
0.0016841833
0.0016621734
0.0016355521
0.0016036764
0.0015666302
0.001525209
0.0014803592
0.0014324346
0.0013813906
0.0013266459
0.0012674552
0.0012030067
0.0011335193
0.0010604207
0.00098302796
0.0009023811
0.00082020265
0.00074241702
0.00067803797
0.00064742988
0.00066961785
0.00074947792
0.00085293018
0.0010526442
0.0010971502
0.0029087127
0.0028550019
0.0027990435
0.0027408602
0.0026804691
0.0026178843
0.0025531314
0.0024862718
0.0024174513
0.0023469583
0.002275293
0.0022031898
0.0021315643
0.0020613173
0.0019930513
0.0019267835
0.001861879
0.0017972941
0.001732108
0.0016660224
0.0015995287
0.001533574
0.0014689724
0.0014059089
0.0013438621
0.0012818617
0.0012189086
0.0011542771
0.0010877503
0.0010197472
0.00095138844
0.00088422554
0.00081977939
0.00075962284
0.00070590898
0.0006620276
0.00063273868
0.000622274
0.00063092802
0.00065737684
0.00069981819
0.00075412408
0.0008178758
0.00088721418
0.00095696373
0.0010217629
0.0010811399
0.0011283332
0.0011396248
0.0011285094
0.0011002093
0.0027317776
0.0026789623
0.00262407
0.0025671421
0.0025082162
0.0024473309
0.0023845315
0.0023198819
0.0022534847
0.0021855056
0.002116191
0.0020458549
0.0019748092
0.0019032249
0.0018309639
0.0017574719
0.0016818572
0.0016032095
0.0015210714
0.0014358316
0.0013487951
0.0012618553
0.0011769295
0.001095482
0.0010183591
0.00094597958
0.00087869642
0.00081718452
0.00076269071
0.00071711718
0.00068269375
0.0006612724
0.00065362014
0.00065966718
0.00067931947
0.0007111471
0.00075334607
0.00080490714
0.00086416219
0.00092621563
0.00098631522
0.0010437689
0.0010980196
0.0011479701
0.0011916614
0.0012278761
0.0012550955
0.0012697341
0.0012674928
0.0012515718
0.0012297668
0.0024603766
0.0024101358
0.0023580975
0.0023043264
0.0022488878
0.0021918531
0.0021332993
0.0020733125
0.0020119904
0.0019494453
0.0018857941
0.0018211294
0.0017554569
0.0016886106
0.001620177
0.0015495002
0.0014758351
0.0013986604
0.0013180636
0.0012350202
0.001151405
0.0010696947
0.00099249666
0.00092212646
0.00086040752
0.00080870543
0.00076808656
0.00073943439
0.00072343677
0.00072040062
0.00072998419
0.00075098549
0.00078148905
0.00081959371
0.00086331951
0.00091183475
0.00096449685
0.0010195536
0.0010754166
0.0011296929
0.0011805734
0.0012272533
0.0012690968
0.0013054085
0.0013355027
0.0013588698
0.0013749868
0.0013829794
0.0013830093
0.0013749864
0.0013607257
0.002121019
0.0020749634
0.0020275039
0.0019787339
0.0019287543
0.0018776782
0.0018256283
0.0017727355
0.0017191349
0.0016649599
0.0016103239
0.0015552914
0.0014998331
0.001443781
0.0013868104
0.0013284944
0.0012684659
0.0012066739
0.0011436591
0.0010807172
0.0010198456
0.00096345288
0.00091393232
0.0008732623
0.00084276133
0.00082304208
0.00081410511
0.00081550072
0.00082647114
0.00084605628
0.0008731318
0.00090647004
0.00094488173
0.0009870123
0.0010316642
0.0010783578
0.001126442
0.0011749751
0.0012229543
0.0012691744
0.0013125778
0.0013523698
0.001387955
0.0014188661
0.0014447464
0.0014653509
0.0014804869
0.0014898685
0.0014938599
0.0014909193
0.0014807902
0.0017417751
0.0017014663
0.0016602783
0.0016183413
0.0015758007
0.0015328215
0.0014895836
0.0014462785
0.0014031046
0.0013602582
0.0013179165
0.0012762146
0.0012352167
0.0011948971
0.0011551484
0.0011158459
0.0010769758
0.0010388074
0.0010020429
0.00096785826
0.0009377769
0.00091339223
0.00089603764
0.00088653665
0.00088511728
0.00089149217
0.00090502853
0.00092492708
0.0009503503
0.00098048777
0.0010145706
0.0010518754
0.0010917052
0.0011333427
0.0011761875
0.0012197967
0.0012636769
0.0013072631
0.0013499066
0.0013908864
0.001429508
0.0014651839
0.001497454
0.0015259551
0.0015504014
0.0015705586
0.0015862288
0.001597068
0.0016031027
0.00160212
0.0015931731
0.0013518227
0.0013188405
0.0012856913
0.0012525571
0.0012196437
0.0011871821
0.0011554224
0.0011246278
0.001095068
0.0010670087
0.0010406946
0.0010163299
0.00099405829
0.00097395352
0.00095603319
0.00094030704
0.00092685534
0.00091591518
0.00090792813
0.00090351126
0.00090333816
0.00090797383
0.00091772925
0.0009326002
0.00095229704
0.00097633952
0.001004161
0.0010351931
0.0010689101
0.0011048449
0.001142576
0.0011817159
0.0012218889
0.0012627284
0.0013038975
0.0013450856
0.0013859599
0.0014261451
0.0014652181
0.0015027172
0.0015381901
0.0015712234
0.0016014644
0.001628598
0.0016523293
0.001672359
0.0016883856
0.0016999405
0.0017067288
0.0017062026
0.0016972403
0.00097831847
0.00095468511
0.00093192887
0.00091030422
0.00089009199
0.00087159275
0.00085511235
0.00084094878
0.00082937801
0.00082063728
0.00081490568
0.00081228636
0.00081279591
0.00081636648
0.00082286529
0.00083213421
0.00084403864
0.00085851063
0.00087556326
0.00089526822
0.00091769965
0.00094287235
0.00097069896
0.0010009854
0.0010334545
0.0010677889
0.0011036677
0.0011407947
0.0011789073
0.0012177759
0.0012571918
0.0012969583
0.0013368798
0.0013767622
0.0014164108
0.0014556284
0.0014941974
0.0015318727
0.0015683796
0.0016034189
0.0016366879
0.0016678854
0.0016967236
0.001722905
0.0017461051
0.0017659544
0.0017820594
0.0017938625
0.0018008457
0.0018003434
0.0017912826
0.00064682564
0.00063623385
0.00062816767
0.00062290108
0.00062068823
0.00062173971
0.00062619862
0.00063412737
0.00064550359
0.00066022233
0.00067810305
0.0006988998
0.00072231964
0.00074804537
0.00077575971
0.00080517134
0.00083603819
0.00086818138
0.00090148341
0.00093587226
0.00097129389
0.0010076843
0.0010449524
0.0010829789
0.0011216224
0.0011607343
0.0012001699
0.0012397994
0.0012795092
0.0013192007
0.0013587777
0.0013981378
0.0014371777
0.0014757918
0.0015138678
0.0015512845
0.0015879037
0.0016235669
0.0016580941
0.0016912832
0.0017229169
0.0017527576
0.0017805486
0.0018059939
0.0018287393
0.0018483651
0.0018644174
0.0018762976
0.001883357
0.0018829661
0.0018741984
0.00038942703
0.00040012767
0.00041510936
0.00043406915
0.00045665264
0.00048247536
0.00051114303
0.00054227127
0.0005754995
0.0006104969
0.00064696418
0.00068462685
0.00072323273
0.00076255822
0.0008024101
0.00084262793
0.00088308777
0.00092370216
0.00096441477
0.0010051916
0.0010460082
0.0010868376
0.0011276421
0.0011683755
0.0012089818
0.0012494025
0.0012895774
0.0013294422
0.0013689532
0.0014081037
0.0014468516
0.0014851166
0.001522841
0.0015599698
0.0015964398
0.0016321779
0.0016670969
0.001701092
0.0017340389
0.0017657892
0.0017961704
0.0018249748
0.0018519581
0.0018768186
0.0018991826
0.0019186016
0.0019345935
0.0019465569
0.0019537792
0.0019537734
0.0019457955
0.00027153281
0.00030967474
0.00034938153
0.00039021377
0.00043191358
0.00047430362
0.0005172421
0.00056060837
0.00060429631
0.00064820886
0.00069225337
0.00073634432
0.00078040388
0.00082435689
0.00086813439
0.00091167796
0.0009549425
0.00099789621
0.0010405191
0.0010827998
0.0011247301
0.0011662993
0.0012074928
0.0012482941
0.0012886811
0.001328638
0.0013681258
0.0014070748
0.0014455018
0.0014835006
0.0015210058
0.0015579085
0.0015941877
0.001629828
0.0016647978
0.0016990536
0.0017325384
0.0017651779
0.0017968776
0.0018275157
0.0018569397
0.0018849549
0.0019113187
0.0019357262
0.001957795
0.0019770689
0.0019930609
0.0020051911
0.0020127324
0.0020133999
0.0020066412
0.00032249935
0.00036602757
0.0004100199
0.00045425856
0.00049867779
0.0005432431
0.00058790935
0.00063262668
0.00067734368
0.00072200797
0.00076656675
0.00081096938
0.00085516681
0.00089911057
0.00094275537
0.00098606102
0.0010289937
0.0010715265
0.0011136396
0.0011553177
0.0011965484
0.0012373217
0.0012776275
0.001317452
0.001356781
0.001395594
0.0014338898
0.001471714
0.0015090419
0.0015457402
0.0015817961
0.0016172883
0.0016522084
0.0016865304
0.0017202293
0.0017532738
0.0017856211
0.0018172117
0.0018479645
0.0018777686
0.0019064792
0.0019339052
0.0019598058
0.0019838763
0.0020057382
0.0020249419
0.0020410139
0.0020534097
0.0020614169
0.0020629852
0.0020577483
0.00042472177
0.00046329998
0.00050297176
0.00054355673
0.00058486677
0.0006267287
0.00066900186
0.00071156698
0.00075432098
0.00079717314
0.00084004262
0.00088285687
0.0009255499
0.00096806138
0.001010337
0.0010523286
0.001093994
0.0011352972
0.0011762089
0.0012167048
0.0012567636
0.0012963686
0.001335505
0.0013741572
0.0014123129
0.0014499603
0.0014870949
0.0015237152
0.0015597894
0.0015952753
0.0016301964
0.0016645824
0.001698428
0.0017317216
0.0017644473
0.0017965815
0.0018280884
0.0018589143
0.0018889827
0.0019181862
0.0019463817
0.0019733808
0.0019989449
0.002022777
0.0020445105
0.0020637155
0.002079941
0.0020926854
0.0021012705
0.0021038854
0.0021003433
0.00051392024
0.00054812499
0.00058393534
0.00062107424
0.00065928308
0.00069834546
0.00073807876
0.00077832664
0.00081895431
0.00085984442
0.00090089386
0.00094201131
0.00098311528
0.0010241329
0.001064999
0.0011056559
0.0011460525
0.0011861443
0.0012258937
0.0012652682
0.0013042398
0.0013427851
0.0013808844
0.0014185198
0.0014556771
0.0014923444
0.0015285129
0.0015641729
0.0015993118
0.0016339241
0.0016680199
0.0017016082
0.0017346905
0.0017672626
0.0017993136
0.0018308232
0.0018617579
0.0018920649
0.001921668
0.0019504599
0.001978298
0.0020049968
0.0020303247
0.0020539962
0.0020756654
0.0020949274
0.002111362
0.0021245114
0.0021337408
0.0021374724
0.0021356873
0.0005788546
0.00061044131
0.00064381484
0.00067867933
0.00071477724
0.00075188604
0.00078981183
0.00082838535
0.00086745884
0.00090690262
0.00094660235
0.00098645661
0.0010263751
0.0010662772
0.0011060911
0.0011457526
0.0011852051
0.0012243987
0.0012632903
0.0013018424
0.0013400227
0.001377804
0.0014151631
0.0014520808
0.0014885416
0.0015245331
0.0015600458
0.0015950725
0.0016296091
0.0016636551
0.0016972156
0.0017302968
0.0017629009
0.0017950256
0.001826661
0.0018577868
0.0018883683
0.0019183515
0.0019476581
0.0019761806
0.0020037772
0.0020302683
0.0020554311
0.0020789981
0.0021006459
0.0021200019
0.002136677
0.0021502585
0.0021601583
0.0021650127
0.002164964
0.00062173516
0.00065192955
0.00068396887
0.00071756625
0.00075247016
0.00078845932
0.0008253378
0.00086293275
0.00090109164
0.00093967994
0.00097857827
0.0010176807
0.0010568925
0.0010961293
0.0011353157
0.0011743844
0.0012132757
0.0012519369
0.0012903219
0.0013283907
0.0013661085
0.0014034462
0.001440379
0.0014768868
0.0015129535
0.0015485669
0.0015837179
0.0016184011
0.0016526144
0.0016863589
0.0017196387
0.0017524576
0.0017848174
0.001816714
0.0018481366
0.0018790623
0.0019094542
0.001939255
0.0019683851
0.001996736
0.0020241699
0.002050513
0.0020755571
0.0020990521
0.0021207037
0.0021401695
0.0021570965
0.0021711111
0.0021816737
0.0021876133
0.0021892218
0.00064722383
0.00067684844
0.00070833662
0.00074140685
0.00077581136
0.0008113301
0.00084776755
0.00088494984
0.0009227234
0.00096095166
0.00099951385
0.0010383018
0.0010772198
0.0011161812
0.0011551099
0.0011939368
0.0012326014
0.0012710494
0.0013092339
0.0013471133
0.0013846525
0.0014218209
0.0014585937
0.0014949501
0.0015308742
0.0015663538
0.0016013807
0.0016359499
0.00167006
0.0017037123
0.001736909
0.0017696526
0.0018019416
0.0018337709
0.0018651251
0.0018959796
0.0019262922
0.0019560048
0.0019850343
0.0020132754
0.0020405921
0.0020668227
0.0020917707
0.0021152105
0.0021368724
0.0021564504
0.0021736211
0.0021880517
0.0021992465
0.002206203
0.0022093568
0.00065990407
0.00068951784
0.00072099507
0.00075405573
0.00078845293
0.00082396753
0.000860404
0.00089758908
0.00093536865
0.00097360662
0.0010121814
0.0010509853
0.0010899216
0.0011289048
0.0011678573
0.0012067112
0.0012454048
0.0012838847
0.001322103
0.0013600187
0.0013975958
0.0014348045
0.0014716192
0.0015080199
0.0015439903
0.0015795186
0.0016145969
0.0016492202
0.001683387
0.0017170968
0.0017503511
0.0017831485
0.0018154864
0.0018473539
0.0018787346
0.001909597
0.0019398991
0.0019695766
0.0019985495
0.0020267107
0.0020539343
0.002080065
0.0021049268
0.0021283113
0.0021499814
0.0021696591
0.0021870561
0.0022018716
0.0022136525
0.0022215448
0.002226111
0.00066359129
0.00069357042
0.00072540149
0.0007588031
0.00079352841
0.0008293576
0.00086609582
0.00090356994
0.00094162698
0.00098013105
0.0010189619
0.001058012
0.0010971861
0.0011363987
0.0011755737
0.0012146432
0.0012535468
0.0012922311
0.0013306491
0.0013687599
0.0014065282
0.0014439243
0.0014809229
0.0015175043
0.0015536522
0.0015893553
0.0016246048
0.001659396
0.0016937253
0.0017275921
0.0017609935
0.0017939275
0.0018263854
0.0018583555
0.0018898142
0.0019207299
0.0019510534
0.0019807228
0.0020096545
0.0020377487
0.0020648827
0.0020909163
0.002115687
0.0021390111
0.0021606764
0.0021804367
0.0021980336
0.0022131958
0.0022255124
0.0022342484
0.0022400941
0.00066121704
0.00069181012
0.0007242348
0.00075820854
0.00079348175
0.00082983481
0.0008670728
0.00090502376
0.00094353568
0.00098247416
0.0010217202
0.0010611679
0.0011007233
0.0011403022
0.0011798298
0.0012192393
0.0012584717
0.001297474
0.0013362007
0.0013746111
0.001412671
0.0014503505
0.0014876256
0.0015244758
0.0015608859
0.0015968431
0.0016323394
0.0016673677
0.0017019244
0.001736005
0.001769606
0.0018027198
0.0018353364
0.0018674379
0.0018989992
0.0019299828
0.0019603395
0.0019900044
0.0020188968
0.0020469199
0.0020739597
0.0020998881
0.0021245586
0.0021478104
0.0021694544
0.0021892767
0.0022070431
0.0022225134
0.0022353083
0.0022448038
0.002251792
0.00065492487
0.000686291
0.00071946352
0.00075415454
0.00079011392
0.00082712075
0.00086498132
0.00090352464
0.00094260051
0.00098207638
0.001021835
0.0010617727
0.0011017968
0.0011418253
0.0011817848
0.0012216102
0.0012612433
0.0013006331
0.0013397341
0.0013785075
0.0014169189
0.0014549398
0.0014925456
0.0015297167
0.0015664368
0.0016026937
0.0016384773
0.0016737803
0.0017085961
0.001742919
0.0017767412
0.001810053
0.0018428397
0.0018750804
0.0019067458
0.0019377962
0.0019681802
0.0019978327
0.0020266758
0.0020546166
0.0020815513
0.0021073618
0.0021319211
0.0021550849
0.0021766925
0.0021965529
0.0022144607
0.0022301988
0.002243421
0.0022535898
0.002261599
0.00064622782
0.0006784661
0.00071247836
0.00074797354
0.00078469889
0.00082243441
0.00086098686
0.00090018743
0.00093988785
0.00097995792
0.0010202828
0.0010607607
0.0011013014
0.0011418248
0.0011822592
0.0012225411
0.0012626141
0.0013024279
0.0013419387
0.001381108
0.0014199026
0.0014582938
0.0014962578
0.0015337745
0.0015708275
0.0016074034
0.0016434913
0.0016790821
0.0017141673
0.0017487382
0.0017827844
0.0018162926
0.0018492445
0.0018816161
0.0019133747
0.0019444786
0.001974875
0.0020045001
0.0020332779
0.0020611226
0.0020879375
0.0021136186
0.0021380525
0.0021611167
0.0021826705
0.0022025495
0.0022205719
0.002236541
0.002250141
0.0022609098
0.0022698237
0.00063616419
0.00066933077
0.0007042335
0.00074057738
0.00077810951
0.00081660974
0.00085588703
0.0008957746
0.00093612693
0.00097681638
0.0010177307
0.0010587707
0.0010998484
0.0011408857
0.001181813
0.0012225683
0.0012630967
0.0013033495
0.0013432835
0.0013828612
0.0014220498
0.0014608212
0.0014991514
0.0015370201
0.0015744103
0.0016113076
0.0016476997
0.0016835756
0.0017189248
0.0017537356
0.0017879949
0.0018216861
0.0018547878
0.0018872727
0.0019191059
0.0019502439
0.0019806337
0.0020102125
0.0020389086
0.0020666413
0.0020933236
0.0021188629
0.0021431616
0.0021661143
0.0021876017
0.0022074822
0.0022255947
0.0022417634
0.0022556974
0.0022669972
0.0022767162
0.00062542885
0.00065954971
0.00069536369
0.0007325735
0.00077092526
0.00081020059
0.0008502106
0.00089079149
0.00093180065
0.00097311343
0.0010146204
0.001056225
0.0010978417
0.0011393946
0.0011808159
0.0012220454
0.0012630296
0.0013037208
0.0013440771
0.0013840615
0.0014236418
0.0014627898
0.0015014815
0.0015396961
0.0015774158
0.0016146251
0.0016513103
0.0016874583
0.0017230562
0.0017580901
0.0017925437
0.0018263976
0.0018596275
0.0018922037
0.0019240892
0.0019552396
0.0019856022
0.0020151163
0.0020437138
0.0020713209
0.0020978591
0.0021232475
0.0021474025
0.0021702356
0.0021916465
0.0022115141
0.0022296978
0.0022460372
0.0022602662
0.0022720402
0.0022824724
0.0006144734
0.00064955412
0.00068628117
0.00072435403
0.00076352023
0.00080356327
0.00084429747
0.00088556229
0.00092721847
0.00096914459
0.0010112342
0.0010533934
0.0010955392
0.0011375977
0.0011795033
0.0012211972
0.0012626272
0.001303747
0.0013445152
0.0013848954
0.0014248558
0.0014643682
0.0015034083
0.0015419547
0.0015799886
0.0016174934
0.0016544535
0.0016908541
0.00172668
0.0017619148
0.0017965397
0.0018305324
0.0018638666
0.0018965101
0.0019284248
0.0019595659
0.0019898815
0.0020193135
0.0020477983
0.0020752681
0.0021016536
0.0021268845
0.0021508907
0.0021735989
0.0021949263
0.0022147708
0.0022330089
0.0022494961
0.0022639874
0.0022761838
0.0022872517
0.00060358439
0.00063961738
0.00067724382
0.0007161645
0.00075612716
0.00079691905
0.00083835798
0.00088028722
0.0009225711
0.00096509155
0.0010077452
0.001050441
0.0010930983
0.0011356455
0.0011780185
0.0012201603
0.0012620198
0.0013035517
0.0013447153
0.0013854747
0.0014257981
0.0014656572
0.0015050274
0.0015438864
0.0015822145
0.0016199936
0.0016572067
0.0016938369
0.0017298671
0.0017652783
0.0018000494
0.0018341562
0.0018675699
0.0019002572
0.0019321789
0.0019632904
0.0019935413
0.0020228764
0.0020512365
0.0020785606
0.0021047875
0.0021298575
0.0021537126
0.0021762937
0.0021975339
0.0022173477
0.0022356284
0.0022522438
0.0022669692
0.0022795463
0.0022911805
0.00059293809
0.00062990264
0.00066840778
0.00070815098
0.00074888436
0.00079039852
0.00083251581
0.0008750835
0.00091796975
0.00096106
0.001004254
0.0010474634
0.00109061
0.001133624
0.0011764434
0.0012190124
0.0012612811
0.0013032049
0.0013447437
0.001385862
0.0014265278
0.0014667127
0.0015063915
0.001545541
0.0015841406
0.0016221708
0.0016596129
0.0016964482
0.0017326575
0.00176822
0.0018031125
0.0018373086
0.0018707783
0.001903487
0.0019353954
0.0019664594
0.0019966305
0.0020258566
0.0020540834
0.0020812562
0.0021073219
0.0021322304
0.0021559351
0.0021783897
0.0021995415
0.0022193208
0.0022376345
0.0022543634
0.0022692996
0.0022822202
0.0022943625
0.00058263315
0.00062050593
0.0006598596
0.00070039548
0.00074186776
0.00078407297
0.00082683787
0.00087001415
0.0009134739
0.00095710607
0.0010008135
0.0010445106
0.0010881215
0.0011315783
0.0011748204
0.0012177936
0.0012604487
0.0013027419
0.0013446337
0.0013860884
0.0014270741
0.0014675622
0.0015075264
0.0015469431
0.0015857904
0.0016240473
0.0016616937
0.0016987093
0.0017350729
0.001770762
0.0018057516
0.0018400139
0.0018735177
0.0019062277
0.0019381048
0.0019691061
0.0019991851
0.0020282933
0.002056381
0.0020833999
0.0021093044
0.0021340536
0.002157611
0.0021799422
0.0022010072
0.0022207499
0.0022390911
0.002255921
0.0022710486
0.0022842823
0.0022968815
0.0005727265
0.0006114745
0.00065164419
0.00069293658
0.0007351135
0.00077797548
0.00082135485
0.00086510769
0.00090911013
0.00095325463
0.00099744709
0.0010416045
0.0010856531
0.001129527
0.0011731671
0.00121652
0.0012595377
0.0013021768
0.001344398
0.0013861659
0.0014274482
0.0014682158
0.0015084419
0.0015481019
0.0015871726
0.001625632
0.0016634585
0.00170063
0.001737124
0.0017729162
0.0018079804
0.0018422875
0.0018758056
0.0019084993
0.00194033
0.0019712561
0.0020012336
0.0020302177
0.0020581634
0.0020850283
0.0021107742
0.0021353685
0.002158784
0.0021809967
0.0022019783
0.0022216852
0.0022400494
0.0022569719
0.0022722747
0.0022857946
0.0022988081
0.00056323929
0.00060282755
0.00064377464
0.0006857881
0.00072863217
0.00077211562
0.00081607515
0.00086037162
0.00090488512
0.00094951161
0.00099415997
0.0010387497
0.0010832091
0.001127474
0.0011714865
0.0012151944
0.0012585503
0.0013015113
0.0013440383
0.0013860957
0.001427651
0.0014686746
0.001509139
0.0015490185
0.0015882891
0.0016269273
0.0016649103
0.0017022147
0.0017388164
0.00177469
0.001809808
0.0018441408
0.0018776558
0.0019103181
0.0019420897
0.0019729309
0.0020028003
0.0020316566
0.0020594598
0.0020861732
0.0021117651
0.0021362106
0.0021594912
0.0021815921
0.0022024953
0.0022221682
0.0022405541
0.0022575617
0.0022730266
0.0022868101
0.0023002003
0.00059456195
0.00063624971
0.00067894405
0.00072241968
0.00076648873
0.00081099411
0.00085580116
0.00090079406
0.00094587218
0.0009909473
0.0010359413
0.0010807845
0.0011254142
0.0011697738
0.0012138119
0.0012574818
0.0013007408
0.0013435499
0.0013858735
0.0014276786
0.001468935
0.0015096145
0.0015496907
0.0015891382
0.0016279327
0.0016660499
0.0017034654
0.0017401539
0.0017760889
0.0018112423
0.0018455837
0.0018790808
0.0019116989
0.0019434014
0.0019741504
0.0020039075
0.0020326348
0.0020602971
0.0020868629
0.0021123071
0.0021366116
0.0021597655
0.0021817625
0.0022025934
0.0022222359
0.0022406424
0.0022577306
0.0022733461
0.0022873731
0.002301109
0.00058666375
0.0006290521
0.00067239342
0.00071646336
0.0007610831
0.0008061003
0.00085138532
0.00089682635
0.00094232617
0.00098779934
0.0010331701
0.0010783704
0.0011233392
0.001168021
0.0012123649
0.0012563249
0.0012998585
0.0013429266
0.0013854934
0.0014275256
0.0014689924
0.0015098649
0.0015501156
0.0015897183
0.0016286477
0.0016668783
0.0017043848
0.0017411409
0.0017771194
0.0018122916
0.001846627
0.0018800934
0.0019126571
0.0019442827
0.0019749346
0.0020045771
0.0020331762
0.0020607008
0.0020871249
0.0021124288
0.0021366011
0.0021596375
0.002181539
0.0022023047
0.0022219207
0.0022403488
0.0022575133
0.0022732702
0.0022875234
0.0023015772
0.00057911663
0.00062217015
0.00066611839
0.00071074811
0.00075588363
0.00080137939
0.00084711043
0.00089296904
0.00093886132
0.00098470455
0.0010304251
0.0010759567
0.0011212395
0.001166219
0.0012108451
0.0012550719
0.0012988573
0.001342162
0.00138495
0.0014271876
0.0014688432
0.0015098873
0.0015502916
0.0015900292
0.0016290734
0.0016673983
0.0017049773
0.0017417838
0.0017777897
0.0018129662
0.0018472829
0.0018807082
0.0019132092
0.0019447523
0.0019753041
0.0020048317
0.0020333047
0.0020606964
0.0020869855
0.0021121578
0.0021362072
0.0021591358
0.002180951
0.0022016588
0.0022212532
0.0022397037
0.0022569422
0.0022728322
0.0022872956
0.0023016448
0.00057190424
0.00061558294
0.00066010493
0.00070525746
0.00075087495
0.00079681664
0.00084296266
0.00088920922
0.00093546566
0.00098165181
0.0010276961
0.0010735338
0.0011191064
0.0011643601
0.0012092453
0.0012537167
0.0012977319
0.0013412517
0.0013842397
0.0014266618
0.0014684858
0.0015096815
0.0015502198
0.001590073
0.0016292137
0.001667615
0.00170525
0.0017420912
0.0017781105
0.0018132788
0.0018475662
0.0018809418
0.0019133738
0.0019448306
0.0019752808
0.0020046946
0.0020330452
0.0020603098
0.0020864716
0.0021115211
0.0021354576
0.0021582883
0.0021800264
0.0022006839
0.0022202616
0.0022387366
0.0022560465
0.002272063
0.0022867222
0.0023013463
0.00056501015
0.00060927887
0.00065433405
0.00069997597
0.00074604199
0.00079239817
0.00083892917
0.00088553511
0.00093212841
0.00097863138
0.0010249743
0.0010710941
0.0011169331
0.0011624383
0.0012075607
0.0012522551
0.0012964791
0.0013401935
0.0013833614
0.0014259482
0.0014679213
0.0015092497
0.0015499037
0.0015898548
0.001629075
0.0016675368
0.0017052126
0.0017420748
0.001778095
0.0018132445
0.0018474938
0.0018808128
0.0019131713
0.0019445394
0.0019748881
0.0020041906
0.0020324234
0.0020595674
0.00208561
0.0021105462
0.0021343798
0.0021571227
0.0021787929
0.0021994077
0.0022189739
0.0022374749
0.002254855
0.0022709914
0.0022858332
0.0023007155
0.00055841622
0.00060323565
0.00064879286
0.00069488888
0.00074137165
0.0007881119
0.00083499908
0.00088193699
0.00092884102
0.0009756358
0.0010222534
0.0010686321
0.0011147152
0.0011604503
0.0012057889
0.0012506858
0.0012950987
0.0013389881
0.0013823168
0.0014250497
0.0014671538
0.0015085973
0.00154935
0.0015893828
0.001628667
0.0016671747
0.001704878
0.0017417491
0.0017777596
0.0018128812
0.0018470852
0.0018803424
0.0019126243
0.0019439027
0.0019741511
0.0020033457
0.0020314658
0.0020584963
0.0020844283
0.0021092607
0.0021330013
0.0021556663
0.0021772775
0.002197857
0.0022174166
0.0022359457
0.0022533942
0.0022696455
0.0022846571
0.0022997823
0.0005521071
0.00059744415
0.00064346482
0.00068998385
0.00073685246
0.00078394779
0.00083116359
0.0008784073
0.00092559712
0.00097265986
0.0010195293
0.0010661448
0.0011124507
0.0011583952
0.00120393
0.00124901
0.0012935928
0.0013376388
0.0013811104
0.0014239721
0.0014661902
0.0015077325
0.0015485683
0.0015886678
0.0016280021
0.0016665427
0.0017042616
0.0017411309
0.0017771226
0.0018122089
0.0018463617
0.0018795534
0.0019117567
0.0019429456
0.001973096
0.0020021865
0.0020302
0.0020571243
0.0020829543
0.0021076924
0.0021313498
0.0021539462
0.0021755071
0.0021960583
0.0022156161
0.0022341751
0.0022516908
0.0022680515
0.0022832214
0.0022985769
0.00054606695
0.00059188494
0.00063834051
0.00068525017
0.00073247551
0.00077989816
0.00082741639
0.00087494099
0.00092239288
0.00096970091
0.0010168004
0.0010636319
0.0011101405
0.0011562747
0.0012019868
0.0012472315
0.0012919666
0.0013361518
0.0013797495
0.0014227237
0.0014650401
0.0015066662
0.0015475707
0.0015877235
0.0016270951
0.001665657
0.001703381
0.0017402394
0.0017762047
0.0018112494
0.0018453467
0.0018784701
0.0019105941
0.0019416945
0.0019717497
0.0020007409
0.0020286538
0.0020554795
0.002081216
0.0021058688
0.0021294524
0.0021519893
0.0021735081
0.0021940376
0.0022135979
0.0022321885
0.0022497698
0.0022662357
0.0022815519
0.002297126
0.00054028484
0.00058655292
0.00063340771
0.00068067976
0.00072823376
0.00077595749
0.00082375322
0.00087153511
0.00091922657
0.00096675842
0.0010140674
0.0010610951
0.0011077872
0.0011540928
0.0011999643
0.0012453565
0.0012902269
0.0013345353
0.0013782434
0.0014213148
0.0014637151
0.0015054112
0.0015463714
0.001586565
0.0016259627
0.0016645356
0.0017022556
0.0017390953
0.0017750276
0.0018100259
0.0018440644
0.0018771178
0.0019091625
0.0019401762
0.0019701395
0.0019990364
0.002026855
0.0020535896
0.0020792408
0.0021038172
0.0021273358
0.0021498217
0.0021713058
0.0021918197
0.0022113866
0.0022300099
0.0022476555
0.0022642218
0.0022796735
0.002295456
0.00053474824
0.00058143262
0.00062866112
0.00067626617
0.00072412254
0.00077212236
0.00082017205
0.00086818885
0.00091609862
0.00096383395
0.0010113329
0.0010585381
0.0011053958
0.0011518554
0.0011978695
0.0012433929
0.001288383
0.0013327993
0.0013766031
0.001419758
0.0014622288
0.0015039821
0.0015449859
0.0015852095
0.001624623
0.0016631978
0.0017009059
0.0017377202
0.0017736142
0.0018085621
0.0018425393
0.001875522
0.001907488
0.0019384173
0.0019682925
0.0019971
0.0020248307
0.0020514813
0.0020770552
0.0021015634
0.0021250253
0.002147468
0.0021689243
0.002189428
0.0022090049
0.0022276621
0.00224537
0.0022620326
0.0022776083
0.0022935897
0.00052945053
0.00057652297
0.00062409252
0.0006720051
0.00072013867
0.00076839102
0.00081667234
0.00086490292
0.00091301087
0.0009609305
0.0010086011
0.0010559661
0.0011029723
0.0011495696
0.0011957104
0.0012413498
0.0012864449
0.0013309549
0.0013748409
0.0014180661
0.001460595
0.001502394
0.0015434306
0.001583674
0.0016230944
0.0016616631
0.0016993523
0.0017361354
0.0017719866
0.0018068812
0.0018407954
0.0018737071
0.0019055957
0.0019364432
0.0019662342
0.0019949575
0.0020226063
0.0020491799
0.0020746838
0.0020991315
0.0021225442
0.0021449507
0.0021663854
0.0021868836
0.0022064734
0.002225165
0.0022429332
0.0022596876
0.0022753768
0.0022915484
0.00052438193
0.00057181189
0.00061969966
0.0006678934
0.0007162806
0.00076476309
0.00081325496
0.0008616793
0.00090996645
0.00095805222
0.0010058771
0.0010533852
0.0011005239
0.0011472434
0.0011934961
0.0012392371
0.0012844233
0.0013290138
0.0013729694
0.0014162528
0.0014588284
0.0015006623
0.0015417219
0.0015819761
0.0016213951
0.0016599505
0.0016976148
0.0017343619
0.0017701667
0.0018050054
0.0018388555
0.0018716964
0.0019035092
0.0019342775
0.0019639882
0.0019926322
0.0020202049
0.0020467078
0.0020721486
0.0020965427
0.0021199129
0.0021422895
0.0021637079
0.0021842047
0.0022038096
0.0022225356
0.0022403616
0.0022572037
0.002272995
0.0022893482
0.00051953918
0.00056730082
0.00061547716
0.00066392926
0.00071254745
0.00076123894
0.00080992134
0.00085852054
0.00090696885
0.00095520361
0.0010031663
0.0010508018
0.0010980578
0.0011448848
0.0011912354
0.0012370644
0.0012823288
0.0013269872
0.0013710005
0.0014143309
0.0014569426
0.0014988015
0.0015398749
0.0015801316
0.001619542
0.0016580776
0.0016957117
0.0017324184
0.0017681737
0.0018029546
0.00183674
0.0018695106
0.0019012491
0.001931941
0.0019615752
0.0019901445
0.0020176464
0.0020440844
0.0020694683
0.0020938149
0.0021171485
0.0021395005
0.002160907
0.0021814057
0.0022010274
0.0022197876
0.0022376685
0.0022545937
0.0022704764
0.0022870029
0.00051491396
0.00056297958
0.00061142422
0.00066011092
0.00070893889
0.00075781925
0.00080667325
0.00085542932
0.00090402176
0.0009523892
0.0010004741
0.001048222
0.001095581
0.0011425016
0.0011889367
0.001234841
0.0012801712
0.0013248859
0.0013689456
0.0014123125
0.0014549504
0.0014968251
0.0015379038
0.0015781554
0.0016175503
0.0016560604
0.0016936593
0.001730322
0.001766025
0.0018007466
0.0018344667
0.0018671675
0.0018988333
0.0019294515
0.0019590126
0.0019875113
0.0020149472