/*--------------------------------*- C++ -*----------------------------------*\
| =========                 |                                                 |
| \\      /  F ield         | OpenFOAM: The Open Source CFD Toolbox           |
|  \\    /   O peration     | Version:  2312                                  |
|   \\  /    A nd           | Website:  www.openfoam.com                      |
|    \\/     M anipulation  |                                                 |
\*---------------------------------------------------------------------------*/
FoamFile
{
    version     2.0;
    format      ascii;
    arch        "LSB;label=32;scalar=64";
    class       volScalarField;
    location    "0.03";
    object      N2;
}
// * * * * * * * * * * * * * * * * * * * * * * * * * * * * * * * * * * * * * //

dimensions      [0 0 0 0 0 0 0];

internalField   nonuniform List<scalar> 
3257
(
0.76998375
0.76998519
0.76998651
0.76998772
0.76998883
0.76998985
0.76999077
0.76999162
0.76999239
0.7699931
0.76999374
0.76999432
0.76999485
0.76999533
0.76999577
0.76999616
0.76999651
0.76999682
0.7699971
0.76999735
0.76999757
0.76999777
0.76999795
0.76999811
0.76999826
0.76999839
0.76999852
0.76999863
0.76999873
0.76999883
0.76999892
0.769999
0.76999908
0.76999915
0.76999922
0.76999928
0.76999933
0.76999939
0.76999944
0.76999948
0.76999953
0.76999957
0.76999961
0.76999965
0.76999969
0.76999973
0.76999977
0.76999981
0.76999983
0.76999987
0.76999995
0.76994815
0.76995281
0.76995708
0.76996099
0.76996456
0.76996783
0.76997081
0.76997353
0.76997601
0.76997826
0.76998032
0.76998218
0.76998387
0.7699854
0.76998679
0.76998803
0.76998914
0.76999014
0.76999104
0.76999183
0.76999254
0.76999318
0.76999376
0.76999428
0.76999476
0.7699952
0.76999559
0.76999596
0.76999629
0.7699966
0.76999689
0.76999715
0.76999739
0.76999761
0.76999782
0.76999801
0.76999818
0.76999834
0.7699985
0.76999864
0.76999878
0.76999891
0.76999903
0.76999915
0.76999927
0.76999938
0.76999949
0.7699996
0.76999971
0.76999982
0.76999994
0.76991048
0.76991862
0.76992607
0.76993288
0.7699391
0.76994478
0.76994996
0.76995468
0.76995898
0.7699629
0.76996645
0.76996968
0.7699726
0.76997524
0.76997763
0.76997978
0.76998172
0.76998346
0.76998501
0.76998641
0.76998766
0.76998878
0.7699898
0.76999072
0.76999155
0.76999231
0.769993
0.76999363
0.7699942
0.76999473
0.76999521
0.76999565
0.76999605
0.76999642
0.76999675
0.76999706
0.76999735
0.76999761
0.76999785
0.76999808
0.76999829
0.76999849
0.76999868
0.76999886
0.76999902
0.76999919
0.76999934
0.76999949
0.76999964
0.76999979
0.76999993
0.76987176
0.76988355
0.76989433
0.76990418
0.76991317
0.76992137
0.76992884
0.76993564
0.76994182
0.76994744
0.76995255
0.76995717
0.76996136
0.76996516
0.76996858
0.76997167
0.76997445
0.76997695
0.76997919
0.76998121
0.76998303
0.76998466
0.76998613
0.76998745
0.76998865
0.76998974
0.76999072
0.76999161
0.76999242
0.76999316
0.76999382
0.76999443
0.76999498
0.76999548
0.76999593
0.76999635
0.76999672
0.76999707
0.76999739
0.76999768
0.76999795
0.7699982
0.76999844
0.76999866
0.76999886
0.76999906
0.76999924
0.76999942
0.76999959
0.76999976
0.76999992
0.76983312
0.76984863
0.76986281
0.76987574
0.76988753
0.76989828
0.76990806
0.76991695
0.76992503
0.76993236
0.76993901
0.76994504
0.76995049
0.76995542
0.76995987
0.76996389
0.76996751
0.76997076
0.76997369
0.76997633
0.76997869
0.76998082
0.76998274
0.76998446
0.76998601
0.76998742
0.76998868
0.76998982
0.76999085
0.76999178
0.76999261
0.76999337
0.76999406
0.76999467
0.76999523
0.76999574
0.7699962
0.76999662
0.769997
0.76999735
0.76999767
0.76999797
0.76999824
0.76999849
0.76999873
0.76999895
0.76999916
0.76999936
0.76999955
0.76999974
0.76999991
0.76979567
0.76981488
0.7698324
0.76984837
0.76986292
0.76987616
0.7698882
0.76989914
0.76990906
0.76991806
0.76992621
0.76993359
0.76994026
0.76994629
0.76995173
0.76995663
0.76996105
0.76996502
0.7699686
0.76997181
0.7699747
0.76997729
0.76997963
0.76998172
0.76998361
0.7699853
0.76998682
0.76998819
0.76998942
0.76999053
0.76999152
0.76999242
0.76999322
0.76999395
0.7699946
0.76999519
0.76999573
0.76999621
0.76999665
0.76999705
0.76999742
0.76999775
0.76999806
0.76999834
0.76999861
0.76999885
0.76999908
0.7699993
0.76999951
0.76999971
0.76999991
0.76976044
0.76978318
0.76980391
0.76982279
0.76983997
0.76985558
0.76986977
0.76988264
0.7698943
0.76990487
0.76991443
0.76992308
0.76993089
0.76993794
0.76994429
0.76995002
0.76995518
0.76995981
0.76996398
0.76996773
0.76997109
0.76997411
0.76997682
0.76997925
0.76998143
0.76998339
0.76998514
0.76998671
0.76998813
0.76998939
0.76999053
0.76999155
0.76999246
0.76999329
0.76999403
0.76999469
0.76999529
0.76999584
0.76999633
0.76999677
0.76999718
0.76999755
0.76999789
0.7699982
0.76999849
0.76999876
0.76999901
0.76999925
0.76999948
0.76999969
0.7699999
0.76972818
0.76975422
0.76977793
0.76979951
0.76981912
0.76983693
0.7698531
0.76986775
0.76988101
0.76989302
0.76990387
0.76991367
0.76992252
0.76993049
0.76993768
0.76994415
0.76994996
0.76995519
0.76995989
0.76996411
0.76996789
0.76997129
0.76997433
0.76997705
0.7699795
0.76998169
0.76998365
0.7699854
0.76998697
0.76998838
0.76998964
0.76999077
0.76999178
0.76999269
0.76999351
0.76999424
0.7699949
0.7699955
0.76999603
0.76999652
0.76999696
0.76999737
0.76999773
0.76999807
0.76999838
0.76999867
0.76999895
0.7699992
0.76999944
0.76999967
0.76999989
0.76969939
0.76972841
0.76975482
0.76977883
0.76980064
0.76982043
0.76983837
0.76985461
0.76986931
0.7698826
0.7698946
0.76990543
0.76991519
0.76992398
0.7699319
0.76993902
0.76994542
0.76995117
0.76995633
0.76996096
0.76996511
0.76996883
0.76997216
0.76997514
0.76997781
0.7699802
0.76998234
0.76998425
0.76998596
0.76998749
0.76998886
0.76999009
0.76999118
0.76999217
0.76999305
0.76999384
0.76999455
0.7699952
0.76999577
0.7699963
0.76999677
0.7699972
0.7699976
0.76999796
0.76999829
0.7699986
0.76999889
0.76999916
0.76999941
0.76999965
0.76999989
0.76967422
0.76970588
0.76973467
0.76976083
0.76978457
0.7698061
0.76982559
0.76984324
0.76985919
0.76987359
0.76988659
0.76989831
0.76990887
0.76991838
0.76992693
0.76993462
0.76994152
0.76994771
0.76995327
0.76995825
0.76996272
0.76996671
0.76997029
0.76997349
0.76997636
0.76997892
0.76998121
0.76998325
0.76998508
0.76998672
0.76998818
0.76998949
0.76999066
0.76999171
0.76999265
0.76999349
0.76999425
0.76999493
0.76999554
0.7699961
0.7699966
0.76999706
0.76999747
0.76999785
0.76999821
0.76999853
0.76999883
0.76999912
0.76999938
0.76999964
0.76999988
0.76965254
0.76968649
0.76971735
0.76974537
0.76977078
0.7697938
0.76981464
0.76983349
0.76985052
0.76986588
0.76987974
0.76989223
0.76990348
0.76991359
0.76992269
0.76993086
0.76993819
0.76994476
0.76995066
0.76995594
0.76996067
0.76996491
0.7699687
0.76997208
0.76997511
0.76997782
0.76998024
0.7699824
0.76998433
0.76998606
0.7699876
0.76998898
0.76999021
0.76999132
0.7699923
0.76999319
0.76999399
0.7699947
0.76999535
0.76999593
0.76999645
0.76999693
0.76999737
0.76999777
0.76999813
0.76999847
0.76999879
0.76999908
0.76999936
0.76999962
0.76999988
0.769634
0.76966992
0.76970255
0.76973216
0.769759
0.76978331
0.7698053
0.76982517
0.76984312
0.76985931
0.7698739
0.76988705
0.76989887
0.76990951
0.76991907
0.76992764
0.76993534
0.76994224
0.76994843
0.76995397
0.76995893
0.76996336
0.76996733
0.76997087
0.76997404
0.76997687
0.7699794
0.76998166
0.76998368
0.76998548
0.76998709
0.76998853
0.76998982
0.76999097
0.769992
0.76999293
0.76999376
0.7699945
0.76999517
0.76999578
0.76999632
0.76999682
0.76999727
0.76999769
0.76999807
0.76999842
0.76999874
0.76999905
0.76999934
0.76999961
0.76999987
0.76961812
0.76965572
0.76968986
0.76972082
0.76974889
0.76977429
0.76979726
0.76981802
0.76983675
0.76985365
0.76986887
0.76988258
0.76989491
0.76990599
0.76991594
0.76992487
0.76993288
0.76994006
0.7699465
0.76995226
0.76995741
0.76996202
0.76996614
0.76996982
0.76997311
0.76997605
0.76997868
0.76998102
0.76998312
0.76998498
0.76998665
0.76998815
0.76998948
0.76999067
0.76999174
0.7699927
0.76999355
0.76999432
0.76999502
0.76999564
0.76999621
0.76999672
0.76999719
0.76999762
0.76999801
0.76999837
0.76999871
0.76999902
0.76999932
0.7699996
0.76999987
0.76960438
0.76964341
0.76967886
0.769711
0.76974012
0.76976647
0.76979029
0.7698118
0.76983122
0.76984873
0.76986449
0.76987868
0.76989145
0.76990291
0.76991321
0.76992245
0.76993074
0.76993816
0.76994481
0.76995076
0.76995608
0.76996084
0.7699651
0.7699689
0.7699723
0.76997533
0.76997804
0.76998046
0.76998262
0.76998454
0.76998627
0.7699878
0.76998918
0.76999041
0.76999151
0.76999249
0.76999337
0.76999417
0.76999488
0.76999553
0.76999611
0.76999664
0.76999712
0.76999756
0.76999796
0.76999833
0.76999868
0.769999
0.7699993
0.76999959
0.76999987
0.7695923
0.7696326
0.76966918
0.76970235
0.76973239
0.76975957
0.76978413
0.76980632
0.76982633
0.76984437
0.76986062
0.76987524
0.76988838
0.76990019
0.76991079
0.7699203
0.76992883
0.76993646
0.76994331
0.76994943
0.7699549
0.7699598
0.76996417
0.76996808
0.76997157
0.76997469
0.76997747
0.76997995
0.76998217
0.76998415
0.76998592
0.7699875
0.76998891
0.76999017
0.7699913
0.76999231
0.76999321
0.76999403
0.76999476
0.76999542
0.76999602
0.76999656
0.76999705
0.7699975
0.76999791
0.76999829
0.76999865
0.76999898
0.76999929
0.76999958
0.76999986
0.76958151
0.76962293
0.76966052
0.7696946
0.76972546
0.76975337
0.7697786
0.76980138
0.76982193
0.76984045
0.76985712
0.76987213
0.76988561
0.76989773
0.7699086
0.76991836
0.7699271
0.76993493
0.76994195
0.76994822
0.76995383
0.76995885
0.76996333
0.76996734
0.76997091
0.7699741
0.76997695
0.7699795
0.76998177
0.76998379
0.7699856
0.76998722
0.76998866
0.76998995
0.76999111
0.76999214
0.76999307
0.7699939
0.76999465
0.76999532
0.76999593
0.76999649
0.76999699
0.76999745
0.76999787
0.76999826
0.76999862
0.76999896
0.76999927
0.76999957
0.76999986
0.7695717
0.76961412
0.76965263
0.76968753
0.76971913
0.76974771
0.76977355
0.76979687
0.7698179
0.76983686
0.76985392
0.76986927
0.76988307
0.76989547
0.76990659
0.76991657
0.76992551
0.76993352
0.7699407
0.76994711
0.76995285
0.76995798
0.76996256
0.76996665
0.7699703
0.76997357
0.76997648
0.76997908
0.7699814
0.76998347
0.76998531
0.76998696
0.76998844
0.76998975
0.76999093
0.76999199
0.76999293
0.76999378
0.76999455
0.76999523
0.76999586
0.76999642
0.76999693
0.7699974
0.76999783
0.76999823
0.76999859
0.76999894
0.76999926
0.76999957
0.76999986
0.76956263
0.76960598
0.76964532
0.76968098
0.76971327
0.76974247
0.76976886
0.76979268
0.76981416
0.76983352
0.76985095
0.76986663
0.76988072
0.76989337
0.76990473
0.76991491
0.76992404
0.76993221
0.76993953
0.76994608
0.76995193
0.76995716
0.76996184
0.76996601
0.76996974
0.76997307
0.76997604
0.76997869
0.76998105
0.76998316
0.76998504
0.76998672
0.76998823
0.76998957
0.76999077
0.76999185
0.76999281
0.76999367
0.76999445
0.76999515
0.76999579
0.76999636
0.76999688
0.76999736
0.76999779
0.7699982
0.76999857
0.76999892
0.76999925
0.76999956
0.76999986
0.76955414
0.76959836
0.76963849
0.76967485
0.76970778
0.76973756
0.76976446
0.76978875
0.76981065
0.76983039
0.76984816
0.76986414
0.7698785
0.7698914
0.76990297
0.76991335
0.76992265
0.76993098
0.76993844
0.76994511
0.76995107
0.7699564
0.76996116
0.76996541
0.76996921
0.7699726
0.76997562
0.76997832
0.76998073
0.76998287
0.76998479
0.7699865
0.76998803
0.7699894
0.76999062
0.76999171
0.76999269
0.76999357
0.76999436
0.76999507
0.76999572
0.7699963
0.76999683
0.76999732
0.76999776
0.76999817
0.76999855
0.7699989
0.76999924
0.76999955
0.76999985
0.76954614
0.76959117
0.76963203
0.76966906
0.76970259
0.76973291
0.7697603
0.76978503
0.76980733
0.76982743
0.76984551
0.76986178
0.7698764
0.76988953
0.76990131
0.76991187
0.76992134
0.76992982
0.7699374
0.76994419
0.76995026
0.76995568
0.76996052
0.76996485
0.76996871
0.76997215
0.76997523
0.76997797
0.76998042
0.7699826
0.76998455
0.76998629
0.76998784
0.76998923
0.76999047
0.76999159
0.76999258
0.76999347
0.76999428
0.769995
0.76999566
0.76999625
0.76999679
0.76999728
0.76999773
0.76999814
0.76999853
0.76999889
0.76999923
0.76999955
0.76999985
0.76953853
0.76958433
0.76962589
0.76966356
0.76969765
0.76972849
0.76975635
0.7697815
0.76980418
0.76982461
0.769843
0.76985954
0.76987441
0.76988775
0.76989973
0.76991047
0.76992009
0.76992871
0.76993642
0.76994332
0.76994948
0.76995499
0.76995991
0.76996431
0.76996823
0.76997173
0.76997486
0.76997764
0.76998013
0.76998235
0.76998432
0.76998609
0.76998767
0.76998908
0.76999034
0.76999147
0.76999248
0.76999338
0.7699942
0.76999493
0.7699956
0.7699962
0.76999674
0.76999724
0.7699977
0.76999812
0.76999851
0.76999887
0.76999922
0.76999954
0.76999985
0.76953129
0.76957782
0.76962004
0.76965831
0.76969295
0.76972428
0.76975258
0.76977813
0.76980117
0.76982192
0.76984061
0.76985741
0.7698725
0.76988606
0.76989823
0.76990913
0.7699189
0.76992765
0.76993548
0.76994249
0.76994875
0.76995434
0.76995934
0.7699638
0.76996778
0.76997133
0.7699745
0.76997733
0.76997985
0.7699821
0.76998411
0.7699859
0.7699875
0.76998893
0.76999021
0.76999135
0.76999238
0.7699933
0.76999412
0.76999487
0.76999554
0.76999615
0.7699967
0.76999721
0.76999767
0.7699981
0.76999849
0.76999886
0.76999921
0.76999954
0.76999985
0.76952438
0.76957161
0.76961446
0.7696533
0.76968846
0.76972026
0.76974899
0.76977491
0.7697983
0.76981936
0.76983832
0.76985537
0.76987069
0.76988444
0.76989679
0.76990785
0.76991777
0.76992664
0.76993459
0.76994169
0.76994804
0.76995372
0.76995878
0.76996331
0.76996735
0.76997095
0.76997416
0.76997703
0.76997959
0.76998187
0.7699839
0.76998572
0.76998734
0.76998879
0.76999009
0.76999124
0.76999228
0.76999321
0.76999405
0.7699948
0.76999549
0.7699961
0.76999666
0.76999717
0.76999764
0.76999807
0.76999847
0.76999885
0.7699992
0.76999953
0.76999985
0.76951777
0.76956567
0.76960913
0.76964852
0.76968417
0.76971642
0.76974555
0.76977184
0.76979555
0.76981691
0.76983613
0.76985342
0.76986895
0.7698829
0.76989541
0.76990663
0.76991668
0.76992568
0.76993373
0.76994094
0.76994737
0.76995312
0.76995826
0.76996284
0.76996693
0.76997058
0.76997384
0.76997675
0.76997934
0.76998165
0.76998371
0.76998555
0.76998719
0.76998866
0.76998997
0.76999114
0.76999219
0.76999314
0.76999398
0.76999475
0.76999543
0.76999606
0.76999662
0.76999714
0.76999762
0.76999805
0.76999846
0.76999883
0.76999919
0.76999952
0.76999985
0.76951147
0.76956
0.76960404
0.76964395
0.76968008
0.76971275
0.76974227
0.76976891
0.76979293
0.76981457
0.76983405
0.76985156
0.7698673
0.76988143
0.7698941
0.76990547
0.76991565
0.76992476
0.76993292
0.76994021
0.76994673
0.76995256
0.76995776
0.7699624
0.76996654
0.76997024
0.76997353
0.76997647
0.7699791
0.76998144
0.76998352
0.76998538
0.76998705
0.76998853
0.76998986
0.76999104
0.76999211
0.76999306
0.76999392
0.76999469
0.76999539
0.76999602
0.76999659
0.76999711
0.76999759
0.76999803
0.76999844
0.76999882
0.76999918
0.76999952
0.76999984
0.76950545
0.76955459
0.76959918
0.76963959
0.76967617
0.76970925
0.76973913
0.76976611
0.76979043
0.76981234
0.76983206
0.76984979
0.76986572
0.76988002
0.76989286
0.76990436
0.76991466
0.76992389
0.76993214
0.76993953
0.76994612
0.76995202
0.76995728
0.76996198
0.76996617
0.76996991
0.76997324
0.76997622
0.76997887
0.76998124
0.76998335
0.76998523
0.76998691
0.76998841
0.76998975
0.76999095
0.76999203
0.76999299
0.76999386
0.76999464
0.76999534
0.76999598
0.76999656
0.76999708
0.76999757
0.76999801
0.76999843
0.76999881
0.76999917
0.76999952
0.76999984
0.76949972
0.76954943
0.76959455
0.76963543
0.76967244
0.76970591
0.76973615
0.76976344
0.76978805
0.76981021
0.76983016
0.7698481
0.76986422
0.76987869
0.76989167
0.7699033
0.76991373
0.76992306
0.76993141
0.76993887
0.76994554
0.7699515
0.76995682
0.76996157
0.76996581
0.76996959
0.76997297
0.76997597
0.76997865
0.76998105
0.76998318
0.76998508
0.76998678
0.7699883
0.76998965
0.76999086
0.76999195
0.76999292
0.7699938
0.76999459
0.7699953
0.76999594
0.76999652
0.76999706
0.76999755
0.769998
0.76999841
0.7699988
0.76999917
0.76999951
0.76999984
0.76949427
0.76954453
0.76959015
0.76963148
0.7696689
0.76970274
0.76973332
0.76976091
0.76978578
0.76980819
0.76982836
0.7698465
0.76986279
0.76987742
0.76989054
0.7699023
0.76991284
0.76992227
0.76993071
0.76993825
0.76994499
0.76995102
0.76995639
0.76996119
0.76996548
0.7699693
0.7699727
0.76997574
0.76997845
0.76998086
0.76998302
0.76998494
0.76998666
0.76998819
0.76998956
0.76999078
0.76999188
0.76999286
0.76999374
0.76999454
0.76999526
0.7699959
0.76999649
0.76999703
0.76999752
0.76999798
0.7699984
0.76999879
0.76999916
0.76999951
0.76999984
0.76948909
0.76953987
0.76958596
0.76962773
0.76966554
0.76969973
0.76973062
0.7697585
0.76978363
0.76980627
0.76982665
0.76984497
0.76986143
0.76987621
0.76988947
0.76990135
0.76991199
0.76992152
0.76993004
0.76993766
0.76994447
0.76995055
0.76995599
0.76996083
0.76996516
0.76996901
0.76997245
0.76997552
0.76997826
0.76998069
0.76998287
0.76998481
0.76998654
0.76998809
0.76998947
0.7699907
0.76999181
0.7699928
0.76999369
0.76999449
0.76999522
0.76999587
0.76999647
0.76999701
0.76999751
0.76999796
0.76999839
0.76999878
0.76999915
0.7699995
0.76999984
0.76948418
0.76953546
0.76958199
0.76962417
0.76966235
0.76969688
0.76972807
0.76975622
0.7697816
0.76980446
0.76982503
0.76984353
0.76986015
0.76987507
0.76988845
0.76990045
0.76991119
0.76992081
0.76992941
0.76993711
0.76994398
0.76995012
0.7699556
0.76996049
0.76996485
0.76996875
0.76997222
0.76997531
0.76997807
0.76998053
0.76998273
0.76998468
0.76998643
0.76998799
0.76998938
0.76999063
0.76999174
0.76999274
0.76999364
0.76999445
0.76999518
0.76999584
0.76999644
0.76999699
0.76999749
0.76999795
0.76999837
0.76999877
0.76999915
0.7699995
0.76999984
0.76953128
0.76957824
0.7696208
0.76965933
0.76969418
0.76972565
0.76975406
0.76977967
0.76980274
0.7698235
0.76984217
0.76985894
0.76987399
0.76988749
0.7698996
0.76991044
0.76992014
0.76992882
0.76993658
0.76994351
0.76994971
0.76995523
0.76996017
0.76996457
0.7699685
0.769972
0.76997512
0.7699779
0.76998038
0.76998259
0.76998457
0.76998633
0.7699879
0.7699893
0.76999056
0.76999168
0.76999269
0.7699936
0.76999441
0.76999515
0.76999581
0.76999641
0.76999697
0.76999747
0.76999793
0.76999836
0.76999876
0.76999914
0.7699995
0.76999984
0.76952733
0.76957469
0.76961762
0.76965649
0.76969163
0.76972337
0.76975202
0.76977785
0.76980112
0.76982205
0.76984088
0.76985779
0.76987297
0.76988659
0.76989879
0.76990972
0.76991951
0.76992826
0.76993608
0.76994307
0.76994932
0.76995489
0.76995986
0.7699643
0.76996826
0.76997179
0.76997493
0.76997774
0.76998024
0.76998247
0.76998446
0.76998623
0.76998781
0.76998923
0.76999049
0.76999163
0.76999264
0.76999355
0.76999437
0.76999511
0.76999578
0.76999639
0.76999695
0.76999745
0.76999792
0.76999835
0.76999876
0.76999914
0.76999949
0.76999983
0.76952361
0.76957135
0.76961463
0.7696538
0.76968922
0.76972122
0.7697501
0.76977614
0.76979959
0.76982069
0.76983967
0.76985671
0.76987201
0.76988574
0.76989804
0.76990905
0.76991891
0.76992773
0.76993562
0.76994266
0.76994895
0.76995457
0.76995958
0.76996405
0.76996804
0.76997159
0.76997476
0.76997758
0.7699801
0.76998235
0.76998435
0.76998614
0.76998773
0.76998916
0.76999043
0.76999157
0.76999259
0.76999351
0.76999434
0.76999508
0.76999576
0.76999637
0.76999693
0.76999744
0.76999791
0.76999834
0.76999875
0.76999913
0.76999949
0.76999983
0.7695201
0.7695682
0.76961181
0.76965127
0.76968696
0.7697192
0.7697483
0.76977453
0.76979815
0.76981941
0.76983853
0.7698557
0.76987111
0.76988494
0.76989732
0.76990842
0.76991835
0.76992724
0.76993518
0.76994227
0.76994861
0.76995426
0.76995931
0.76996381
0.76996783
0.76997141
0.7699746
0.76997744
0.76997998
0.76998224
0.76998425
0.76998605
0.76998766
0.76998909
0.76999037
0.76999152
0.76999255
0.76999347
0.7699943
0.76999505
0.76999573
0.76999635
0.76999691
0.76999742
0.7699979
0.76999833
0.76999874
0.76999913
0.76999949
0.76999983
0.76951681
0.76956525
0.76960916
0.7696489
0.76968484
0.7697173
0.7697466
0.76977301
0.7697968
0.76981821
0.76983746
0.76985475
0.76987027
0.76988418
0.76989666
0.76990783
0.76991783
0.76992677
0.76993476
0.76994191
0.76994829
0.76995398
0.76995906
0.76996359
0.76996763
0.76997123
0.76997444
0.76997731
0.76997986
0.76998213
0.76998416
0.76998597
0.76998759
0.76998903
0.76999032
0.76999147
0.76999251
0.76999344
0.76999427
0.76999503
0.76999571
0.76999633
0.76999689
0.76999741
0.76999789
0.76999833
0.76999874
0.76999912
0.76999949
0.76999983
0.76951373
0.76956248
0.76960667
0.76964668
0.76968285
0.76971553
0.76974501
0.7697716
0.76979554
0.76981708
0.76983646
0.76985386
0.76986947
0.76988348
0.76989603
0.76990728
0.76991734
0.76992634
0.76993438
0.76994157
0.76994798
0.76995371
0.76995882
0.76996338
0.76996745
0.76997107
0.7699743
0.76997718
0.76997975
0.76998204
0.76998408
0.7699859
0.76998752
0.76998897
0.76999027
0.76999143
0.76999247
0.7699934
0.76999424
0.769995
0.76999569
0.76999631
0.76999688
0.7699974
0.76999788
0.76999832
0.76999873
0.76999912
0.76999948
0.76999983
0.76951084
0.76955989
0.76960435
0.7696446
0.76968099
0.76971386
0.76974353
0.76977027
0.76979436
0.76981603
0.76983552
0.76985302
0.76986873
0.76988282
0.76989545
0.76990676
0.76991688
0.76992593
0.76993402
0.76994125
0.7699477
0.76995346
0.7699586
0.76996319
0.76996728
0.76997092
0.76997417
0.76997706
0.76997964
0.76998194
0.769984
0.76998583
0.76998746
0.76998892
0.76999022
0.76999139
0.76999243
0.76999337
0.76999422
0.76999498
0.76999567
0.76999629
0.76999686
0.76999739
0.76999787
0.76999831
0.76999872
0.76999911
0.76999948
0.76999983
0.76950815
0.76955748
0.76960219
0.76964266
0.76967926
0.76971231
0.76974214
0.76976904
0.76979326
0.76981505
0.76983465
0.76985225
0.76986804
0.76988221
0.76989491
0.76990628
0.76991645
0.76992555
0.76993369
0.76994095
0.76994744
0.76995323
0.7699584
0.76996301
0.76996712
0.76997078
0.76997404
0.76997695
0.76997955
0.76998186
0.76998392
0.76998576
0.7699874
0.76998887
0.76999018
0.76999135
0.7699924
0.76999334
0.76999419
0.76999496
0.76999565
0.76999628
0.76999685
0.76999737
0.76999786
0.7699983
0.76999872
0.76999911
0.76999948
0.76999983
0.76950564
0.76955522
0.76960017
0.76964085
0.76967764
0.76971087
0.76974085
0.76976789
0.76979223
0.76981414
0.76983383
0.76985152
0.7698674
0.76988164
0.7698944
0.76990583
0.76991605
0.7699252
0.76993337
0.76994068
0.7699472
0.76995302
0.76995821
0.76996284
0.76996697
0.76997065
0.76997393
0.76997685
0.76997946
0.76998178
0.76998385
0.7699857
0.76998735
0.76998882
0.76999014
0.76999132
0.76999237
0.76999332
0.76999417
0.76999494
0.76999563
0.76999626
0.76999684
0.76999736
0.76999785
0.7699983
0.76999871
0.76999911
0.76999948
0.76999983
0.76950331
0.76955313
0.7695983
0.76963917
0.76967614
0.76970953
0.76973966
0.76976682
0.76979128
0.76981329
0.76983308
0.76985085
0.76986681
0.76988111
0.76989393
0.76990541
0.76991569
0.76992487
0.76993309
0.76994042
0.76994697
0.76995282
0.76995803
0.76996268
0.76996683
0.76997053
0.76997382
0.76997676
0.76997938
0.76998171
0.76998379
0.76998565
0.7699873
0.76998878
0.7699901
0.76999128
0.76999234
0.76999329
0.76999415
0.76999492
0.76999562
0.76999625
0.76999683
0.76999736
0.76999784
0.76999829
0.76999871
0.7699991
0.76999947
0.76999983
0.76950114
0.76955119
0.76959656
0.76963762
0.76967475
0.76970828
0.76973855
0.76976583
0.7697904
0.76981251
0.76983238
0.76985023
0.76986625
0.76988062
0.7698935
0.76990503
0.76991534
0.76992457
0.76993282
0.76994019
0.76994676
0.76995263
0.76995787
0.76996254
0.76996671
0.76997042
0.76997373
0.76997667
0.7699793
0.76998164
0.76998373
0.76998559
0.76998726
0.76998874
0.76999007
0.76999125
0.76999232
0.76999327
0.76999413
0.7699949
0.7699956
0.76999624
0.76999682
0.76999735
0.76999783
0.76999829
0.76999871
0.7699991
0.76999947
0.76999983
0.76949914
0.7695494
0.76959495
0.76963618
0.76967346
0.76970714
0.76973752
0.76976491
0.76978958
0.76981178
0.76983174
0.76984966
0.76986574
0.76988017
0.7698931
0.76990467
0.76991503
0.76992429
0.76993257
0.76993997
0.76994657
0.76995246
0.76995772
0.76996241
0.76996659
0.76997031
0.76997363
0.76997659
0.76997923
0.76998158
0.76998368
0.76998555
0.76998721
0.7699887
0.76999003
0.76999123
0.76999229
0.76999325
0.76999411
0.76999489
0.76999559
0.76999623
0.76999681
0.76999734
0.76999783
0.76999828
0.7699987
0.7699991
0.76999947
0.76999983
0.76949729
0.76954774
0.76959347
0.76963486
0.76967228
0.76970608
0.76973658
0.76976407
0.76978883
0.76981111
0.76983114
0.76984913
0.76986528
0.76987975
0.76989273
0.76990434
0.76991474
0.76992403
0.76993234
0.76993977
0.76994639
0.76995231
0.76995758
0.76996229
0.76996648
0.76997022
0.76997355
0.76997652
0.76997917
0.76998152
0.76998363
0.7699855
0.76998718
0.76998867
0.76999001
0.7699912
0.76999227
0.76999323
0.76999409
0.76999487
0.76999558
0.76999622
0.7699968
0.76999733
0.76999782
0.76999828
0.7699987
0.7699991
0.76999947
0.76999983
0.7694956
0.76954622
0.76959211
0.76963364
0.76967119
0.7697051
0.76973571
0.7697633
0.76978814
0.7698105
0.76983059
0.76984864
0.76986484
0.76987937
0.76989239
0.76990404
0.76991447
0.7699238
0.76993213
0.76993958
0.76994623
0.76995216
0.76995745
0.76996217
0.76996638
0.76997013
0.76997347
0.76997645
0.76997911
0.76998147
0.76998358
0.76998546
0.76998714
0.76998864
0.76998998
0.76999118
0.76999225
0.76999321
0.76999408
0.76999486
0.76999557
0.76999621
0.76999679
0.76999733
0.76999782
0.76999827
0.7699987
0.76999909
0.76999947
0.76999983
0.76949404
0.76954483
0.76959086
0.76963252
0.76967019
0.76970421
0.76973491
0.76976259
0.76978751
0.76980993
0.76983009
0.7698482
0.76986445
0.76987902
0.76989208
0.76990377
0.76991423
0.76992358
0.76993194
0.76993941
0.76994608
0.76995203
0.76995734
0.76996207
0.76996629
0.76997005
0.7699734
0.76997639
0.76997905
0.76998143
0.76998354
0.76998543
0.76998711
0.76998861
0.76998995
0.76999116
0.76999223
0.7699932
0.76999407
0.76999485
0.76999556
0.7699962
0.76999678
0.76999732
0.76999781
0.76999827
0.76999869
0.76999909
0.76999947
0.76999983
0.76949261
0.76954355
0.76958972
0.7696315
0.76966928
0.7697034
0.76973418
0.76976194
0.76978693
0.76980942
0.76982964
0.76984779
0.76986409
0.7698787
0.76989179
0.76990351
0.769914
0.76992339
0.76993177
0.76993926
0.76994594
0.76995191
0.76995723
0.76996198
0.76996621
0.76996998
0.76997334
0.76997634
0.769979
0.76998138
0.7699835
0.76998539
0.76998708
0.76998859
0.76998993
0.76999114
0.76999221
0.76999318
0.76999405
0.76999484
0.76999555
0.76999619
0.76999678
0.76999731
0.76999781
0.76999826
0.76999869
0.76999909
0.76999947
0.76999983
0.76949131
0.76954239
0.76958868
0.76963057
0.76966844
0.76970265
0.76973352
0.76976135
0.7697864
0.76980895
0.76982922
0.76984742
0.76986376
0.76987841
0.76989153
0.76990329
0.7699138
0.76992321
0.76993161
0.76993912
0.76994582
0.7699518
0.76995714
0.76996189
0.76996613
0.76996991
0.76997328
0.76997628
0.76997896
0.76998134
0.76998347
0.76998536
0.76998705
0.76998856
0.76998991
0.76999112
0.7699922
0.76999317
0.76999404
0.76999483
0.76999554
0.76999618
0.76999677
0.76999731
0.7699978
0.76999826
0.76999869
0.76999909
0.76999947
0.76999983
0.76949014
0.76954134
0.76958774
0.76962973
0.76966769
0.76970198
0.76973292
0.76976081
0.76978593
0.76980853
0.76982884
0.76984709
0.76986346
0.76987814
0.7698913
0.76990308
0.76991362
0.76992304
0.76993147
0.76993899
0.76994571
0.7699517
0.76995705
0.76996182
0.76996607
0.76996986
0.76997323
0.76997624
0.76997892
0.76998131
0.76998344
0.76998534
0.76998703
0.76998854
0.76998989
0.7699911
0.76999219
0.76999316
0.76999403
0.76999482
0.76999553
0.76999618
0.76999677
0.76999731
0.7699978
0.76999826
0.76999869
0.76999909
0.76999947
0.76999983
0.76948908
0.76954039
0.76958689
0.76962897
0.76966701
0.76970137
0.76973238
0.76976033
0.7697855
0.76980814
0.7698285
0.76984678
0.76986319
0.7698779
0.76989109
0.76990289
0.76991345
0.7699229
0.76993134
0.76993888
0.76994561
0.76995161
0.76995697
0.76996175
0.76996601
0.7699698
0.76997318
0.7699762
0.76997888
0.76998128
0.76998341
0.76998531
0.76998701
0.76998852
0.76998988
0.76999109
0.76999217
0.76999315
0.76999402
0.76999481
0.76999553
0.76999617
0.76999676
0.7699973
0.7699978
0.76999826
0.76999868
0.76999909
0.76999946
0.76999983
0.76948813
0.76953954
0.76958613
0.76962829
0.7696664
0.76970083
0.76973189
0.76975989
0.76978511
0.7698078
0.76982819
0.76984651
0.76986295
0.76987769
0.7698909
0.76990272
0.7699133
0.76992276
0.76993122
0.76993877
0.76994552
0.76995153
0.7699569
0.76996169
0.76996595
0.76996975
0.76997314
0.76997616
0.76997885
0.76998125
0.76998338
0.76998529
0.76998699
0.76998851
0.76998986
0.76999108
0.76999216
0.76999314
0.76999402
0.76999481
0.76999552
0.76999617
0.76999676
0.7699973
0.76999779
0.76999825
0.76999868
0.76999908
0.76999946
0.76999983
0.76948728
0.76953879
0.76958545
0.76962768
0.76966585
0.76970034
0.76973145
0.7697595
0.76978476
0.76980749
0.76982792
0.76984627
0.76986273
0.7698775
0.76989073
0.76990257
0.76991317
0.76992265
0.76993112
0.76993868
0.76994543
0.76995146
0.76995684
0.76996163
0.7699659
0.76996971
0.7699731
0.76997613
0.76997882
0.76998122
0.76998336
0.76998527
0.76998697
0.76998849
0.76998985
0.76999107
0.76999215
0.76999313
0.76999401
0.7699948
0.76999551
0.76999616
0.76999675
0.7699973
0.76999779
0.76999825
0.76999868
0.76999908
0.76999946
0.76999983
0.76948654
0.76953812
0.76958485
0.76962714
0.76966537
0.7696999
0.76973106
0.76975915
0.76978445
0.76980722
0.76982768
0.76984605
0.76986254
0.76987733
0.76989058
0.76990244
0.76991305
0.76992254
0.76993102
0.7699386
0.76994536
0.7699514
0.76995678
0.76996158
0.76996586
0.76996967
0.76997307
0.7699761
0.7699788
0.7699812
0.76998334
0.76998525
0.76998696
0.76998848
0.76998984
0.76999106
0.76999215
0.76999312
0.769994
0.76999479
0.76999551
0.76999616
0.76999675
0.76999729
0.76999779
0.76999825
0.76999868
0.76999908
0.76999946
0.76999982
0.76948589
0.76953753
0.76958432
0.76962666
0.76966494
0.76969952
0.76973072
0.76975885
0.76978418
0.76980697
0.76982746
0.76984586
0.76986237
0.76987718
0.76989044
0.76990232
0.76991295
0.76992245
0.76993094
0.76993853
0.7699453
0.76995134
0.76995673
0.76996154
0.76996582
0.76996964
0.76997304
0.76997607
0.76997877
0.76998118
0.76998333
0.76998524
0.76998695
0.76998847
0.76998983
0.76999105
0.76999214
0.76999312
0.769994
0.76999479
0.76999551
0.76999616