/*--------------------------------*- C++ -*----------------------------------*\
| =========                 |                                                 |
| \\      /  F ield         | OpenFOAM: The Open Source CFD Toolbox           |
|  \\    /   O peration     | Version:  2312                                  |
|   \\  /    A nd           | Website:  www.openfoam.com                      |
|    \\/     M anipulation  |                                                 |
\*---------------------------------------------------------------------------*/
FoamFile
{
    version     2.0;
    format      ascii;
    arch        "LSB;label=32;scalar=64";
    class       volScalarField;
    location    "0.03";
    object      nut;
}
// * * * * * * * * * * * * * * * * * * * * * * * * * * * * * * * * * * * * * //

dimensions      [0 2 -1 0 0 0 0];

internalField   nonuniform List<scalar> 
3257
(
0.041177108
0.041217655
0.041259828
0.041303884
0.041350055
0.041398515
0.041449371
0.041502662
0.041558356
0.041616344
0.041676435
0.041738338
0.041801637
0.041865768
0.041930027
0.041993675
0.04205616
0.042117445
0.042178287
0.042240312
0.042305757
0.042376959
0.04245582
0.042543459
0.042640157
0.042745531
0.042858793
0.042978995
0.043105219
0.04323662
0.043372499
0.043512255
0.043655296
0.043800959
0.043948631
0.044097902
0.044248475
0.044399995
0.044551806
0.044703053
0.044852547
0.044999115
0.045141885
0.045280184
0.045413184
0.045539862
0.045657685
0.045761246
0.045832979
0.045906466
0.046006204
0.040499295
0.040537612
0.040577827
0.040620193
0.040664945
0.040712266
0.040762275
0.040815035
0.040870548
0.040928768
0.04098963
0.04105308
0.041119122
0.041187844
0.041259415
0.041334061
0.041412019
0.041493538
0.041578903
0.041668488
0.04176274
0.041862095
0.041966842
0.042077015
0.042192356
0.042312379
0.042436472
0.042564011
0.042694432
0.042827329
0.04296248
0.043099835
0.04323944
0.04338138
0.043525658
0.043672149
0.043820704
0.043971239
0.044123548
0.044277163
0.044431393
0.044585452
0.044738579
0.044890566
0.045041982
0.045194149
0.045348697
0.045507314
0.045670481
0.045840146
0.046019201
0.039781686
0.039818317
0.039857168
0.039898478
0.039942487
0.03998939
0.040039333
0.040092416
0.040148693
0.040208194
0.040270947
0.040337025
0.040406588
0.040479904
0.040557319
0.040639177
0.040725699
0.040816879
0.040912473
0.041012075
0.04111526
0.0412217
0.041331209
0.041443723
0.041559231
0.041677745
0.041799285
0.041923903
0.042051711
0.042182908
0.042317786
0.042456718
0.042600098
0.04274828
0.042901508
0.043059954
0.043223721
0.043392934
0.043567681
0.043747847
0.043933198
0.044123357
0.044317944
0.044516872
0.04472042
0.044929072
0.045143283
0.045363477
0.045589795
0.045821761
0.046057717
0.039003045
0.039038775
0.039077114
0.03911829
0.039162547
0.039210094
0.039261103
0.039315712
0.039374025
0.039436122
0.039502085
0.039572015
0.039646065
0.039724441
0.039807372
0.039895033
0.039987452
0.040084447
0.040185631
0.040290514
0.040398663
0.040509843
0.040624076
0.040741604
0.040862811
0.040988132
0.041117993
0.041252799
0.041392932
0.041538765
0.041690669
0.041849011
0.042014121
0.042186253
0.042365519
0.042551981
0.042745713
0.04294673
0.043155012
0.043370476
0.043592893
0.043821857
0.04405692
0.044297712
0.044543958
0.044795413
0.045051794
0.045312759
0.04557785
0.045846352
0.046117112
0.038147852
0.038184259
0.038223752
0.038266564
0.038312939
0.0383631
0.038417247
0.038475554
0.038538168
0.038605213
0.038676801
0.038753046
0.03883407
0.038919999
0.039010944
0.039106957
0.039207985
0.039313858
0.039424312
0.039539085
0.03965802
0.039781149
0.039908716
0.040041134
0.040178898
0.040322513
0.040472432
0.040629045
0.040792675
0.040963595
0.041142035
0.041328191
0.041522212
0.041724137
0.041933999
0.042151763
0.042377358
0.042610682
0.042851583
0.043099844
0.043355153
0.043617093
0.043885193
0.04415896
0.044437902
0.044721509
0.045009256
0.0453006
0.045594983
0.045891813
0.046190409
0.037212844
0.037252544
0.037295898
0.037343163
0.037394581
0.037450389
0.037510811
0.037576054
0.037646301
0.037721714
0.03780244
0.037888609
0.037980339
0.03807773
0.038180856
0.038289728
0.038404317
0.038524532
0.038650268
0.038781459
0.038918138
0.039060469
0.039208744
0.039363341
0.03952466
0.039693075
0.039868901
0.040052381
0.040243699
0.040442981
0.040650316
0.04086575
0.041089265
0.041320861
0.041560488
0.041808046
0.042063401
0.042326381
0.042596768
0.042874291
0.043158612
0.043449331
0.043745994
0.04404811
0.044355161
0.04466661
0.044981916
0.045300546
0.045621989
0.045945762
0.046271354
0.036212918
0.036259372
0.036310105
0.03636542
0.036425551
0.036490744
0.036561237
0.036637259
0.036719018
0.036806705
0.036900493
0.037000526
0.037106939
0.037219837
0.037339293
0.037465341
0.037597983
0.037737198
0.037882967
0.03803531
0.038194309
0.038360121
0.038532965
0.038713094
0.038900754
0.039096159
0.039299473
0.039510809
0.03973024
0.039957788
0.040193426
0.040437124
0.04068885
0.040948548
0.041216125
0.041491455
0.041774381
0.04206471
0.042362209
0.042666603
0.042977569
0.043294739
0.043617703
0.043946016
0.044279209
0.044616799
0.044958304
0.045303257
0.045651225
0.046001793
0.046354514
0.035182301
0.035239171
0.035300948
0.035367986
0.035440508
0.03551876
0.035602977
0.035693396
0.035790235
0.035893691
0.036003945
0.036121156
0.036245463
0.036376977
0.036515782
0.036661929
0.036815444
0.036976337
0.037144617
0.037320311
0.037503478
0.037694207
0.037892613
0.038098821
0.038312948
0.038535094
0.038765296
0.039003565
0.039249884
0.039504227
0.039766562
0.040036835
0.040314977
0.040600899
0.040894491
0.041195615
0.04150411
0.041819783
0.042142409
0.042471729
0.042807449
0.043149243
0.043496754
0.043849598
0.044207376
0.044569677
0.044936098
0.045306252
0.045679777
0.046056323
0.046435483
0.034168679
0.034238977
0.034314748
0.034396396
0.034484127
0.03457817
0.034678756
0.034786108
0.034900435
0.035021927
0.035150757
0.035287079
0.035431024
0.0355827
0.03574219
0.035909551
0.036084815
0.036267998
0.036459108
0.03665816
0.036865175
0.037080163
0.037303151
0.037534168
0.037773229
0.038020326
0.038275461
0.038538613
0.038809736
0.039088774
0.039375659
0.039670315
0.03997265
0.040282562
0.04059993
0.040924613
0.04125645
0.041595256
0.041940821
0.042292908
0.042651258
0.043015587
0.043385591
0.04376095
0.044141333
0.044526405
0.044915838
0.045309321
0.045706562
0.046107271
0.046511088
0.033222178
0.033307567
0.033398892
0.033496592
0.033600855
0.033711887
0.033829899
0.033955096
0.034087666
0.03422778
0.034375597
0.034531258
0.034694875
0.034866538
0.035046318
0.035234266
0.035430412
0.035634764
0.035847316
0.03606805
0.036296945
0.036533999
0.036779195
0.037032511
0.037293912
0.037563356
0.037840793
0.038126163
0.038419395
0.038720412
0.039029126
0.039345444
0.039669262
0.040000468
0.040338934
0.040684519
0.041037062
0.041396389
0.041762305
0.042134598
0.042513039
0.042897385
0.043287382
0.043682767
0.04408327
0.044488624
0.044898569
0.04531286
0.045731268
0.046153556
0.046579414
0.032383871
0.032484417
0.032591252
0.032704824
0.032825302
0.03295287
0.033087714
0.033230014
0.033379933
0.033537618
0.033703197
0.033876781
0.034058476
0.034248372
0.034446532
0.034652999
0.034867795
0.035090924
0.035322374
0.035562121
0.035810133
0.036066372
0.036330793
0.036603344
0.036883964
0.037172588
0.03746914
0.037773542
0.038085708
0.038405547
0.038732948
0.039067812
0.039410028
0.039759474
0.040116018
0.040479518
0.040849817
0.041226747
0.041610128
0.04199977
0.042395471
0.042797024
0.043204217
0.043616833
0.044034657
0.044457478
0.044885091
0.045317306
0.045753944
0.046194816
0.046639658
0.031678164
0.031792476
0.031913337
0.03204118
0.032176163
0.032318446
0.032468194
0.032625565
0.032790699
0.032963725
0.033144754
0.033333886
0.033531204
0.03373678
0.033950665
0.034172892
0.034403479
0.034642426
0.034889718
0.035145327
0.035409215
0.035681333
0.035961625
0.036250023
0.036546456
0.036850845
0.037163106
0.037483147
0.037810869
0.03814617
0.038488955
0.038839106
0.039196501
0.039561011
0.0399325
0.040310824
0.040695829
0.041087355
0.041485233
0.041889289
0.042299346
0.042715225
0.043136746
0.043563732
0.04399601
0.044433412
0.044875777
0.045322957
0.045774811
0.046231188
0.046691857
0.031111793
0.031237708
0.03137039
0.03151022
0.031657333
0.031811871
0.031973982
0.032143802
0.032321456
0.032507055
0.032700698
0.032902468
0.03311244
0.033330669
0.033557201
0.033792064
0.034035271
0.034286822
0.034546701
0.034814882
0.035091324
0.035375978
0.035668785
0.035969675
0.036278574
0.036595398
0.036920059
0.037252461
0.037592504
0.037940082
0.038295081
0.038657383
0.03902686
0.039403381
0.039786805
0.040176989
0.040573779
0.040977022
0.041386557
0.041802223
0.042223862
0.042651315
0.043084429
0.043523057
0.043967055
0.044416288
0.044870629
0.045329957
0.045794159
0.046263109
0.046736601
0.030678003
0.030813104
0.030955106
0.031104341
0.031260937
0.031425023
0.031596734
0.031776192
0.03196351
0.032158787
0.032362113
0.032573562
0.0327932
0.033021078
0.033257236
0.0335017
0.033754482
0.034015584
0.034284991
0.03456268
0.034848612
0.035142742
0.035445011
0.035755353
0.036073693
0.036399949
0.03673403
0.037075839
0.037425274
0.037782224
0.038146572
0.038518195
0.038896963
0.03928274
0.039675385
0.040074753
0.040480694
0.040893054
0.041311683
0.041736428
0.042167144
0.042603688
0.043045925
0.04349373
0.04394698
0.044405564
0.044869375
0.045338313
0.04581228
0.046291165
0.046774777
0.03036079
0.030502701
0.030651607
0.030807787
0.030971363
0.031142459
0.031321198
0.031507695
0.031702055
0.031904371
0.032114725
0.032333189
0.032559823
0.032794678
0.03303779
0.033289187
0.033548881
0.033816876
0.034093162
0.034377717
0.034670508
0.034971492
0.035280615
0.035597814
0.035923017
0.036256142
0.036597101
0.036945796
0.037302124
0.037665972
0.038037221
0.038415747
0.038801416
0.039194092
0.039593631
0.039999888
0.040412713
0.040831956
0.041257471
0.041689113
0.042126744
0.042570233
0.04301946
0.04347431
0.043934678
0.044400466
0.044871581
0.045347933
0.045829433
0.046315978
0.046807379
0.030139937
0.03028662
0.03044036
0.030601387
0.03076982
0.03094578
0.031129383
0.031320741
0.031519954
0.031727111
0.031942292
0.032165568
0.032396998
0.032636632
0.032884507
0.033140652
0.033405084
0.033677806
0.033958814
0.034248089
0.034545602
0.034851316
0.035165179
0.035487133
0.035817108
0.036155025
0.036500798
0.03685433
0.037215517
0.037584247
0.0379604
0.03834385
0.038734464
0.039132101
0.03953662
0.039947873
0.040365712
0.040789989
0.04122056
0.041657285
0.042100033
0.04254868
0.043003114
0.043463229
0.04392893
0.044400126
0.044876731
0.045358661
0.045845829
0.046338132
0.046835381
0.029994964
0.030144812
0.030301752
0.030465972
0.030637594
0.030816737
0.031003513
0.031198032
0.031400391
0.031610681
0.03182898
0.03205536
0.03228988
0.032532591
0.032783535
0.03304274
0.033310226
0.033586002
0.033870064
0.0341624
0.034462985
0.034771783
0.035088748
0.035413826
0.035746949
0.036088042
0.03643702
0.036793788
0.037158243
0.037530273
0.037909759
0.038296573
0.038690583
0.039091647
0.039499622
0.039914362
0.040335719
0.040763547
0.041197703
0.041638052
0.042084464
0.042536823
0.042995019
0.043458953
0.043928534
0.044403677
0.044884296
0.045370307
0.045861624
0.04635814
0.046859658
0.029907452
0.030059268
0.030218192
0.03038438
0.030557954
0.030739034
0.030927733
0.031124157
0.031328406
0.031540569
0.031760727
0.031988952
0.032225306
0.032469842
0.032722604
0.032983623
0.033252922
0.033530513
0.033816397
0.034110564
0.034412993
0.034723653
0.0350425
0.035369483
0.035704539
0.036047594
0.036398565
0.03675736
0.037123877
0.037498005
0.037879625
0.03826861
0.038664826
0.039068134
0.03947839
0.039895448
0.04031916
0.040749381
0.041185972
0.041628796
0.04207773
0.042532657
0.042993472
0.043460078
0.043932387
0.044410312
0.044893768
0.04538267
0.045876926
0.046376425
0.04688096
0.029862118
0.030015057
0.030175103
0.030342389
0.030517042
0.030699179
0.030888915
0.031086356
0.031291604
0.031504749
0.031725873
0.031955052
0.032192348
0.032437819
0.032691509
0.032953455
0.033223682
0.033502204
0.033789026
0.034084142
0.034387533
0.034699171
0.035019018
0.035347024
0.035683128
0.036027261
0.03637934
0.036739276
0.037106967
0.037482304
0.037865169
0.038255436
0.038652971
0.039057635
0.039469285
0.039887775
0.040312959
0.040744693
0.041182836
0.041627256
0.04207783
0.042534443
0.04299699
0.043465377
0.043939514
0.044419314
0.04490469
0.045395552
0.045891802
0.046393324
0.046899902
0.029846626
0.030000126
0.03016072
0.030328528
0.030503677
0.030686287
0.030876474
0.031074345
0.031280002
0.031493538
0.031715037
0.031944577
0.032182223
0.032428035
0.032682059
0.032944333
0.033214887
0.033493738
0.033780894
0.03407635
0.034380094
0.034692099
0.035012329
0.035340738
0.035677268
0.03602185
0.036374405
0.036734846
0.037103072
0.037478976
0.03786244
0.038253341
0.038651544
0.039056912
0.039469302
0.039888568
0.040314566
0.040747153
0.041186188
0.041631542
0.042083089
0.042540718
0.043004324
0.043473812
0.04394909
0.04443007
0.044916661
0.045408768
0.045906287
0.046409096
0.046916969
0.029851792
0.030005476
0.030166237
0.030334182
0.03050944
0.030692135
0.030882382
0.031080292
0.031285966
0.0314995
0.031720981
0.031950487
0.032188089
0.032433845
0.032687808
0.032950019
0.033220507
0.033499294
0.033786387
0.034081788
0.034385483
0.03469745
0.035017655
0.035346054
0.035682591
0.0360272
0.036379803
0.036740314
0.037108636
0.037484662
0.037868275
0.038259351
0.038657761
0.039063366
0.039476024
0.039895593
0.040321926
0.040754883
0.041194325
0.041640121
0.042092148
0.042550294
0.043014454
0.043484531
0.043960433
0.044442068
0.044929342
0.045422154
0.045920395
0.046423935
0.04693254
0.029870906
0.030024539
0.030185226
0.030353066
0.030528192
0.030710729
0.030900792
0.031098495
0.031303941
0.031517228
0.031738444
0.031967671
0.032204979
0.032450432
0.032704082
0.032965974
0.033236139
0.0335146
0.03380137
0.03409645
0.034399829
0.034711487
0.035031392
0.035359502
0.035695763
0.03604011
0.036392469
0.036752754
0.037120869
0.03749671
0.037880161
0.0382711
0.038669396
0.039074914
0.039487513
0.03990705
0.040333382
0.040766366
0.041205866
0.041651752
0.042103901
0.0425622
0.043026545
0.043496837
0.043972981
0.044454884
0.044942446
0.045435563
0.045934119
0.046437979
0.046946899
0.029899067
0.030052507
0.030212975
0.030380566
0.030555414
0.030737646
0.030927381
0.031124732
0.031329804
0.031542696
0.031763501
0.0319923
0.032229167
0.032474167
0.032727355
0.032988776
0.033258464
0.033536446
0.033822733
0.03411733
0.034420229
0.03473141
0.035050844
0.03537849
0.035714296
0.036058198
0.036410124
0.036769989
0.037137699
0.037513151
0.037896231
0.038286818
0.038684782
0.03908999
0.039502301
0.039921573
0.040347665
0.040780435
0.041219748
0.041665473
0.042117488
0.04257568
0.043039943
0.043510179
0.04398629
0.044468179
0.044955743
0.045448872
0.045947446
0.046451327
0.04696026
0.0299328
0.030085966
0.030246134
0.030413393
0.030587883
0.03076973
0.030959055
0.031155972
0.031360589
0.031573007
0.031793319
0.03202161
0.032257954
0.032502418
0.03275506
0.033015925
0.033285051
0.033562464
0.03384818
0.034142203
0.034444526
0.034755133
0.035073994
0.035401071
0.035736313
0.036079659
0.036431035
0.036790361
0.037157542
0.037532476
0.037915052
0.038305148
0.038702639
0.039107389
0.039519261
0.039938114
0.040363806
0.040796198
0.041235154
0.041680544
0.042132247
0.04259015
0.043054145
0.043524132
0.044000013
0.044481687
0.044969047
0.04546198
0.045960361
0.046464047
0.046972778
0.029969677
0.030122528
0.030282353
0.030449241
0.030623332
0.030804755
0.03099363
0.031190075
0.031394199
0.031606104
0.031825885
0.032053628
0.03228941
0.032533299
0.032785355
0.033045624
0.033314146
0.033590947
0.033876046
0.034169448
0.034471147
0.034781128
0.035099364
0.035425816
0.035760435
0.036103161
0.036453923
0.03681264
0.037179219
0.037553559
0.03793555
0.038325073
0.038722002
0.039126203
0.03953754
0.039955874
0.040381063
0.040812968
0.041251456
0.041696397
0.042147669
0.042605158
0.043068757
0.043538365
0.044013879
0.044495198
0.044982212
0.045474803
0.045972843
0.046476186
0.046984564
0.030008024
0.030160542
0.030320009
0.03048651
0.030660188
0.030841172
0.031029585
0.031225544
0.031429162
0.031640542
0.03185978
0.032086964
0.032322173
0.032565476
0.032816933
0.033076593
0.033344497
0.033620673
0.033905139
0.034197903
0.03449896
0.034808296
0.035125884
0.035451687
0.035785657
0.036127735
0.036477851
0.036835924
0.037201864
0.037575571
0.037956935
0.038345838
0.038742155
0.039145755
0.039556502
0.039974256
0.040398879
0.040830233
0.041268183
0.041712601
0.042163366
0.042620361
0.043083481
0.043552622
0.04402768
0.044508551
0.044995123
0.045487274
0.045984874
0.046487774
0.0469957
0.030046696
0.03019888
0.030357989
0.030524104
0.030697369
0.030877916
0.031065869
0.031261347
0.031464462
0.031675321
0.031894021
0.032120651
0.032355292
0.032598013
0.032848877
0.033107934
0.033375225
0.033650779
0.033934616
0.034226744
0.03452716
0.034835851
0.03515279
0.035477941
0.035811257
0.036152681
0.036502142
0.036859562
0.03722485
0.037597908
0.037978627
0.03836689
0.038762573
0.039165547
0.039575675
0.03999282
0.040416844
0.04084761
0.041284983
0.041728836
0.042179047
0.042635502
0.043098091
0.043566711
0.044041257
0.044521622
0.045007692
0.045499341
0.045996438
0.046498831
0.047006241
0.03008492
0.030236775
0.03039554
0.03056128
0.030734143
0.030914264
0.031101769
0.031296777
0.031499404
0.031709756
0.031927933
0.032154024
0.032388112
0.032630268
0.032880554
0.033139022
0.033405715
0.033680663
0.033963885
0.034255392
0.034555181
0.034863238
0.03517954
0.03550405
0.035836722
0.036177499
0.036526313
0.036883084
0.037247724
0.037620135
0.038000209
0.03838783
0.038782875
0.039185216
0.039594717
0.040011242
0.040434654
0.040864817
0.041301596
0.041744864
0.0421945
0.042650389
0.043112421
0.043580491
0.044054493
0.044534319
0.04501985
0.045510962
0.046007519
0.04650937
0.047016229
0.030122162
0.030273713
0.030432161
0.030597545
0.030770022
0.030949734
0.031136807
0.031331364
0.03153352
0.031743385
0.031961058
0.032186631
0.032420187
0.032661799
0.032911529
0.033169431
0.033435548
0.033709911
0.03399254
0.034283447
0.034582629
0.034890074
0.035205758
0.035529646
0.035861693
0.036201841
0.036550022
0.03690616
0.037270166
0.037641943
0.038021383
0.038408372
0.038802788
0.039204503
0.039613382
0.040029291
0.040452093
0.040881651
0.041317834
0.041760513
0.042209568
0.042664882
0.043126347
0.043593855
0.044067301
0.044546572
0.04503155
0.045522108
0.046018108
0.046519399
0.04702569
0.030157996
0.030309388
0.030467525
0.030632577
0.030804687
0.030984007
0.031170669
0.031364795
0.031566503
0.031775902
0.031993095
0.032218174
0.032451223
0.032692314
0.032941514
0.033198875
0.033464441
0.033738244
0.034020306
0.034310638
0.034609239
0.034916096
0.035231187
0.035554477
0.035885921
0.036225463
0.036573036
0.036928562
0.037291955
0.037663117
0.038041943
0.038428318
0.038822121
0.039223224
0.039631496
0.040046802
0.040469004
0.040897969
0.041333564
0.041775661
0.04222414
0.042678884
0.043139784
0.043606731
0.044079618
0.044558334
0.045042756
0.045532757
0.046028198
0.046528926
0.047034648
0.030343541
0.030501442
0.030666178
0.030837938
0.031016886
0.031203156
0.031396873
0.031598156
0.031807114
0.032023851
0.032248461
0.032481027
0.032721626
0.03297032
0.033227167
0.033492209
0.03376548
0.034047002
0.034336787
0.034634833
0.03494113
0.035255655
0.035578375
0.035909243
0.036248206
0.036595195
0.036950135
0.037312939
0.037683511
0.038061746
0.038447529
0.038840742
0.039241256
0.03964894
0.040063661
0.040485283
0.040913671
0.041348693
0.041790223
0.042238139
0.042692325
0.04315267
0.043619066
0.044091404
0.044569571
0.045053445
0.045542895
0.046037784
0.046537958
0.047043117
0.030376303
0.030533818
0.03069823
0.030869655
0.03104825
0.03123415
0.031427481
0.031628361
0.031836903
0.032053209
0.032277375
0.032509485
0.032749617
0.032997834
0.033254193
0.033518739
0.033791506
0.034072516
0.034361782
0.034659302
0.034965067
0.035279055
0.035601232
0.035931553
0.036269963
0.036616397
0.036970779
0.037333022
0.03770303
0.0380807
0.038465918
0.038858565
0.039258514
0.039665635
0.040079794
0.040500857
0.04092869
0.04136316
0.041804142
0.042251513
0.042705158
0.043164965
0.043630826
0.044102629
0.044580262
0.045063602
0.045552516
0.046046866
0.046546499
0.047051112
0.030407359
0.030564557
0.030728666
0.030899774
0.031078037
0.031263588
0.031456555
0.031657056
0.031865205
0.032081105
0.032304853
0.032536533
0.032776224
0.03302399
0.03327989
0.033543967
0.033816257
0.034096784
0.034385558
0.034682581
0.034987843
0.035301322
0.035622984
0.035952787
0.036290674
0.036636582
0.036990433
0.037352143
0.037721616
0.038098748
0.038483428
0.038875536
0.039274947
0.039681531
0.040095155
0.040515684
0.040942985
0.041376927
0.041817384
0.042264232
0.042717357
0.043176647
0.043641991
0.04411328
0.044590397
0.04507322
0.045561616
0.046055446
0.046554558
0.047058644
0.030436705
0.030593632
0.03075746
0.030928272
0.031106222
0.031291446
0.031484071
0.031684216
0.031891996
0.032107514
0.032330867
0.032562143
0.032801419
0.033048761
0.033304228
0.033567864
0.033839705
0.034119774
0.034408085
0.03470464
0.035009426
0.035322424
0.035643601
0.035972914
0.036310307
0.036655716
0.037009066
0.037370271
0.037739237
0.038115861
0.038500031
0.038891629
0.039290529
0.039696602
0.040109717
0.040529739
0.040956534
0.041389973
0.041829929
0.042276279
0.042728908
0.043187702
0.043652553
0.044123348
0.044599971
0.045082299
0.045570198
0.04606353
0.046562143
0.047065724
0.030464368
0.03062105
0.030784617
0.030955151
0.03113281
0.031317727
0.031510031
0.031709843
0.031917275
0.032132435
0.032355419
0.032586315
0.032825201
0.033072145
0.033327204
0.033590424
0.033861842
0.034141483
0.034429358
0.03472547
0.035029809
0.035342355
0.035663074
0.035991924
0.036328851
0.03667379
0.037026667
0.037387396
0.037755884
0.038132027
0.038515716
0.03890683
0.039305248
0.039710839
0.040123471
0.040543012
0.040969329
0.041402291
0.041841771
0.042287648
0.042739805
0.043198129
0.043662509
0.044132834
0.044608987
0.045090843
0.045578268
0.046071125
0.046569263
0.047072364
0.030490379
0.030646835
0.03081016
0.030980436
0.031157821
0.031342452
0.031534457
0.031733956
0.031941064
0.032155888
0.032378526
0.032609066
0.032847586
0.033094155
0.033348832
0.033611663
0.033882684
0.03416192
0.034449386
0.034745083
0.035049001
0.035361121
0.035681409
0.036009825
0.036346313
0.03669081
0.037043241
0.037403522
0.037771559
0.03814725
0.038530484
0.038921144
0.039319106
0.039724242
0.04013642
0.040555507
0.040981372
0.041413883
0.041852914
0.042298343
0.042750053
0.043207931
0.043671865
0.044141744
0.04461745
0.045098858
0.045585835
0.04607824
0.046575928
0.047078574
0.03051478
0.030671027
0.030834126
0.031004162
0.031181293
0.031365657
0.031557381
0.031756588
0.031963394
0.032177904
0.032400218
0.032630424
0.032868602
0.033114821
0.033369139
0.033631605
0.033902254
0.034181112
0.034468193
0.034763499
0.035067023
0.035378742
0.035698627
0.036026634
0.03636271
0.036706791
0.037058804
0.037418663
0.037786277
0.038161542
0.03854435
0.038934582
0.039332116
0.039736823
0.040148573
0.040567234
0.040992672
0.041424759
0.041863366
0.042308373
0.042759661
0.043217118
0.043680631
0.044150089
0.044625372
0.045106357
0.045592908
0.046084888
0.046582151
0.047084368
0.030537619
0.030693671
0.030856561
0.031026373
0.031203268
0.031387383
0.031578847
0.031777783
0.031984305
0.032198523
0.032420535
0.03265043
0.032888288
0.033134179
0.033388162
0.033650285
0.033920585
0.034199089
0.034485809
0.034780751
0.035083903
0.035395248
0.035714754
0.036042378
0.036378067
0.036721759
0.037073379
0.037432843
0.037800059
0.038174925
0.038557332
0.038947163
0.039344294
0.0397486
0.040159948
0.040578208
0.041003246
0.041434933
0.041873143
0.042317752
0.042768644
0.043225704
0.04368882
0.04415788
0.044632766
0.045113351
0.045599502
0.046091081
0.046587944
0.047089757
0.030558948
0.03071482
0.030877516
0.031047122
0.031223798
0.031407682
0.031598904
0.031797587
0.032003846
0.032217791
0.032439521
0.032669125
0.032906685
0.03315227
0.03340594
0.033667743
0.033937718
0.034215889
0.034502273
0.034796872
0.035099679
0.035410672
0.035729823
0.036057088
0.036392416
0.036735742
0.037086994
0.037446088
0.037812932
0.038187424
0.038569456
0.03895891
0.039355665
0.039759594
0.040170566
0.04058845
0.041013113
0.041444426
0.041882261
0.042326498
0.042777017
0.043233704
0.043696448
0.044165135
0.044639646
0.045119855
0.04560563
0.046096832
0.046593321
0.047094755
0.030578825
0.03073453
0.030897048
0.031066462
0.031242935
0.031426606
0.031617603
0.031816052
0.032022067
0.032235758
0.032457226
0.03268656
0.032923842
0.033169141
0.033422519
0.033684024
0.033953694
0.034231556
0.034517625
0.034811905
0.035114387
0.035425053
0.035743871
0.036070801
0.03640579
0.036748775
0.037099683
0.03745843
0.037824926
0.038199069
0.038580749
0.038969852
0.039366255
0.039769832
0.040180452
0.040597983
0.041022295
0.041453258
0.041890744
0.042334631
0.042784801
0.043241139
0.043703533
0.044171869
0.044646029
0.045125886
0.045611308
0.046102158
0.046598296
0.047099376
0.030597309
0.03075286
0.030915212
0.03108445
0.031260737
0.03144421
0.031635
0.031833231
0.03203902
0.032252476
0.0324737
0.032702783
0.032939807
0.033184841
0.033437947
0.033699174
0.033968561
0.034246134
0.034531909
0.03482589
0.03512807
0.035438429
0.035756938
0.036083554
0.036418227
0.036760893
0.037111479
0.037469904
0.037836074
0.03820989
0.038591243
0.038980018
0.039376092
0.039779339
0.040189631
0.040606834
0.041030818
0.041461453
0.041898612
0.042342172
0.042792015
0.043248027
0.043710094
0.044178102
0.044651933
0.045131461
0.045616552
0.046107073
0.046602884
0.047103633
0.03061446
0.030769869
0.030932069
0.031101145
0.03127726
0.031460552
0.031651151
0.031849181
0.032054761
0.032267999
0.032488998
0.032717848
0.032954631
0.033199419
0.033452272
0.033713241
0.033982363
0.034259667
0.034545169
0.034838872
0.03514077
0.035450844
0.035769063
0.036095388
0.036429765
0.036772134
0.037122421
0.037480544
0.037846411
0.038219922
0.03860097
0.038989438
0.039385206
0.039788147
0.040198131
0.040615028
0.041038706
0.041469036
0.041905889
0.042349145
0.042798683
0.04325439
0.043716151
0.044183852
0.044657376
0.045136596
0.04562138
0.046111593
0.0466071
0.047107542
0.030630338
0.030785615
0.030947676
0.031116604
0.031292561
0.031475687
0.031666111
0.031863956
0.032069343
0.03228238
0.03250317
0.032731804
0.032968365
0.033212924
0.033465543
0.033726272
0.03399515
0.034272204
0.034557451
0.034850896
0.035152531
0.035462338
0.035780289
0.036106341
0.036440444
0.036782536
0.037132544
0.037490386
0.037855971
0.038229199
0.038609962
0.038998145
0.039393627
0.039796283
0.040205982
0.040622594
0.041045987
0.041476032
0.041912601
0.042355573
0.042804827
0.043260248
0.043721724
0.04418914
0.044662377
0.045141311
0.045625808
0.046115735
0.04661096
0.047111116
0.030645001
0.030800157
0.030962091
0.031130884
0.031306699
0.031489673
0.031679936
0.031877612
0.032082821
0.032295673
0.03251627
0.032744705
0.032981061
0.033225409
0.033477811
0.033738317
0.034006967
0.034283789
0.0345688
0.034862004
0.035163396
0.035472956
0.035790656
0.036116456
0.036450304
0.036792137
0.037141886
0.037499467
0.037864789
0.038237754
0.038618252
0.039006171
0.039401388
0.039803778
0.040213211
0.040629558
0.041052687
0.041482467
0.041918772
0.042361479
0.042810469
0.043265625
0.043726835
0.044193985
0.044666956
0.045145622
0.045629853
0.046119515
0.046614478
0.047114371
0.030658509
0.030813554
0.030975372
0.031144043
0.031319729
0.031502565
0.031692681
0.031890202
0.032095248
0.03230793
0.03252835
0.032756602
0.032992768
0.033236921
0.033489122
0.033749423
0.034017862
0.03429447
0.034579261
0.034872243
0.035173408
0.035482739
0.035800207
0.036125771
0.036459382
0.036800976
0.037150484
0.037507822
0.037872901
0.038245621
0.038625874
0.039013547
0.039408517
0.039810661
0.040219849
0.040635949
0.041058832
0.041488367
0.041924426
0.042366888
0.042815631
0.043270542
0.043731505
0.044198407
0.04467113
0.045149549
0.045633532
0.046122949
0.046617671
0.047117319
0.030670918
0.03082586
0.030987575
0.031156137
0.031331706
0.031514418
0.031704402
0.031901781
0.032106678
0.032319203
0.032539461
0.032767544
0.033003536
0.033247509
0.033499525
0.033759636
0.034027881
0.03430429
0.034588879
0.034881654
0.035182609
0.035491727
0.03580898
0.036134327
0.036467717
0.03680909
0.037158374
0.037515488
0.037880341
0.038252834
0.03863286
0.039020305
0.039415047
0.039816963
0.040225922
0.040641795
0.04106445
0.041493757
0.041929589
0.042371822
0.042820338
0.04327502
0.043735754
0.044202426
0.04467492
0.045153109
0.045636864
0.046126053
0.046620553
0.047119976
0.030682284
0.030837132
0.030998754
0.031167219
0.031342685
0.031525286
0.031715149
0.0319124
0.03211716
0.032329543
0.032549652
0.032777581
0.033013413
0.033257221
0.033509067
0.033769003
0.034037069
0.034313294
0.034597695
0.03489028
0.035191041
0.035499963
0.035817016
0.036142161
0.036475348
0.036816516
0.037165593
0.037522499
0.037887143
0.038259426
0.038639242
0.039026476
0.039421007
0.039822712
0.04023146
0.040647122
0.041069566
0.041498662
0.041934283
0.042376306
0.04282461
0.04327908
0.043739602
0.044206062
0.044678343
0.04515632
0.045639863
0.046128843
0.046623139
0.047122356
0.03069266
0.030847421
0.031008962
0.031177343
0.031352719
0.03153522
0.031724975
0.03192211
0.032126746
0.032338999
0.032558972
0.03278676
0.033022445
0.033266102
0.033517792
0.033777567
0.034045468
0.034321524
0.034605753
0.034898161
0.035198744
0.035507484
0.035824353
0.036149312
0.036482311
0.036823289
0.037172175
0.037528889
0.03789334
0.038265429
0.038645051
0.03903209
0.039426426
0.039827936
0.040236489
0.040651956
0.041074206
0.041503107
0.041938534
0.042380361
0.04282847
0.043282744
0.04374307
0.044209334
0.044681418
0.045159199
0.045642548
0.046131335
0.046625444
0.047124472
0.030702095
0.030856778
0.031018252
0.031186561
0.031361858
0.031544272
0.03173393
0.031930959
0.032135483
0.032347618
0.032567468
0.032795127
0.033030679
0.033274198
0.033525745
0.033785372
0.034053122
0.034329022
0.034613093