/*--------------------------------*- C++ -*----------------------------------*\
| =========                 |                                                 |
| \\      /  F ield         | OpenFOAM: The Open Source CFD Toolbox           |
|  \\    /   O peration     | Version:  2312                                  |
|   \\  /    A nd           | Website:  www.openfoam.com                      |
|    \\/     M anipulation  |                                                 |
\*---------------------------------------------------------------------------*/
FoamFile
{
    version     2.0;
    format      ascii;
    arch        "LSB;label=32;scalar=64";
    class       volScalarField;
    location    "0.03";
    object      omega;
}
// * * * * * * * * * * * * * * * * * * * * * * * * * * * * * * * * * * * * * //

dimensions      [0 0 -1 0 0 0 0];

internalField   nonuniform List<scalar> 
3257
(
265.01734
264.75012
264.47378
264.18673
263.88755
263.57521
263.24905
262.90886
262.55482
262.18762
261.80862
261.42025
261.02662
260.63407
260.25122
259.88778
259.55189
259.24658
258.96672
258.69857
258.42228
258.11676
257.7646
257.35503
256.88429
256.3542
255.76992
255.13804
254.46515
253.75717
253.01882
252.25445
251.46927
250.67041
249.86514
249.05769
248.25011
247.44292
246.6371
245.83368
245.04093
244.27054
243.52767
242.81923
242.14651
241.51655
240.91747
240.33408
239.69722
239.15671
238.86315
265.47537
265.19132
264.89734
264.59183
264.27327
263.9405
263.59276
263.22963
262.85116
262.45782
262.05082
261.63234
261.20616
260.77801
260.35554
259.94722
259.55984
259.19552
258.84924
258.5087
258.15695
257.77668
257.35408
256.88096
256.35462
255.7765
255.15052
254.48168
253.77511
253.03579
252.26844
251.47806
250.6701
249.85104
249.02626
248.19842
247.36906
246.54059
245.71642
244.90027
244.09872
243.31795
242.5609
241.83341
241.14507
240.51033
239.94193
239.45276
239.04939
238.74361
238.57781
266.19578
265.87757
265.5479
265.20519
264.8478
264.47445
264.08417
263.67639
263.25086
262.80781
262.34806
261.87326
261.38623
260.89116
260.39337
259.89834
259.4099
258.9281
258.44791
257.95961
257.45118
256.91154
256.33314
255.71291
255.05164
254.35269
253.62071
252.86083
252.07805
251.27723
250.463
249.64006
248.81315
247.98688
247.16503
246.35027
245.54536
244.7538
243.98018
243.22972
242.5081
241.82074
241.1724
240.56922
240.01896
239.53012
239.10993
238.76458
238.49871
238.31568
238.22105
266.90099
266.53283
266.15148
265.75541
265.34298
264.91284
264.46397
263.99565
263.50752
262.99957
262.47229
261.92676
261.36479
260.789
260.20249
259.60822
259.00789
258.40083
257.78354
257.15034
256.49508
255.81315
255.10278
254.36521
253.6039
252.82346
252.02878
251.22448
250.41471
249.60319
248.79322
247.98796
247.19033
246.40298
245.62835
244.86871
244.12622
243.40366
242.70475
242.03402
241.39625
240.7959
240.23738
239.72557
239.26567
238.86273
238.52105
238.24402
238.03405
237.89266
237.82104
267.2666
266.83945
266.39774
265.94005
265.46485
264.9709
264.45724
263.92322
263.36852
262.79312
262.19739
261.58212
260.94854
260.29831
259.6333
258.9552
258.265
257.56255
256.84654
256.11501
255.36638
254.60035
253.81843
253.02368
252.22012
251.412
250.60332
249.79751
248.99745
248.20552
247.42372
246.65385
245.89752
245.15653
244.43227
243.72627
243.04036
242.37693
241.73892
241.12975
240.55314
240.01288
239.51281
239.05685
238.64886
238.29242
237.99062
237.74595
237.56032
237.43517
237.37183
266.9933
266.50849
266.00861
265.49235
264.95844
264.40584
263.83382
263.24194
262.63007
261.9984
261.34739
260.67786
259.99089
259.28783
258.57014
257.83918
257.09603
256.34133
255.5754
254.79859
254.0117
253.21641
252.41524
251.6114
250.80833
250.0093
249.21719
248.43441
247.66285
246.90407
246.15932
245.42978
244.71672
244.02117
243.34426
242.68728
242.05185
241.43993
240.85387
240.29638
239.7704
239.27903
238.82546
238.41282
238.04416
237.72226
237.44957
237.22816
237.05975
236.94582
236.88792
265.88352
265.35404
264.81016
264.25059
263.67436
263.08072
262.46921
261.83968
261.19225
260.52736
259.84571
259.14824
258.43614
257.71077
256.97354
256.22587
255.46907
254.70431
253.93275
253.15569
252.37476
251.59204
250.80999
250.03126
249.25846
248.494
247.73995
246.99804
246.26963
245.55591
244.85805
244.17697
243.5135
242.86851
242.24302
241.63821
241.05546
240.49644
239.96304
239.4574
238.98186
238.53888
238.13099
237.76067
237.4303
237.14208
236.89796
236.69965
236.54864
236.44629
236.39408
263.89888
263.34771
262.78396
262.20621
261.61378
261.00617
260.38318
259.74487
259.0916
258.424
257.74293
257.04948
256.34492
255.63064
254.90811
254.17877
253.44406
252.70536
251.96407
251.22168
250.47986
249.74049
249.00557
248.27712
247.55705
246.84706
246.14882
245.46373
244.793
244.1376
243.49831
242.87591
242.2712
241.68501
241.11828
240.57204
240.04749
239.546
239.06909
238.61846
238.19593
237.80343
237.4429
237.11628
236.8254
236.57195
236.35748
236.18334
236.05073
235.96079
235.9148
261.17782
260.63333
260.07883
259.51268
258.93434
258.34352
257.74012
257.12437
256.49671
255.85784
255.20869
254.55036
253.8841
253.21127
252.53329
251.85157
251.16749
250.48241
249.79769
249.11468
248.43478
247.75962
247.09078
246.42981
245.77818
245.13732
244.50835
243.89227
243.29003
242.70249
242.1304
241.57451
241.03556
240.51435
240.01169
239.52849
239.06577
238.62462
238.20629
237.8121
237.44347
237.10188
236.78884
236.50581
236.2542
236.03531
235.85031
235.70023
235.58602
235.50854
235.46888
258.00456
257.49385
256.97587
256.44866
255.91175
255.36488
254.80802
254.24137
253.66537
253.08069
252.48816
251.88872
251.28358
250.674
250.06128
249.4467
248.83153
248.21704
247.60445
246.99502
246.39004
245.79059
245.19788
244.61309
244.03735
243.47174
242.91722
242.37466
241.84488
241.32866
240.82668
240.33964
239.86824
239.41317
238.97516
238.555
238.15351
237.77162
237.41029
237.07058
236.75359
236.46048
236.19241
235.95048
235.73578
235.54929
235.39188
235.26433
235.16732
235.10153
235.06783
254.73362
254.27593
253.81328
253.34346
252.86592
252.3804
251.8868
251.38526
250.87615
250.36004
249.83765
249.30992
248.77776
248.24217
247.70424
247.1651
246.62587
246.08769
245.55164
245.0188
244.49024
243.96695
243.44997
242.94028
242.43881
241.94648
241.4641
240.99249
240.53236
240.08441
239.64925
239.22751
238.81985
238.42687
238.04921
237.68754
237.34256
237.015
236.70565
236.41535
236.14498
235.89542
235.66758
235.46232
235.28045
235.12271
234.98975
234.88214
234.80036
234.74489
234.7165
251.69756
251.30112
250.90123
250.49556
250.08349
249.66464
249.23884
248.8061
248.36666
247.92096
247.46956
247.0132
246.55267
246.08887
245.62275
245.15533
244.6876
244.22058
243.75528
243.29267
242.83371
242.37936
241.93051
241.48805
241.05282
240.62563
240.20724
239.79837
239.39968
239.01179
238.63537
238.27097
237.91912
237.58038
237.25529
236.94442
236.64835
236.36768
236.10305
235.85514
235.62464
235.41224
235.21864
235.04453
234.89051
234.75713
234.64486
234.5541
234.48518
234.43844
234.41455
249.1297
248.78996
248.44777
248.10072
247.74803
247.38921
247.02398
246.65226
246.27419
245.89008
245.50038
245.10569
244.70673
244.30428
243.89921
243.49242
243.08486
242.67746
242.27118
241.86694
241.46567
241.06827
240.67559
240.28847
239.90772
239.5341
239.16831
238.81103
238.4629
238.12451
237.79641
237.47912
237.17314
236.87894
236.59701
236.32781
236.07183
235.82956
235.60154
235.38828
235.19034
235.00827
234.84262
234.69389
234.56257
234.44904
234.35362
234.27659
234.21812
234.17849
234.15829
247.12058
246.82664
246.5305
246.22997
245.92419
245.61259
245.29482
244.97074
244.64039
244.30401
243.96199
243.61486
243.26324
242.90787
242.54956
242.18915
241.82754
241.46565
241.10438
240.74466
240.38738
240.03342
239.68363
239.33881
238.99975
238.66718
238.34179
238.02422
237.71506
237.41488
237.12418
236.84343
236.57308
236.31356
236.06526
235.8286
235.60397
235.39177
235.19243
235.00635
234.83399
234.67576
234.53208
234.40335
234.28991
234.19202
234.10991
234.0437
233.99351
233.9595
233.94222
245.65728
245.39539
245.13133
244.86313
244.58991
244.31104
244.02612
243.73496
243.43759
243.13419
242.82511
242.51083
242.19194
241.86916
241.54324
241.21502
240.88538
240.5552
240.22539
239.89686
239.5705
239.24718
238.92774
238.61298
238.30366
238.0005
237.70417
237.41529
237.13442
236.8621
236.59878
236.34491
236.10089
235.86708
235.64383
235.43148
235.23036
235.04078
234.86307
234.69757
234.5446
234.4045
234.27758
234.16413
234.06437
233.97849
233.9066
233.84872
233.8049
233.77523
233.76023
244.6633
244.42058
244.17563
243.92674
243.67297
243.41369
243.14848
242.87713
242.59964
242.31617
242.02707
241.7328
241.43393
241.13117
240.82526
240.51704
240.20737
239.89713
239.58724
239.27859
238.97208
238.66858
238.36892
238.0739
237.78427
237.50073
237.22395
236.95452
236.69297
236.43982
236.1955
235.96041
235.7349
235.5193
235.3139
235.11899
234.93481
234.76162
234.59968
234.44924
234.31054
234.18383
234.06933
233.96724
233.87771
233.80082
233.73659
233.68499
233.64597
233.61959
233.60632
244.03846
243.80459
243.5684
243.32844
243.08376
242.8337
242.57784
242.31597
242.04809
241.77437
241.49513
241.21085
240.92211
240.62961
240.33409
240.03639
239.73738
239.43795
239.13901
238.84147
238.54622
238.25413
237.96603
237.68272
237.40495
237.1334
236.86873
236.6115
236.36226
236.12146
235.88953
235.66682
235.45367
235.25034
235.0571
234.87416
234.70172
234.53999
234.38915
234.24938
234.12087
234.00377
233.89824
233.80441
233.72232
233.65201
233.59342
233.54646
233.511
233.48706
233.47509
243.68553
243.45304
243.21819
242.97971
242.73667
242.48839
242.23446
241.97469
241.70908
241.4378
241.16119
240.87974
240.59403
240.30477
240.01274
239.71875
239.4237
239.12848
238.83402
238.54122
238.25098
237.96417
237.68163
237.40415
237.13248
236.86729
236.60923
236.35885
236.11667
235.88314
235.65865
235.44353
235.23808
235.04254
234.85712
234.682
234.51734
234.36329
234.21997
234.08752
233.96604
233.85565
233.75644
233.66844
233.59167
233.52608
233.47156
233.42795
233.39509
233.37293
233.36193
243.52307
243.28699
243.04855
242.80663
242.56028
242.30886
242.05194
241.78936
241.52112
241.24741
240.9686
240.68518
240.39775
240.10704
239.81381
239.51894
239.2233
238.9278
238.63338
238.34096
238.05143
237.76567
237.48452
237.20878
236.93917
236.67638
236.42104
236.1737
235.93485
235.70493
235.48431
235.27331
235.07218
234.88115
234.70039
234.53004
234.37023
234.22106
234.08261
233.95495
233.83817
233.7323
233.63739
233.55342
233.48035
233.41807
233.36642
233.32519
233.29419
233.27333
233.26303
243.48871
243.246
243.00093
242.75251
242.49981
242.24218
241.97922
241.71077
241.43685
241.15769
240.87364
240.58523
240.29308
239.99792
239.70055
239.40183
239.10268
238.80401
238.50676
238.21186
237.92022
237.63272
237.35019
237.07344
236.80319
236.54012
236.28486
236.03794
235.79986
235.57103
235.3518
235.14247
234.94329
234.75445
234.57609
234.40833
234.25126
234.10495
233.96943
233.84475
233.73094
233.62799
233.53591
233.45463
233.38405
233.32403
233.27436
233.2348
233.2051
233.18515
233.17537
243.53744
243.28633
243.03291
242.77626
242.51546
242.24987
241.97911
241.70303
241.42167
241.13527
240.84421
240.54904
240.25039
239.949
239.64571
239.34139
239.03695
238.73333
238.43148
238.13234
237.83682
237.54581
237.26016
236.98064
236.708
236.44292
236.18601
235.9378
235.69877
235.46933
235.24982
235.04052
234.84166
234.6534
234.47588
234.30919
234.15338
234.00849
233.87454
233.75153
233.63945
233.53827
233.44794
233.36837
233.29941
233.24089
233.19255
233.15411
233.12531
233.106
233.09659
243.63799
243.37761
243.11497
242.84922
242.57943
242.30499
242.02552
241.74089
241.45117
241.1566
240.85759
240.5547
240.24859
239.94002
239.62982
239.3189
239.00817
238.6986
238.39114
238.08673
237.7863
237.49074
237.20089
236.91755
236.64146
236.37328
236.11363
235.86303
235.62197
235.39082
235.16994
234.95958
234.75995
234.57121
234.39347
234.2268
234.07124
233.92679
233.79345
233.6712
233.55998
233.45975
233.37042
233.29185
233.22389
233.1663
233.11881
233.08111
233.05291
233.03404
233.02488
243.7693
243.49932
243.22713
242.95193
242.67281
242.38915
242.10061
241.80706
241.50858
241.20545
240.89808
240.58705
240.27305
239.95683
239.63927
239.32127
239.00378
238.68774
238.37414
238.06393
237.75804
237.45735
237.16273
236.87497
236.5948
236.3229
236.05987
235.80624
235.56246
235.32894
235.106
234.89388
234.6928
234.50288
234.32423
234.1569
234.0009
233.85622
233.72284
233.60071
233.48976
233.38991
233.30103
233.22298
233.15555
233.0985
233.05152
233.01429
232.98647
232.96788
232.9589
243.91743
243.63784
243.3561
243.07144
242.78297
242.49007
242.19242
241.8899
241.58261
241.27084
240.95504
240.63578
240.31376
239.98979
239.66473
239.3395
239.01506
238.69238
238.37244
238.0562
237.7446
237.43854
237.13888
236.8464
236.56185
236.2859
236.01914
235.7621
235.51525
235.27896
235.05355
234.83927
234.6363
234.44477
234.26477
234.09633
233.93945
233.79412
233.66027
233.53784
233.42674
233.32687
233.23808
233.1602
233.093
233.03621
232.9895
232.95252
232.92493
232.90652
232.89766
244.0733
243.7843
243.4932
243.19927
242.90162
242.59965
242.29304
241.9817
241.66575
241.34547
241.02135
240.69396
240.36404
240.03238
239.69988
239.36747
239.03611
238.7068
238.38052
238.05823
237.74089
237.4294
237.12461
236.82732
236.53827
236.25814
235.98751
235.72691
235.47679
235.23754
235.00945
234.79277
234.58768
234.39429
234.21267
234.04286
233.88483
233.73855
233.60395
233.48095
233.36943
233.26928
233.18033
233.10238
233.03519
232.97846
232.93185
232.89499
232.86752
232.84921
232.84043
244.23108
243.93299
243.63282
243.32991
243.02337
242.7126
242.39732
242.07743
241.75306
241.42453
241.09232
240.75703
240.4194
240.08026
239.7405
239.40107
239.06295
238.72714
238.39463
238.0664
237.7434
237.42654
237.11668
236.81462
236.52109
236.23677
235.96225
235.69805
235.44461
235.20232
234.97147
234.75229
234.54496
234.34958
234.16621
233.99487
233.83553
233.68814
233.55262
233.42887
233.31676
233.21616
233.12688
233.04871
232.98139
232.92459
232.87796
232.84111
232.81368
232.79541
232.78668
244.3871
244.08027
243.7714
243.45986
243.14477
242.82556
242.50193
242.17382
241.84136
241.50489
241.16489
240.82198
240.47693
240.13057
239.7838
239.43759
239.09293
238.75083
238.41229
238.07829
237.7498
237.42771
237.1129
236.80617
236.50826
236.21983
235.94148
235.67372
235.41699
235.17168
234.93806
234.71636
234.50675
234.30933
234.12416
233.95122
233.79049
233.6419
233.50537
233.38077
233.26797
233.16681
233.0771
232.9986
232.93104
232.87408
232.82735
232.79045
232.76301
232.74474
232.73605
244.53908
244.22393
243.90668
243.58689
243.26363
242.93636
242.60476
242.2688
241.92861
241.58454
241.23708
240.88689
240.53473
240.18144
239.82796
239.47525
239.12431
238.77617
238.43183
238.09228
237.75849
237.43137
237.11179
236.80056
236.4984
236.20599
235.92391
235.65269
235.39276
235.14448
234.90814
234.68396
234.4721
234.27265
234.08566
233.91111
233.74896
233.59915
233.46155
233.33605
233.2225
233.12073
233.03052
232.95163
232.88377
232.82659
232.77971
232.74272
232.71522
232.69693
232.68824
244.6858
244.36264
244.03734
243.70965
243.37863
243.04368
242.70451
242.36107
242.01352
241.66221
241.30766
240.95053
240.59159
240.2317
239.87181
239.51289
239.15596
238.80205
238.45216
238.10731
237.76845
237.43652
237.11236
236.7968
236.49057
236.19433
235.90868
235.63412
235.37109
235.11994
234.88097
234.65439
234.44033
234.2389
234.05012
233.87398
233.71043
233.55937
233.42071
233.29429
233.17997
233.07755
232.98681
232.9075
232.8393
232.78187
232.7348
232.69768
232.6701
232.65177
232.64309
244.82726
244.49542
244.16255
243.82733
243.48895
243.14674
242.80039
242.44986
242.09533
241.73715
241.37586
241.01214
240.64675
240.28059
239.91461
239.54979
239.18716
238.82775
238.47259
238.12269
237.77901
237.44248
237.11397
236.79428
236.48416
236.18427
235.89519
235.61744
235.35144
235.09755
234.85605
234.62715
234.41098
234.20762
234.01711
233.83943
233.6745
233.52224
233.38252
233.25519
233.14009
233.03701
232.94574
232.86598
232.79744
232.73973
232.69246
232.65519
232.62751
232.60913
232.60043
244.62227
244.28179
243.93948
243.59417
243.2451
242.89196
242.53473
242.17359
241.80891
241.44124
241.07126
240.69978
240.32767
239.95591
239.58549
239.21746
238.85284
238.49267
238.13797
237.78972
237.44882
237.11617
236.79257
236.47876
236.17539
235.88306
235.60227
235.33345
235.07694
234.83303
234.6019
234.38371
234.17852
233.98635
233.80717
233.64092
233.48749
233.34674
233.21853
233.10266
232.99894
232.90712
232.82692
232.75802
232.70003
232.65254
232.61511
232.58733
232.56888
232.56017
244.74094
244.39465
244.04588
243.69407
243.33854
242.97901
242.61546
242.24807
241.87725
241.50355
241.12767
240.75041
240.37268
239.99546
239.61975
239.24659
238.87704
238.51214
238.15291
237.80031
237.45529
237.11872
236.79141
236.4741
236.16744
235.87202
235.58835
235.31685
235.05786
234.81165
234.57843
234.35831
234.15137
233.95761
233.77702
233.6095
233.45494
233.31321
233.18414
233.06753
232.96318
232.87084
232.7902
232.72094
232.66266
232.61495
232.57737
232.54948
232.53095
232.52222
244.85353
244.5014
244.14655
243.78864
243.42704
243.06148
242.69197
242.3187
241.94209
241.5627
241.18124
240.79854
240.41551
240.03312
239.65241
239.27442
238.90022
238.53084
238.16732
237.81063
237.46171
237.12144
236.79062
236.47
236.16023
235.8619
235.57551
235.30148
235.04014
234.79177
234.55655
234.33461
234.12601
233.93076
233.74881
233.58008
233.42446
233.28179
233.1519
233.03459
232.92963
232.83677
232.75571
232.6861
232.62754
232.57961
232.54187
232.51386
232.49526
232.48651
244.95998
244.60217
244.24158
243.87793
243.51063
243.13941
242.76429
242.38549
242.00342
241.61868
241.23197
240.84413
240.4561
240.06885
239.68343
239.30089
238.92229
238.5487
238.18113
237.82058
237.46799
237.12423
236.79011
236.46637
236.15367
235.85259
235.56363
235.28721
235.02366
234.77324
234.53615
234.31249
234.10233
233.90566
233.72244
233.55257
233.39594
233.25238
233.12171
233.00372
232.89819
232.80485
232.72337
232.65342
232.59459
232.54645
232.50854
232.48043
232.46175
232.45297
245.0603
244.69709
244.3311
243.96208
243.58942
243.21288
242.83249
242.44849
242.0613
241.67152
241.27987
240.88721
240.49447
240.10265
239.7128
239.32597
238.94324
238.56568
238.19431
237.83013
237.47407
237.12703
236.7898
236.46313
236.14767
235.84401
235.55264
235.27397
235.00834
234.756
234.51714
234.29187
234.08023
233.88223
233.69781
233.52688
233.36929
233.22489
233.09349
232.97487
232.86879
232.77498
232.69311
232.62284
232.56375
232.5154
232.47734
232.44911
232.43035
232.42155
245.15463
244.78635
244.4153
244.04123
243.66356
243.28204
242.89671
242.50783
242.11583
241.72131
241.32503
240.92784
240.53068
240.13456
239.74054
239.34969
238.96308
238.58179
238.20684
237.83925
237.47994
237.12981
236.78966
236.46024
236.14219
235.8361
235.54247
235.26169
234.99411
234.73997
234.49945
234.27266
234.05965
233.8604
233.67486
233.50292
233.34444
233.19925
233.06716
232.94794
232.84135
232.7471
232.66487
232.59428
232.53494
232.48639
232.44818
232.41984
232.40101
232.39218
245.24317
244.87016
244.49438
244.11559
243.73321
243.34703
242.95707
242.56362
242.16711
241.76816
241.36754
240.96609
240.56479
240.16464
239.76671
239.37207
238.98183
238.59704
238.21874
237.84794
237.48559
237.13256
236.78968
236.45767
236.1372
235.82884
235.53308
235.25033
234.98092
234.72509
234.48302
234.25481
234.04051
233.8401
233.6535
233.48062
233.32131
233.17538
233.04265
232.92287
232.8158
232.72114
232.63856
232.56769
232.50811
232.45937
232.42101
232.39256
232.37365
232.3648
245.32617
244.94873
244.56854
244.18534
243.79858
243.40803
243.01374
242.61601
242.21528
241.81219
241.40749
241.00206
240.59687
240.19295
239.79136
239.39319
238.99953
238.61146
238.23002
237.85623
237.49102
237.13528
236.78984
236.45541
236.13267
235.82218
235.52444
235.23984
234.96872
234.71132
234.4678
234.23827
234.02277
233.82126
233.63369
233.45993
233.29984
233.15323
233.01989
232.8996
232.79207
232.69703
232.61412
232.54298
232.48318
232.43426
232.39576
232.36721
232.34823
232.33934
245.40387
245.02232
244.638
244.2507
243.85983
243.46521
243.06688
242.66515
242.26047
241.8535
241.44499
241.03585
240.62703
240.21957
239.81456
239.41308
239.01623
238.62509
238.24072
237.86412
237.49624
237.13798
236.79013
236.45345
236.12859
235.81611
235.51651
235.2302
234.95748
234.69861
234.45374
234.22298
234.00635
233.80384
233.61535
233.44078
233.27997
233.13272
232.99883
232.87805
232.77011
232.6747
232.5915
232.5201
232.46008
232.411
232.37237
232.34372
232.32466
232.31575
245.47651
245.09115
244.703
244.31187
243.91718
243.51875
243.11665
242.71118
242.30283
241.89223
241.48017
241.06755
240.65534
240.24459
239.83637
239.4318
239.03197
238.63798
238.25086
237.87165
237.50128
237.14065
236.79057
236.45178
236.12493
235.81061
235.50928
235.22136
234.94716
234.68692
234.44079
234.20889
233.99122
233.78776
233.59843
233.42311
233.26163
233.11379
232.97938
232.85815
232.74983
232.65409
232.57061
232.49897
232.43876
232.38952
232.35076
232.32203
232.30289
232.29395
245.54435
245.15545
244.76375
244.36905
243.9708
243.56883
243.16321
242.75426
242.34248
241.9285
241.51313
241.09727
240.6819
240.26807
239.85687
239.44942
239.04681
238.65015
238.26048
237.87882
237.50613
237.1433
236.79114
236.45038
236.1217
235.80565
235.50271
235.2133
234.93772
234.6762
234.42892
234.19595
233.97732
233.77299
233.58288
233.40686
233.24476
233.09638
232.9615
232.83985
232.73117
232.63513
232.55139
232.47953
232.41914
232.36975
232.33088
232.30206
232.28285
232.27389
245.60764
245.21548
244.82048
244.42246
244.0209
243.61562
243.20673
242.79454
242.37956
241.96244
241.54399
241.12511
240.70679
240.2901
239.87613
239.46599
239.0608
238.66165
238.2696
237.88567
237.51082
237.14594
236.79184
236.44926
236.11887
235.80121
235.49679
235.20599
234.92912
234.66643
234.41807
234.18411
233.96459
233.75946
233.56863
233.39196
233.2293
233.08042
232.9451
232.82308
232.71407
232.61775
232.53377
232.46172
232.40116
232.35162
232.31265
232.28374
232.26447
232.25547
245.66662
245.27145
244.87339
244.4723
244.06765
243.65929
243.24736
242.83216
242.4142
241.99417
241.57284
241.15116
240.7301
240.31075
239.8942
239.48157
239.07397
238.67251
238.27826
237.89222
237.51536
237.14858
236.79268
236.44841
236.11642
235.79729
235.49148
235.19939
234.92135
234.65756
234.4082
234.17334
233.95299
233.74712
233.55562
233.37837
233.21518
233.06585
232.93013
232.80776
232.69846
232.60189
232.51768
232.44544
232.38473
232.33507
232.29599
232.26701
232.24767
232.23865
245.72155
245.3236
244.92271
244.51876
244.11124
243.70002
243.28525
242.86725
242.44654
242.02379
241.59981
241.17552
240.75192
240.3301
239.91115
239.4962
239.08638
238.68278
238.28648
237.89849
237.51977
237.15122
236.79366
236.44782
236.11436
235.79385
235.48676
235.19349
234.91434
234.64956
234.39927
234.16357
233.94247
233.73591
233.54381
233.36602
233.20236
233.0526
232.91652
232.79384
232.68427
232.58746
232.50306
232.43066
232.3698
232.32003
232.28085
232.2518
232.23239
232.22335
245.77264
245.37216
244.96865
244.56204
244.15184
243.73796
243.32056
242.89996
242.4767
242.05143
241.62498
241.19828
240.77233
240.34822
239.92705
239.50996
239.09807
238.69249
238.29429
237.90449
237.52405
237.15387
236.79477
236.44748
236.11266
235.79088
235.48261
235.18824
234.90809
234.64238
234.39124
234.15478
233.93298
233.7258
233.53314
233.35486
233.19076
233.04063
232.90422
232.78125
232.67143
232.57442
232.48984
232.41728
232.3563
232.30642
232.26716
232.23803
232.21857
232.20949
245.82015
245.41734
245.01141
244.60232
244.18963
243.77327
243.35343
242.93043
242.50479
242.0772
241.64847
241.21953
240.79141
240.36517
239.94195
239.52288
239.10909
238.70167
238.30172
237.91025
237.52822
237.15654
236.79602
236.44739
236.11132
235.78837
235.47901
235.18364
234.90255
234.63599
234.38408
234.1469
233.92447
233.71672
233.52356
233.34482
233.18033
233.02986
232.89315
232.76993
232.65989
232.56269
232.47795
232.40525
232.34415
232.29417
232.25484
232.22565
232.20612
232.19702
245.86429
245.45936
245.05118
244.63977
244.22476
243.80611
243.38399
242.95877
242.53095
242.10121
241.67037
241.23937
240.80923
240.38104
239.95593
239.53502
239.11947
238.71037
238.3088
237.91579
237.5323
237.15923
236.7974
236.44754
236.11032
235.78629
235.47593
235.17963
234.8977
234.63035
234.37773
234.13991
233.9169
233.70864
233.51501
233.33587
233.17102
233.02024
232.88326
232.75981
232.64958
232.55221
232.46732
232.3945
232.3333
232.28323
232.24383
232.21458
232.19499
232.18587
245.90529
245.49844
245.08815
244.67458
244.25739
243.8366
243.41239
242.98511
242.55528
242.12356
241.69077
241.25787
240.82587
240.39588
239.96902
239.54643
239.12926
238.7186
238.31555
237.92112
237.53629
237.16195
236.79891
236.44793
236.10965
235.78463
235.47336
235.17621
234.8935
234.62544
234.37217
234.13377
233.91022
233.70149
233.50745
233.32794
233.16277
233.01171
232.8745
232.75084
232.64043
232.54291
232.4579
232.38497
232.32367
232.27353
232.23406
232.20475
232.18511
232.17596
245.94339
245.53478
245.1225
244.70689
244.28768
243.8649
243.43875
243.00958
242.57789
242.14435
241.70978
241.27512
240.84142
240.40976
239.9813
239.55716
239.13849
238.72641
238.322
237.92627
237.54021
237.1647
236.80057
236.44855
236.1093
235.78338
235.47127
235.17335
234.88992
234.62121
234.36735
234.12842
233.9044
233.69523
233.50082
233.32098
233.15552
233.00421
232.86679
232.74295
232.63239
232.53474
232.44961
232.37659
232.31521
232.265
232.22546
232.19611
232.17641
232.16724
245.97885
245.5686
245.1544
244.73686
244.31575
243.89113
243.4632
243.03229
242.5989
242.16369
241.72747
241.2912
240.85592
240.42275
239.9928
239.56725
239.14722
238.73383
238.32817
237.93126
237.54407
237.16749
236.80235
236.44939
236.10926
235.78251
235.46964
235.17101
234.88694
234.61764
234.36325
234.12382
233.89937
233.68983
233.49507
233.31494
233.14923
232.9977
232.86008
232.73609
232.62539
232.52762
232.4424
232.36929
232.30784
232.25757
232.21798
232.18858
232.16883
232.15963
246.01201
245.60016
245.18402
244.76462
244.34174
243.91542
243.48585
243.05336
242.61841
242.18167
241.74394
241.30619
240.86947
240.43489
240.00359
239.57674
239.15546
238.74088
238.33408
237.93609
237.54787
237.17032
236.80427
236.45045
236.10951
235.78202
235.46845
235.16918
234.88452
234.61468
234.35981
234.11995
233.89511
233.68522
233.49016
233.30976
233.14382
232.9921
232.85432
232.73019
232.61937
232.52151
232.4362
232.36302
232.30151
232.25118
232.21155
232.1821
232.16229
232.15307
246.04335
245.62967
245.21152
244.79029
244.36576
243.93788
243.50682
243.07288
242.63652
242.19837
241.75926
241.32015
240.8821
240.44624
240.01371
239.58567
239.16326
238.74759
238.33976
237.94078
237.55163
237.1732
236.80631
236.45171
236.11004
235.78187
235.46767
235.16782
234.88263
234.61231
234.357
234.11675
233.89155
233.68136
233.48603
233.3054
233.13926
232.98737
232.84944
232.72519
232.61427
232.51632
232.43095
232.35771
232.29614
232.24576
232.20609
232.1766
232.15674
232.1475
246.07372
245.65732
245.23705
244.814
244.38791
243.9586
243.5262
243.09096
242.65331
242.21389
241.77351
241.33315
240.89389
240.45686
240.0232
239.59408
239.17063
238.75398
238.34521
237.94534
237.55534
237.17611
236.80847
236.45316
236.11083
235.78204
235.46728
235.16691
234.88124
234.61048
234.35477
234.11417
233.88867
233.6782
233.48263
233.30179
233.13548
232.98344
232.84539
232.72103
232.61003
232.51201
232.42657
232.35328
232.29167
232.24126
232.20154
232.17202
232.1521
232.14284
246.10456
245.68298
245.26071
244.83585
244.4083
243.9777
243.54409
243.10768
242.66888
242.2283
241.78676
241.34526
240.90488
240.46678
240.03209
239.60199
239.17761
238.76007
238.35044
237.94976
237.559
237.17905
236.81073
236.45479
236.11186
235.78252
235.46724
235.1664
234.88031
234.60916
234.3531
234.11218
233.8864
233.67569
233.47991
233.29889
233.13243
232.98026
232.8421
232.71766
232.60658
232.50851
232.42302
232.34969
232.28804
232.23759
232.19785
232.16828
232.14832
232.13903
245.70726
245.2826
244.85592
244.42701
243.99526
243.56058
243.12314
242.6833
242.24167
241.79907
241.35652
240.91512
240.47604
240.04042
239.60943
239.1842
238.76586
238.35547
237.95407
237.56262
237.18202
236.81309
236.45657
236.11311
235.78328
235.46754
235.16628
234.8798
234.6083
234.35193
234.11074
233.88471
233.67378
233.47782
233.29664
233.13004
232.97777
232.83952
232.71501
232.60387
232.50575
232.42023
232.34686
232.28519
232.23471
232.19494
232.16534
232.14532
232.136
245.72951
245.30268
244.87431
244.44412
244.01135
243.57574
243.1374
242.69665
242.25406
241.81049
241.36697
240.92464
240.48467
240.04821
239.61642
239.19043
238.77137
238.36029
237.95824
237.56618
237.185
236.81553
236.4585
236.11456
235.78428
235.46814
235.1665
234.87968
234.60787
234.35122
234.10979
233.88354
233.67243
233.4763
233.295
233.12828
232.97591
232.8376
232.71302
232.60184
232.50368
232.41813
232.34474
232.28305
232.23255
232.19275
232.16313
232.14306
232.13371
245.7526
245.3208
244.89108
244.45971
244.02605
243.58966
243.15054
242.70898
242.26554
241.82107
241.37667
240.93349
240.4927
240.05548
239.62297
239.19631
238.7766
238.36492
237.96229
237.56968
237.18799
236.81803
236.46054
236.11619
235.78552
235.46901
235.16704
234.87991
234.60784
234.35095
234.10929
233.88286
233.67158
233.47532
233.2939
233.12709
232.97465
232.83627
232.71165
232.60043
232.50225
232.41668
232.34328
232.28157
232.23105
232.19124
232.16159
232.14147
232.13209
245.3374
244.90631
244.47385
244.03945
243.6024
243.16264
242.72039
242.27617
241.83087
241.38565
240.94169
240.50017
240.06227
239.62912
239.20185
238.78157
238.36935
237.96621
237.57312
237.19097
236.82059
236.4627
236.11797
235.78696
235.47013
235.16787
234.88048
234.60817
234.35106
234.10922
233.88263
233.67121
233.47484
233.29332
233.12643
232.97393
232.8355
232.71085
232.59961
232.50141
232.41583
232.34242
232.2807
232.23018
232.19035
232.16068
232.14052
232.1311
245.35162
244.92004
244.48664
244.05162
243.61406
243.17378
242.73093
242.28601
241.83995
241.39396
240.94929
240.50712
240.0686
239.63488
239.20709
238.78631
238.37361
237.97003
237.57651