/*--------------------------------*- C++ -*----------------------------------*\
| =========                 |                                                 |
| \\      /  F ield         | OpenFOAM: The Open Source CFD Toolbox           |
|  \\    /   O peration     | Version:  2312                                  |
|   \\  /    A nd           | Website:  www.openfoam.com                      |
|    \\/     M anipulation  |                                                 |
\*---------------------------------------------------------------------------*/
FoamFile
{
    version     2.0;
    format      ascii;
    arch        "LSB;label=32;scalar=64";
    class       surfaceScalarField;
    location    "0.03";
    object      phi;
}
// * * * * * * * * * * * * * * * * * * * * * * * * * * * * * * * * * * * * * //

dimensions      [1 0 -1 0 0 0 0];

oriented        oriented;

internalField   nonuniform List<scalar> 
6398
(
1.5751147e-09
2.2754353e-07
1.2565457e-09
2.2354402e-07
9.276568e-10
2.1936515e-07
5.8738303e-10
2.1500779e-07
2.3454998e-10
2.1047218e-07
-1.3117945e-10
2.0575835e-07
-5.0887186e-10
2.0086741e-07
-8.9549608e-10
1.9580407e-07
-1.284418e-09
1.9058141e-07
-1.6628372e-09
1.8522724e-07
-2.0087597e-09
1.7979143e-07
-2.2884551e-09
1.7435001e-07
-2.4573409e-09
1.6900165e-07
-2.4671237e-09
1.6385092e-07
-2.2818731e-09
1.5898038e-07
-1.9000731e-09
1.5442055e-07
-1.3743715e-09
1.5013699e-07
-8.1452328e-10
1.460479e-07
-3.6479627e-10
1.4206997e-07
-1.5898765e-10
1.3816479e-07
-2.7445594e-10
1.3435371e-07
-7.0954293e-10
1.3068849e-07
-1.3968528e-09
1.2720038e-07
-2.2406577e-09
1.2386329e-07
-3.1567978e-09
1.2059239e-07
-4.0980629e-09
1.172705e-07
-5.0620565e-09
1.1377923e-07
-6.0838859e-09
1.1001799e-07
-7.217379e-09
1.0591309e-07
-8.5042447e-09
1.0142888e-07
-9.9359328e-09
9.6580553e-08
-1.1444833e-08
9.1428399e-08
-1.2959773e-08
8.603207e-08
-1.4538053e-08
8.0401312e-08
-1.6375204e-08
7.4515065e-08
-1.8702428e-08
6.8336985e-08
-2.1702752e-08
6.1835101e-08
-2.5383743e-08
5.5004606e-08
-2.9539778e-08
4.7921285e-08
-3.3826167e-08
4.0770629e-08
-3.8298287e-08
3.3454993e-08
-4.3494722e-08
2.5971279e-08
-4.9851e-08
1.8357583e-08
-5.8047318e-08
1.0788789e-08
-6.8582971e-08
3.5441798e-09
-8.1923239e-08
-3.9022398e-09
-9.7138634e-08
-1.1860889e-08
-1.1619706e-07
-1.7730683e-08
-1.3617305e-07
-1.8291153e-08
-1.4840868e-07
-2.3518797e-08
-3.1297896e-08
1.7480397e-09
2.1167318e-07
7.655122e-10
2.0790044e-07
-2.4440311e-10
2.0395835e-07
-1.2841094e-09
1.9984831e-07
-2.3563885e-09
1.9557097e-07
-3.4621497e-09
1.911268e-07
-4.5991959e-09
1.8651682e-07
-5.7604842e-09
1.8174403e-07
-6.93102e-09
1.7681611e-07
-8.0832731e-09
1.7174874e-07
-9.1719876e-09
1.665693e-07
-1.0131064e-08
1.6131766e-07
-1.0877246e-08
1.5604199e-07
-1.1326189e-08
1.5078597e-07
-1.1423767e-08
1.4557038e-07
-1.1186917e-08
1.4037587e-07
-1.0736998e-08
1.351407e-07
-1.0301334e-08
1.2978119e-07
-1.0167085e-08
1.2423117e-07
-1.0596806e-08
1.1847841e-07
-1.1743921e-08
1.125748e-07
-1.3612224e-08
1.0661065e-07
-1.6078283e-08
1.0067041e-07
-1.895768e-08
9.4796517e-08
-2.2076956e-08
8.8980433e-08
-2.5321211e-08
8.3176847e-08
-2.8650195e-08
7.7327806e-08
-3.2089102e-08
7.1381478e-08
-3.5700829e-08
6.5305055e-08
-3.9543155e-08
5.9094625e-08
-4.3621995e-08
5.2782508e-08
-4.7870148e-08
4.6417147e-08
-5.2217344e-08
4.0044508e-08
-5.6711091e-08
3.36705e-08
-6.1512739e-08
2.726852e-08
-6.6780924e-08
2.080042e-08
-7.263617e-08
1.4321564e-08
-7.8988403e-08
7.8529355e-09
-8.5276857e-08
1.2335604e-09
-9.1966487e-08
-4.2228275e-09
-9.869472e-08
-9.6379556e-09
-1.0553133e-07
-1.482693e-08
-1.1252123e-07
-1.969072e-08
-1.1958429e-07
-2.4135901e-08
-1.2611848e-07
-2.8011678e-08
-1.3247385e-07
-3.1313118e-08
-1.3905571e-07
-3.3888572e-08
-1.4473268e-07
-3.5316002e-08
-1.4442945e-07
-3.5642545e-08
-1.4056386e-07
-3.7005487e-08
-3.8989753e-08
4.9373005e-10
1.8874872e-07
-1.0983388e-09
1.8529647e-07
-2.7316287e-09
1.8168975e-07
-4.4093564e-09
1.7793051e-07
-6.1351411e-09
1.7402003e-07
-7.9102201e-09
1.6995954e-07
-9.7319367e-09
1.6575045e-07
-1.1592023e-08
1.6139501e-07
-1.3473569e-08
1.5689723e-07
-1.5346975e-08
1.522642e-07
-1.7165617e-08
1.4750685e-07
-1.8864235e-08
1.426391e-07
-2.036378e-08
1.3767354e-07
-2.1587829e-08
1.3261314e-07
-2.2491561e-08
1.2744076e-07
-2.3098125e-08
1.2211207e-07
-2.3526277e-08
1.1655976e-07
-2.3989586e-08
1.1071312e-07
-2.4754121e-08
1.0452857e-07
-2.6064522e-08
9.8015832e-08
-2.8069888e-08
9.1243713e-08
-3.0786661e-08
8.4319965e-08
-3.4114123e-08
7.735623e-08
-3.7888804e-08
7.0437304e-08
-4.1945981e-08
6.3607961e-08
-4.6163972e-08
5.6878203e-08
-5.0481087e-08
5.0237869e-08
-5.4891632e-08
4.3672306e-08
-5.942575e-08
3.717403e-08
-6.411871e-08
3.0751008e-08
-6.8975749e-08
2.4428849e-08
-7.396615e-08
1.8241251e-08
-7.9047284e-08
1.2214177e-08
-8.4256749e-08
6.3842648e-09
-8.9814533e-08
8.5638567e-10
-9.5468679e-08
-4.8898261e-09
-1.0147733e-07
-1.0238921e-08
-1.0785542e-07
-1.5344192e-08
-1.1479722e-07
-2.011289e-08
-1.2130686e-07
-2.434435e-08
-1.2752735e-07
-2.812667e-08
-1.3347853e-07
-3.1479789e-08
-1.3909947e-07
-3.4393991e-08
-1.4427847e-07
-3.6848084e-08
-1.4877366e-07
-3.8821677e-08
-1.5247228e-07
-4.0306983e-08
-1.5515073e-07
-4.1291997e-08
-1.5627529e-07
-4.1785261e-08
-1.5510304e-07
-4.200661e-08
-1.5257212e-07
-4.2434645e-08
-4.301763e-08
-1.8648882e-09
1.6147258e-07
-3.9939436e-09
1.5839711e-07
-6.1747491e-09
1.5518528e-07
-8.4111558e-09
1.5183955e-07
-1.070753e-08
1.4836188e-07
-1.3065851e-08
1.4475437e-07
-1.5484438e-08
1.4101926e-07
-1.795667e-08
1.3715905e-07
-2.0468845e-08
1.3317663e-07
-2.2997292e-08
1.2907546e-07
-2.5505572e-08
1.2485907e-07
-2.7943778e-08
1.2052968e-07
-3.025279e-08
1.1608481e-07
-3.2376482e-08
1.1151233e-07
-3.4282497e-08
1.0678522e-07
-3.5987289e-08
1.0185984e-07
-3.7574767e-08
9.6681689e-08
-3.9195218e-08
9.1200613e-08
-4.1036658e-08
8.5391641e-08
-4.3274969e-08
7.9271931e-08
-4.6023501e-08
7.2903985e-08
-4.9305823e-08
6.6381897e-08
-5.3062691e-08
5.9807253e-08
-5.7185423e-08
5.3266584e-08
-6.1556601e-08
4.6819154e-08
-6.6081281e-08
4.0496955e-08
-7.0701725e-08
3.4312254e-08
-7.5397138e-08
2.8267763e-08
-8.0172894e-08
2.2365376e-08
-8.5043509e-08
1.6612813e-08
-9.0015039e-08
1.1025652e-08
-9.5073466e-08
5.6192391e-09
-1.0016467e-07
3.7632104e-10
-1.0535985e-07
-4.574406e-09
-1.1049561e-07
-9.3598588e-09
-1.1592514e-07
-1.3976442e-08
-1.2147751e-07
-1.8341331e-08
-1.2714963e-07
-2.2421032e-08
-1.3288002e-07
-2.6161603e-08
-1.3844246e-07
-2.9513288e-08
-1.4372949e-07
-3.2463343e-08
-1.4866281e-07
-3.5028071e-08
-1.531607e-07
-3.722157e-08
-1.5713165e-07
-3.9058916e-08
-1.6047744e-07
-4.0557719e-08
-1.6310597e-07
-4.174467e-08
-1.6490363e-07
-4.2648492e-08
-1.6571793e-07
-4.3316883e-08
-1.6548857e-07
-4.3849221e-08
-1.6448471e-07
-4.4373288e-08
-4.4860706e-08
-4.9820347e-09
1.322448e-07
-7.563197e-09
1.2957082e-07
-1.0202884e-08
1.2678012e-07
-1.2905103e-08
1.2387548e-07
-1.567446e-08
1.2085938e-07
-1.8513402e-08
1.1773465e-07
-2.142129e-08
1.1450431e-07
-2.4393662e-08
1.1117148e-07
-2.7420955e-08
1.0773924e-07
-3.0486732e-08
1.0421038e-07
-3.3566059e-08
1.0058665e-07
-3.6625248e-08
9.6867483e-08
-3.9624793e-08
9.30477e-08
-4.2527072e-08
8.9114774e-08
-4.5309121e-08
8.5046422e-08
-4.797771e-08
8.0810806e-08
-5.0580507e-08
7.6371274e-08
-5.3205746e-08
7.169639e-08
-5.596595e-08
6.6772682e-08
-5.896929e-08
6.1614694e-08
-6.2289924e-08
5.6266828e-08
-6.5950613e-08
5.0795206e-08
-6.9924255e-08
4.5273076e-08
-7.4150998e-08
3.9766481e-08
-7.8560898e-08
3.4325286e-08
-8.3092761e-08
2.8981444e-08
-8.7704365e-08
2.3752178e-08
-9.2374242e-08
1.8645789e-08
-9.7097081e-08
1.3667079e-08
-1.0187517e-07
8.8218451e-09
-1.067088e-07
4.1183361e-09
-1.115934e-07
-4.3578321e-10
-1.1655855e-07
-4.8262583e-09
-1.2151051e-07
-9.0374879e-09
-1.2648535e-07
-1.307964e-08
-1.3152011e-07
-1.6943303e-08
-1.3658912e-07
-2.0605415e-08
-1.416581e-07
-2.403584e-08
-1.466632e-07
-2.7203937e-08
-1.515124e-07
-3.0083669e-08
-1.5611035e-07
-3.266779e-08
-1.6037758e-07
-3.4964065e-08
-1.6424338e-07
-3.6987101e-08
-1.6764423e-07
-3.8756189e-08
-1.705221e-07
-4.0293594e-08
-1.7282711e-07
-4.1623049e-08
-1.7450882e-07
-4.2765396e-08
-1.7551554e-07
-4.3747031e-08
-1.7581898e-07
-4.4609451e-08
-1.7546176e-07
-4.5384957e-08
-4.60036e-08
-8.5214369e-09
1.0307528e-07
-1.146564e-08
1.0080245e-07
-1.4471601e-08
9.8432498e-08
-1.7542992e-08
9.596831e-08
-2.0684068e-08
9.341267e-08
-2.3897206e-08
9.0768805e-08
-2.7182286e-08
8.8040199e-08
-3.0536371e-08
8.5230444e-08
-3.3953067e-08
8.2343015e-08
-3.7421541e-08
7.9380981e-08
-4.0925635e-08
7.6346356e-08
-4.4443793e-08
7.3239181e-08
-4.7950824e-08
7.0056091e-08
-5.1422298e-08
6.6788854e-08
-5.4841698e-08
6.3423277e-08
-5.8208771e-08
5.9939812e-08
-6.1545802e-08
5.6316634e-08
-6.4897855e-08
5.2535575e-08
-6.8324631e-08
4.858924e-08
-7.1885695e-08
4.4486661e-08
-7.5624637e-08
4.0254379e-08
-7.9558983e-08
3.5932265e-08
-8.367949e-08
3.1565547e-08
-8.7957699e-08
2.7196734e-08
-9.2357102e-08
2.2859943e-08
-9.68432e-08
1.8579179e-08
-1.0138969e-07
1.4369341e-08
-1.0598029e-07
1.0239141e-08
-1.1060731e-07
6.1941703e-09
-1.1526769e-07
2.2394446e-09
-1.1995922e-07
-1.6189796e-09
-1.2468036e-07
-5.3735837e-09
-1.2942338e-07
-9.0155991e-09
-1.3416962e-07
-1.2537683e-08
-1.3891615e-07
-1.5933088e-08
-1.4365659e-07
-1.919326e-08
-1.4837438e-07
-2.2302575e-08
-1.5303809e-07
-2.5242751e-08
-1.5760099e-07
-2.7995411e-08
-1.6200191e-07
-3.054658e-08
-1.6617626e-07
-3.28918e-08
-1.7006374e-07
-3.5035401e-08
-1.7360975e-07
-3.6987403e-08
-1.7676521e-07
-3.8761668e-08
-1.7948587e-07
-4.0372307e-08
-1.8173091e-07
-4.1830493e-08
-1.834579e-07
-4.3142178e-08
-1.846205e-07
-4.4314158e-08
-1.851669e-07
-4.5365228e-08
-1.8505733e-07
-4.630066e-08
-4.7026101e-08
-1.2184767e-08
7.5535067e-08
-1.5405524e-08
7.3644279e-08
-1.8688411e-08
7.1674724e-08
-2.2036412e-08
6.9629172e-08
-2.5453017e-08
6.7510488e-08
-2.8940109e-08
6.5322003e-08
-3.2497567e-08
6.3067313e-08
-3.612322e-08
6.0750126e-08
-3.9812586e-08
5.8374055e-08
-4.3558387e-08
5.5942389e-08
-4.7350085e-08
5.3457622e-08
-5.1173872e-08
5.0920869e-08
-5.5013667e-08
4.8331017e-08
-5.8853492e-08
4.5683968e-08
-6.2681253e-08
4.2972091e-08
-6.6493151e-08
4.0184732e-08
-7.029708e-08
3.7309943e-08
-7.4113075e-08
3.4337754e-08
-7.7969624e-08
3.1263895e-08
-8.1896601e-08
2.8092882e-08
-8.5917347e-08
2.4838673e-08
-9.0043184e-08
2.1522804e-08
-9.4272227e-08
1.8170383e-08
-9.859226e-08
1.4805945e-08
-1.0298572e-07
1.1450218e-08
-1.0743455e-07
8.1188922e-09
-1.119237e-07
4.8228804e-09
-1.164421e-07
1.5691697e-09
-1.2098281e-07
-1.636771e-09
-1.2554118e-07
-4.7904785e-09
-1.3011296e-07
-7.8870277e-09
-1.3469274e-07
-1.0920452e-08
-1.3927237e-07
-1.3884092e-08
-1.4384223e-07
-1.6770946e-08
-1.483916e-07
-1.9573942e-08
-1.5290841e-07
-2.228455e-08
-1.5737445e-07
-2.4891831e-08
-1.6176352e-07
-2.7384095e-08
-1.6604064e-07
-2.9750234e-08
-1.7016339e-07
-3.1982281e-08
-1.740865e-07
-3.4077111e-08
-1.7776498e-07
-3.6036717e-08
-1.8115518e-07
-3.7866434e-08
-1.8421477e-07
-3.9573039e-08
-1.8690139e-07
-4.1161485e-08
-1.8917054e-07
-4.2631913e-08
-1.9097239e-07
-4.3978972e-08
-1.922484e-07
-4.5198605e-08
-1.9292625e-07
-4.6301827e-08
-1.929296e-07
-4.7289876e-08
-4.8064589e-08
-1.571856e-08
5.0743745e-08
-1.9136611e-08
4.9202454e-08
-2.2615136e-08
4.7598562e-08
-2.6156273e-08
4.5934611e-08
-2.9762565e-08
4.4213384e-08
-3.3435212e-08
4.2438103e-08
-3.7173817e-08
4.0612219e-08
-4.0976481e-08
3.8739269e-08
-4.4839747e-08
3.682271e-08
-4.875839e-08
3.486576e-08
-5.2725175e-08
3.2871061e-08
-5.6730853e-08
3.0840329e-08
-6.0764763e-08
2.8773917e-08
-6.4816095e-08
2.6670406e-08
-6.8875831e-08
2.4526287e-08
-7.293901e-08
2.2336296e-08
-7.7006543e-08
2.0094296e-08
-8.1085621e-08
1.7795012e-08
-8.5188178e-08
1.5435906e-08
-8.9327687e-08
1.3018842e-08
-9.3515348e-08
1.0550468e-08
-9.7757221e-08
8.0415221e-09
-1.0205326e-07
5.5049609e-09
-1.063982e-07
2.9539594e-09
-1.1078358e-07
4.0018437e-10
-1.1520003e-07
-2.1468703e-09
-1.1963874e-07
-4.6801463e-09
-1.2409269e-07
-7.1942839e-09
-1.2855616e-07
-9.6849541e-09
-1.3302429e-07
-1.2148589e-08
-1.3749189e-07
-1.4581738e-08
-1.4195283e-07
-1.6980008e-08
-1.4639967e-07
-1.9338271e-08
-1.5082342e-07
-2.1651022e-08
-1.552137e-07
-2.3912503e-08
-1.5955795e-07
-2.6116222e-08
-1.6383982e-07
-2.825483e-08
-1.6803825e-07
-3.0320996e-08
-1.7212709e-07
-3.2307968e-08
-1.760757e-07
-3.4210969e-08
-1.7985044e-07
-3.6027622e-08
-1.8341571e-07
-3.7758155e-08
-1.8673406e-07
-3.9404087e-08
-1.8976544e-07
-4.0966539e-08
-1.9246575e-07
-4.2443681e-08
-1.9478506e-07
-4.3828346e-08
-1.9666543e-07
-4.5108692e-08
-1.9803843e-07
-4.6275839e-08
-1.9882039e-07
-4.7339389e-08
-1.9891892e-07
-4.8305002e-08
-4.9083619e-08
-1.8922426e-08
2.9387032e-08
-2.2468627e-08
2.8153339e-08
-2.6072486e-08
2.6870482e-08
-2.9735209e-08
2.5540642e-08
-3.3458394e-08
2.4166487e-08
-3.7242567e-08
2.2751031e-08
-4.1087005e-08
2.1297441e-08
-4.4989864e-08
1.9808922e-08
-4.8948244e-08
1.8288605e-08
-5.2958119e-08
1.6739448e-08
-5.7014239e-08
1.516403e-08
-6.1109858e-08
1.3564141e-08
-6.5237435e-08
1.1940842e-08
-6.9389284e-08
1.0294129e-08
-7.3558516e-08
8.6227083e-09
-7.7740192e-08
6.9242229e-09
-8.193229e-08
5.195693e-09
-8.6135993e-08
3.434407e-09
-9.0355044e-08
1.6388328e-09
-9.4594478e-08
-1.9040921e-10
-9.8858719e-08
-2.0503807e-09
-1.0315004e-07
-3.936001e-09
-1.0746808e-07
-5.8408875e-09
-1.1181001e-07
-7.7582966e-09
-1.1617113e-07
-9.682056e-09
-1.2054602e-07
-1.1606827e-08
-1.2492906e-07
-1.3528473e-08
-1.2931551e-07
-1.5443039e-08
-1.3370119e-07
-1.7346945e-08
-1.3808205e-07
-1.9237852e-08
-1.4245246e-07
-2.1114679e-08
-1.4680628e-07
-2.2974604e-08
-1.511368e-07
-2.4813942e-08
-1.5543619e-07
-2.6628981e-08
-1.5969539e-07
-2.8415835e-08
-1.6390351e-07
-3.0170394e-08
-1.6804709e-07
-3.1888199e-08
-1.721096e-07
-3.3564948e-08
-1.7607103e-07
-3.5196643e-08
-1.7990795e-07
-3.6780295e-08
-1.8359353e-07
-3.8313891e-08
-1.8709749e-07
-3.9796382e-08
-1.9038547e-07
-4.1226687e-08
-1.9341795e-07
-4.2602256e-08
-1.9614901e-07
-4.3917155e-08
-1.9852493e-07
-4.5160316e-08
-2.0048311e-07
-4.6316975e-08
-2.0195064e-07
-4.7376804e-08
-2.0284045e-07
-4.8350402e-08
-2.0305587e-07
-4.9250694e-08
-5.0004372e-08
-2.1657388e-08
1.175675e-08
-2.5274454e-08
1.0783083e-08
-2.8945978e-08
9.7706922e-09
-3.2672077e-08
8.7213193e-09
-3.6453529e-08
7.6377036e-09
-4.0290336e-08
6.5226295e-09
-4.4181524e-08
5.3788969e-09
-4.8125246e-08
4.2092699e-09
-5.2118915e-08
3.0164278e-09
-5.615917e-08
1.8027955e-09
-6.0242271e-08
5.707348e-10
-6.4362723e-08
-6.7737432e-10
-6.8514811e-08
-1.9402045e-09
-7.2692781e-08
-3.2173355e-09
-7.6891195e-08
-4.5090447e-09
-8.1105542e-08
-5.8162287e-09
-8.5332789e-08
-7.1402175e-09
-8.9571528e-08
-8.4823083e-09
-9.3821667e-08
-9.8433324e-09
-9.8083931e-08
-1.1223152e-08
-1.0235923e-07
-1.2620557e-08
-1.0664735e-07
-1.4033346e-08
-1.109471e-07
-1.545852e-08
-1.1525659e-07
-1.689275e-08
-1.1957206e-07
-1.833321e-08
-1.2389037e-07
-1.9777022e-08
-1.2820603e-07
-2.1222904e-08
-1.3251524e-07
-2.2668451e-08
-1.3681648e-07
-2.4108103e-08
-1.411099e-07
-2.5540527e-08
-1.4538626e-07
-2.6970399e-08
-1.4963957e-07
-2.8394094e-08
-1.5386442e-07
-2.9808976e-08
-1.580546e-07
-3.1213144e-08
-1.6220279e-07
-3.2604622e-08
-1.6630018e-07
-3.3981372e-08
-1.7033604e-07
-3.5341103e-08
-1.7429726e-07
-3.6681571e-08
-1.7816792e-07
-3.8000496e-08
-1.8192884e-07
-3.9295903e-08
-1.8555706e-07
-4.0565948e-08
-1.8902519e-07
-4.1808783e-08
-1.9230046e-07
-4.3021844e-08
-1.9534365e-07
-4.4200629e-08
-1.9810808e-07
-4.5337271e-08
-2.0053879e-07
-4.6419202e-08
-2.0257214e-07
-4.7430988e-08
-2.0413527e-07
-4.8362573e-08
-2.0514314e-07
-4.9226157e-08
-2.055017e-07
-5.0042269e-08
-5.0755791e-08
-2.3848326e-08
-2.1888096e-09
-2.7492096e-08
-2.9513129e-09
-3.118689e-08
-3.7468983e-09
-3.4931566e-08
-4.5717708e-09
-3.8726548e-08
-5.4228464e-09
-4.2571645e-08
-6.2977156e-09
-4.6465808e-08
-7.1939891e-09
-5.0407267e-08
-8.109287e-09
-5.4393594e-08
-9.041294e-09
-5.8421778e-08
-9.9878026e-09
-6.2487833e-08
-1.0946803e-08
-6.6588245e-08
-1.1916772e-08
-7.0718737e-08
-1.2896392e-08
-7.4874653e-08
-1.3884765e-08
-7.9051454e-08
-1.4881549e-08
-8.324506e-08
-1.5886872e-08
-8.7452151e-08
-1.6901197e-08
-9.1670269e-08
-1.7925008e-08
-9.5897613e-08
-1.8958618e-08
-1.0013296e-07
-2.000203e-08
-1.0437542e-07
-2.1054692e-08
-1.0862335e-07
-2.2115362e-08
-1.1287481e-07
-2.3182877e-08
-1.171285e-07
-2.4256052e-08
-1.2138061e-07
-2.5332883e-08
-1.2563045e-07
-2.6412658e-08
-1.2987059e-07
-2.749234e-08
-1.3409189e-07
-2.8573847e-08
-1.3830095e-07
-2.9666656e-08
-1.4250922e-07
-3.0768777e-08
-1.466936e-07
-3.1861832e-08
-1.5085091e-07
-3.2948946e-08
-1.5497779e-07
-3.4032632e-08
-1.5906979e-07
-3.5113462e-08
-1.6312124e-07
-3.619131e-08
-1.6712514e-07
-3.726575e-08
-1.7107284e-07
-3.833599e-08
-1.7495358e-07
-3.940106e-08
-1.7875395e-07
-4.0459679e-08
-1.8245724e-07
-4.1510404e-08
-1.8604264e-07
-4.2551463e-08
-1.8948443e-07
-4.3580606e-08
-1.9275094e-07
-4.4594613e-08
-1.9580368e-07
-4.5588275e-08
-1.9859657e-07
-4.6553249e-08
-2.0107557e-07
-4.747701e-08
-2.031788e-07
-4.8344724e-08
-2.0483655e-07
-4.9147294e-08
-2.05969e-07
-4.9898402e-08
-2.0648843e-07
-5.0625456e-08
-5.1291705e-08
-2.5483119e-08
-1.2688097e-08
-2.9122601e-08
-1.3310097e-08
-3.2806953e-08
-1.3949535e-08
-3.6536375e-08
-1.460698e-08
-4.0311598e-08
-1.5283554e-08
-4.4132474e-08
-1.5978086e-08
-4.7997946e-08
-1.668884e-08
-5.1906271e-08
-1.7413901e-08
-5.5855168e-08
-1.8151343e-08
-5.9841895e-08
-1.8899311e-08
-6.3863288e-08
-1.9656129e-08
-6.7916118e-08
-2.0420361e-08
-7.1996785e-08
-2.1190787e-08
-7.6101449e-08
-2.1966463e-08
-8.022627e-08
-2.2746801e-08
-8.4367586e-08
-2.3531533e-08
-8.8522056e-08
-2.432064e-08
-9.2686757e-08
-2.5114224e-08
-9.6859325e-08
-2.59124e-08
-1.0103764e-07
-2.6715138e-08
-1.0521956e-07
-2.7522241e-08
-1.0940349e-07
-2.8333369e-08
-1.1358755e-07
-2.914796e-08
-1.1776846e-07
-2.9965358e-08
-1.2194489e-07
-3.0785307e-08
-1.2611187e-07
-3.1607279e-08
-1.3027111e-07
-3.2432059e-08
-1.3442564e-07
-3.3258913e-08
-1.3856324e-07
-3.4083585e-08
-1.4266596e-07
-3.4906026e-08
-1.4674988e-07
-3.5732954e-08
-1.5081098e-07
-3.6562751e-08
-1.5484473e-07
-3.7394969e-08
-1.5884651e-07
-3.8229993e-08
-1.6281127e-07
-3.9068189e-08
-1.6673305e-07
-3.9909831e-08
-1.7060448e-07
-4.0754871e-08
-1.7441624e-07
-4.1602975e-08
-1.7815637e-07
-4.245335e-08
-1.8180953e-07
-4.3304798e-08
-1.853562e-07
-4.4155616e-08
-1.8877181e-07
-4.5003475e-08
-1.9202584e-07
-4.5845096e-08
-1.9508113e-07
-4.6675392e-08
-1.978934e-07
-4.7486481e-08
-2.0041113e-07
-4.8266744e-08
-2.0257598e-07
-4.9002551e-08
-2.043232e-07
-4.9685976e-08
-2.055798e-07
-5.0331693e-08
-2.0626612e-07
-5.0972817e-08
-5.158991e-08
-2.6638487e-08
-2.0346922e-08
-3.0233714e-08
-2.0835103e-08
-3.3875114e-08
-2.134693e-08
-3.7561986e-08
-2.1878676e-08
-4.129328e-08
-2.2427534e-08
-4.5067658e-08
-2.2991523e-08
-4.8883489e-08
-2.3568743e-08
-5.2738847e-08
-2.4157342e-08
-5.6631508e-08
-2.4755542e-08
-6.0558959e-08
-2.5361669e-08
-6.4518426e-08
-2.5974192e-08
-6.8506939e-08
-2.6591751e-08
-7.2521314e-08
-2.7213169e-08
-7.6558218e-08
-2.7837478e-08
-8.0614276e-08
-2.8463955e-08
-8.4686154e-08
-2.9092095e-08
-8.8770638e-08
-2.9721601e-08
-9.2864742e-08
-3.0352319e-08
-9.6965849e-08
-3.0984174e-08
-1.0107146e-07
-3.1617072e-08
-1.0517911e-07
-3.2250903e-08
-1.0928678e-07
-3.288553e-08
-1.1339229e-07
-3.3520717e-08
-1.1749295e-07
-3.4156251e-08
-1.2158695e-07
-3.4792073e-08
-1.2567131e-07
-3.542814e-08
-1.2974508e-07
-3.606469e-08
-1.338058e-07
-3.6701437e-08
-1.3784856e-07
-3.7337956e-08
-1.418671e-07
-3.797527e-08
-1.4586412e-07
-3.8616048e-08
-1.4983815e-07
-3.9261198e-08
-1.5378624e-07
-3.9911182e-08
-1.5770492e-07
-4.0566727e-08
-1.6159005e-07
-4.1228549e-08
-1.6543656e-07
-4.1897252e-08
-1.6923792e-07
-4.2573109e-08
-1.7298563e-07
-4.3256013e-08
-1.7666854e-07
-4.3945347e-08
-1.8027217e-07
-4.4640001e-08
-1.8377787e-07
-4.5338357e-08
-1.8716211e-07
-4.6038222e-08
-1.9039579e-07
-4.6736631e-08
-1.9344365e-07
-4.7429103e-08
-1.9626404e-07
-4.8108715e-08
-1.9880895e-07
-4.8765173e-08
-2.0102461e-07
-4.9386276e-08
-2.0285207e-07
-4.9965132e-08
-2.0422575e-07
-5.0516898e-08
-2.050745e-07
-5.107911e-08
-5.1648019e-08
-2.732304e-08
-2.560214e-08
-3.0873911e-08
-2.6012261e-08
-3.4465633e-08
-2.6441132e-08
-3.8099234e-08
-2.6887324e-08
-4.1774179e-08
-2.7348632e-08
-4.5489328e-08
-2.7823062e-08
-4.9243139e-08
-2.8308736e-08
-5.3033772e-08
-2.8803871e-08
-5.6859131e-08
-2.9306782e-08
-6.0716891e-08
-2.9815888e-08
-6.4604508e-08
-3.0329735e-08
-6.8519256e-08
-3.0847007e-08
-7.2458241e-08
-3.1366543e-08
-7.6418448e-08
-3.1887351e-08
-8.0396797e-08
-3.2408625e-08
-8.4390201e-08
-3.2929733e-08
-8.8395617e-08
-3.3450218e-08
-9.2410132e-08
-3.3969769e-08
-9.6431027e-08
-3.4488184e-08
-1.0045569e-07
-3.5005316e-08
-1.044816e-07
-3.5521072e-08
-1.0850644e-07
-3.6035402e-08
-1.125279e-07
-3.6548271e-08
-1.1654365e-07
-3.7059714e-08
-1.2055156e-07
-3.7569867e-08
-1.2454934e-07
-3.8078966e-08
-1.2853497e-07
-3.8587381e-08
-1.3250599e-07
-3.9095546e-08
-1.3645981e-07
-3.9604009e-08
-1.4039395e-07
-4.0113951e-08
-1.4430744e-07
-4.0627061e-08
-1.4819884e-07
-4.1144543e-08
-1.5206602e-07
-4.1667375e-08
-1.5590621e-07
-4.2196546e-08
-1.5971592e-07
-4.2732919e-08
-1.6349058e-07
-4.3277176e-08
-1.6722415e-07
-4.3829617e-08
-1.7090856e-07
-4.4390131e-08
-1.7453315e-07
-4.4958088e-08
-1.78084e-07
-4.5532399e-08
-1.8154324e-07
-4.6111545e-08
-1.8488849e-07
-4.6693615e-08
-1.880923e-07
-4.7276153e-08
-1.9112174e-07
-4.7855542e-08
-1.9393832e-07
-4.8426033e-08
-1.9649809e-07
-4.8978807e-08
-1.9875224e-07
-4.9503061e-08
-2.0064784e-07
-4.999276e-08
-2.0212666e-07
-5.0462971e-08
-2.031258e-07
-5.0954483e-08
-5.1477496e-08
-2.7655025e-08
-2.8995282e-08
-3.114847e-08
-2.935424e-08
-3.4680862e-08
-2.9729909e-08
-3.8252455e-08
-3.0120859e-08
-4.1862835e-08
-3.0525292e-08
-4.5511003e-08
-3.0941396e-08
-4.9195541e-08
-3.1367402e-08
-5.2914725e-08
-3.1801615e-08
-5.6666591e-08
-3.2242423e-08
-6.0448962e-08
-3.2688312e-08
-6.4259475e-08
-3.3137872e-08
-6.8095594e-08
-3.3589819e-08
-7.195464e-08
-3.4042998e-08
-7.5833816e-08
-3.4496404e-08
-7.9730262e-08
-3.494918e-08
-8.3641081e-08
-3.5400633e-08
-8.7563399e-08
-3.5850211e-08
-9.1494405e-08
-3.6297518e-08
-9.5431402e-08
-3.6742268e-08
-9.9371778e-08
-3.7184282e-08
-1.0331303e-07
-3.762346e-08
-1.0725277e-07
-3.8059804e-08
-1.111887e-07
-3.8493376e-08
-1.151186e-07
-3.8924343e-08
-1.1904037e-07
-3.9352981e-08
-1.2295192e-07
-3.9779682e-08
-1.2685129e-07
-4.0204978e-08
-1.3073649e-07
-4.0629547e-08
-1.3460561e-07
-4.1054276e-08
-1.3845692e-07
-4.1480301e-08
-1.4228912e-07
-4.1908937e-08
-1.4610075e-07
-4.2341386e-08
-1.4988993e-07
-4.277873e-08
-1.5365423e-07
-4.3221954e-08
-1.5739042e-07
-4.3671872e-08
-1.6109417e-07
-4.4129019e-08
-1.6475963e-07
-4.4593581e-08
-1.6837898e-07
-4.5065269e-08
-1.7194182e-07
-4.5543385e-08
-1.7543475e-07
-4.6026784e-08
-1.7884071e-07
-4.6514126e-08
-1.8213858e-07
-4.7003798e-08
-1.8530278e-07
-4.7494008e-08
-1.8830301e-07
-4.7982029e-08
-1.9110414e-07
-4.8463408e-08
-1.9366649e-07
-4.8930713e-08
-1.9594626e-07
-4.9374496e-08
-1.9789639e-07
-4.9789231e-08
-1.9946547e-07
-5.0189559e-08
-2.0059829e-07
-5.0618365e-08
-5.1098203e-08
-2.7718262e-08
-3.0985666e-08
-3.1147162e-08
-3.1313249e-08
-3.4613729e-08
-3.1656341e-08
-3.8117728e-08
-3.2013464e-08
-4.1658621e-08
-3.2382986e-08
-4.5235427e-08
-3.276322e-08
-4.8846789e-08
-3.31525e-08
-5.2491075e-08
-3.3549204e-08
-5.6166423e-08
-3.3951789e-08
-5.9870785e-08
-3.4358784e-08
-6.360193e-08
-3.4768826e-08
-6.7357479e-08
-3.5180644e-08
-7.1134912e-08
-3.5593102e-08
-7.4931613e-08
-3.6005177e-08
-7.874488e-08
-3.6415999e-08
-8.2571988e-08
-3.6824821e-08
-8.6410198e-08
-3.7231059e-08
-9.0256822e-08
-3.7634241e-08
-9.4109222e-08
-3.8034052e-08
-9.7964859e-08
-3.8430261e-08
-1.0182127e-07
-3.8822782e-08
-1.0567611e-07
-3.9211604e-08
-1.0952713e-07
-3.9596856e-08
-1.1337221e-07
-3.997874e-08
-1.1720934e-07
-4.0357616e-08
-1.2103658e-07
-4.073393e-08
-1.2485213e-07
-4.1108298e-08
-1.2865428e-07
-4.1481453e-08
-1.3244146e-07
-4.1854313e-08
-1.3621222e-07
-4.2227899e-08
-1.3996525e-07
-4.2603316e-08
-1.4369909e-07
-4.2981622e-08
-1.4741193e-07
-4.3363766e-08
-1.5110141e-07
-4.3750575e-08
-1.5476437e-07
-4.414263e-08
-1.5839649e-07
-4.4540255e-08
-1.61992e-07
-4.4943346e-08
-1.6554313e-07
-4.5351462e-08
-1.690398e-07
-4.5763694e-08
-1.7246905e-07
-4.6178967e-08
-1.7581476e-07
-4.6595992e-08
-1.7905714e-07
-4.7013643e-08
-1.8217269e-07
-4.7430643e-08
-1.8513376e-07
-4.7845331e-08
-1.8790878e-07
-4.8254315e-08
-1.9046213e-07
-4.8651646e-08
-1.9275496e-07
-4.9028868e-08
-1.9474554e-07
-4.9380939e-08
-1.9638883e-07
-4.9721507e-08
-1.9763636e-07
-5.009484e-08
-5.0534251e-08
-2.7584249e-08
-3.1953958e-08
-3.0945121e-08
-3.2263733e-08
-3.4342512e-08
-3.2588311e-08
-3.7775977e-08
-3.2926172e-08
-4.1244881e-08
-3.3275759e-08
-4.4748227e-08
-3.363547e-08
-4.8284698e-08
-3.4003713e-08
-5.1852723e-08
-3.4378935e-08
-5.5450528e-08
-3.4759643e-08
-5.9076157e-08
-3.5144416e-08
-6.2727496e-08
-3.5531917e-08
-6.6402283e-08
-3.5920906e-08
-7.0098137e-08
-3.6310249e-08
-7.3812569e-08
-3.6698934e-08
-7.754303e-08
-3.7086067e-08
-8.1286916e-08
-3.7470893e-08
-8.5041626e-08
-3.7852781e-08
-8.8804567e-08
-3.8231243e-08
-9.2573208e-08
-3.8605911e-08
-9.6345071e-08
-3.8976548e-08
-1.0011778e-07
-3.9343031e-08
-1.0388905e-07
-3.9705365e-08
-1.0765672e-07
-4.0063661e-08
-1.1141874e-07
-4.0418157e-08
-1.1517319e-07
-4.0769199e-08
-1.1891826e-07
-4.1117261e-08
-1.226523e-07
-4.1462926e-08
-1.2637374e-07
-4.1806907e-08
-1.3008118e-07
-4.2150007e-08
-1.3377327e-07
-4.2493105e-08
-1.3744867e-07
-4.2837083e-08
-1.4110588e-07
-4.3182775e-08
-1.4474304e-07
-4.3530898e-08
-1.4835773e-07
-4.3881994e-08
-1.5194669e-07
-4.4236371e-08
-1.5550556e-07
-4.4594021e-08
-1.5902847e-07
-4.4954599e-08
-1.6250779e-07
-4.5317381e-08
-1.6593364e-07
-4.5681383e-08
-1.6929369e-07
-4.604545e-08
-1.7257269e-07
-4.6408535e-08
-1.7575244e-07
-4.67698e-08
-1.7881138e-07
-4.7128674e-08
-1.8172472e-07
-4.7484279e-08
-1.8446415e-07
-4.7834426e-08
-1.8699817e-07
-4.8174276e-08
-1.8929229e-07
-4.8496419e-08
-1.9130984e-07
-4.8795899e-08
-1.9301123e-07
-4.9085303e-08
-1.9435411e-07
-4.9409356e-08
-4.9810893e-08
-2.7311389e-08
-3.2199844e-08
-3.0602616e-08
-3.2500707e-08
-3.3929354e-08
-3.2815908e-08
-3.729106e-08
-3.3143946e-08
-4.0687038e-08
-3.3483307e-08
-4.411628e-08
-3.383245e-08
-4.7577497e-08
-3.4189838e-08
-5.1069165e-08
-3.4553983e-08
-5.4589579e-08
-3.4923432e-08
-5.8136859e-08
-3.5296815e-08
-6.1708984e-08
-3.5672816e-08
-6.5303789e-08
-3.6050235e-08
-6.8919003e-08
-3.6427939e-08
-7.255225e-08
-3.6804936e-08
-7.6201097e-08
-3.7180319e-08
-7.9863053e-08
-3.7553336e-08
-8.3535629e-08
-3.7923324e-08
-8.7216332e-08
-3.828979e-08
-9.0902723e-08
-3.8652325e-08
-9.4592407e-08
-3.901069e-08
-9.828309e-08
-3.9364721e-08
-1.0197256e-07
-3.9714428e-08
-1.0565872e-07
-4.005988e-08
-1.0933961e-07
-4.0401319e-08
-1.1301338e-07
-4.0739038e-08
-1.1667831e-07
-4.1073493e-08
-1.2033282e-07
-4.1405176e-08
-1.2397544e-07
-4.1734717e-08
-1.276048e-07
-4.2062753e-08
-1.3121953e-07
-4.2389978e-08
-1.3481825e-07
-4.2717027e-08
-1.3839933e-07
-4.3044471e-08
-1.4196079e-07
-4.3372733e-08
-1.4550005e-07
-4.3702035e-08
-1.4901369e-07
-4.4032377e-08
-1.5249722e-07
-4.4363407e-08
-1.5594473e-07
-4.4694536e-08
-1.5934868e-07
-4.5024773e-08
-1.6269948e-07
-4.5353073e-08
-1.6598542e-07
-4.5678214e-08
-1.6919228e-07
-4.5999405e-08
-1.7230337e-07
-4.6316061e-08
-1.7529919e-07
-4.6628299e-08
-1.7815762e-07
-4.6935896e-08
-1.8085353e-07
-4.7237807e-08
-1.8335918e-07
-4.7530081e-08
-1.8564411e-07
-4.7806316e-08
-1.8767612e-07
-4.8061381e-08
-1.8942047e-07
-4.8306683e-08
-1.9084012e-07
-4.8586758e-08
-4.8952847e-08
-2.6944078e-08
-3.194987e-08
-3.0165185e-08
-3.2247267e-08
-3.3420918e-08
-3.2558688e-08
-3.6710677e-08
-3.288268e-08
-4.0033744e-08
-3.3217743e-08
-4.3389108e-08
-3.3562392e-08
-4.6775498e-08
-3.3915148e-08
-5.0191437e-08
-3.4274564e-08
-5.3635265e-08
-3.4639247e-08
-5.7105176e-08
-3.500785e-08
-6.0599211e-08
-3.5379114e-08
-6.4115304e-08
-3.5751841e-08
-6.7651256e-08
-3.6124949e-08
-7.1204805e-08
-3.649743e-08
-7.4773595e-08
-3.6868414e-08
-7.8355257e-08
-3.7237115e-08
-8.1947373e-08
-3.7602903e-08
-8.5547567e-08
-3.7965231e-08
-8.9153458e-08
-3.8323716e-08
-9.2762763e-08
-3.8678055e-08
-9.6373227e-08
-3.9028109e-08
-9.9982738e-08
-3.9373812e-08
-1.0358924e-07
-3.9715251e-08
-1.0719085e-07
-4.0052575e-08
-1.1078575e-07
-4.0386071e-08
-1.1437229e-07
-4.071607e-08
-1.1794891e-07
-4.1043006e-08
-1.2151414e-07
-4.1367329e-08
-1.2506658e-07
-4.1689529e-08
-1.2860482e-07
-4.2010061e-08
-1.3212731e-07
-4.2329311e-08
-1.356323e-07
-4.264757e-08
-1.3911761e-07
-4.2964934e-08
-1.4258044e-07
-4.3281342e-08
-1.4601725e-07
-4.3596412e-08
-1.4942336e-07
-4.3909577e-08
-1.5279288e-07
-4.4219876e-08
-1.5611829e-07
-4.4526268e-08
-1.593905e-07
-4.4827447e-08
-1.6259832e-07
-4.5122409e-08
-1.6572875e-07
-4.5410308e-08
-1.6876642e-07
-4.5691135e-08
-1.7169405e-07
-4.5965242e-08
-1.7449182e-07
-4.62334e-08
-1.7713782e-07
-4.6495129e-08
-1.7960746e-07
-4.6747715e-08
-1.8187421e-07
-4.698515e-08
-1.8390955e-07
-4.7202463e-08
-1.8568314e-07
-4.7409442e-08
-1.8716245e-07
-4.7650096e-08
-4.7982856e-08
-2.6514447e-08
-3.1369672e-08
-2.9665631e-08
-3.1666695e-08
-3.2850639e-08
-3.197752e-08
-3.6068881e-08
-3.2300709e-08
-3.9319601e-08
-3.2634819e-08
-4.2601802e-08
-3.2978394e-08
-4.591423e-08
-3.3330013e-08
-4.9255443e-08
-3.3688274e-08
-5.2623827e-08
-3.4051828e-08
-5.6017627e-08
-3.4419375e-08
-5.9434954e-08
-3.4789687e-08
-6.28738e-08
-3.5161605e-08
-6.6332056e-08
-3.5534065e-08
-6.9807525e-08
-3.5906089e-08
-7.3297951e-08
-3.627681e-08
-7.6801033e-08
-3.664546e-08
-8.0314454e-08
-3.7011397e-08
-8.3835899e-08
-3.7374082e-08
-8.7363087e-08
-3.7733107e-08
-9.0893777e-08
-3.8088165e-08
-9.442581e-08
-3.8439078e-08
-9.7957099e-08
-3.8785758e-08
-1.0148567e-07
-3.912824e-08
-1.0500964e-07
-3.9466623e-08
-1.0852725e-07
-3.9801113e-08
-1.1203684e-07
-4.0131945e-08
-1.1553684e-07