/*--------------------------------*- C++ -*----------------------------------*\
| =========                 |                                                 |
| \\      /  F ield         | OpenFOAM: The Open Source CFD Toolbox           |
|  \\    /   O peration     | Version:  2312                                  |
|   \\  /    A nd           | Website:  www.openfoam.com                      |
|    \\/     M anipulation  |                                                 |
\*---------------------------------------------------------------------------*/
FoamFile
{
    version     2.0;
    format      ascii;
    arch        "LSB;label=32;scalar=64";
    class       volScalarField;
    location    "0.03";
    object      T;
}
// * * * * * * * * * * * * * * * * * * * * * * * * * * * * * * * * * * * * * //

dimensions      [0 0 0 1 0 0 0];

internalField   nonuniform List<scalar> 
3257
(
310.22942
310.07433
309.91596
309.75404
309.58864
309.41986
309.24786
309.07286
308.89526
308.71568
308.53504
308.35472
308.17662
308.00326
307.83766
307.68311
307.54263
307.41826
307.3104
307.21743
307.13592
307.06133
306.98904
306.91516
306.83699
306.75292
306.66214
306.56417
306.45842
306.34404
306.22
306.08574
305.94186
305.79023
305.63234
305.46769
305.29334
305.10443
304.89614
304.66616
304.41783
304.15473
303.87538
303.57638
303.251
302.89789
302.51345
302.11206
301.70666
301.3673
300.50367
331.83071
331.3196
330.7982
330.26588
329.72281
329.16931
328.60583
328.03311
327.45227
326.86506
326.27406
325.68295
325.09676
324.5219
323.96588
323.43661
322.94102
322.48351
322.06439
321.67924
321.31944
320.97384
320.63108
320.28142
319.91781
319.53585
319.13312
318.70824
318.26003
317.78706
317.28785
316.76172
316.2096
315.63383
315.03607
314.41521
313.76694
313.08494
312.3635
311.60022
310.79819
309.96116
309.08914
308.17988
307.22988
306.23791
305.20375
304.13231
303.02242
301.86758
300.6304
354.53792
353.61005
352.66452
351.70049
350.71833
349.71863
348.70218
347.67011
346.62409
345.56655
344.50092
343.43193
342.36583
341.31034
340.27432
339.26678
338.29547
337.36507
336.47571
335.62232
334.79528
333.98233
333.17092
332.35025
331.51241
330.65246
329.76784
328.85739
327.92053
326.95679
325.96577
324.94765
323.90354
322.83524
321.74398
320.62924
319.48856
318.31841
317.11591
315.88056
314.61446
313.32045
312.00023
310.65469
309.28457
307.89181
306.4794
305.05187
303.61301
302.16682
300.71916
377.67757
376.27973
374.85699
373.40847
371.93488
370.43716
368.9165
367.3744
365.81292
364.23478
362.64363
361.04426
359.4427
357.84621
356.26285
354.70071
353.16667
351.66503
350.19635
348.75702
347.33986
345.93556
344.53456
343.12868
341.712
340.28101
338.83419
337.37135
335.8929
334.3995
332.89184
331.37084
329.83765
328.29356
326.73947
325.17531
323.60019
322.01286
320.41245
318.79913
317.17424
315.53969
313.89735
312.24904
310.5968
308.94327
307.29169
305.64599
304.01035
302.3896
300.78984
400.52103
398.6136
396.67469
394.7036
392.70148
390.66981
388.61024
386.52476
384.41576
382.28621
380.13979
377.98101
375.81528
373.64883
371.48843
369.34081
367.21182
365.10555
363.02355
360.96464
358.92524
356.90038
354.88484
352.87422
350.86555
348.85738
346.84956
344.84281
342.83824
340.83712
338.8406
336.84979
334.86567
332.8891
330.92061
328.96023
327.00769
325.06253
323.12453
321.19389
319.27133
317.35797
315.45511
313.56427
311.68719
309.82598
307.98308
306.16127
304.36365
302.59378
300.85584
422.34991
419.91185
417.43683
414.92452
412.37673
409.79554
407.18326
404.54243
401.87595
399.18713
396.47979
393.75831
391.02766
388.29331
385.56109
382.83675
380.12556
377.4317
374.75787
372.10517
369.47327
366.86096
364.26679
361.68964
359.1291
356.58549
354.05977
351.55329
349.06754
346.60393
344.16373
341.74795
339.35736
336.99251
334.65363
332.34072
330.05356
327.79188
325.5555
323.3444
321.15886
318.99936
316.86661
314.7615
312.68511
310.63875
308.62392
306.64234
304.69594
302.78707
300.91853
442.52788
439.55953
436.55014
433.49997
430.41157
427.28779
424.13165
420.9464
417.73555
414.50292
411.25268
407.98935
404.7178
401.44323
398.171
394.90648
391.65472
388.42021
385.2066
382.01665
378.85232
375.71496
372.60569
369.52565
366.47614
363.45871
360.47505
357.52692
354.61597
351.74365
348.91119
346.1195
343.36921
340.66068
337.99403
335.36915
332.78582
330.24372
327.74257
325.28214
322.86235
320.48326
318.14502
315.84797
313.59254
311.37928
309.20888
307.08216
305.00012
302.96411
300.97593
460.56411
457.0874
453.56711
450.00425
446.40218
442.76455
439.09516
435.39801
431.6773
427.93747
424.18316
420.41924
416.65079
412.88304
409.12132
405.37091
401.63694
397.92418
394.23697
390.57909
386.95384
383.36408
379.81242
376.30128
372.83298
369.40977
366.03378
362.70698
359.43112
356.20765
353.03776
349.92229
346.86183
343.85665
340.90683
338.01223
335.17255
332.38745
329.65653
326.97938
324.35566
321.78509
319.26742
316.8025
314.39021
312.0305
309.72339
307.46898
305.26753
303.11962
301.0263
476.15717
472.21322
468.22457
464.19315
460.12308
456.01879
451.88487
447.72604
443.54719
439.35336
435.14975
430.94165
426.73446
422.53361
418.34458
414.17275
410.02339
405.90151
401.81181
397.75866
393.74603
389.77756
385.85658
381.98616
378.16914
374.40809
370.70535
367.06299
363.4828
359.96623
356.51441
353.12819
349.80809
346.5544
343.36714
340.24617
337.19118
334.20175
331.27739
328.41758
325.62176
322.88938
320.21989
317.61275
315.06742
312.58337
310.1601
307.79714
305.49421
303.2513
301.06889
489.2122
484.85635
480.45591
476.01367
471.5345
467.02353
462.48602
457.92737
453.35308
448.76875
444.18008
439.59279
435.01259
430.44515
425.89613
421.37106
416.87531
412.41405
407.99219
403.6143
399.28468
395.00728
390.78575
386.62341
382.5233
378.48811
374.52023
370.62176
366.79451
363.03984
359.35894
355.75257
352.22125
348.76523
345.38455
342.07903
338.84834
335.69202
332.60951
329.60018
326.66331
323.79817
321.00396
318.27986
315.625
313.03849
310.51943
308.06698
305.68042
303.35934
301.10379
499.82719
495.12234
490.37387
485.58537
480.76227
475.9103
471.03532
466.14323
461.24005
456.33183
451.42462
446.52445
441.63738
436.76935
431.92619
427.11354
422.33689
417.60147
412.91226
408.27395
403.69091
399.16717
394.70647
390.31222
385.98743
381.73484
377.55674
373.45517
369.43212
365.48847
361.6261
357.84536
354.14667
350.53028
346.99617
343.54418
340.17394
336.88495
333.67658
330.54812
327.49874
324.52755
321.63357
318.81578
316.07305
313.40425
310.8082
308.28377
305.82994
303.44601
301.13175
508.24778
503.25584
498.2226
493.15149
488.04837
482.91944
477.771
472.6094
467.44106
462.27237
457.10973
451.95944
446.82775
441.72075
436.64437
431.60435
426.60621
421.65521
416.75634
411.91429
407.13342
402.41778
397.77107
393.1966
388.69743
384.27619
379.9353
375.67674
371.50187
367.41256
363.40897
359.49226
355.66296
351.9213
348.26727
344.70067
341.22111
337.82806
334.52086
331.2987
328.16069
325.10583
322.13302
319.24107
316.42871
313.6946
311.03739
308.45574
305.94846
303.51464
301.15386
514.81719
509.60098
504.34227
499.04723
493.72246
488.3746
483.01032
477.6363
472.25924
466.88583
461.52267
456.17629
450.85306
445.5592
440.30072
435.08342
429.91284
424.79424
419.7326
414.73258
409.7985
404.93436
400.14379
395.43007
390.79615
386.24463
381.77778
377.39749
373.1053
368.90253
364.79011
360.76876
356.83893
353.00081
349.25437
345.59939
342.03547
338.56203
335.17837
331.88365
328.6769
325.55706
322.52292
319.5732
316.70651
313.9214
311.21637
308.58999
306.04091
303.56813
301.17107
519.90415
514.50843
509.07241
503.60189
498.10368
492.58471
487.0519
481.51219
475.97252
470.43975
464.92068
459.42196
453.95008
448.51136
443.11185
437.75741
432.45357
427.20561
422.01847
416.89679
411.84484
406.86656
401.96553
397.14497
392.40776
387.75643
383.19316
378.71981
374.3379
370.04864
365.85297
361.75154
357.74476
353.83279
350.01557
346.29285
342.66421
339.12905
335.68664
332.33609
329.0764
325.90643
322.82493
319.83053
316.92177
314.09713
311.35502
308.69393
306.11245
303.60947
301.18436
523.84311
518.30767
512.73304
507.12536
501.49167
495.8391
490.17479
484.50588
478.83947
473.1826
467.54217
461.92496
456.33754
450.78628
445.27732
439.81651
434.40942
429.0613
423.7771
418.5614
413.41844
408.35212
403.36596
398.46313
393.64645
388.91839
384.28107
379.73629
375.28551
370.92992
366.6704
362.50757
358.44178
354.47318
350.60168
346.827
343.14871
339.56617
336.07862
332.68515
329.38471
326.17614
323.05812
320.02924
317.088
314.23279
311.46202
308.77409
306.16756
303.64129
301.19457
526.92665
521.28097
515.59688
509.88088
504.1402
498.38215
492.61405
486.8432
481.07683
475.3221
469.58602
463.87546
458.19706
452.55725
446.96221
441.4178
435.92962
430.50291
425.1426
419.85325
414.63908
409.50393
404.45129
399.48428
394.60566
389.81786
385.12295
380.52267
376.01844
371.61141
367.30241
363.09202
358.98058
354.96818
351.05472
347.2399
343.52324
339.9041
336.38168
332.95505
329.62312
326.38469
323.23842
320.18286
317.21645
314.33759
311.54461
308.83591
306.21003
303.66578
301.20241
529.38798
523.65343
517.88107
512.07769
506.2507
500.40756
494.55573
488.70264
482.85565
477.02201
471.20884
465.42305
459.67138
453.9603
448.296
442.68439
437.13107
431.64129
426.21996
420.87163
415.60048
410.41034
405.30465
400.2865
395.35861
390.52335
385.78275
381.13851
376.59202
372.14437
367.79636
363.54854
359.4012
355.35442
351.40806
347.5618
343.81512
340.16736
336.61769
333.16515
329.80864
326.54691
323.3786
320.30222
317.31621
314.4189
311.60863
308.88378
306.24287
303.68469
301.20845
531.40353
525.5953
519.74973
513.87384
507.97521
502.06143
496.1401
490.21874
484.30482
478.4057
472.52856
466.68039
460.86798
455.09784
449.37621
443.70901
438.10185
432.55999
427.08833
421.69142
416.37342
411.13812
405.98894
400.92894
395.96079
391.08684
386.30908
381.62916
377.04844
372.56796
368.18849
363.91055
359.73439
355.66006
351.68739
347.81603
344.04543
340.3749
336.8036
333.33052
329.95453
326.67437
323.48864
320.39583
317.39435
314.48252
311.65866
308.92114
306.26846
303.6994
301.21314
533.10144
527.23022
521.32204
515.38413
509.42419
503.44994
497.46909
491.48928
485.51807
479.5629
473.63102
467.72949
461.86515
456.04456
450.27398
444.55936
438.90633
433.32015
427.80572
422.36758
417.00987
411.73638
406.55049
401.45523
396.45325
391.54685
386.738
382.0283
377.41909
372.91136
368.50586
364.20306
360.00319
355.90625
351.91204
348.02019
344.23012
340.5411
336.95226
333.46258
330.07088
326.77588
323.57616
320.47018
317.45632
314.53289
311.69821
308.95061
306.28861
303.71096
301.21682
534.57196
528.64532
522.68202
516.68949
510.67553
504.64801
498.61471
492.5834
486.56171
480.55716
474.57707
468.62857
462.71854
456.85359
451.04
445.28376
439.59051
433.96551
428.41368
422.93953
417.54722
412.24049
407.02272
401.8969
396.86567
391.9313
387.09571
382.36048
377.7269
373.19595
368.76832
364.44446
360.22456
356.10859
352.09632
348.18733
344.38103
340.67665
337.07328
333.56988
330.16525
326.85806
323.64688
320.53014
317.5062
314.57336
311.72991
308.97419
306.3047
303.72017
301.21974
535.87717
529.90056
523.88756
517.84574
511.78305
505.70743
499.62679
493.54898
487.48173
481.43261
475.40903
469.41817
463.46696
457.56204
451.70975
445.91608
440.18669
434.52686
428.94151
423.43514
418.0119
412.67553
407.42938
402.27643
397.21928
392.26017
387.401
382.64332
377.98838
373.43713
368.99022
364.64807
360.41083
356.27845
352.25065
348.32699
344.50684
340.78939
337.17372
333.65874
330.24322
326.92582
323.70505
320.57935
317.54705
314.60642
311.75575
308.99337
306.31775
303.72763
301.2221
537.05906
531.03655
524.97789
518.89078
512.78327
506.66343
500.53926
494.41869
488.30954
482.21946
476.15591
470.12614
464.13711
458.19552
452.30772
446.47975
440.71727
435.02559
429.4096
423.87384
418.42242
413.05909
407.78717
402.60962
397.52902
392.54759
387.66719
382.88935
378.21529
373.6459
369.18184
364.82345
360.57088
356.42403
352.3826
348.4461
344.61386
340.88506
337.25874
333.73376
330.30889
326.98274
323.75381
320.6205
317.58111
314.63392
311.77719
309.00923
306.32852
303.73377
301.22404
538.14575
532.08051
525.97933
519.85003
513.70077
507.53973
501.37501
495.2146
489.06642
482.93818
476.83741
470.77141
464.74719
458.77148
452.85069
446.99085
441.19766
435.47643
429.83206
424.26909
418.79163
413.40339
408.10772
402.90753
397.8054
392.8035
387.90368
383.10743
378.41595
373.83009
369.35048
364.97744
360.71106
356.55122
352.49758
348.54962
344.70665
340.9678
337.33207
333.79831
330.36525
327.03146
323.79543
320.65553
317.61004
314.65722
311.7953
309.0226
306.33757
303.73891
301.22566
539.15593
533.05056
526.90943
520.74049
514.552
508.35224
502.14939
495.95155
489.76669
483.60259
477.46686
471.36683
465.30957
459.30185
453.35009
447.46037
441.6384
435.8895
430.21858
424.63017
419.12839
413.71693
408.39912
403.17788
398.05573
393.03485
388.11705
383.30379
378.59623
373.99523
369.50134
365.11487
360.83588
356.6642
352.59948
348.64115
344.78848
341.04058
337.39642
333.85482
330.41446
327.0739
323.83159
320.68588
317.63504
314.67729
311.81087
309.03406
306.34532
303.74331
301.22704
540.10204
533.95878
527.77992
521.57352
515.34796
509.11161
502.87274
496.63953
490.42
484.22204
478.05327
471.92111
465.83265
459.79471
453.81374
447.89585
442.04675
436.27177
430.57586
424.96352
419.43886
414.0056
408.66702
403.42603
398.28515
393.24652
388.31192
383.48281
378.7603
374.14522
369.63809
365.2392
360.94856
356.76599
352.69108
348.72324
344.86172
341.10558
337.45376
333.90504
330.45809
327.11144
323.8635
320.71261
317.657
314.69488
311.82448
309.04406
306.35206
303.74713
301.22823
540.99246
534.81329
528.59868
522.35678
516.09609
509.82505
503.55204
497.2853
491.03294
484.80287
478.60281
472.4402
466.3222
460.25564
454.24702
448.30245
442.42769
436.62807
430.90852
425.27357
419.72733
414.27349
408.91534
403.65576
398.49725
393.44194
388.49158
383.6476
378.91109
374.28284
369.76336
365.35289
361.05143
356.85874
352.77439
348.79776
344.92807
341.16434
337.50549
333.95026
330.4973
327.14509
323.89205
320.73646
317.67655
314.71051
311.83654
309.05291
306.35801
303.75049
301.22929
541.83291
535.61966
529.37112
523.09551
516.80147
510.49752
504.19211
497.89355
491.61002
485.34949
479.11974
472.92825
466.78221
460.68851
454.65367
448.68382
442.78473
436.96176
431.21983
425.56349
419.99682
414.52353
409.14687
403.86974
398.6946
393.62355
388.65835
383.80038
379.05071
374.4101
369.87904
365.45773
361.14613
356.94399
352.85085
348.86605
344.98876
341.21801
337.55265
333.99142
330.53291
327.17561
323.91789
320.75801
317.69418
314.72458
311.84738
309.06084
306.36334
303.7535
301.23023
542.62742
536.38178
530.10101
523.79342
517.46771
511.13252
504.79635
498.46759
492.15447
485.86503
479.60709
473.38818
467.21554
461.09609
455.03636
449.04253
443.12038
437.27526
431.51213
425.83551
420.24951
414.75779
409.36364
404.0699
398.87904
393.79314
388.81392
383.94276
379.18069
374.52845
369.98649
365.55499
361.23389
357.0229
352.92153
348.92908
345.04471
341.26741
337.596
334.02919
330.56555
327.20354
323.94149
320.77766
317.71024
314.73737
311.85723
309.06803
306.36817
303.75623
301.23108
543.37896
537.10249
530.79113
524.4532
518.09746
511.73262
505.36727
499.00984
492.66865
486.35178
480.06709
473.82217
467.62429
461.48041
455.39708
449.38051
443.43648
437.57037
431.78714
426.09132
420.48699
414.97784
409.56711
404.25766
399.05194
393.952
388.95955
384.07593
379.30216
374.63895
370.08673
365.64564
361.31561
357.0963
352.9872
348.98759
345.09659
341.31316
337.6361
334.06409
330.59567
327.22927
323.96322
320.79574
317.72499
314.74911
311.86624
309.07462
306.37259
303.75872
301.23186
544.08967
537.78395
531.44358
525.07693
518.69274
512.29981
505.9068
499.52221
493.1544
486.81151
480.50147
474.23188
468.01008
461.84303
455.73733
449.6992
443.73445
437.84846
432.04618
426.33216
420.71049
415.18483
409.75843
404.43412
399.21434
394.10113
389.09617
384.20078
379.41597
374.74242
370.18052
365.73041
361.39196
357.16483
353.04847
349.04213
345.14491
341.35573
337.67338
334.09651
330.62362
327.25314
323.98335
320.81246
317.73862
314.75995
311.87457
309.08069
306.37666
303.76102
301.23257
538.42784
532.06009
525.66632
519.25524
512.83573
506.41653
500.00622
493.6132
487.24568
480.91161
474.61867
468.3742
462.18522
456.05834
449.9998
444.01542
438.1106
432.2903
426.55906
420.92098
415.3797
409.93848
404.60012
399.36705
394.2413
389.22453
384.31804
379.52281
374.8395
370.26848
365.80985
361.46348
357.22898
353.10579
349.09313
345.19006
341.39549
337.70818
334.12674
330.64967
327.27536
324.00208
320.82801
317.75129
314.77002
311.8823
309.08633
306.38044
303.76315
301.23324
539.03589
532.6423
526.22291
519.78642
513.34178
506.89782
500.46318
494.04632
487.65549
481.29871
474.98367
468.71777
462.50803
456.36111
450.28326
444.28032
438.3577
432.52037
426.77285
421.11925
415.56322
410.10799
404.75636
399.51074
394.37315
389.34523
384.42826
379.6232
374.93068
370.35106
365.88442
361.53058
357.28915
353.15952
349.14091
345.23235
341.43271
337.74074
334.15502
330.67403
327.29613
324.01958
320.84254
317.76312
314.77941
311.88951
309.09159
306.38397
303.76515
301.23387
539.60959
533.19166
526.74809
520.2876
513.81925
507.35191
500.89429
494.4549
488.04206
481.66381
475.32789
469.04174
462.8124
456.64655
450.55046
444.52999
438.59056
432.73713
426.97425
421.306
415.73603
410.26758
404.90343
399.64597
394.49721
389.45877
384.53192
379.71759
375.0164
370.42868
365.95448
361.59361
357.34565
353.20997
349.18576
345.27203
341.46763
337.77127
334.18153
330.69686
327.31559
324.03597
320.85614
317.7742
314.78821
311.89627
309.09653
306.38728
303.76702
301.23446
540.15037
533.70952
527.24315
520.76004
514.26932
507.77993
501.30063
494.84
488.40639
482.00788
475.65227
469.347
463.09917
456.91546
450.80217
444.76516
438.80986
432.94126
427.16388
421.48181
415.89871
410.41779
405.04183
399.77322
394.61393
389.56559
384.62942
379.80636
375.097
370.50165
366.02034
361.65285
357.39875
353.25738
349.2279
345.30931
341.50043
337.79995
334.20643
330.71829
327.33386
324.05136
320.86891
317.7846
314.79647
311.90261
309.10116
306.3904
303.76879
301.23501
540.65958
534.19715
527.70932
521.20491
514.69313
508.18297
501.68325
495.2026
488.74942
482.33184
475.95767
469.6344
463.36913
457.1686
451.0391
444.98651
439.01627
433.13336
427.34233
421.64725
416.05178
410.55912
405.17204
399.89292
394.72373
389.66605
384.72113
379.88985
375.1728
370.57027
366.08227
361.70855
357.44867
353.30195
349.26752
345.34435
341.53126
337.82691
334.22984
330.73845
327.35104
324.06583
320.88092
317.79438
314.80425
311.90859
309.10553
306.39334
303.77046
301.23554
541.13852
534.65581
528.1478
521.62336
515.09177
508.56207
502.04315
495.54368
489.07209
482.63655
476.24492
469.9047
463.62304
457.40667
451.26192
445.19467
439.21037
433.31401
427.51013
421.80282
416.19571
410.69201
405.29448
400.00548
394.82696
389.76051
384.80735
379.96835
375.24408
370.63479
366.1405
361.76094
357.49562
353.34387
349.30478
345.37732
341.56027
337.85228
334.25186
330.75742
327.36722
324.07946
320.89224
317.80361
314.81159
311.91423
309.10966
306.39613
303.77204
301.23604
541.58845
535.08671
528.55975
522.01651
515.46631
508.91827
502.38131
495.86414
489.37526
482.92285
476.51481
470.15867
463.8616
457.63036
451.47128
445.39025
439.39275
433.48375
427.6678
421.94899
416.33095
410.81688
405.40952
400.11124
394.92398
389.84929
384.88839
380.04213
375.31107
370.69545
366.19525
361.81019
357.53978
353.38329
349.33984
345.40834
341.58757
337.87616
334.27261
330.77528
327.38246
324.0923
320.90291
317.81231
314.81851
311.91957
309.11357
306.39877
303.77355
301.23652
542.01061
535.49103
528.94632
522.38545
515.81781
509.25256
502.69867
496.16491
489.65979
483.19156
476.76813
470.39705
464.08553
457.84032
451.66779
445.57384
439.56394
433.64309
427.81582
422.08622
416.45793
410.93412
405.51755
400.21057
395.01509
389.93267
384.96451
380.11145
375.37402
370.75246
366.24671
361.8565
357.5813
353.42038
349.37282
345.43753
341.61327
337.89865
334.29214
330.79212
327.39683
324.10442
320.91298
317.82052
314.82506
311.92461
309.11728
306.40127
303.77498
301.23698
542.4062
535.86996
529.30864
522.73127
516.14729
509.56592
502.99617
496.44686
489.92654
483.44348
477.00562
470.62055
464.29548
458.03719
451.85206
445.746
439.72449
433.79252
427.95465
422.21494
416.57704
411.04411
405.61892
400.30377
395.1006
390.01094
385.03598
380.17654
375.43315
370.80601
366.29507
361.90002
357.62033
353.45525
349.40384
345.465
341.63746
337.91983
334.31055
330.80799
327.41037
324.11585
320.92249
317.82829
314.83125
311.92939
309.12079
306.40366
303.77635
301.23742
542.77644
536.22464
529.64781
523.05501
516.45575
509.8593
503.27472
496.71087
490.17632
483.67938
477.22802
470.82986
464.49211
458.22158
452.02466
445.90727
439.87489
433.93253
428.08473
422.33557
416.68867
411.14722
405.71394
400.39116
395.18079
390.08436
385.10303
380.23762
375.48864
370.85628
366.34048
361.94091
357.65701
353.48804
349.43302
345.49085
341.66024
337.93977
334.3279
330.82295
327.42316
324.12664
320.93147
317.83563
314.83712
311.93393
309.12413
306.40593
303.77765
301.23784
543.1225
536.55621
529.9649
523.3577
516.74418
510.13364
503.53521
496.95776
490.40992
483.90002
477.43605
471.02565
464.67606
458.3941
452.18616
446.05818
440.01565
434.06357
428.20649
422.4485
416.7932
411.24377
405.80295
400.47304
395.25594
390.15317
385.16589
380.29491
375.5407
370.90346
366.38311
361.9793
357.69147
353.51885
349.46045
345.51516
341.68167
337.95855
334.34424
330.83706
327.43522
324.13683
320.93996
317.84258
314.84267
311.93823
309.12731
306.40809
303.7789
301.23824
543.44555
536.86578
530.261
523.64037
517.01354
510.38986
503.7785
497.18837
490.62813
484.10614
477.6304
471.20858
464.84794
458.55531
452.33709
446.19924
440.14723
434.18609
428.32036
422.55412
416.89098
411.33412
405.88625
400.54968
395.3263
390.21762
385.22479
380.34859
375.5895
370.94771
366.4231
362.01534
357.72383
353.54779
349.48624
345.53802
341.70184
337.97623
334.35964
330.85036
327.4466
324.14646
320.94799
317.84916
314.84794
311.94231
309.13033
306.41015
303.78009
301.23863
543.74671
537.15443
530.53712
523.904
517.26477
510.62885
504.00544
497.4035
490.83171
484.29844
477.81175
471.37929
465.00835
458.70578
452.47799
446.33093
440.2701
434.30051
428.42672
422.6528
416.98236
411.41856
405.96413
400.62135
395.39212
390.27793
385.27992
380.39886
375.63522
370.98918
366.4606
362.04914
357.7542
353.57497
349.51047
345.55952
341.72081
337.99288
334.37414
330.8629
327.45733
324.15555
320.95558
317.85538
314.85293
311.94619
309.1332
306.41212
303.78124
301.239
544.0271
537.42323
530.79428
524.14954
517.49877
510.85146
504.21685
497.60391
491.02138
484.47763
477.98074
471.53839
465.15788
458.84605
452.60935
446.45373
440.38469
434.40725
428.52596
422.74489
417.06766
411.49741
406.03687
400.68832
395.45364
390.33432
385.33148
380.4459
375.67802
371.02801
366.49574
362.08084
357.78269
353.60049
349.53322
345.57972
341.73865
338.00855
334.38781
330.87472
327.46747
324.16414
320.96276
317.86128
314.85767
311.94988
309.13594
306.414
303.78233
301.23936
544.28778
537.67321
531.03347
524.37793
517.71644
511.05854
504.41351
497.79037
491.19785
484.64438
478.13802
471.68648
465.29707
458.97666
452.73168
446.56811
440.49144
434.50671
428.61845
422.83074
417.1472
411.57096
406.10475
400.75083
395.51109
390.387
385.37967
380.48988
375.71806
371.06436
366.52865
362.11053
357.8094
353.62442
349.55458
345.5987
341.75543
338.02329
334.40068
330.88586
327.47703
324.17225
320.96954
317.86687
314.86216
311.95338
309.13855
306.4158
303.78338
301.2397
544.52983
537.90537
531.25564
524.59007
517.91861
511.25088
504.5962
497.96359
491.36183
484.79933
478.28419
471.82413
465.42647
459.09809
452.84544
446.6745
440.59076
434.59926
428.70455
422.91069
417.22129
411.63949
406.16801
400.80912
395.56468
390.43616
385.42467
380.53096
375.75548
371.09835
366.55944
362.13834
357.83442
353.64686
349.57463
345.61652
341.77119
338.03716
334.41279
330.89637
327.48605
324.17991
320.97596
317.87216
314.86642
311.95671
309.14104
306.41752
303.78439
301.24004
544.75424
538.12069
531.4617
524.78682
518.10612
511.42928
504.76565
498.12428
491.51396
484.94311
478.41985
471.9519
465.5466
459.21085
452.9511
446.77333
440.68305
434.68529
428.78459
422.98503
417.29021
411.70328
406.22692
400.86341
395.61461
390.48199
385.46664
380.56931
375.79043
371.13011
366.58822
362.16435
357.85785
353.66789
349.59342
345.63324
341.786
338.05019
334.42419
330.90626
327.49456
324.18715
320.98204
317.87717
314.87047
311.95988
309.14341
306.41916
303.78536
301.24036
544.96203
538.32011
531.65255
524.96902
518.27976
511.59448
504.92257
498.27312
491.65488
485.07632
478.54555
472.07032
465.65796
459.3154
453.04908
446.865
440.76867
434.76512
428.8589
423.05408
417.35425
411.76256
406.2817
400.91392
395.6611
390.52468
385.50575
380.60506
375.82303
371.15977
366.61512
362.18867
357.87977
353.68757
349.61103
345.64893
341.7999
338.06244
334.43491
330.91557
327.50257
324.19398
320.98777
317.88191
314.8743
311.96289
309.14567
306.42073
303.78628
301.24067
545.15416
538.50454
531.82903
525.13748
518.44026
511.74719
505.06765
498.41074
491.78522
485.19955
478.66186
472.1799
465.76103
459.41218
453.1398
446.94991
440.848
434.83912
428.9278
423.11812
417.41367
411.81759
406.33257
400.96086
395.70431
390.56438
385.54215
380.63836
375.85341
371.18742
366.64021
362.21138
357.90026
353.70599
349.62752
345.66362
341.81294
338.07394
334.44499
330.92434
327.51013
324.20042
320.99319
317.88639
314.87794
311.96575
309.14782
306.42223
303.78717
301.24097
545.33157
538.67485
531.99195
525.29294
518.58836
511.88809
505.20154
498.53777
491.90555
485.31334
478.76928
472.28113
465.85627
459.50162
453.22367
447.02842
440.92138
434.90758
428.99158
423.17743
417.46873
411.8686
406.37975
401.00441
395.74443
390.60127
385.57599
380.66933
375.88169
371.21317
366.66361
362.23256
357.91938
353.72319
349.64293
345.67738
341.82515
338.08472
334.45445
330.93257
327.51723
324.20648
320.99831
317.89063
314.88138
311.96846
309.14987
306.42366
303.78802
301.24126
545.49519
538.83188
532.14207
525.43612
518.72474
512.01784
505.32485
498.65479
492.01644
485.41823
478.86831
472.37448
465.9441
459.58413
453.30106
447.10089
440.98913
434.97083
429.05051
423.23226
417.51965
411.91581
406.42343
401.04476
395.78163
390.63548
385.6074
380.6981
375.90797
371.23713
366.68539
362.2523
357.93721
353.73925
349.65733
345.69024
341.83658
338.09482
334.46332
330.9403
327.52391
324.21219
321.00312
317.89463
314.88463
311.97103
309.15181
306.42502
303.78883
301.24153
545.64595
538.97639
532.28007
525.5677
518.85003
512.13707
505.43818
498.76239
492.11842
485.51472
478.95944
472.46038
466.02495
459.6601
453.37233
447.16765
441.05157
435.02913
429.10488
423.28286
417.56667
411.95943
406.46382
401.08208
395.81605
390.66717
385.63651
380.72478
375.93237
371.25938
366.70563
362.27066
357.95382
353.75421
349.67077
345.70225
341.84726
338.10427
334.47162
330.94755
327.53018
324.21755
321.00765
317.8984
314.88769
311.97345
309.15364
306.42631
303.7896
301.24179
545.78477
539.10905
532.4066
525.68829
518.96486
512.24635
505.54209
498.86108
492.212
485.60329
479.0431
472.53927
466.0992
459.72989
453.43782
447.22902
441.10899
435.08278
429.15492
423.32946
417.60999
411.99964
406.50107
401.11653
395.84785
390.69647
385.66344
380.74948
375.95497
371.28002
366.72441
362.28772
357.96925
353.76813
349.68327
345.71344
341.85722
338.11309
334.47938
330.95433
327.53604
324.22258
321.0119
317.90194
314.89058
311.97574
309.15537
306.42752
303.79033
301.24204
545.91267
539.23034
532.52222
525.79848
519.0698
512.34624
505.63713
498.95139
492.29768
485.6844
479.11974
472.61154
466.16724
459.79385
453.49786
447.2853
441.16168
435.13202
429.20087
423.37228
417.64983
412.03664
406.53537
401.14828
395.87717
390.72349
385.6883
380.7723
375.97588
371.29911
366.74181
362.30353
357.98357
353.78105
349.6949
345.72384
341.8665
338.12131
334.48662
330.96065
327.54153
324.22728
321.01589
317.90525
314.89328
311.97788
309.157
306.42866
303.79101
301.24227
539.34101
532.6275
525.89881
519.16538
512.43728
505.72381
499.03382
492.37591
485.7585
479.18975
472.67757
466.22942
459.85231
453.55276
447.33678
441.20989
435.17711
429.24298
423.41154
417.68637
412.07059
406.56688
401.17745
395.90414
390.74837
385.7112
380.79334
375.99516
371.31675
366.75789
362.31815
357.99683
353.79303
349.70567
345.7335
341.87511
338.12895
334.49336
330.96655
327.54664
324.23167
321.0196
317.90835
314.89581
311.97989
309.15852
306.42973
303.79165
301.24249
539.44126
532.72294
525.98977
519.25213
512.51997
505.80261
499.10881
492.44715
485.82599
479.25354
472.73773
466.28607
459.9056
453.60281
447.38374
441.25389
435.21828
429.28144
423.44742
417.7198
412.10168
406.59574
401.2042
395.92889
390.77122
385.73225
380.81269
376.01292
371.33299
366.77272
362.33164
358.00907
353.8041
349.71565
345.74245
341.8831
338.13604
334.49961
330.97202
327.55139
324.23575
321.02306
317.91124
314.89817
311.98176
309.15994
306.43073
303.79224
301.24269
539.53281
532.80893
526.07186
519.33053
512.59479
505.87399
499.17683
492.51181
485.88727
479.31146
472.79236
466.33752
459.95399
453.64829
447.42643
441.29391
435.25575
429.31647
423.48013
417.75029
412.13006
406.62211
401.22866
395.95153
390.79214
385.75155
380.83045
376.02922
371.34792
366.78636
362.34407
358.02036
353.81432
349.72486
345.75072
341.89048
338.14261
334.50541
330.9771
327.5558
324.23954
321.02628
317.91393
314.90037
311.9835
309.16126
306.43165
303.79279
301.24288
532.88618
526.14557
519.40105
512.6622
505.93841
499.2383
492.5703
485.94274
479.36388
472.84179
466.38407
459.99779
453.68947
447.46509
441.33018
435.28973
429.34827
423.50985
417.77801
412.15589
406.64612
401.25095
395.97219
390.81125
385.76919
380.8467
376.04415
371.36161
366.79888
362.35548
358.03073
353.82371
349.73334
345.75834
341.8973
338.14867
334.51076
330.9818
327.55989
324.24306
321.02927
317.91642
314.9024
311.98511
309.16248
306.43251
303.7933
301.24304
532.95471
526.2114
519.46412
512.72264
505.99628
499.29361
492.623
485.99274
479.41111
472.88632
466.42602
460.03727
453.72659
447.49998
441.36293
435.32044
429.37703
423.53674