/*--------------------------------*- C++ -*----------------------------------*\
| =========                 |                                                 |
| \\      /  F ield         | OpenFOAM: The Open Source CFD Toolbox           |
|  \\    /   O peration     | Version:  2312                                  |
|   \\  /    A nd           | Website:  www.openfoam.com                      |
|    \\/     M anipulation  |                                                 |
\*---------------------------------------------------------------------------*/
FoamFile
{
    version     2.0;
    format      ascii;
    arch        "LSB;label=32;scalar=64";
    class       volScalarField;
    location    "0.09";
    object      alphat;
}
// * * * * * * * * * * * * * * * * * * * * * * * * * * * * * * * * * * * * * //

dimensions      [1 -1 -1 0 0 0 0];

internalField   nonuniform List<scalar> 
3251
(
0.02378039
0.023999871
0.024226884
0.024461516
0.02470386
0.024954001
0.025212023
0.025478004
0.02575202
0.026034142
0.026324435
0.02662296
0.026929772
0.027244921
0.027568452
0.0279004
0.028240796
0.028589663
0.028947015
0.029312859
0.02968719
0.030069994
0.030461248
0.030860916
0.031268948
0.031685284
0.032109849
0.032542552
0.032983287
0.033431934
0.033888354
0.03435239
0.034823867
0.035302594
0.035788356
0.036280922
0.03678004
0.037285437
0.037796821
0.038313878
0.038836276
0.039363662
0.039895662
0.040431886
0.040971923
0.041515345
0.042061706
0.042610542
0.043161373
0.043713704
0.044267022
0.04482074
0.045374269
0.04592715
0.046478872
0.047028889
0.047576629
0.048121519
0.023781149
0.024000646
0.024227673
0.024462318
0.024704673
0.024954825
0.025212857
0.025478849
0.025752876
0.026035007
0.026325309
0.026623843
0.026930664
0.027245822
0.02756936
0.027901315
0.028241718
0.028590592
0.02894795
0.029313799
0.029688135
0.030070943
0.030462201
0.030861871
0.031269906
0.031686243
0.032110808
0.032543511
0.032984245
0.03343289
0.033889306
0.034353338
0.03482481
0.03530353
0.035789284
0.036281842
0.036780949
0.037286334
0.037797705
0.038314748
0.03883713
0.039364498
0.039896479
0.040432682
0.040972696
0.041516093
0.042062427
0.042611233
0.043162031
0.043714325
0.0442676
0.044821285
0.045374815
0.045927702
0.046479423
0.047029428
0.047577142
0.048121994
0.023782735
0.024002259
0.024229311
0.024463979
0.024706356
0.02495653
0.025214583
0.025480595
0.025754641
0.026036791
0.026327111
0.026625662
0.026932499
0.027247673
0.027571225
0.027903194
0.02824361
0.028592496
0.028949865
0.029315723
0.029690068
0.030072884
0.030464148
0.030863824
0.031271862
0.031688202
0.032112768
0.03254547
0.032986203
0.033434844
0.033891255
0.034355279
0.034826743
0.035305452
0.035791194
0.036283737
0.036782828
0.037288195
0.037799545
0.038316565
0.038838922
0.039366263
0.039898216
0.040434387
0.040974367
0.041517728
0.042064022
0.042612786
0.043163539
0.043715785
0.044269008
0.044822651
0.045376163
0.045929037
0.046480743
0.047030724
0.0475784
0.048123223
0.023785147
0.024004709
0.024231798
0.0244665
0.02470891
0.024959115
0.025217199
0.02548324
0.025757315
0.026039492
0.026329838
0.026628414
0.026935275
0.027250471
0.027574044
0.027906033
0.028246468
0.02859537
0.028952755
0.029318628
0.029692985
0.030075812
0.030467085
0.030866768
0.031274811
0.031691155
0.032115722
0.032548424
0.032989153
0.033437789
0.033894193
0.034358208
0.034829659
0.035308354
0.035794079
0.036286601
0.03678567
0.037291012
0.037802334
0.038319324
0.038841647
0.039368952
0.039900865
0.040436995
0.040976931
0.041520243
0.042066487
0.042615197
0.043165893
0.043718079
0.04427124
0.044824831
0.045378307
0.045931152
0.046482827
0.047032771
0.047580401
0.048125233
0.023788387
0.024007998
0.024235133
0.024469881
0.024712334
0.024962581
0.025220705
0.025486785
0.025760896
0.02604311
0.02633349
0.026632099
0.026938991
0.027254216
0.027577817
0.027909832
0.028250291
0.028599216
0.028956621
0.029322512
0.029696885
0.030079726
0.030471011
0.030870703
0.031278753
0.031695101
0.03211967
0.032552371
0.032993097
0.033441726
0.033898121
0.034362123
0.034833559
0.035312234
0.035797937
0.036290435
0.036789475
0.037294785
0.037806072
0.038323023
0.038845305
0.039372564
0.039904429
0.040440507
0.040980387
0.041523641
0.042069822
0.042618466
0.043169095
0.04372121
0.044274299
0.044827825
0.045381252
0.045934051
0.04648568
0.047035572
0.047583138
0.023792221
0.024011889
0.024239079
0.024473879
0.024716382
0.024966678
0.025224849
0.025490975
0.02576513
0.026047385
0.026337806
0.026636452
0.026943381
0.02725864
0.027582274
0.027914319
0.028254806
0.028603756
0.028961185
0.029327097
0.029701488
0.030084346
0.030475644
0.030875347
0.031283406
0.031699758
0.03212433
0.032557029
0.032997751
0.033446373
0.033902756
0.034366744
0.034838162
0.035316816
0.035802494
0.036294963
0.03679397
0.037299244
0.037810491
0.038327399
0.038849633
0.039376841
0.039908651
0.04044467
0.040984488
0.041527677
0.042073788
0.042622361
0.043172914
0.043724952
0.044277964
0.044831419
0.045384783
0.045937525
0.046489098
0.047038924
0.047586389
0.023796531
0.024016261
0.024243512
0.02447837
0.02472093
0.02497128
0.025229504
0.02549568
0.025769884
0.026052185
0.02634265
0.026641339
0.026948308
0.027263605
0.027587275
0.027919354
0.028259872
0.028608851
0.028966306
0.029332241
0.029706654
0.030089529
0.030480842
0.030880557
0.031288624
0.031704982
0.032129556
0.032562254
0.033002971
0.033451584
0.033907955
0.034371928
0.034843326
0.035321956
0.035807607
0.036300044
0.036799016
0.03730425
0.037815453
0.038332313
0.038854496
0.039381648
0.039913398
0.040449354
0.040989105
0.041532222
0.042078259
0.042626753
0.043177226
0.043729182
0.044282111
0.044835489
0.045388782
0.045941458
0.046492964
0.047042717
0.047590095
0.023801657
0.02402146
0.024248782
0.024483709
0.024726335
0.02497675
0.025235035
0.025501271
0.025775532
0.026057888
0.026348406
0.026647145
0.026954161
0.027269504
0.027593216
0.027925334
0.028265889
0.028614902
0.028972387
0.02933835
0.029712787
0.030095683
0.030487013
0.030886742
0.03129482
0.031711184
0.03213576
0.032568457
0.033009168
0.033457772
0.033914129
0.034378082
0.034849457
0.03532806
0.035813678
0.036306079
0.036805009
0.037310197
0.03782135
0.038338154
0.038860276
0.039387364
0.039919045
0.040454927
0.0409946
0.041537635
0.042083586
0.042631991
0.043182371
0.043734233
0.044287068
0.044840355
0.045393565
0.045946159
0.046497585
0.047047256
0.047594576
0.023807659
0.024027547
0.024254952
0.024489959
0.024732663
0.024983152
0.025241509
0.025507814
0.025782142
0.026064562
0.026355141
0.026653939
0.02696101
0.027276405
0.027600166
0.02793233
0.028272927
0.028621979
0.0289795
0.029345495
0.02971996
0.03010288
0.030494231
0.030893976
0.031302065
0.031718437
0.032143016
0.032575711
0.033016415
0.033465007
0.033921348
0.03438528
0.034856628
0.035335199
0.03582078
0.036313138
0.036812021
0.037317155
0.037828249
0.038344989
0.038867043
0.039394056
0.039925658
0.040461455
0.041001039
0.04154398
0.042089834
0.042638137
0.043188412
0.043740167
0.044292895
0.044846078
0.045399187
0.045951686
0.046503016
0.047052597
0.023814604
0.024034589
0.024262089
0.024497188
0.024739981
0.024990556
0.025248996
0.025515381
0.025789786
0.02607228
0.026362929
0.026661793
0.026968928
0.027284383
0.0276082
0.027940417
0.028281063
0.02863016
0.028987722
0.029353753
0.02972825
0.030111198
0.030502572
0.030902335
0.031310438
0.031726818
0.0321514
0.032584092
0.033024789
0.033473368
0.03392969
0.034393597
0.034864915
0.035343449
0.035828987
0.036321296
0.036820124
0.037325198
0.037836225
0.038352893
0.038874867
0.039401797
0.039933308
0.040469009
0.041008492
0.041551327
0.042097069
0.042645257
0.043195413
0.043747047
0.044299654
0.044852717
0.045405711
0.045958095
0.046509312
0.047058783
0.023822561
0.024042657
0.024270265
0.024505469
0.024748363
0.024999036
0.025257571
0.025524047
0.025798538
0.026081116
0.026371845
0.026670786
0.026977993
0.027293516
0.027617397
0.027949674
0.028290376
0.028639523
0.028997131
0.029363204
0.029737738
0.030120717
0.030512117
0.030911901
0.031320019
0.031736408
0.032160993
0.032593683
0.033034371
0.033482935
0.033939235
0.034403114
0.034874397
0.035352889
0.035838379
0.036330633
0.036829399
0.037334404
0.037845356
0.038361941
0.038883826
0.03941066
0.039942069
0.040477663
0.041017031
0.041559746
0.042105364
0.042653422
0.043203445
0.043754942
0.044307411
0.044860338
0.045413198
0.045965449
0.046516532
0.023831605
0.024051826
0.024279556
0.024514878
0.024757887
0.02500867
0.025267311
0.02553389
0.025808481
0.026091153
0.026381972
0.026680999
0.026988288
0.027303888
0.027627842
0.027960186
0.02830095
0.028650155
0.029007815
0.029373935
0.029748509
0.030131524
0.030522953
0.03092276
0.031330894
0.031747294
0.032171883
0.03260457
0.033045247
0.033493794
0.033950069
0.034413916
0.034885159
0.035363605
0.03584904
0.036341232
0.036839928
0.037344855
0.037855722
0.038372214
0.038893999
0.039420726
0.03995202
0.040487493
0.041026733
0.041569314
0.042114792
0.042662705
0.043212578
0.043763922
0.044316236
0.044869008
0.045421715
0.045973811
0.046524735
0.023841814
0.024062176
0.024290042
0.024525497
0.024768634
0.025019541
0.025278303
0.025544997
0.025819698
0.026102476
0.026393397
0.02669252
0.0269999
0.027315586
0.027639621
0.027972041
0.028312875
0.028662144
0.029019863
0.029386034
0.029760655
0.030143708
0.03053517
0.030935003
0.031343156
0.031759567
0.032184159
0.032616842
0.033057508
0.033506035
0.033962282
0.034426093
0.034897292
0.035375685
0.035861059
0.036353181
0.036851798
0.037356639
0.03786741
0.038383798
0.038905472
0.039432078
0.039963245
0.040498582
0.04103768
0.041580112
0.042125433
0.042673185
0.043222891
0.043774064
0.044326203
0.0448788
0.04543133
0.045983251
0.023853272
0.024073791
0.02430181
0.024537412
0.024780693
0.025031738
0.025290633
0.025557455
0.02583228
0.026115177
0.02640621
0.026705441
0.027012923
0.027328705
0.02765283
0.027985334
0.028326246
0.028675586
0.029033369
0.029399599
0.02977427
0.030157367
0.030548865
0.030948726
0.031356899
0.031773322
0.032197919
0.032630597
0.033071249
0.033519754
0.03397597
0.03443974
0.034910889
0.035389223
0.035874528
0.036366572
0.036865102
0.037369846
0.03788051
0.038396783
0.038918332
0.039444805
0.03997583
0.040511016
0.041049956
0.041592222
0.042137371
0.042684943
0.043234464
0.043785446
0.044337389
0.044889786
0.045442116
0.045993839
0.023866068
0.024086761
0.024314949
0.024550716
0.024794155
0.025045354
0.025304397
0.025571362
0.025846323
0.026129351
0.026420509
0.026719859
0.027027454
0.027343343
0.027667568
0.028000165
0.028341162
0.028690582
0.029048436
0.02941473
0.029789457
0.030172602
0.030564139
0.03096403
0.031372226
0.031788662
0.032213263
0.032645935
0.033086572
0.033535051
0.033991232
0.034454957
0.03492605
0.035404318
0.035889547
0.036381504
0.036879937
0.037384573
0.03789512
0.038411265
0.038932675
0.039459
0.039989867
0.040524888
0.041063652
0.041605734
0.042150692
0.042698066
0.043247382
0.043798151
0.044349875
0.044902046
0.045454151
0.023880296
0.024101182
0.024329557
0.024565505
0.024809119
0.025060488
0.025319694
0.025586816
0.025861928
0.026145101
0.026436397
0.026735878
0.027043598
0.027359603
0.027683938
0.028016638
0.02835773
0.028707237
0.02906517
0.029431533
0.029806321
0.030189519
0.030581099
0.030981024
0.031389244
0.031805694
0.032230298
0.032662963
0.033103583
0.033552034
0.034008175
0.034471849
0.034942881
0.035421075
0.035906219
0.03639808
0.036896405
0.037400922
0.037911338
0.038427341
0.0389486
0.039474761
0.040005455
0.040540291
0.041078862
0.041620742
0.04216549
0.042712645
0.043261734
0.043812268
0.044363747
0.04491566
0.045467513
0.023896057
0.024117154
0.024345735
0.024581882
0.024825689
0.025077244
0.02533663
0.025603925
0.025879203
0.026162534
0.026453982
0.026753607
0.027061463
0.027377598
0.027702053
0.028034865
0.028376061
0.028725663
0.029083681
0.029450121
0.029824976
0.030208231
0.030599858
0.030999819
0.031408064
0.031824529
0.032249136
0.032681794
0.033122394
0.033570812
0.03402691
0.034490528
0.03496149
0.035439604
0.035924654
0.036416408
0.036914614
0.037419
0.037929272
0.038445119
0.038966209
0.039492191
0.040022693
0.040557327
0.041095686
0.041637344
0.04218186
0.042728775
0.043277616
0.04382789
0.044379094
0.044930718
0.023913458
0.024134786
0.024363591
0.024599956
0.024843975
0.025095734
0.025355316
0.0256228
0.02589826
0.026181765
0.026473379
0.026773162
0.027081167
0.027397442
0.027722029
0.028054963
0.028396273
0.028745977
0.02910409
0.029470613
0.029845541
0.030228857
0.030620535
0.031020535
0.031428807
0.031845287
0.032269897
0.032702545
0.033143122
0.033591505
0.034047553
0.034511108
0.034981995
0.035460019
0.035944965
0.036436602
0.036934677
0.037438918
0.037949032
0.038464708
0.038985613
0.039511397
0.04004169
0.040576102
0.041114228
0.041655642
0.042199905
0.042746557
0.043295125
0.043845114
0.044396012
0.044947305
0.02393261
0.024154191
0.024383241
0.024619844
0.024864092
0.025116074
0.025375871
0.025643561
0.025919219
0.026202914
0.026494708
0.026794663
0.02710283
0.027419258
0.027743989
0.028077056
0.028418489
0.028768306
0.029126519
0.029493132
0.029868139
0.030251522
0.030643254
0.031043296
0.031451597
0.031868092
0.032292704
0.03272534
0.033165891
0.033614234
0.034070228
0.034533714
0.035004516
0.035482441
0.035967273
0.036458781
0.036956712
0.037460794
0.037970735
0.038486222
0.039006925
0.039532493
0.040062556
0.040596726
0.041134596
0.041675744
0.04221973
0.042766096
0.043314367
0.043864044
0.044414606
0.044965554
0.023953632
0.024175488
0.024404805
0.024641667
0.024886165
0.025138389
0.025398419
0.025666334
0.025942207
0.026226107
0.026518098
0.026818238
0.027126582
0.027443176
0.027768062
0.028101274
0.028442839
0.028792777
0.0291511
0.029517811
0.029892901
0.030276356
0.030668146
0.031068232
0.031476563
0.031893075
0.032317688
0.032750309
0.033190831
0.033639129
0.034095062
0.034558472
0.035029181
0.035506997
0.035991704
0.03648307
0.036980843
0.037484751
0.037994502
0.038509783
0.039030265
0.039555597
0.040085409
0.040619313
0.041156905
0.041697762
0.042241446
0.042787499
0.043335448
0.043884788
0.044434986
0.044985581
0.023976652
0.024198806
0.024428412
0.024665553
0.024910323
0.025162809
0.025423091
0.025691249
0.025967355
0.026251478
0.026543681
0.026844023
0.027152558
0.027469331
0.027794384
0.028127752
0.02846946
0.028819529
0.02917797
0.029544785
0.029919966
0.030303497
0.030695348
0.031095481
0.031503844
0.031920371
0.032344984
0.032777589
0.033218077
0.033666325
0.034122191
0.034585515
0.035056123
0.035533818
0.036018388
0.036509599
0.037007199
0.037510917
0.03802046
0.038535517
0.039055758
0.039580832
0.04011037
0.040643986
0.041181274
0.041721814
0.042265168
0.042810881
0.043358482
0.043907461
0.044457267
0.024001802
0.024224278
0.024454195
0.02469164
0.024936703
0.025189471
0.025450027
0.025718447
0.025994804
0.026279167
0.026571599
0.026872159
0.027180899
0.027497865
0.027823099
0.028156634
0.028498496
0.028848706
0.029207272
0.029574199
0.029949476
0.030333088
0.030725005
0.031125187
0.031533582
0.031950124
0.032374735
0.03280732
0.033247771
0.033695962
0.034151753
0.034614984
0.035085479
0.035563043
0.036047462
0.036538504
0.037035915
0.037539426
0.038048742
0.038563555
0.039083533
0.039608326
0.040137567
0.040670868
0.041207826
0.041748021
0.042291015
0.042836357
0.043383584
0.043932187
0.044481566
0.024029222
0.024252046
0.024482298
0.024720069
0.024965448
0.025218521
0.025479371
0.025748073
0.026024701
0.026309322
0.026602001
0.026902794
0.027211754
0.027528928
0.027854355
0.028188069
0.028530097
0.028880456
0.029239157
0.029606202
0.029981582
0.03036528
0.030757265
0.031157499
0.031565927
0.031982484
0.03240709
0.032839652
0.033280059
0.033728188
0.034183896
0.034647024
0.035117395
0.035594815
0.036079069
0.036569926
0.037067132
0.037570416
0.038079486
0.038594033
0.039113725
0.039638214
0.040167131
0.040700091
0.04123669
0.041776509
0.04231911
0.042864047
0.043410873
0.024059059
0.024282257
0.024512871
0.024750992
0.02499671
0.025250111
0.025511276
0.025780281
0.026057199
0.026342098
0.026635041
0.026936084
0.02724528
0.027562676
0.02788831
0.028222215
0.028564419
0.028914938
0.029273782
0.029640953
0.030016441
0.030400229
0.030792286
0.031192572
0.031601033
0.032017604
0.032442203
0.032874737
0.033315096
0.033763154
0.03421877
0.034681785
0.03515202
0.035629282
0.036113357
0.036604011
0.037100993
0.037604031
0.038112834
0.038627092
0.039146475
0.039670633
0.0401992
0.04073179
0.041268
0.041807409
0.042349582
0.042894073
0.024091469
0.024315068
0.024546069
0.024784566
0.025030648
0.0252844
0.025545902
0.025815232
0.026092461
0.026377656
0.026670881
0.026972191
0.027281639
0.027599271
0.027925125
0.028259235
0.028601625
0.028952314
0.029311309
0.029678613
0.030054215
0.030438098
0.030830229
0.031230569
0.031639064
0.032055645
0.032480234
0.032912736
0.033353039
0.033801019
0.034256534
0.034719423
0.03518951
0.0356666
0.036150478
0.036640912
0.03713765
0.037640421
0.038148934
0.038662879
0.039181926
0.039705727
0.040233915
0.040766104
0.041301892
0.041840859
0.042382564
0.042926565
0.023909894
0.024126615
0.024350643
0.02458206
0.024820959
0.025067429
0.025321556
0.025583419
0.025853094
0.026130654
0.026416165
0.02670969
0.027011285
0.027321002
0.027638884
0.027964973
0.028299298
0.028641887
0.028992754
0.029351909
0.029719353
0.030095075
0.030479055
0.030871264
0.031271658
0.031680185
0.032096776
0.03252135
0.032953813
0.033394054
0.033841947
0.034297349
0.0347601
0.035230024
0.035706926
0.03619059
0.036680785
0.037177259
0.03767974
0.038187939
0.038701545
0.039220229
0.039743643
0.040271421
0.040803178
0.041338511
0.041876998
0.042418195
0.042961672
0.023947472
0.024164668
0.024389155
0.024621015
0.024860343
0.025107227
0.025361753
0.025623999
0.025894043
0.026171955
0.026457802
0.026751646
0.027053543
0.027363543
0.027681692
0.028008028
0.028342582
0.028685379
0.029036435
0.029395758
0.029763348
0.030139194
0.030523276
0.030915563
0.031316013
0.03172457
0.032141167
0.032565722
0.03299814
0.03343831
0.033886105
0.034341383
0.034803983
0.035273729
0.035750424
0.036233856
0.036723791
0.037219978
0.037722145
0.038230004
0.038743243
0.039261535
0.039784533
0.040311869
0.04084316
0.041378002
0.041915973
0.042456628
0.042999546
0.023988111
0.024205812
0.024430786
0.024663117
0.024902901
0.025150225
0.025405173
0.025667827
0.025938261
0.026216546
0.026502749
0.02679693
0.027099146
0.027409447
0.027727877
0.028054474
0.028389269
0.028732285
0.029083538
0.029443037
0.029810779
0.030186754
0.03057094
0.030963307
0.031363811
0.031772397
0.032188996
0.032613526
0.033045891
0.033485981
0.033933667
0.034388807
0.034851241
0.035320792
0.035797263
0.036280442
0.036770094
0.03726597
0.037767798
0.038275289
0.038788133
0.039306003
0.03982855
0.040355411
0.040886201
0.041420516
0.041957935
0.042498012
0.043040334
0.024032001
0.024250234
0.024475724
0.024708555
0.024948821
0.02519661
0.025452007
0.025715091
0.025985938
0.026264617
0.026551195
0.026845733
0.027148286
0.027458903
0.027777629
0.0281045
0.028439547
0.028782792
0.029134252
0.029493932
0.029861832
0.03023794
0.030622233
0.03101468
0.031415237
0.031823848
0.032240444
0.032664942
0.033097246
0.033537244
0.033984809
0.034439798
0.034902049
0.035371387
0.035847614
0.036330517
0.036819863
0.037315403
0.037816864
0.038323958
0.038836375
0.03935379
0.039875854
0.040402204
0.040932455
0.041466206
0.042003035
0.042542495
0.043084183
0.024079337
0.024298131
0.024524166
0.024757524
0.024998299
0.02524658
0.025502449
0.025765988
0.026037269
0.026316364
0.026603338
0.02689825
0.027201157
0.027512106
0.027831141
0.028158299
0.028493609
0.028837094
0.029188767
0.029548637
0.029916699
0.030292942
0.030677343
0.03106987
0.031470478
0.031879109
0.032295696
0.032720154
0.033152387
0.033592282
0.034039712
0.034494533
0.034956584
0.035425688
0.035901649
0.036384253
0.036873268
0.037368444
0.037869509
0.038376175
0.038888134
0.039405058
0.039926603
0.040452404
0.040982079
0.041515226
0.042051423
0.042590229
0.043131242
0.024130322
0.024349708
0.024576315
0.024810228
0.025051539
0.025300337
0.025556704
0.025820719
0.026092457
0.026371988
0.026659377
0.026954682
0.027257959
0.027569255
0.027888613
0.02821607
0.028551654
0.028895386
0.029247282
0.029607345
0.029975574
0.030351954
0.030736464
0.031129068
0.031529723
0.03193837
0.03235494
0.032779348
0.033211498
0.033651277
0.034098556
0.034553192
0.035015024
0.035483873
0.035959545
0.036441825
0.036930481
0.037425263
0.037925901
0.038432106
0.038943571
0.03945997
0.039980958
0.040506171
0.041035228
0.041567729
0.042103254
0.042641362
0.043181655
0.024185168
0.024405173
0.024632381
0.024866876
0.02510875
0.025358089
0.025614977
0.025879493
0.026151709
0.026431696
0.026719518
0.027015233
0.027318896
0.027630554
0.027950248
0.028278015
0.028613882
0.028957871
0.029309994
0.029670256
0.030038653
0.030415172
0.030799789
0.031192468
0.031593165
0.03200182
0.032418365
0.032842713
0.033274767
0.033714414
0.034161526
0.034615958
0.035077548
0.03554612
0.036021477
0.036503405
0.036991673
0.037486031
0.037986208
0.038491918
0.039002853
0.039518687
0.040039078
0.040563662
0.041092059
0.04162387
0.042158677
0.042696042
0.04323557
0.024244089
0.024464743
0.024692581
0.024927684
0.025170145
0.025420051
0.025677483
0.025942521
0.026215236
0.026495698
0.026783971
0.027080113
0.027384177
0.027696209
0.028016252
0.028344339
0.028680498
0.029024749
0.029377104
0.029737569
0.030106136
0.030482793
0.030867513
0.031260263
0.031660996
0.032069651
0.032486159
0.032910435
0.033342379
0.033781878
0.034228803
0.034683009
0.035144336
0.035612605
0.036087619
0.036569167
0.037057016
0.037550915
0.038050597
0.038555774
0.039066139
0.039581369
0.04010112
0.040625032
0.041152724
0.041683799
0.042217842
0.042754417
0.04329313
0.024307309
0.024528639
0.024757132
0.02499287
0.025235943
0.025486438
0.025744437
0.026010017
0.026283251
0.026564207
0.026852948
0.027149531
0.027454009
0.027766429
0.028086829
0.028415245
0.028751703
0.029096223
0.029448814
0.029809482
0.03017822
0.030555012
0.030939833
0.031332647
0.031733407
0.032142052
0.032558512
0.0329827
0.033414517
0.033853849
0.034300566
0.034754525
0.035215562
0.0356835
0.036158144
0.036639279
0.037126675
0.037620081
0.03811923
0.038623835
0.039133591
0.039648173
0.04016724
0.040690433
0.041217373
0.041747665
0.042280894
0.042816627
0.043354475
0.024375053
0.024597086
0.02482626
0.025062656
0.025306365
0.025557472
0.025816058
0.0260822
0.02635597
0.026637436
0.02692666
0.027223698
0.027528603
0.02784142
0.028162188
0.02849094
0.028827702
0.029172493
0.029525323
0.029886194
0.0302551
0.030632023
0.031016939
0.031409809
0.031810586
0.032219209
0.032635606
0.03305969
0.033491361
0.033930505
0.034376992
0.034830677
0.035291398
0.035758977
0.036233217
0.036713906
0.037200814
0.037693689
0.038192265
0.038696257
0.039205359
0.039719249
0.040237586
0.040760012
0.041286151
0.041815608
0.042347971
0.042882811
0.043419739
0.024447548
0.024670309
0.024900188
0.025137266
0.025381631
0.025633369
0.025892561
0.026159283
0.026433606
0.026715597
0.027005317
0.027302823
0.027608165
0.027921387
0.02824253
0.028571623
0.028908694
0.029253758
0.029606825
0.029967897
0.030336967
0.030714016
0.031099017
0.031491934
0.031892715
0.032301302
0.032717619
0.03314158
0.033573085
0.034012018
0.034458249
0.034911633
0.035372008
0.035839195
0.036312998
0.036793206
0.037279586
0.03777189
0.038269852
0.038773186
0.039281589
0.03979474
0.040312298
0.040833907
0.041359193
0.041887762
0.042419206
0.042953096
0.043489048
0.024525025
0.024748536
0.024979141
0.02521692
0.025461961
0.025714349
0.025974164
0.026241481
0.02651637
0.026798899
0.027089126
0.027387109
0.027692896
0.028006531
0.028328052
0.02865749
0.02899487
0.029340206
0.029693509
0.030054778
0.030424004
0.03080117
0.031186247
0.031579197
0.031979969
0.032388501
0.03280472
0.033228537
0.033659852
0.034098548
0.034544496
0.034997549
0.035457545
0.035924306
0.036397636
0.036877323
0.037363136
0.037854827
0.03835213
0.038854761
0.039362417
0.039874778
0.040391506
0.040912246
0.041436624
0.041964251
0.042494718
0.043027602
0.043562517
0.024607708
0.024831989
0.025063339
0.025301836
0.02554757
0.025800623
0.026061074
0.026328999
0.026604467
0.026887543
0.027178287
0.027476753
0.02778299
0.028097042
0.028418944
0.028748727
0.029086413
0.029432019
0.029785552
0.03014701
0.030516385
0.030893657
0.031278796
0.031671764
0.032072508
0.032480967
0.032897066
0.033320715
0.033751813
0.034190244
0.034635878
0.035088567
0.03554815
0.036014448
0.036487266
0.036966392
0.037451594
0.037942627
0.038439225
0.038941103
0.039447962
0.039959482
0.040475326
0.040995142
0.041518556
0.042045183
0.042574615
0.043106432
0.043640251
0.024695816
0.024920884
0.025152994
0.025392225
0.025638664
0.025892394
0.026153493
0.026422036
0.02669809
0.02698172
0.027272986
0.027571939
0.02787863
0.028193098
0.02851538
0.028845505
0.029183495
0.029529364
0.029883118
0.030244756
0.030614266
0.03099163
0.031376815
0.031769783
0.03217048
0.032578843
0.032994796
0.03341825
0.033849103
0.034287238
0.034732524
0.035184815
0.035643947
0.036109742
0.036582006
0.037060527
0.037545074
0.038035401
0.038531243
0.039032319
0.039538328
0.040048952
0.040563857
0.041082691
0.041605084
0.042130651
0.042658987
0.043189674
0.043722333
0.024789561
0.025015427
0.025248309
0.025488284
0.025735438
0.025989853
0.026251608
0.026520774
0.026797419
0.027081607
0.027373396
0.027672838
0.02797998
0.028294863
0.028617521
0.028947982
0.029286267
0.029632389
0.029986353
0.030348157
0.030717788
0.031095225
0.031480438
0.031873383
0.032274009
0.03268225
0.03309803
0.03352126
0.033951836
0.034389641
0.034834543
0.035286396
0.035745037
0.036210288
0.036681953
0.037159822
0.037643665
0.038133237
0.038628272
0.039128492
0.039633595
0.040143268
0.040657176
0.041174969
0.04169628
0.042220725
0.042747902
0.043277396
0.04380883
0.024889136
0.025115809
0.02534947
0.025590195
0.025838069
0.026093174
0.026355587
0.026625378
0.026902615
0.02718736
0.027479671
0.027779597
0.028087186
0.028402476
0.028725502
0.029056289
0.029394857
0.029741219
0.030095378
0.030457331
0.030827064
0.031204554
0.03158977
0.031982669
0.032383196
0.032791287
0.033206863
0.033629835
0.034060098
0.034497536
0.034942015
0.035393389
0.035851496
0.036316157
0.036787177
0.037264345
0.037747434
0.038236197
0.038730372
0.039229679
0.039733821
0.040242483
0.040755334
0.041272025
0.041792192
0.042315451
0.042841406
0.043369641
0.043899783
0.024994717
0.0252222
0.025456641
0.025698117
0.025946711
0.026202505
0.026465574
0.026735988
0.027013813
0.02729911
0.027591935
0.027892339
0.028200365
0.028516052
0.028839432
0.029170531
0.029509367
0.029855951
0.030210286
0.030572366
0.030942178
0.031319697
0.03170489
0.032097713
0.032498111
0.032906018
0.033321356
0.033744034
0.034173946
0.034610975
0.035054989
0.035505841
0.035963367
0.03642739
0.036897715
0.037374131
0.037856411
0.038344311
0.038837569
0.039335906
0.039839027
0.040346619
0.040858351
0.041373878
0.041892836
0.042414846
0.042939511
0.043466421
0.043995203
0.02510645
0.025334739
0.025569957
0.025812179
0.026061489
0.026317966
0.026581684
0.026852712
0.027131115
0.027416954
0.027710283
0.02801115
0.028319599
0.028635667
0.028959385
0.029290778
0.029629861
0.029976645
0.030331132
0.030693315
0.031063178
0.031440696
0.031825835
0.03221855
0.032618785
0.033026472
0.033441534
0.033863876
0.034293396
0.034729974
0.035173477
0.035623758
0.036080654
0.036543988
0.037013565
0.037489176
0.037970593
0.038457572
0.038949854
0.039447162
0.039949201
0.040455659
0.04096621
0.041480508
0.041998193
0.042518888
0.043042197
0.043567714
0.044095068
0.025224446
0.025453532
0.025689516
0.025932474
0.026182488
0.026439635
0.026703989
0.026975618
0.027254585
0.027540949
0.027834764
0.028136076
0.028444929
0.028761357
0.029085391
0.029417053
0.029756359
0.030103317
0.030457927
0.030820182
0.031190065
0.031567549
0.031952599
0.032345169
0.032745202
0.03315263
0.033567373
0.033989338
0.034418419
0.034854498
0.035297441
0.035747102
0.036203317
0.036665908
0.037134683
0.037609431
0.038089926
0.038575926
0.039067173
0.039563389
0.040064283
0.040569545
0.041078849
0.041591854
0.042108201
0.042627514
0.043149402
0.043673458
0.044199314
0.025348773
0.025578638
0.025815372
0.026059047
0.026309746
0.026567545
0.026832515
0.027104724
0.027384234
0.027671102
0.02796538
0.028267114
0.028576344
0.028893107
0.029217428
0.029549331
0.029888828
0.030235928
0.030590629
0.030952921
0.031322787
0.0317002
0.032085122
0.032477507
0.032877295
0.033284419
0.033698798
0.034120337
0.034548932
0.034984462
0.035426794
0.03587578
0.036331259
0.036793052
0.037260967
0.037734793
0.038214308
0.038699268
0.039189416
0.039684478
0.040184164
0.040688165
0.041196158
0.041707805
0.042222747
0.042740614
0.043261014
0.043783544
0.044307834
0.02547944
0.02571006
0.025947517
0.026191886
0.026443244
0.026701669
0.026967229
0.027239991
0.027520015
0.027807358
0.02810207
0.028404194
0.028713772
0.029030836
0.029355412
0.02968752
0.030027174
0.030374378
0.030729131
0.031091421
0.03146123
0.031838529
0.032223279
0.032615432
0.03301493
0.033421703
0.033835668
0.034256731
0.034684787
0.035119714
0.035561381
0.036009638
0.036464323
0.03692526
0.037392255
0.0378651
0.038343572
0.03882743
0.039316417
0.039810261
0.040308673
0.040811349
0.041317966
0.041828188
0.042341662
0.042858017
0.043376867
0.043897809
0.044420472
0.025616389
0.02584773
0.026085878
0.026330906
0.026582891
0.026841907
0.027108024
0.027381304
0.027661809
0.027949591
0.0282447
0.028547179
0.028857066
0.029174392
0.029499183
0.029831457
0.030171225
0.030518492
0.030873253
0.031235496
0.031605202
0.031982339
0.032366869
0.032758743
0.0331579
0.033564268
0.033977767
0.034398301
0.034825763
0.035260032
0.035700975
0.036148444
0.036602278
0.037062298
0.037528313
0.038000115
0.038477482
0.038960174
0.039447937
0.039940499
0.040437573
0.040938858
0.041444034
0.041952767
0.042464707
0.042979489
0.043496729
0.044016028
0.044537017
0.025759477
0.025991499
0.026230296
0.026475941
0.026728511
0.026988077
0.027254708
0.027528465
0.027809407
0.028097586
0.02839305
0.028695839
0.029005991
0.029323535
0.029648496
0.029980889
0.030320724
0.030668005