/*--------------------------------*- C++ -*----------------------------------*\
| =========                 |                                                 |
| \\      /  F ield         | OpenFOAM: The Open Source CFD Toolbox           |
|  \\    /   O peration     | Version:  2312                                  |
|   \\  /    A nd           | Website:  www.openfoam.com                      |
|    \\/     M anipulation  |                                                 |
\*---------------------------------------------------------------------------*/
FoamFile
{
    version     2.0;
    format      ascii;
    arch        "LSB;label=32;scalar=64";
    class       volScalarField;
    location    "0.09";
    object      CH4;
}
// * * * * * * * * * * * * * * * * * * * * * * * * * * * * * * * * * * * * * //

dimensions      [0 0 0 0 0 0 0];

internalField   nonuniform List<scalar> 
3251
(
0.05772406
0.056719257
0.055712542
0.054704516
0.053695816
0.052687094
0.051679022
0.050672289
0.049667597
0.048665657
0.047667188
0.046672908
0.045683536
0.044699783
0.043722352
0.042751934
0.041789205
0.040834819
0.039889412
0.038953595
0.038027952
0.037113041
0.036209388
0.03531749
0.034437809
0.033570776
0.032716787
0.031876206
0.031049359
0.030236541
0.029438011
0.028653996
0.02788469
0.027130253
0.026390816
0.025666481
0.02495732
0.024263376
0.023584671
0.022921198
0.022272929
0.021639816
0.021021791
0.020418768
0.019830646
0.019257309
0.018698634
0.018154489
0.017624742
0.017109265
0.016607945
0.016120662
0.015647644
0.015188541
0.014742739
0.014310084
0.013890426
0.013483652
0.057719299
0.056714634
0.05570808
0.054700208
0.053691657
0.05268308
0.05167515
0.050668557
0.049664001
0.048662195
0.047663857
0.046669706
0.045680459
0.04469683
0.04371952
0.042749221
0.041786607
0.040832334
0.039887037
0.038951328
0.038025791
0.037110982
0.036207429
0.035315628
0.034436042
0.033569101
0.032715203
0.031874708
0.031047946
0.03023521
0.02943676
0.028652822
0.02788359
0.027129225
0.026389859
0.025665591
0.024956495
0.024262614
0.02358397
0.022920555
0.022272344
0.021639287
0.021021316
0.020418347
0.019830279
0.019256998
0.018698381
0.018154298
0.017624617
0.017109212
0.016607968
0.016120781
0.015647696
0.015188432
0.014742544
0.014309825
0.013890106
0.013483334
0.057709078
0.056704686
0.05569843
0.054690849
0.053682583
0.052674286
0.05166663
0.050660306
0.049656014
0.048654467
0.047656383
0.046662482
0.04567348
0.04469009
0.043713015
0.042742946
0.041780558
0.040826506
0.039881426
0.038945928
0.038020597
0.037105991
0.036202635
0.035311026
0.034431627
0.033564869
0.032711148
0.031870827
0.031044233
0.030231661
0.02943337
0.028649586
0.027880504
0.027126284
0.026387059
0.025662927
0.024953963
0.024260211
0.02358169
0.022918395
0.0222703
0.021637355
0.021019494
0.020416631
0.019828668
0.019255491
0.018696978
0.018153
0.017623426
0.017108126
0.016606983
0.016119889
0.015646793
0.015187449
0.014741514
0.014308762
0.013888998
0.01348217
0.057693373
0.056689403
0.055683581
0.05467643
0.053668585
0.052660702
0.051653452
0.050647526
0.049643626
0.048642463
0.047644756
0.046651225
0.045662586
0.044679552
0.043702827
0.042733101
0.041771048
0.040817324
0.039872566
0.038937383
0.03801236
0.037098054
0.036194992
0.03530367
0.034424551
0.033558066
0.032704612
0.031864549
0.031038208
0.030225881
0.029427828
0.028644277
0.027875419
0.027121419
0.026382405
0.025658479
0.024949713
0.024256154
0.023577819
0.022914705
0.022266785
0.02163401
0.021016313
0.02041361
0.019825803
0.019252778
0.018694415
0.018150585
0.017621156
0.017105996
0.016604983
0.016117998
0.015644936
0.015185577
0.014739635
0.014306884
0.013887102
0.013480065
0.057672184
0.056668787
0.05566354
0.054656956
0.053649668
0.052642332
0.051635621
0.050630222
0.04962684
0.048626187
0.047628979
0.046635938
0.045647781
0.04466522
0.043688958
0.042719686
0.041758078
0.040804791
0.03986046
0.038925695
0.038001081
0.037087175
0.036184504
0.035293563
0.034414817
0.033548695
0.032695595
0.031855877
0.031029872
0.030217872
0.029420137
0.028636895
0.027868338
0.027114628
0.026375897
0.025652245
0.024943746
0.024250444
0.023572359
0.022909486
0.022261799
0.02162925
0.021011773
0.020409282
0.019821681
0.019248858
0.018690691
0.018147051
0.017617807
0.017102823
0.01660197
0.016115119
0.015642135
0.015182813
0.014736905
0.014304192
0.013884455
0.057647048
0.056644332
0.05563976
0.054633841
0.053627207
0.052620513
0.051614432
0.050609653
0.04960688
0.048606823
0.047610203
0.046617737
0.045630145
0.044648139
0.043672421
0.042703682
0.041742598
0.040789823
0.039845994
0.03891172
0.037987587
0.037074151
0.03617194
0.035281448
0.03440314
0.033537446
0.032684762
0.031845451
0.031019841
0.030208226
0.029410866
0.028627987
0.027859784
0.027106418
0.02636802
0.025644692
0.024936506
0.024243507
0.023565717
0.022903129
0.022255718
0.021623436
0.021006216
0.020403976
0.019816617
0.019244028
0.018686089
0.01814267
0.017613637
0.017098854
0.016598184
0.016111488
0.015638616
0.015179372
0.014733529
0.014300889
0.013881367
0.057618771
0.05661682
0.055613003
0.054607827
0.053601923
0.052595947
0.051590571
0.050586484
0.04958439
0.048585002
0.047589037
0.046597216
0.045610256
0.044628869
0.04365376
0.042685618
0.041725119
0.040772918
0.03982965
0.038895926
0.037972331
0.037059421
0.036157724
0.035267735
0.034389917
0.033524701
0.032672484
0.031833628
0.031008462
0.030197278
0.029400338
0.028617867
0.02785006
0.027097079
0.026359055
0.025636089
0.024928255
0.024235597
0.023558136
0.022895868
0.022248766
0.021616783
0.020999852
0.020397892
0.019810804
0.019238477
0.018680791
0.018137616
0.017608817
0.017094255
0.016593787
0.016107266
0.015634532
0.015175394
0.014729641
0.014297089
0.013877747
0.057585139
0.056584096
0.055581173
0.054576876
0.053571837
0.05256671
0.051562168
0.050558901
0.049557612
0.048559014
0.047563825
0.046572766
0.045586554
0.044605902
0.043631514
0.042664079
0.041704272
0.04075275
0.039810147
0.038877075
0.037954117
0.037041831
0.036140743
0.035251349
0.034374113
0.033509465
0.032657801
0.031819484
0.030994843
0.030184171
0.029387728
0.028605741
0.027838405
0.02708588
0.0263483
0.025625764
0.024918346
0.024226093
0.023549023
0.022887134
0.022240399
0.021608771
0.020992184
0.020390555
0.019803787
0.01923177
0.018674382
0.018131495
0.017602971
0.017088668
0.016588438
0.016102126
0.015629565
0.015170569
0.014724934
0.014292481
0.013873211
0.057545759
0.056545777
0.055543897
0.054540626
0.053536595
0.052532458
0.051528889
0.050526578
0.049526228
0.048528552
0.047534269
0.046544099
0.045558761
0.044578966
0.043605418
0.042638808
0.04167981
0.04072908
0.039787254
0.038854942
0.037932728
0.03702117
0.036120793
0.035232095
0.034355537
0.033491551
0.032640534
0.031802847
0.030978819
0.030168744
0.029372883
0.028591461
0.027824674
0.027072684
0.026335621
0.025613588
0.024906658
0.024214877
0.023538265
0.022876819
0.022230512
0.021599299
0.020983112
0.020381871
0.019795477
0.01922382
0.01866678
0.018124227
0.017596022
0.01708202
0.016582068
0.016096003
0.015623653
0.015164834
0.01471935
0.014287019
0.057500215
0.056501458
0.055500782
0.054498693
0.053495824
0.052492829
0.051490382
0.050489173
0.049489905
0.048493293
0.047500054
0.04651091
0.045526578
0.044547772
0.043575193
0.042609534
0.041651469
0.040701654
0.039760723
0.038829288
0.037907933
0.036997214
0.036097658
0.035209762
0.034333988
0.033470766
0.032620494
0.031783535
0.030960215
0.03015083
0.029355639
0.02857487
0.027808717
0.027057343
0.026320879
0.025599426
0.024893059
0.024201823
0.02352574
0.022864805
0.022218994
0.021588259
0.020972535
0.02037174
0.019785777
0.019214536
0.018657896
0.018115727
0.017587889
0.017074234
0.016574603
0.016088827
0.015616729
0.015158125
0.014712828
0.014280708
0.05744807
0.056450712
0.055451411
0.054450673
0.053449131
0.052447441
0.051446274
0.050446323
0.049448292
0.048452894
0.047460848
0.046472875
0.045489693
0.044512016
0.043540545
0.042575973
0.041618973
0.040670202
0.039730295
0.038799862
0.037879487
0.036969728
0.03607111
0.03518413
0.034309251
0.033446903
0.032597484
0.031761355
0.030938845
0.030130248
0.029335824
0.028555801
0.027790374
0.027039704
0.026303923
0.025583134
0.024877411
0.024186799
0.02351132
0.022850971
0.022205725
0.021575538
0.020960343
0.020360059
0.019774588
0.019203821
0.018647637
0.018105906
0.017578487
0.017065228
0.016565967
0.016080525
0.01560872
0.015150373
0.014705304
0.057388862
0.05639309
0.055395346
0.054396139
0.053396102
0.052395888
0.051396173
0.050397648
0.049401017
0.048406995
0.047416301
0.046429655
0.045447776
0.044471377
0.043501162
0.042537821
0.041582029
0.040634442
0.039695694
0.038766397
0.037847134
0.036938462
0.036040908
0.035154967
0.034281102
0.033419745
0.032571292
0.031736105
0.030914513
0.03010681
0.029313256
0.028534079
0.027769474
0.027019603
0.026284598
0.025564562
0.024859569
0.024169665
0.023494871
0.022835186
0.022190582
0.021561016
0.020946421
0.020346715
0.019761802
0.019191573
0.018635905
0.018094669
0.017567724
0.017054917
0.016556078
0.01607102
0.015599551
0.015141506
0.014696777
0.057322105
0.056328118
0.055332128
0.054334644
0.053336298
0.052337747
0.051339665
0.050342745
0.04934769
0.048355216
0.047366043
0.04638089
0.045400478
0.044425519
0.043456717
0.042494762
0.041540329
0.040594074
0.039656632
0.038728613
0.037810602
0.036903154
0.036006797
0.035122026
0.034249305
0.033389063
0.032541698
0.031707572
0.030887013
0.030080317
0.029287743
0.028509519
0.02774584
0.026996869
0.026262738
0.02554355
0.024839379
0.024150272
0.023476251
0.022817313
0.022173433
0.021544566
0.020930646
0.020331593
0.019747308
0.019177683
0.018622596
0.018081918
0.017555507
0.01704321
0.01654485
0.016060229
0.015589144
0.01513145
0.057247289
0.056255299
0.055261272
0.054265715
0.053269263
0.052272572
0.051276317
0.050281191
0.0492879
0.048297159
0.047309687
0.046326206
0.045347435
0.044374087
0.043406865
0.042446462
0.04149355
0.040548786
0.039612805
0.038686217
0.037769607
0.03686353
0.035968513
0.035085051
0.034213609
0.033354616
0.032508469
0.03167553
0.030856129
0.030050559
0.029259082
0.028481925
0.027719283
0.02697132
0.026238167
0.025519929
0.024816679
0.024128465
0.023455309
0.022797209
0.022154139
0.021526055
0.020912892
0.020314568
0.019730987
0.019162038
0.018607601
0.018067546
0.017541735
0.017030012
0.016532195
0.01604807
0.015577416
0.015120196
0.057163876
0.056174111
0.055182268
0.054188857
0.053194513
0.052199892
0.051205671
0.050212544
0.049221216
0.048232403
0.047246825
0.046265205
0.045288261
0.044316706
0.043351246
0.042392569
0.041441351
0.040498248
0.039563894
0.0386389
0.037723849
0.036819298
0.035925773
0.035043771
0.034173753
0.03331615
0.03247136
0.031639744
0.030821632
0.030017318
0.029227062
0.028451094
0.027689607
0.026942767
0.026210704
0.025493524
0.0247913
0.024104081
0.023431889
0.022774722
0.022132555
0.021505344
0.020893024
0.020295513
0.019712715
0.019144519
0.018590805
0.018051445
0.017526301
0.017015221
0.016518019
0.016034458
0.015564277
0.057071305
0.056084006
0.055094585
0.054103552
0.053111544
0.052119217
0.05112725
0.050136337
0.049147185
0.048160509
0.047177031
0.046197473
0.045222554
0.044252988
0.043289478
0.042332716
0.041383376
0.040442114
0.039509563
0.038586336
0.037673014
0.036770156
0.035878286
0.0349979
0.034129462
0.033273401
0.032430115
0.031599967
0.030783284
0.029980361
0.029191461
0.028416811
0.027656606
0.02691101
0.026180157
0.02546415
0.024763064
0.024076948
0.023405825
0.022749693
0.022108529
0.021482286
0.020870901
0.020274292
0.019692363
0.019125001
0.018572088
0.018033496
0.017509093
0.016998731
0.016502225
0.016019313
0.015549705
0.056968989
0.055984411
0.054997664
0.054009257
0.053019827
0.052030033
0.051040554
0.050052085
0.049065334
0.048081018
0.047099857
0.046122576
0.045149893
0.044182522
0.043221166
0.042266518
0.041319251
0.040380021
0.039449463
0.038528186
0.037616774
0.036715784
0.035825741
0.034947142
0.034080448
0.033226091
0.032384466
0.031555937
0.030740833
0.029939449
0.029152045
0.02837885
0.027620061
0.02687584
0.026146323
0.025431612
0.024731784
0.024046887
0.023376945
0.022721957
0.022081899
0.021456727
0.020846376
0.020250764
0.019669793
0.019103354
0.018551324
0.01801358
0.017489993
0.016980429
0.01648471
0.01600256
0.056856312
0.055874728
0.054890922
0.053905404
0.05291881
0.051931801
0.050945059
0.049959278
0.048975168
0.047993447
0.047014836
0.046040059
0.045069836
0.044104879
0.043145895
0.042193572
0.041248586
0.040311592
0.039383226
0.038464095
0.037554785
0.036655851
0.035767819
0.034891185
0.034026411
0.033173927
0.032334131
0.031507386
0.030694019
0.029894327
0.02910857
0.028336978
0.027579746
0.02683704
0.026108992
0.025395708
0.024697264
0.02401371
0.023345068
0.02269134
0.0220525
0.021428506
0.020819293
0.020224779
0.019644866
0.019079441
0.018528383
0.017991567
0.017468875
0.016960191
0.016465367
0.015984249
0.056732632
0.055754334
0.054773753
0.053791401
0.052807916
0.051823962
0.050840219
0.049857385
0.048876172
0.047897296
0.046921481
0.04594945
0.044981923
0.044019615
0.04306323
0.042113457
0.041170973
0.040236432
0.039310469
0.038393693
0.037486687
0.036590009
0.035704182
0.034829704
0.033967035
0.033116608
0.032278818
0.031454028
0.030642568
0.029844732
0.029060782
0.028290948
0.027535425
0.02679438
0.026067945
0.025356227
0.024659302
0.02397722
0.023310005
0.022657659
0.022020157
0.021397456
0.020789493
0.020196185
0.019617432
0.01905312
0.018503126
0.017967324
0.017445605
0.016937882
0.016444045
0.015963998
0.056597283
0.055622577
0.054645523
0.053666633
0.052686547
0.05170593
0.050725466
0.049745854
0.048767807
0.047792041
0.046819283
0.045850254
0.044885676
0.043926263
0.04297272
0.042025737
0.041085988
0.040154129
0.039230794
0.038316593
0.037412108
0.036517896
0.035634482
0.034762361
0.033901995
0.033053816
0.03221822
0.03139557
0.030586194
0.029790389
0.029008416
0.028240505
0.027486852
0.026747623
0.026022952
0.025312947
0.024617683
0.023937212
0.023271559
0.022620725
0.021984687
0.021363402
0.020756807
0.020164819
0.019587337
0.019024245
0.018475413
0.017940712
0.017420039
0.016913355
0.016420598
0.015941561
0.056449569
0.055478785
0.054505577
0.05353046
0.052554079
0.0515771
0.05060021
0.049624111
0.048649514
0.04767714
0.046707714
0.045741959
0.044780596
0.043824341
0.042873897
0.041929955
0.040993189
0.040064255
0.039143787
0.038232393
0.037330658
0.036439136
0.035558353
0.034688803
0.03383095
0.032985224
0.032152021
0.031331704
0.030524603
0.029731012
0.028951196
0.028185382
0.027433769
0.026696521
0.025973776
0.025265639
0.024572188
0.023893475
0.023229526
0.022580341
0.021945901
0.021326162
0.020721061
0.020130515
0.019554423
0.018992663
0.0184451
0.017911589
0.017392024
0.016886452
0.016394929
0.056288768
0.055322259
0.054353234
0.053382221
0.052409866
0.051436843
0.050463839
0.049491559
0.048520715
0.04755203
0.046586227
0.045624033
0.044666168
0.043713346
0.042766273
0.04182564
0.040892119
0.039966368
0.039049018
0.038140679
0.037241935
0.03635334
0.035475419
0.034608667
0.033753548
0.03291049
0.03207989
0.031262113
0.030457486
0.029666306
0.028888836
0.028125304
0.02737591
0.02664082
0.025920169
0.025214065
0.024522588
0.023845788
0.023183692
0.022536304
0.021903603
0.021285547
0.020682074
0.0200931
0.019518524
0.01895822
0.01841204
0.017879814
0.017361396
0.016856996
0.016367123
0.056114136
0.05515228
0.054187794
0.05322123
0.052253243
0.051284509
0.050315721
0.049347584
0.048380812
0.047416128
0.046454257
0.045495926
0.044541856
0.043592762
0.042649347
0.041712304
0.040782306
0.039860008
0.038946043
0.03804102
0.037145522
0.036260103
0.03538529
0.034521575
0.033669423
0.032829261
0.032001489
0.031186467
0.030384527
0.029595963
0.02882104
0.028059987
0.027313002
0.026580253
0.025861876
0.02515798
0.024468644
0.023793921
0.023133839
0.022488402
0.02185759
0.021241363
0.020639658
0.020052395
0.019479469
0.018920755
0.018376089
0.017845258
0.01732798
0.055924904
0.054968112
0.054008535
0.053046783
0.05208352
0.051119429
0.050155204
0.04919155
0.048229186
0.047268834
0.046311221
0.045357072
0.044407111
0.043462052
0.0425226
0.041589445
0.040663261
0.039744703
0.038834403
0.037932971
0.037040989
0.036159011
0.035287563
0.034427138
0.033578199
0.032741175
0.031916464
0.031104428
0.030305397
0.029519668
0.028747503
0.027989134
0.027244759
0.026514547
0.025798634
0.025097129
0.024410113
0.02373764
0.02307974
0.022436416
0.021807651
0.021193406
0.02059362
0.020008213
0.019437083
0.018880103
0.018337105
0.017807842
0.055720314
0.054769002
0.053814717
0.052858156
0.051899994
0.050940915
0.049981616
0.049022806
0.048065203
0.047109531
0.046156518
0.045206889
0.044261368
0.04332067
0.042385498
0.041456545
0.040534482
0.039619966
0.038713628
0.037816078
0.036927896
0.036049637
0.035181825
0.034324956
0.03347949
0.032645858
0.031824455
0.031015647
0.030219761
0.029437095
0.028667913
0.027912445
0.027170892
0.02644342
0.02573017
0.02503125
0.024346743
0.023676703
0.023021161
0.022380123
0.021753572
0.021141471
0.020543761
0.019960364
0.019391182
0.018836092
0.018294944
0.017767616
0.056441729
0.055499761
0.054554188
0.053605581
0.052654607
0.051701939
0.050748262
0.049794274
0.048840685
0.047888215
0.046937589
0.045989535
0.04504478
0.044104046
0.043168051
0.042237496
0.041313074
0.040395458
0.039485301
0.038583236
0.037689872
0.036805789
0.035931541
0.035067653
0.034214619
0.0333729
0.032542926
0.031725094
0.030919766
0.030127273
0.029347913
0.028581947
0.02782961
0.0270911
0.026366586
0.025656209
0.024960078
0.024278277
0.023610862
0.022957864
0.022319292
0.02169513
0.021085343
0.020489875
0.019908651
0.019341575
0.018788535
0.018249401
0.017724125
0.056198106
0.055262268
0.054322858
0.053380348
0.052435379
0.051488619
0.050540752
0.049592477
0.048644506
0.047697559
0.046752363
0.045809646
0.044870136
0.043934556
0.043003622
0.042078038
0.041158494
0.040245663
0.0393402
0.038442735
0.037553877
0.036674207
0.035804279
0.034944615
0.03409571
0.033258025
0.03243199
0.031618002
0.030816422
0.030027583
0.02925178
0.028489279
0.027740312
0.027005079
0.02628375
0.025576466
0.024883339
0.024204452
0.023539863
0.022889605
0.022253689
0.0216321
0.021024806
0.020431753
0.019852869
0.019288066
0.018737237
0.018200268
0.017677149
0.055936067
0.05500696
0.054074188
0.053138225
0.052199702
0.051259284
0.050317655
0.049375515
0.048433577
0.047492562
0.046553199
0.045616216
0.044682341
0.043752298
0.042826802
0.041906558
0.040992255
0.040084567
0.039184147
0.038291626
0.037407611
0.036532684
0.035667396
0.034812272
0.033967805
0.033134456
0.032312654
0.031502796
0.030705246
0.029920333
0.029148355
0.028389577
0.027644231
0.026912521
0.026194615
0.025490656
0.024800756
0.024125
0.023463449
0.022816137
0.022183075
0.021564252
0.020959638
0.020369181
0.019792814
0.019230453
0.018681998
0.018147347
0.017626501
0.055654838
0.054732994
0.053807357
0.052878414
0.0519468
0.051013179
0.050078236
0.049142672
0.048207202
0.047272548
0.046339438
0.045408603
0.044480771
0.043556666
0.042637003
0.041722486
0.040813805
0.039911633
0.039016623
0.038129405
0.037250585
0.036380745
0.035520437
0.034670183
0.033830477
0.033001779
0.032184518
0.031379092
0.030585863
0.029805162
0.029037288
0.028282504
0.027541045
0.026813112
0.026098879
0.025398486
0.024712049
0.024039654
0.023381362
0.022737209
0.02210721
0.021491354
0.020889615
0.020301944
0.019728276
0.019168533
0.018622621
0.018090442
0.017572003
0.055353594
0.054439535
0.053521542
0.052600115
0.051675894
0.050749545
0.049821756
0.04889323
0.047964681
0.047036834
0.046110419
0.045186165
0.044264802
0.043347054
0.042433635
0.041525251
0.04062259
0.039726324
0.038837106
0.037955566
0.03708231
0.036217918
0.035362941
0.034517903
0.033683295
0.032859578
0.032047182
0.031246501
0.030457901
0.029681711
0.02891823
0.028167724
0.027430427
0.026706541
0.025996241
0.025299668
0.024616939
0.023948142
0.02329334
0.022652571
0.022025851
0.021413173
0.020814512
0.020229823
0.019659045
0.019102102
0.018558906
0.018029362
0.017513477
0.055031498
0.054125755
0.053215931
0.052302534
0.05138621
0.050467629
0.049547482
0.048626473
0.047705319
0.046784745
0.045865482
0.044948261
0.044033811
0.043122856
0.042216112
0.041314282
0.040418055
0.039528103
0.038645077
0.037769607
0.036902298
0.03604373
0.035194453
0.034354991
0.033525833
0.032707442
0.031900244
0.031104638
0.030320986
0.029549619
0.028790836
0.028044903
0.027312055
0.026592496
0.025886399
0.02519391
0.024515146
0.023850196
0.023199125
0.022561973
0.021938759
0.021329477
0.020734106
0.020152603
0.019584911
0.019030958
0.018490658
0.017963918
0.017450746
0.054687715
0.053790837
0.052889722
0.051984888
0.051076984
0.050166686
0.049254688
0.048341695
0.047428428
0.046515611
0.045603978
0.044694259
0.043787184
0.042883477
0.041983854
0.041089018
0.040199656
0.039316441
0.038440022
0.03757103
0.036710068
0.035857716
0.035014522
0.03418101
0.033357669
0.032544961
0.031743313
0.030953122
0.030174751
0.029408532
0.028654762
0.02791371
0.02718561
0.026470668
0.025769059
0.025080928
0.024406394
0.02374555
0.02309846
0.022465168
0.021845694
0.021240036
0.020648175
0.02007007
0.019505669
0.018954901
0.018417684
0.017893927
0.017383636
0.054321432
0.053433983
0.052542136
0.051646414
0.050747472
0.049845991
0.048942667
0.048038209
0.047133337
0.046228781
0.045325272
0.044423542
0.043524321
0.042628335
0.041736296
0.040848909
0.03996686
0.039090822
0.038221442
0.037359351
0.036505151
0.03565942
0.034822707
0.033995534
0.033178391
0.032371738
0.031576003
0.030791582
0.030018837
0.029258102
0.028509674
0.027773822
0.027050781
0.026340759
0.02564393
0.024960442
0.024290415
0.023633944
0.022991096
0.022361915
0.021746425
0.021144627
0.020556503
0.019982017
0.019421117
0.018873738
0.018339798
0.017819209
0.017311977
0.053931867
0.053054427
0.052172423
0.05128638
0.05039696
0.049504846
0.048610739
0.04771535
0.046819402
0.045923625
0.045028752
0.044135515
0.043244645
0.042356866
0.041472892
0.040593426
0.039719155
0.038850748
0.037988855
0.037134102
0.036287093
0.035448405
0.034618585
0.033798155
0.032987603
0.032187391
0.031397944
0.030619659
0.029852899
0.029097996
0.02835525
0.027624928
0.026907269
0.026202478
0.025510733
0.024832183
0.02416695
0.023515129
0.022876791
0.022251982
0.021640728
0.021043033
0.020458882
0.019888241
0.019331062
0.018787282
0.018256821
0.017739594
0.017235606
0.053518277
0.052651444
0.051779873
0.050904093
0.050024769
0.04914259
0.048258259
0.047372491
0.046486011
0.045599549
0.044713839
0.043829615
0.042947608
0.04206854
0.041193127
0.040322069
0.039456053
0.038595748
0.037741802
0.036894841
0.036055467
0.035224255
0.034401753
0.033588482
0.032784929
0.031991554
0.031208784
0.030437014
0.029676609
0.028927899
0.028191185
0.027466735
0.026754788
0.026055551
0.025369204
0.024695897
0.024035752
0.023388868
0.022755318
0.02213515
0.021528392
0.020935051
0.020355115
0.019788553
0.019235321
0.018695356
0.018168583
0.017654917
0.017154367
0.053079981
0.052224366
0.051363833
0.050498912
0.049630274
0.048758611
0.047884631
0.04700905
0.046132596
0.045256
0.044379997
0.043505321
0.042632702
0.041762864
0.040896521
0.040034372
0.039177104
0.038325385
0.03747986
0.036641156
0.035809873
0.034986585
0.03417184
0.033366156
0.032570021
0.031783893
0.031008199
0.030243335
0.029489663
0.028747517
0.028017196
0.027298969
0.026593077
0.025899727
0.0252191
0.024551347
0.023896595
0.023254943
0.022626465
0.022011214
0.021409219
0.020820491
0.020245019
0.019682778
0.019133724
0.018597798
0.018074927
0.01756503
0.017068116
0.052616368
0.051772594
0.050923714
0.050070263
0.049212913
0.048352362
0.04748932
0.046624507
0.04575865
0.044892484
0.044026743
0.043162162
0.042299472
0.041439395
0.040582643
0.039729918
0.038881903
0.038039265
0.037202649
0.03637268
0.035549956
0.034735051
0.033928511
0.033130853
0.032342565
0.031564104
0.030795896
0.030038337
0.02929179
0.028556587
0.027833029
0.027121386
0.026421898
0.025734776
0.025060199
0.024398323
0.023749275
0.023113156
0.022490043
0.021879992
0.021283034
0.020699182
0.020128431
0.019570756
0.019026118
0.01849446
0.017975713
0.017469797
0.016976725
0.052126916
0.051295616
0.050459017
0.049617655
0.048772206
0.047923373
0.047071867
0.046218411
0.045363735
0.044508573
0.043653662
0.042799736
0.041947524
0.04109775
0.040251124
0.039408347
0.0385701
0.03773705
0.03690984
0.036089093
0.035275407
0.034469353
0.033671477
0.032882295
0.032102292
0.031331927
0.030571625
0.02982178
0.029082755
0.028354884
0.027638468
0.026933776
0.026241051
0.025560503
0.024892315
0.024236643
0.023593616
0.022963339
0.02234589
0.021741326
0.021149685
0.02057098
0.02000521
0.019452353
0.018912373
0.018385218
0.01787082
0.017369103
0.016880082
0.051611213
0.050793027
0.049969343
0.049140697
0.048307771
0.047471268
0.046631905
0.045790405
0.044947502
0.044103928
0.043260423
0.042417718
0.041576545
0.040737624
0.039901667
0.03906937
0.038241417
0.037418469
0.036601171
0.035790142
0.03498598
0.034189254
0.033400509
0.032620258
0.031848988
0.031087155
0.030335183
0.029593468
0.028862372
0.028142227
0.027433336
0.02673597
0.026050371
0.025376752
0.024715296
0.024066161
0.023429479
0.022805356
0.022193874
0.021595092
0.02100905
0.020435767
0.019875243
0.01932746
0.018792385
0.01826997
0.017760151
0.017262854
0.016778099
0.051068979
0.05026455
0.049454419
0.04863912
0.047819341
0.046995787
0.046169178
0.04534024
0.044509705
0.04367831
0.042846791
0.042015882
0.041186313
0.040358802
0.039534061
0.038712785
0.037895655
0.037083332
0.036276456
0.035475648
0.034681502
0.033894587
0.033115444
0.032344587
0.031582501
0.030829642
0.030086432
0.029353266
0.028630508
0.02791849
0.027217514
0.026527852
0.025849747
0.025183414
0.024529037
0.023886777
0.023256767
0.022639114
0.022033905
0.021441203
0.020861047
0.020293462
0.019738451
0.019196
0.01866608
0.018148646
0.017643638
0.017150986
0.016670714
0.05050009
0.04971006
0.048914118
0.048112798
0.047306791
0.046496806
0.045683564
0.044867793
0.044050226
0.043231601
0.042412653
0.041594116
0.040776718
0.039961178
0.039148205
0.038338492
0.037532718
0.036731542
0.035935605
0.035145522
0.034361887
0.033585267
0.032816202
0.032055205
0.031302758
0.030559315
0.029825301
0.029101109
0.028387101
0.027683611
0.026990942
0.026309365
0.025639125
0.024980437
0.024333489
0.023698442
0.023075432
0.022464569
0.021865941
0.021279615
0.020705635
0.020144027
0.019594797
0.019057938
0.018533423
0.018021212
0.017521248
0.017033467
0.016557897
0.049904603
0.049129609
0.048348487
0.047561773
0.04677016
0.045974359
0.045175094
0.044373093
0.043569092
0.042763826
0.041958031
0.041152441
0.040347782
0.039544772
0.038744116
0.037946508
0.037152623
0.036363119
0.035578634
0.034799782
0.034027153
0.033261313
0.032502801
0.031752127
0.031009773
0.030276192
0.029551807
0.028837011
0.028132166
0.027437606
0.026753634
0.026080522
0.025418517
0.024767834
0.024128664
0.023501169
0.022885487
0.022281732
0.021689993
0.021110341
0.020542824
0.01998747
0.019444291
0.018913282
0.018394421
0.017887673
0.017392986
0.016910303
0.016439653
0.049282788
0.048523454
0.047757774
0.046986284
0.046209677
0.045428668
0.044643981
0.043856347
0.043066501
0.042275177
0.041483113
0.040691039
0.03989968
0.039109752
0.03832196
0.037536993
0.036755526
0.035978213
0.035205689
0.034438567
0.033677435
0.032922857
0.032175368
0.031435478
0.030703668
0.029980389
0.029266063
0.028561082
0.02786581
0.027180578
0.026505691
0.025841423
0.025188019
0.024545698
0.023914651
0.023295043
0.022687015
0.022090682
0.021506138
0.020933455
0.020372685
0.019823861
0.019286998
0.018762094
0.018249134
0.017748087
0.017258907
0.016781543
0.016316032
0.048635159
0.047892093
0.04714246
0.046386795
0.045625791
0.044860167
0.044090648
0.043317963
0.042542849
0.041766039
0.040988269
0.040210269
0.039432761
0.038656459
0.037882065
0.037110267
0.036341735
0.035577123
0.034817062
0.034062162
0.03331301
0.032570165
0.031834163
0.03110551
0.030384687
0.029672142
0.028968297
0.028273544
0.027588246
0.026912734
0.026247313
0.025592258
0.024947816
0.024314207
0.023691624
0.023080233
0.022480178
0.021891577
0.021314527
0.020749103
0.02019536
0.019653335
0.019123046
0.018604498
0.018097679
0.017602565
0.017119116
0.01664729
0.016187131
0.047962509
0.047236294
0.046503291
0.045764028
0.045019204
0.044269538
0.043515753
0.042758582
0.041998758
0.041237015
0.040474087
0.039710701
0.038947578
0.038185429
0.037424953
0.036666835
0.035911743
0.035160327
0.034413215
0.033671015
0.03293431
0.032203658
0.031479592
0.030762617
0.03005321
0.029351821
0.028658868
0.027974743
0.027299809
0.026634397
0.025978813
0.025333332
0.024698203
0.024073645
0.023459856
0.022857003
0.022265231
0.021684663
0.021115398
0.020557513
0.020011069
0.019476104
0.018952642
0.018440691
0.017940244
0.017451283
0.016973778
0.016507697
0.016053101
0.04726595
0.046557137
0.045841312
0.045119002
0.044390905
0.043657739
0.04292023
0.042179109
0.041435108
0.04068896
0.039941396
0.039193142
0.038444914
0.037697422
0.036951362
0.036207414
0.035466243
0.034728497
0.033994801
0.033265758
0.03254195
0.031823932
0.031112234
0.030407358
0.029709781
0.029019949
0.028338282
0.02766517
0.027000974
0.026346027
0.025700635
0.025065073
0.024439591
0.023824412
0.023219732
0.022625724
0.022042533
0.021470286
0.020909084
0.020359009
0.019820123
0.019292469
0.018776074
0.01827095
0.017777093
0.017294492
0.016823127
0.016362981
0.015914147
0.046546951
0.04585605
0.045157914
0.044453066
0.043742204
0.043026046
0.042305318
0.041580749
0.04085307
0.040123012
0.039391303
0.038658665
0.037925813
0.037193452
0.036462274
0.035732957
0.035006163
0.034282534
0.033562692
0.032847239
0.03213675
0.03143178
0.030732856
0.030040478
0.029355119
0.028677225
0.028007215
0.027345477
0.026692372
0.026048234
0.025413368
0.02478805
0.024172533
0.023567039
0.022971767
0.022386892
0.021812563
0.021248908
0.020696032
0.020154021
0.019622938
0.019102831
0.01859373
0.018095648
0.017608585
0.017132531
0.016667472
0.016213416
0.015770521
0.045807382
0.045134852
0.044454866
0.043767942
0.043074777
0.04237609
0.041672603
0.040965045
0.040254144
0.039540628
0.038825223
0.038108646
0.03739161
0.036674816
0.035958951
0.035244689
0.034532689
0.033823588