/*--------------------------------*- C++ -*----------------------------------*\
| =========                 |                                                 |
| \\      /  F ield         | OpenFOAM: The Open Source CFD Toolbox           |
|  \\    /   O peration     | Version:  2312                                  |
|   \\  /    A nd           | Website:  www.openfoam.com                      |
|    \\/     M anipulation  |                                                 |
\*---------------------------------------------------------------------------*/
FoamFile
{
    version     2.0;
    format      ascii;
    arch        "LSB;label=32;scalar=64";
    class       volScalarField;
    location    "0.09";
    object      f_Bilger;
}
// * * * * * * * * * * * * * * * * * * * * * * * * * * * * * * * * * * * * * //

dimensions      [0 0 0 0 0 0 0];

internalField   nonuniform List<scalar> 
3251
(
0.066155779
0.065046832
0.063935391
0.062822073
0.061707534
0.06059245
0.059477523
0.058363478
0.057251053
0.056141005
0.055034096
0.053931096
0.052832775
0.051739902
0.050653236
0.049573529
0.048501518
0.047437921
0.046383437
0.045338741
0.044304484
0.043281287
0.042269741
0.041270406
0.040283809
0.039310441
0.038350759
0.037405185
0.036474103
0.035557863
0.034656776
0.03377112
0.032901138
0.032047035
0.031208988
0.030387139
0.029581597
0.028792446
0.028019737
0.027263498
0.02652373
0.025800412
0.0250935
0.024402932
0.023728627
0.023070491
0.022428415
0.021802285
0.021191982
0.020597395
0.020018422
0.019454956
0.018907253
0.018374964
0.017857469
0.017354623
0.016866291
0.016392374
0.06615026
0.065041469
0.063930205
0.062817055
0.061702679
0.060587756
0.059472986
0.058359094
0.05724682
0.05613692
0.055030156
0.053927298
0.052829117
0.05173638
0.050649849
0.049570273
0.04849839
0.047434919
0.046380558
0.045335983
0.044301844
0.043278762
0.042267328
0.041268103
0.040281612
0.039308349
0.038348769
0.037403293
0.036472308
0.035556161
0.034655165
0.033769598
0.032899701
0.032045682
0.031207716
0.030385945
0.02958048
0.028791402
0.028018765
0.027262595
0.026522895
0.025799643
0.025092797
0.024402293
0.023728053
0.023069982
0.022427975
0.021801917
0.021191692
0.020597187
0.020018302
0.019454944
0.018907179
0.01837473
0.017857153
0.017354249
0.016865859
0.016391952
0.066138541
0.065030057
0.063919123
0.062806296
0.061692236
0.060577623
0.059463157
0.058349563
0.057237582
0.056127969
0.055021487
0.053918905
0.052820996
0.051728525
0.050642255
0.049562936
0.048491304
0.047428079
0.046373959
0.04532962
0.044295711
0.043272855
0.042261642
0.041262632
0.040276352
0.039303294
0.038343914
0.037398634
0.036467839
0.035551877
0.034651062
0.03376567
0.032895944
0.032042091
0.031204286
0.030382672
0.029577358
0.028788428
0.028015934
0.027259903
0.026520338
0.025797217
0.025090498
0.02440012
0.023726003
0.023068054
0.022426168
0.021800233
0.021190132
0.020595749
0.020016982
0.019453733
0.018905968
0.01837345
0.017855835
0.017352908
0.016864481
0.016390527
0.066120599
0.06501259
0.063902139
0.062789789
0.061676198
0.060562043
0.059448028
0.058334877
0.05722333
0.056114143
0.05500808
0.05390591
0.052808403
0.051716329
0.050630447
0.049551509
0.04848025
0.047417391
0.04636363
0.045319642
0.044286077
0.043263557
0.042252673
0.041253984
0.040268018
0.039295266
0.038336186
0.037391197
0.036460686
0.035545002
0.034644456
0.033759327
0.032889856
0.032036252
0.031198688
0.030377308
0.029572222
0.028783513
0.028011233
0.02725541
0.026516047
0.025793122
0.025086594
0.0243964
0.023722464
0.023064693
0.022422982
0.021797219
0.021187286
0.020593068
0.020014452
0.019451334
0.018903622
0.018371104
0.017853499
0.017350588
0.016862158
0.016388
0.066096436
0.064989069
0.063879259
0.062767541
0.061654569
0.060541023
0.059427606
0.058315041
0.05720407
0.056095449
0.05498994
0.053888315
0.052791344
0.051699794
0.050614428
0.049535995
0.048465232
0.047402859
0.046349573
0.045306052
0.044272943
0.04325087
0.042240422
0.041242161
0.040256612
0.039284268
0.038325585
0.037380985
0.036450852
0.035535536
0.034635349
0.033750569
0.032881439
0.032028165
0.031190922
0.030369854
0.029565072
0.028776656
0.028004662
0.027249117
0.026510022
0.025787357
0.025081082
0.024391134
0.023717437
0.023059898
0.022418415
0.021792873
0.021183156
0.020589143
0.020010717
0.01944776
0.01890015
0.018367691
0.017850141
0.017347289
0.016858927
0.066067805
0.064961199
0.063852142
0.062741164
0.06162892
0.060516088
0.059403372
0.058291496
0.057181202
0.056073244
0.054968387
0.053867402
0.052771059
0.051680127
0.050595365
0.049517526
0.048447345
0.047385542
0.046332816
0.045289843
0.044257271
0.043235722
0.042225788
0.041228029
0.040242971
0.039271106
0.03831289
0.037368747
0.036439059
0.035524176
0.034624412
0.033740044
0.032871313
0.032018428
0.031181564
0.030360863
0.029556438
0.028768369
0.027996711
0.027241491
0.026502712
0.025780354
0.025074375
0.024384716
0.023711299
0.023054032
0.022412812
0.021787526
0.021178056
0.020584277
0.020006066
0.019443295
0.018895826
0.018363472
0.017846012
0.01734326
0.016855148
0.066035616
0.064929865
0.06382165
0.0627115
0.061600069
0.060488036
0.059376104
0.058264998
0.057155459
0.056048244
0.054944116
0.053843847
0.052748207
0.051657964
0.050573879
0.049496704
0.048427174
0.04736601
0.04631391
0.045271549
0.044239577
0.043218616
0.042209257
0.04121206
0.04022755
0.039256222
0.03829853
0.037354897
0.036425707
0.035511311
0.034612019
0.033728111
0.032859829
0.03200738
0.031170939
0.03035065
0.029546624
0.028758943
0.027987661
0.027232806
0.026494382
0.025772367
0.02506672
0.024377383
0.023704278
0.023047314
0.022406387
0.021781385
0.021172186
0.020578665
0.020000691
0.01943813
0.018890831
0.018358613
0.017841272
0.017338637
0.016850741
0.065997349
0.064892612
0.063785395
0.062676225
0.061565757
0.060454669
0.059343666
0.058233471
0.057124827
0.056018491
0.054915226
0.053815805
0.052720996
0.05163157
0.050548287
0.049471898
0.04840314
0.047342732
0.046291373
0.045249738
0.044218477
0.043198212
0.042189534
0.041193002
0.040209144
0.03923845
0.038281379
0.037338351
0.036409752
0.035495931
0.0345972
0.033713838
0.032846086
0.031994154
0.031158216
0.030338414
0.029534862
0.028747641
0.027976806
0.027222384
0.026484378
0.02576277
0.025057517
0.024368561
0.023695825
0.023039218
0.022398637
0.021773967
0.021165088
0.02057187
0.019994176
0.019431863
0.018884776
0.018352735
0.017835548
0.017333046
0.016845256
0.065952559
0.064849007
0.063742953
0.062634928
0.061525583
0.060415598
0.059305677
0.058196545
0.057088946
0.055983635
0.054881378
0.053782945
0.052689107
0.051600634
0.050518286
0.049442815
0.048374957
0.047315431
0.046264937
0.04522415
0.044193719
0.043174266
0.042166383
0.041170629
0.04018753
0.039217578
0.038261232
0.037318911
0.036391001
0.035477851
0.034579775
0.03369705
0.032829919
0.03197859
0.031143238
0.030324007
0.029521008
0.028734324
0.02796401
0.027210093
0.026472578
0.025751444
0.025046651
0.02435814
0.023685834
0.023029642
0.022389462
0.02176518
0.021156671
0.020563804
0.019986436
0.019424418
0.018877586
0.018345765
0.017828768
0.017326428
0.065900773
0.064798589
0.063693879
0.062587172
0.061479122
0.060370409
0.059261736
0.058153831
0.057047436
0.055943308
0.054842212
0.053744919
0.052652201
0.051564827
0.050483558
0.049409145
0.048342325
0.047283818
0.046234321
0.045194512
0.044165038
0.043146523
0.042139556
0.041144698
0.040162476
0.03919338
0.038237869
0.037296364
0.03636925
0.035456876
0.034559555
0.033677566
0.03281115
0.031960517
0.031125842
0.030307269
0.029504909
0.028718845
0.027949132
0.027195799
0.026458849
0.025738262
0.025033999
0.024346001
0.02367419
0.023018478
0.02237876
0.021754921
0.021146838
0.020554375
0.019977385
0.019415708
0.018869179
0.018337622
0.017820861
0.017318784
0.065841495
0.064740874
0.063637699
0.062532498
0.061425927
0.060318667
0.059211421
0.058104916
0.056999896
0.055897118
0.054797349
0.053701359
0.05260992
0.051523801
0.050443764
0.049370561
0.048304927
0.047247582
0.046199226
0.045160533
0.044132154
0.043114709
0.04210879
0.041114956
0.040133735
0.039165618
0.038211062
0.037270489
0.036344284
0.035432796
0.034536339
0.03365519
0.032789593
0.031939756
0.031105854
0.030288032
0.029486402
0.028701047
0.027932022
0.027179355
0.026443051
0.025723091
0.025019433
0.02433202
0.023660776
0.023005609
0.022366417
0.021743086
0.021135488
0.020543487
0.019966929
0.019405647
0.018859469
0.018328225
0.01781175
0.065774202
0.064675353
0.063573916
0.062470423
0.061365529
0.060259913
0.059154283
0.058049365
0.056945903
0.055844656
0.05474639
0.053651876
0.052561886
0.05147719
0.05039855
0.049326716
0.048262427
0.0472064
0.046159336
0.045121909
0.044094769
0.043078538
0.042073807
0.041081135
0.040101049
0.039134041
0.038180568
0.037241051
0.036315877
0.035405393
0.034509915
0.033629719
0.032765049
0.031916115
0.031083091
0.030266121
0.029465319
0.028680767
0.027912522
0.027160611
0.026425039
0.025705788
0.025002817
0.024316067
0.023645464
0.022990915
0.022352319
0.02172956
0.021122513
0.020531036
0.019954971
0.019394142
0.018848366
0.01831749
0.017801423
0.065698343
0.064601488
0.063502009
0.062400437
0.061297429
0.060193665
0.059089854
0.057986721
0.056885014
0.055785489
0.054688914
0.053596061
0.052507703
0.051424608
0.05034754
0.049277249
0.048214473
0.04715993
0.04611432
0.045078318
0.044052574
0.04303771
0.042034315
0.041042951
0.040064143
0.039098383
0.038146129
0.037207803
0.036283789
0.035374436
0.03448006
0.033600938
0.032737312
0.031889394
0.031057358
0.030241348
0.029441478
0.028657831
0.027890464
0.027139404
0.026404658
0.025686205
0.024984007
0.024298004
0.023628121
0.022974268
0.022336341
0.021714227
0.021107798
0.020516914
0.019941409
0.019381094
0.018835776
0.018305326
0.065613338
0.064518715
0.063421426
0.062322005
0.061221107
0.060119416
0.059017638
0.057916504
0.056816759
0.055719161
0.05462448
0.053533486
0.052446953
0.051365651
0.050290341
0.049221777
0.048160693
0.047107811
0.046063829
0.045029423
0.044005241
0.042991906
0.041990008
0.041000107
0.040022729
0.039058368
0.038107478
0.037170484
0.036247768
0.035339683
0.03444654
0.033568619
0.032706164
0.031859382
0.031028452
0.030213517
0.029414691
0.028632058
0.027865673
0.027115567
0.026381743
0.025664185
0.024962852
0.024277685
0.023608609
0.022955533
0.022318355
0.021696961
0.021091226
0.020501007
0.019926136
0.019366403
0.018821601
0.018291713
0.065518579
0.064426441
0.063331592
0.062234564
0.061136016
0.060036631
0.058937119
0.057838209
0.056740648
0.055645196
0.054552622
0.053463698
0.052379197
0.05129989
0.05022654
0.049159897
0.0481007
0.047049667
0.046007497
0.044974867
0.043952425
0.042940793
0.041940561
0.040952291
0.039976506
0.039013701
0.038064332
0.037128821
0.036207552
0.035300877
0.034409109
0.033532526
0.032671373
0.031825859
0.030996161
0.030182423
0.029384759
0.028603254
0.027837965
0.02708892
0.026356126
0.025639563
0.024939193
0.024254958
0.02358678
0.02293457
0.022298225
0.021677631
0.021072669
0.020483196
0.019909039
0.019349968
0.018805733
0.06541343
0.064324046
0.0632319
0.062137525
0.061041581
0.059944753
0.058847751
0.057751306
0.056656166
0.055563093
0.054472854
0.053386224
0.052303976
0.051226881
0.050155702
0.04909119
0.048034083
0.0469851
0.04594494
0.044914279
0.043893766
0.042884022
0.041885638
0.040899174
0.039925157
0.038964077
0.038016394
0.037082527
0.036162863
0.035257752
0.034367508
0.033492409
0.0326327
0.031788591
0.030960259
0.030147848
0.029351474
0.028571221
0.027807146
0.027059278
0.026327625
0.025612167
0.024912866
0.024229663
0.023562481
0.02291123
0.022275806
0.0216561
0.021051994
0.020463353
0.019890002
0.01933169
0.018788135
0.065297222
0.064210879
0.063121718
0.062030272
0.060937202
0.059843196
0.058748965
0.057655241
0.056562774
0.055472326
0.054384666
0.053300568
0.052220808
0.051146155
0.050077373
0.049015214
0.047960415
0.046913695
0.045875755
0.044847268
0.043828885
0.042821226
0.041824883
0.040840415
0.039868348
0.038909175
0.037963353
0.037031302
0.03611341
0.035210027
0.034321465
0.033448006
0.032589892
0.031747335
0.030920512
0.030109568
0.029314617
0.028535747
0.027773013
0.027026446
0.026296053
0.025581815
0.024883695
0.024201632
0.02353555
0.022885358
0.022250952
0.021632223
0.02102906
0.020441342
0.019868903
0.019311474
0.065169259
0.064086261
0.063000383
0.06191216
0.060822252
0.059731349
0.058640166
0.057549435
0.056459908
0.055372348
0.054287525
0.053206214
0.052129189
0.051057223
0.049991079
0.048931508
0.047879248
0.04683502
0.045799521
0.044773427
0.043757388
0.042752023
0.041757926
0.040775654
0.039805734
0.038848659
0.037904884
0.036974833
0.036058891
0.035157408
0.034270699
0.033399044
0.032542686
0.031701836
0.030876674
0.030067343
0.029273961
0.028496611
0.027735354
0.026990219
0.026261213
0.025548319
0.024851498
0.024170691
0.023505821
0.022856793
0.022223505
0.021605848
0.02100372
0.020417019
0.019845611
0.019289357
0.065028814
0.063949485
0.062867207
0.061782516
0.060696075
0.059608575
0.058520733
0.057433284
0.056346981
0.055262587
0.054180874
0.053102618
0.052028595
0.050959575
0.049896323
0.048839591
0.047790117
0.04674862
0.045715799
0.04469233
0.043678861
0.042676014
0.041684379
0.040704516
0.039736951
0.038782177
0.037840649
0.036912791
0.035998988
0.035099591
0.034214914
0.033345237
0.032490805
0.031651829
0.030828488
0.030020928
0.029229265
0.028453585
0.027693948
0.026950384
0.0262229
0.025511481
0.024816087
0.024136658
0.023473116
0.022825367
0.022193303
0.021576816
0.020975813
0.020390224
0.019819954
0.019264925
0.064875128
0.063799812
0.062721472
0.061640642
0.06055799
0.059474209
0.058390019
0.057306158
0.056223379
0.055142447
0.054064135
0.052989219
0.051918477
0.050852679
0.04979259
0.048738962
0.047692534
0.046654024
0.045624132
0.044603533
0.043592875
0.042592781
0.04160384
0.040626612
0.039661623
0.038709365
0.037770295
0.036844835
0.035933371
0.035036255
0.034153801
0.033286288
0.032433963
0.031597037
0.030775688
0.029970065
0.029180283
0.028406429
0.027648563
0.026906718
0.0261809
0.025471094
0.024777262
0.024099342
0.023437256
0.022790906
0.022160179
0.021544963
0.020945171
0.020360785
0.01979176
0.019237903
0.064707415
0.063636479
0.062562431
0.061485811
0.060407288
0.059327562
0.058247354
0.057167404
0.056088466
0.055011308
0.053936705
0.052865432
0.051798267
0.050735982
0.049679343
0.0486291
0.047585994
0.046550742
0.045524044
0.044506575
0.043498984
0.042501892
0.041515889
0.040541535
0.039579355
0.038629842
0.037693453
0.036770609
0.035861698
0.03496707
0.03408704
0.033221888
0.032371861
0.031537171
0.030717996
0.029914485
0.029126755
0.028354894
0.027598961
0.026858991
0.026134991
0.025426946
0.024734818
0.024058546
0.023398051
0.022753229
0.022123962
0.02151012
0.020911616
0.020328521
0.01976091
0.064524856
0.063458692
0.062389312
0.061317269
0.060243237
0.059167919
0.05809204
0.057016342
0.055941583
0.05486853
0.053797959
0.052730648
0.051667375
0.050608912
0.049556025
0.048509465
0.047469972
0.046438265
0.045415042
0.044400979
0.043396725
0.042402899
0.041420093
0.040448865
0.039489742
0.038543216
0.037609744
0.036689747
0.035783612
0.034891691
0.034014299
0.033151717
0.03230419
0.031471933
0.030655123
0.029853911
0.029068414
0.028298721
0.027544892
0.026806963
0.026084941
0.025378813
0.024688542
0.024014066
0.023355305
0.022712152
0.022084475
0.021472119
0.020874956
0.020293226
0.019727475
0.064326606
0.063265635
0.06220132
0.06113424
0.060065078
0.058994541
0.057923358
0.056852273
0.055782047
0.054713448
0.053647253
0.052584242
0.051525191
0.050470876
0.049422061
0.048379498
0.047343927
0.046316067
0.045296616
0.04428625
0.043285617
0.042295337
0.041316001
0.040348168
0.039392363
0.038449079
0.037518772
0.036601866
0.035698746
0.034809764
0.033935236
0.033075442
0.03223063
0.031401013
0.030586772
0.029788056
0.029004983
0.028237643
0.027486099
0.026750385
0.026030512
0.025326467
0.024638213
0.02396569
0.023308817
0.022667485
0.022041548
0.021430805
0.02083499
0.064111795
0.06305647
0.061997634
0.060935922
0.059872028
0.058806666
0.057740565
0.056674474
0.055609155
0.054545378
0.053483921
0.052425564
0.051371087
0.050321263
0.049276857
0.048238623
0.0472073
0.046183606
0.045168241
0.044161878
0.043165167
0.042178727
0.04120315
0.040238993
0.039286783
0.03834701
0.037420134
0.036506574
0.03560672
0.034720921
0.033849495
0.032992723
0.032150851
0.031324095
0.030512635
0.029716622
0.028936175
0.028171385
0.027422315
0.026689002
0.025971458
0.02526967
0.024583603
0.023913199
0.023258378
0.022619031
0.021995007
0.021386071
0.063879558
0.062830341
0.061777412
0.060721492
0.059663286
0.05860351
0.057542898
0.056482202
0.055422183
0.054363616
0.053307278
0.052253951
0.051204415
0.050159444
0.049119804
0.048086248
0.047059515
0.046040324
0.045029374
0.044027339
0.043034867
0.042052579
0.041081064
0.040120881
0.039172555
0.038236579
0.037313409
0.036403468
0.035507144
0.034624786
0.033756713
0.032903206
0.032064513
0.031240849
0.030432396
0.029639305
0.028861697
0.028099663
0.027353269
0.026622552
0.025907525
0.025208178
0.024524477
0.023856368
0.023203772
0.022566587
0.021944679
0.021337944
0.064667597
0.063629178
0.06258638
0.061539792
0.060490107
0.059438027
0.058384272
0.057329577
0.056274695
0.055220392
0.054167441
0.053116623
0.05206872
0.051024513
0.049984776
0.048950276
0.047921766
0.046899984
0.04588565
0.044879463
0.043882095
0.042894197
0.041916386
0.040949254
0.039993358
0.039049223
0.038117342
0.037198172
0.036292135
0.035399617
0.034520972
0.033656517
0.032806533
0.031971269
0.031150941
0.030345731
0.029555793
0.028781247
0.028022188
0.027278679
0.026550763
0.025838452
0.02514174
0.024460594
0.023794963
0.023144774
0.022509932
0.021890325
0.02128593
0.064391107
0.063359571
0.062323666
0.061283889
0.060240905
0.059195413
0.058148134
0.057099804
0.056051179
0.055003025
0.053956119
0.052911242
0.051869177
0.050830706
0.049796603
0.048767636
0.047744557
0.046728106
0.045719002
0.044717942
0.043725601
0.042742626
0.041769637
0.040807223
0.039855942
0.038916321
0.037988849
0.037073985
0.036172151
0.035283734
0.034409086
0.033548526
0.032702335
0.031870764
0.031054028
0.030252311
0.029465767
0.028694519
0.027938662
0.027198261
0.026473361
0.025763976
0.0250701
0.024391707
0.023728747
0.023081152
0.022448836
0.021831705
0.021229771
0.064093751
0.06306975
0.062041268
0.061008802
0.059973011
0.058934592
0.057894266
0.056852771
0.055810866
0.054769317
0.053728904
0.052690409
0.051654617
0.050622308
0.049594259
0.048571237
0.047553995
0.046543272
0.045539787
0.044544238
0.043557298
0.042579615
0.041611807
0.040654465
0.039708146
0.038773374
0.037850642
0.036940406
0.03604309
0.035159079
0.034288728
0.033432354
0.032590241
0.031762638
0.030949762
0.0301518
0.029368905
0.028601201
0.027848785
0.027111725
0.026390065
0.025683825
0.024993
0.024317565
0.023657475
0.023012669
0.022383067
0.021768584
0.02116925
0.063774638
0.062758758
0.061738249
0.060713623
0.059685542
0.058654703
0.057621829
0.056587662
0.05555296
0.054518494
0.053485043
0.052453392
0.051424325
0.050398626
0.04937707
0.048360425
0.047349444
0.046344866
0.045347409
0.044357772
0.043376626
0.04240462
0.041442372
0.040490471
0.039549474
0.038619906
0.037702258
0.036796988
0.035904518
0.035025236
0.034159495
0.033307612
0.032469873
0.031646528
0.030837794
0.03004386
0.029264878
0.028500977
0.027752253
0.027018777
0.026300595
0.025597728
0.024910174
0.024237913
0.023580903
0.022939086
0.022312389
0.021700734
0.021104155
0.063432826
0.062425648
0.061413679
0.060397444
0.059377612
0.058354883
0.057329983
0.056303656
0.055276663
0.054249778
0.05322378
0.052199455
0.051177589
0.050158966
0.049144362
0.048134545
0.047130268
0.04613227
0.045141269
0.044157962
0.043183022
0.042217096
0.041260801
0.040314727
0.039379431
0.038455436
0.037543234
0.036643282
0.035756004
0.034881785
0.034020981
0.033173909
0.032340854
0.031522069
0.030717772
0.02992815
0.029153361
0.028393532
0.027648762
0.026919124
0.026204666
0.025505411
0.024821361
0.024152497
0.023498783
0.022860163
0.02223657
0.02162793
0.021034276
0.06306736
0.062069477
0.061066632
0.060059362
0.05904834
0.058034273
0.05701789
0.055999939
0.054981183
0.053962396
0.052944361
0.051927865
0.050913695
0.049902635
0.048895462
0.047892943
0.046895833
0.045904869
0.044920769
0.04394423
0.042975924
0.042016498
0.041066569
0.040126725
0.039197523
0.038279487
0.037373107
0.036478842
0.035597113
0.034728309
0.033872783
0.033030854
0.032202809
0.031388899
0.030589345
0.029804335
0.029034027
0.028278551
0.027538008
0.026812473
0.026101995
0.025406601
0.024726296
0.024061063
0.023410868
0.022775663
0.02215538
0.021549949
0.020959403
0.062677292
0.061689314
0.060696198
0.059698484
0.058696857
0.057692026
0.056684725
0.055675705
0.054665733
0.053655584
0.052646044
0.0516379
0.05063194
0.049628949
0.048629705
0.047634975
0.046645512
0.045662054
0.044685319
0.043716003
0.042754778
0.041802289
0.040859154
0.03992596
0.039003263
0.038091587
0.037191422
0.036303226
0.035427421
0.034564396
0.033714504
0.032878065
0.032055365
0.031246659
0.030452167
0.029672078
0.028906554
0.028155724
0.027419692
0.026698535
0.025992305
0.02530103
0.024624719
0.023963359
0.023316918
0.02268535
0.022068592
0.021466574
0.020879331
0.062261698
0.061284255
0.060301488
0.059313945
0.058322314
0.057327314
0.05632968
0.055330169
0.054329548
0.053328597
0.052328103
0.051328853
0.050331638
0.049337242
0.048346443
0.04736001
0.046378694
0.045403233
0.044434345
0.043472724
0.042519043
0.041573946
0.04063805
0.039711941
0.038796175
0.037891275
0.036997733
0.036116004
0.035246511
0.034389643
0.033545754
0.032715165
0.031898162
0.031094999
0.0303059
0.029531056
0.028770627
0.028024747
0.027293521
0.026577027
0.025875322
0.025188435
0.024516378
0.02385914
0.023216694
0.022588996
0.021975986
0.021377595
0.020793858
0.061819686
0.060853426
0.059881649
0.058904908
0.057923897
0.05693934
0.055951979
0.054962572
0.05397189
0.052980716
0.051989837
0.051000043
0.050012125
0.049026868
0.048045051
0.047067439
0.046094787
0.045127832
0.044167289
0.043213854
0.042268197
0.041330962
0.040402765
0.039484193
0.0385758
0.037678109
0.03679161
0.03591676
0.035053982
0.034203664
0.03336616
0.032541792
0.031730848
0.030933583
0.03015022
0.029380953
0.028625944
0.027885328
0.027159213
0.026447679
0.025750784
0.025068562
0.024401027
0.023748171
0.02310997
0.022486383
0.021877351
0.021282809
0.020702792
0.061350414
0.060396001
0.059435873
0.058470582
0.057500832
0.056527351
0.055550885
0.054572196
0.05359206
0.052611259
0.051630583
0.050650825
0.049672774
0.048697218
0.047724933
0.046756688
0.045793234
0.044835308
0.043883626
0.042938881
0.042001744
0.041072858
0.040152837
0.039242267
0.038341703
0.037451666
0.036572647
0.035705102
0.034849453
0.03400609
0.033175367
0.032357605
0.031553095
0.030762091
0.029984819
0.029221473
0.028472218
0.027737191
0.027016501
0.026310231
0.025618443
0.024941172
0.024278435
0.023630228
0.02299653
0.022377301
0.021772487
0.021182024
0.020605949
0.060853103
0.05991122
0.058963412
0.058010238
0.057052406
0.056090648
0.055125717
0.054158377
0.053189407
0.052219593
0.051249726
0.050280598
0.049313002
0.048347724
0.047385541
0.04642722
0.045473514
0.044525158
0.043582866
0.042647333
0.041719226
0.040799188
0.039887833
0.038985746
0.03809348
0.037211557
0.036340467
0.035480664
0.034632573
0.033796581
0.032973045
0.032162286
0.031364594
0.030580227
0.02980941
0.02905234
0.028309183
0.027580078
0.026865137
0.026164446
0.025478068
0.024806042
0.024148388
0.023505105
0.022876175
0.02226156
0.02166121
0.021075063
0.020503159
0.060327057
0.059398397
0.058463598
0.057523219
0.056577975
0.055628604
0.054675861
0.053720516
0.05276335
0.051805151
0.050846711
0.049888825
0.048932284
0.047977876
0.047026377
0.046078555
0.04513516
0.044196927
0.04326457
0.042338782
0.041420229
0.040509553
0.039607367
0.038714255
0.037830769
0.036957431
0.036094729
0.035243119
0.034403024
0.033574832
0.0327589
0.031955549
0.031165072
0.030387726
0.029623738
0.028873307
0.028136601
0.027413761
0.026704901
0.02601011
0.025329453
0.024662974
0.024010694
0.023372616
0.022748725
0.022138987
0.021543354
0.020961767
0.020394269
0.05977168
0.058856948
0.057935855
0.057008963
0.056076989
0.055140678
0.05420079
0.053258098
0.052313385
0.051367441
0.05042106
0.049475039
0.048530168
0.047587234
0.046647015
0.045710276
0.044777768
0.043850225
0.042928359
0.042012861
0.041104397
0.040203608
0.039311105
0.038427471
0.037553257
0.036688985
0.035835142
0.034992184
0.034160533
0.033340578
0.032532676
0.03173715
0.03095429
0.030184358
0.029427582
0.028684161
0.027954267
0.027238041
0.0265356
0.025847037
0.02517242
0.024511795
0.023865187
0.023232601
0.022614027
0.022009434
0.021418777
0.020842
0.02027915
0.059186501
0.05828641
0.057379728
0.05646702
0.055549008
0.05462644
0.053700082
0.05277071
0.051839108
0.05090607
0.049972391
0.049038866
0.048106288
0.047175444
0.046247109
0.045322049
0.044401014
0.043484736
0.042573925
0.041669273
0.040771443
0.039881074
0.038998777
0.038125133
0.037260693
0.036405977
0.035561472
0.034727633
0.033904883
0.03309361
0.032294171
0.031506891
0.030732061
0.029969942
0.029220766
0.028484733
0.027762016
0.027052759
0.026357083
0.025675082
0.025006828
0.024352369
0.023711734
0.023084934
0.022471959
0.021872783
0.021287364
0.020715652
0.020157697
0.058571196
0.057686461
0.056794901
0.055897079
0.054993724
0.054085589
0.053173442
0.052258062
0.051340237
0.050420761
0.049500431
0.048580043
0.047660389
0.046742255
0.045826417
0.044913639
0.044004669
0.043100237
0.042201055
0.04130781
0.040421164
0.039541756
0.038670194
0.037807059
0.0369529
0.036108236
0.035273553
0.034449307
0.033635919
0.032833778
0.032043242
0.031264635
0.03049825
0.02974435
0.029003167
0.028274903
0.027559734
0.026857807
0.026169244
0.025494142
0.024832577
0.0241846
0.023550245
0.022929524
0.022322433
0.021728951
0.021149038
0.020582647
0.020029836
0.057925618
0.057056954
0.056181223
0.055298991
0.054410989
0.053517975
0.052620721
0.051720009
0.050816628
0.049911374
0.049005045
0.048098436
0.047192339
0.04628754
0.045384814
0.044484923
0.043588614
0.042696617
0.041809638
0.040928365
0.040053459
0.039185555
0.038325262
0.037473157
0.036629789
0.035795676
0.034971304
0.034157126
0.033353565
0.03256101
0.031779818
0.031010315
0.030252794
0.029507519
0.028774725
0.028054615
0.027347367
0.02665313
0.025972031
0.025304168
0.02464962
0.024008443
0.023380674
0.02276633
0.02216541
0.021577897
0.021003757
0.020442949
0.019895532
0.057249826
0.056397941
0.055538743
0.054672797
0.05380084
0.052923633
0.052041951
0.051156579
0.050268307
0.049377932
0.048486253
0.047594064
0.046702157
0.045811317
0.044922318
0.04403592
0.043152868
0.042273889
0.04139969
0.040530955
0.039668343
0.038812487
0.037963995
0.037123442
0.036291376
0.035468314
0.03465474
0.033851107
0.033057838
0.032275322
0.031503916
0.030743946
0.029995708
0.029259466
0.028535455
0.027823883
0.027124928
0.026438744
0.025765457
0.025105172
0.02445797
0.02382391
0.023203033
0.022595361
0.022000898
0.021419631
0.020851531
0.020296564
0.019754795
0.056544121
0.055709708
0.054867734
0.054018762
0.053163531
0.052302807
0.051437367
0.050567998
0.049695492
0.048820647
0.04794426
0.047067126
0.046190036
0.045313774
0.04443911
0.043566805
0.0426976
0.041832221
0.040971373
0.040115736
0.039265968
0.038422701
0.037586538
0.036758055
0.035937798
0.035126281
0.034323989
0.033531375
0.032748859
0.031976831
0.031215649
0.03046564
0.029727099
0.029000293
0.028285459
0.027582806
0.026892514
0.02621474
0.025549614
0.024897243
0.02425771
0.023631081
0.0230174
0.022416692
0.021828967
0.021254218
0.020692423
0.020143554
0.019607682
0.055809078
0.054992814
0.054168735
0.053337405
0.052499565
0.051655984
0.050807441
0.049954725
0.049098629
0.048239949
0.047379484
0.046518028
0.04565637
0.044795291
0.043935562
0.043077939
0.042223162
0.041371954
0.040525017
0.039683029
0.038846647
0.038016498
0.037193185
0.036377281
0.035569331
0.034769847
0.033979314
0.033198182
0.032426873
0.031665776
0.030915249
0.030175619
0.029447184
0.028730211
0.028024939
0.027331578
0.026650313
0.025981302
0.025324677
0.024680549
0.024049006
0.023430116
0.022823926
0.022230468
0.021649757
0.021081792
0.020526559
0.019984037
0.019454311
0.055045591
0.054248122
0.053442586
0.052629541
0.051809732
0.050983931
0.050152918
0.049317482
0.048478418
0.047636521
0.046792589
0.045947414
0.045101784
0.044256478
0.043412264
0.042569895
0.04173011
0.040893628
0.040061147
0.039233345
0.038410874
0.03759436
0.036784402
0.035981573
0.035186413
0.034399437
0.033621124
0.032851928
0.032092266
0.03134253
0.030603076
0.029874234
0.029156302
0.028449547
0.027754212
0.027070508
0.026398623
0.025738716
0.025090924
0.02445536
0.023832116
0.023221263
0.022622853
0.022036922
0.021463489
0.020902561
0.020354134
0.0198182
0.01929486
0.054254912
0.053476851
0.052690468
0.051896318
0.051095149
0.050287732
0.049474851
0.048657294
0.047835855
0.04701133
0.046184513
0.045356197
0.044527166
0.043698196
0.042870053
0.042043488
0.041219235
0.04039801
0.03958051
0.038767407
0.037959351
0.037156966
0.03636085
0.03557157
0.034789667
0.034015652
0.033250005
0.032493176
0.031745586
0.031007622
0.030279645
0.029561981
0.028854932
0.028158767
0.027473728
0.02680003
0.026137862
0.025487388
0.024848746
0.024222054
0.023607406
0.023004876
0.022414521
0.021836379
0.021270475
0.020716822
0.020175425
0.019646297
0.019129575
0.053438702
0.052680614
0.05191395
0.051139263
0.050357299
0.049568832
0.048774644
0.047975525
0.047172268
0.046365666
0.045556513
0.044745597
0.043933701
0.043121599
0.042310051
0.041499805
0.040691593
0.039886127
0.0390841
0.038286181
0.037493017
0.036705229
0.03592341
0.035148128
0.03437992
0.033619295
0.032866733
0.032122682
0.031387561
0.03066176
0.029945637
0.029239522
0.028543715
0.027858487
0.027184083
0.02652072
0.02586859
0.025227858
0.024598667
0.023981136
0.023375364
0.022781428
0.022199387
0.021629281
0.021071138
0.020524974
0.019990801
0.01946866
0.01895876
0.052599076
0.05186147
0.051115038
0.050360326
0.049598081
0.048829076
0.048054095
0.047273926
0.046489358
0.045701186
0.044910198
0.04411718
0.043322913
0.042528164
0.041733693
0.040940243
0.040148541
0.039359296
0.038573197