/*--------------------------------*- C++ -*----------------------------------*\
| =========                 |                                                 |
| \\      /  F ield         | OpenFOAM: The Open Source CFD Toolbox           |
|  \\    /   O peration     | Version:  2312                                  |
|   \\  /    A nd           | Website:  www.openfoam.com                      |
|    \\/     M anipulation  |                                                 |
\*---------------------------------------------------------------------------*/
FoamFile
{
    version     2.0;
    format      ascii;
    arch        "LSB;label=32;scalar=64";
    class       volScalarField;
    location    "0.09";
    object      H2O;
}
// * * * * * * * * * * * * * * * * * * * * * * * * * * * * * * * * * * * * * //

dimensions      [0 0 0 0 0 0 0];

internalField   nonuniform List<scalar> 
3251
(
0.018933732
0.018699729
0.018464422
0.018227845
0.017990042
0.017751067
0.017510988
0.017269882
0.017027836
0.016784944
0.016541311
0.016297049
0.016052275
0.015807115
0.015561698
0.01531616
0.015070639
0.014825276
0.014580216
0.014335603
0.014091582
0.013848301
0.013605904
0.013364535
0.013124335
0.012885443
0.012647995
0.012412125
0.01217796
0.011945624
0.011715238
0.011486915
0.011260766
0.011036895
0.0108154
0.010596377
0.010379912
0.010166089
0.0099549858
0.0097466741
0.0095412214
0.0093386897
0.0091391364
0.0089426144
0.0087491719
0.008558853
0.0083716982
0.008187744
0.0080070241
0.0078295697
0.00765541
0.0074845723
0.0073171023
0.0071530101
0.0069922941
0.006834975
0.0066810735
0.0065306135
0.018932037
0.018698074
0.018462801
0.018226258
0.017988489
0.017749547
0.017509502
0.017268428
0.017026414
0.016783553
0.016539951
0.016295719
0.016050976
0.015805846
0.015560459
0.01531495
0.015069458
0.014824124
0.014579092
0.014334506
0.014090514
0.013847261
0.013604891
0.013363548
0.013123375
0.01288451
0.012647089
0.012411244
0.012177105
0.011944795
0.011714434
0.011486136
0.011260012
0.011036166
0.010814696
0.010595696
0.010379256
0.010165457
0.0099543773
0.0097460891
0.0095406596
0.009338151
0.0091386207
0.0089421214
0.0087487016
0.0085584053
0.0083712729
0.0081873411
0.0080066438
0.0078292119
0.007655075
0.0074842611
0.0073168054
0.0071527225
0.006992019
0.0068347125
0.0066808219
0.00653038
0.018928682
0.018694797
0.018459598
0.018223126
0.017985426
0.017746553
0.017506574
0.017265566
0.017023616
0.016780819
0.016537279
0.016293109
0.016048425
0.015803355
0.015558026
0.015312575
0.01506714
0.014821862
0.014576885
0.014332355
0.014088417
0.013845216
0.013602899
0.013361609
0.013121487
0.012882672
0.012645301
0.012409506
0.012175415
0.011943153
0.01171284
0.011484589
0.011258511
0.01103471
0.010813285
0.01059433
0.010377934
0.010164178
0.0099531406
0.0097448944
0.0095395062
0.0093370384
0.0091375482
0.0089410885
0.0087477077
0.0085574499
0.0083703555
0.0081864613
0.0080058011
0.0078284059
0.0076543049
0.0074835262
0.007316099
0.0071520405
0.006991362
0.0068340797
0.0066802101
0.0065297867
0.018923672
0.018689904
0.018454815
0.018218451
0.017980856
0.017742086
0.017502208
0.017261299
0.017019446
0.016776744
0.016533298
0.016289219
0.016044627
0.015799645
0.015554404
0.015309039
0.015063689
0.014818495
0.0145736
0.014329151
0.014085293
0.013842172
0.013599933
0.013358719
0.013118673
0.012879933
0.012642635
0.012406913
0.012172894
0.011940702
0.011710458
0.011482276
0.011256265
0.011032531
0.010811171
0.01059228
0.010375947
0.010162253
0.0099512774
0.0097430913
0.0095377624
0.0093353528
0.0091359199
0.0089395164
0.0087461909
0.0085559874
0.0083689464
0.0081851048
0.0080044961
0.0078271515
0.0076530998
0.0074823682
0.0073149833
0.0071509633
0.0069903223
0.0068330762
0.0066792384
0.0065288226
0.01891701
0.018683397
0.018448457
0.018212237
0.017974783
0.017736151
0.017496408
0.017255631
0.017013907
0.016771332
0.016528011
0.016284054
0.016039582
0.015794718
0.015549594
0.015304344
0.015059106
0.014814023
0.014569238
0.014324897
0.014081145
0.013838129
0.013595993
0.013354881
0.013114935
0.012876293
0.012639093
0.012403466
0.012169542
0.011937443
0.01170729
0.011479198
0.011253276
0.011029628
0.010808354
0.010589548
0.010373297
0.010159685
0.0099487886
0.009740681
0.0095354292
0.0093330952
0.0091337365
0.008937406
0.0087441519
0.0085540185
0.0083670464
0.0081832721
0.0080027295
0.0078254494
0.0076514602
0.0074807886
0.0073134592
0.0071494911
0.0069889001
0.0068317026
0.006677912
0.018909176
0.018675744
0.018440979
0.01820493
0.017967642
0.017729172
0.017489588
0.017248967
0.017007396
0.016764971
0.016521796
0.016277984
0.016033653
0.015788929
0.015543942
0.015298826
0.015053721
0.014808769
0.014564112
0.014319898
0.014076271
0.013833377
0.013591362
0.013350369
0.013110541
0.012872015
0.012634929
0.012399414
0.012165599
0.011933609
0.011703563
0.011475576
0.011249757
0.011026211
0.010805037
0.010586329
0.010370174
0.010156657
0.0099458534
0.0097378371
0.0095326747
0.0093304285
0.0091311559
0.0089349096
0.0087417382
0.0085516859
0.008364793
0.0081810964
0.0080006297
0.0078234235
0.007649506
0.0074789032
0.0073116386
0.0071477318
0.0069871995
0.0068300597
0.0066763414
0.018900408
0.018667178
0.018432609
0.018196752
0.017959651
0.017721363
0.017481958
0.017241511
0.017000111
0.016757853
0.016514843
0.016271192
0.01602702
0.015782452
0.015537618
0.015292653
0.015047697
0.014802891
0.014558378
0.014314305
0.014070818
0.013828061
0.013586182
0.013345322
0.013105624
0.012867228
0.012630269
0.012394879
0.012161187
0.011929318
0.011699391
0.011471521
0.011245818
0.011022385
0.010801322
0.010582722
0.010366675
0.010153263
0.009942563
0.0097346479
0.0095295849
0.0093274361
0.0091282589
0.0089321062
0.0087390263
0.0085490636
0.0083622585
0.0081786477
0.0079982648
0.0078211402
0.0076473017
0.0074767749
0.0073095826
0.0071457443
0.0069852776
0.0068282012
0.0066745551
0.018890018
0.018657028
0.018422693
0.018187062
0.017950183
0.017712112
0.017472917
0.017232677
0.01699148
0.016749422
0.016506606
0.016263147
0.016019163
0.01577478
0.015530128
0.015285342
0.015040561
0.014795928
0.014551586
0.014307681
0.014064358
0.013821765
0.013580045
0.013339343
0.0130998
0.012861557
0.012624747
0.012389506
0.01215596
0.011924234
0.011694448
0.011466716
0.011241148
0.011017849
0.010796917
0.010578446
0.010362526
0.010149237
0.0099386593
0.0097308636
0.0095259175
0.0093238834
0.0091248185
0.0089287758
0.0087358036
0.0085459463
0.0083592442
0.0081757341
0.0079954494
0.0078184205
0.0076446748
0.0074742372
0.0073071301
0.007143373
0.0069829837
0.0068259805
0.0066724017
0.018877889
0.018645178
0.018411115
0.01817575
0.017939129
0.017701311
0.017462364
0.017222366
0.016981406
0.01673958
0.016496992
0.016253757
0.016009993
0.015765825
0.015521385
0.015276808
0.015032233
0.014787802
0.014543658
0.014299949
0.014056819
0.013814415
0.013572882
0.013332364
0.013093002
0.012854936
0.012618303
0.012383233
0.012149857
0.011918298
0.011688675
0.011461105
0.011235695
0.011012551
0.010791772
0.010573452
0.010357678
0.010144534
0.0099340974
0.0097264405
0.0095216304
0.0093197295
0.0091207951
0.00892488
0.0087320328
0.0085422976
0.008355715
0.0081723215
0.0079921507
0.0078152325
0.0076415942
0.0074712601
0.0073042522
0.0071405899
0.0069802908
0.0068233726
0.018863894
0.018631506
0.018397757
0.018162699
0.017926377
0.017688851
0.017450189
0.017210471
0.016969784
0.016728226
0.016485902
0.016242924
0.015999414
0.015755495
0.0155113
0.015266964
0.015022625
0.014778427
0.014534513
0.01429103
0.014048122
0.013805937
0.013564619
0.013324313
0.01308516
0.012847299
0.012610867
0.012375997
0.012142815
0.011911448
0.011682015
0.01145463
0.011229402
0.011006438
0.010785834
0.010567686
0.010352082
0.010139104
0.0099288301
0.0097213327
0.009516679
0.0093149311
0.0091161465
0.0089203781
0.0087276743
0.0085380793
0.0083516337
0.0081683741
0.0079883337
0.0078115426
0.0076380275
0.0074678123
0.0073009185
0.0071373654
0.0069771708
0.0068203578
0.018847902
0.018615883
0.018382494
0.018147785
0.017911805
0.017674613
0.017436277
0.017196878
0.016956504
0.016715253
0.016473229
0.016230547
0.015987327
0.015743693
0.015499778
0.015255716
0.015011649
0.014767717
0.014524065
0.014280839
0.014038185
0.01379625
0.013555178
0.013315114
0.013076199
0.012838573
0.012602372
0.012367728
0.01213477
0.011903622
0.011674404
0.01144723
0.011222211
0.01099945
0.010779047
0.010561096
0.010345685
0.010132896
0.0099228075
0.0097154919
0.0095110161
0.0093094426
0.0091108286
0.0089152271
0.0087226865
0.0085332511
0.0083469613
0.0081638538
0.0079839618
0.0078073151
0.0076339403
0.0074638605
0.0072970967
0.0071336686
0.0069735941
0.018829773
0.018598173
0.018365191
0.01813088
0.017895287
0.017658473
0.017420508
0.017181471
0.016941452
0.016700548
0.016458866
0.016216518
0.015973626
0.015730315
0.015486717
0.015242968
0.014999207
0.014755577
0.014512223
0.014269289
0.014026923
0.013785271
0.013544477
0.013304687
0.013066042
0.012828682
0.012592742
0.012358355
0.012125649
0.011894749
0.011665775
0.011438842
0.011214058
0.010991528
0.010771352
0.010553623
0.01033843
0.010125856
0.009915977
0.0097088669
0.0095045925
0.0093032159
0.0091047948
0.0089093819
0.0087170256
0.0085277703
0.0083416564
0.0081587207
0.0079789962
0.0078025127
0.0076292963
0.0074593696
0.0072927531
0.0071294669
0.0069695362
0.018809362
0.018578233
0.01834571
0.018111846
0.01787669
0.017640302
0.017402754
0.017164125
0.016924505
0.016683993
0.016442694
0.016200724
0.015958202
0.015715254
0.015472014
0.015228616
0.014985201
0.014741911
0.01449889
0.014256286
0.014014244
0.01377291
0.01353243
0.013292949
0.013054608
0.012817546
0.0125819
0.012347802
0.01211538
0.01188476
0.01165606
0.011429396
0.011204877
0.010982607
0.010762686
0.010545208
0.01033026
0.010117926
0.0099082833
0.0097014041
0.0094973557
0.0092962006
0.0090979959
0.0089027948
0.0087106454
0.0085215923
0.0083356758
0.0081529327
0.0079733962
0.0077970959
0.0076240576
0.007454303
0.0072878518
0.007124726
0.018786515
0.018555912
0.018323903
0.018090539
0.017855872
0.017619962
0.01738288
0.017144708
0.016905535
0.016665461
0.016424593
0.016183044
0.015940937
0.015698396
0.015455556
0.015212551
0.014969523
0.014726613
0.014483967
0.014241731
0.014000051
0.013759075
0.013518946
0.01327981
0.013041809
0.012805081
0.012569764
0.012335989
0.012103886
0.011873578
0.011645185
0.011418823
0.011194599
0.010972621
0.010752985
0.010535786
0.010321113
0.010109047
0.0098996681
0.0096930469
0.0094892512
0.0092883433
0.0090903805
0.0088954157
0.0087034975
0.00851467
0.0083289737
0.0081464456
0.0079671189
0.0077910232
0.007618184
0.0074486221
0.0072823559
0.0071194168
0.01876107
0.018531054
0.018299616
0.01806681
0.017832687
0.017597308
0.017360746
0.017123083
0.016884408
0.016644823
0.016404433
0.016163355
0.015921709
0.015679622
0.015437227
0.01519466
0.014952063
0.014709577
0.014467348
0.014225522
0.013984246
0.013743667
0.013503929
0.013265178
0.013027555
0.0127912
0.012556249
0.012322834
0.012091084
0.011861124
0.011633073
0.011407046
0.011183152
0.010961497
0.010742179
0.010525291
0.010310923
0.010099157
0.0098900703
0.0096837361
0.0094802213
0.0092795882
0.0090818942
0.0088871923
0.0086955307
0.0085069539
0.0083215024
0.008139213
0.0079601193
0.0077842511
0.0076116338
0.0074422866
0.0072762256
0.018732858
0.018503492
0.018272688
0.0180405
0.01780698
0.017572191
0.017336205
0.017099105
0.016860984
0.016621939
0.016382081
0.016141524
0.015900389
0.015658805
0.015416904
0.015174824
0.014932704
0.014690688
0.014448921
0.014207551
0.013966722
0.013726583
0.013487279
0.013248955
0.013011751
0.012775809
0.012541263
0.012308248
0.01207689
0.011847316
0.011619643
0.011393988
0.01117046
0.010949162
0.010730196
0.010513653
0.010299623
0.010088188
0.0098794259
0.0096734094
0.0094702056
0.0092698768
0.0090724804
0.0088780693
0.0086866918
0.0084983924
0.0083132114
0.0081311861
0.0079523501
0.0077767339
0.0076043628
0.0074352551
0.0072694261
0.018701702
0.018473054
0.018242949
0.018011443
0.017778589
0.01754445
0.017309101
0.017072624
0.016835113
0.016596667
0.016357395
0.016117413
0.015876844
0.015635815
0.01539446
0.015152916
0.014911324
0.014669827
0.014428572
0.014187703
0.013947369
0.013707717
0.013468892
0.013231038
0.012994298
0.012758811
0.012524714
0.012292139
0.012061214
0.011832065
0.011604811
0.011379566
0.011156441
0.010935539
0.010716961
0.010500798
0.010287141
0.010076072
0.0098676677
0.0096620018
0.0094591411
0.0092591478
0.0090620796
0.0088679891
0.0086769249
0.0084889312
0.0083040484
0.0081223139
0.0079437619
0.0077684236
0.0075963252
0.0074274846
0.018667417
0.018439557
0.018210222
0.017979466
0.017747345
0.017513922
0.017279273
0.017043482
0.016806642
0.016568854
0.016330227
0.016090879
0.015850932
0.015610515
0.01536976
0.015128807
0.014887796
0.01464687
0.014406177
0.014165861
0.013926072
0.013686955
0.013448656
0.013211321
0.012975091
0.012740105
0.012506501
0.012274411
0.012043963
0.011815283
0.011588488
0.011363695
0.011141013
0.010920547
0.010702394
0.010486651
0.010273404
0.010062736
0.0098547257
0.0096494451
0.0094469615
0.0092473372
0.0090506296
0.0088568916
0.0086661715
0.0084785136
0.0082939583
0.008112543
0.0079343026
0.0077592696
0.0075874726
0.00741894
0.018629809
0.018402814
0.018174322
0.017944389
0.017713071
0.017480433
0.017246552
0.017011512
0.016775409
0.016538343
0.016300424
0.016061771
0.015822507
0.01558276
0.015342665
0.015102359
0.014861985
0.014621687
0.01438161
0.014141901
0.013902708
0.013664179
0.013426459
0.013189692
0.012954021
0.012719586
0.012486523
0.012254964
0.012025039
0.011796872
0.011570582
0.011346285
0.011124089
0.010904099
0.010686415
0.01047113
0.010258332
0.010048105
0.0098405267
0.0096356684
0.0094335981
0.009234378
0.0090380657
0.0088447138
0.0086543708
0.0084670807
0.008282884
0.0081018178
0.0079239179
0.0077492188
0.0075777517
0.007409551
0.018588677
0.018362627
0.018135057
0.017906023
0.017675582
0.017443803
0.017210762
0.016976544
0.016741246
0.016504969
0.016267826
0.016029933
0.015791415
0.015552401
0.015313027
0.01507343
0.014833754
0.014594141
0.014354738
0.014115694
0.013877154
0.013639267
0.013402179
0.013166035
0.012930976
0.012697142
0.012464671
0.012233694
0.012004341
0.011776735
0.011550997
0.011327241
0.011105577
0.010886109
0.010668936
0.010454153
0.010241847
0.010032102
0.0098249943
0.0096205977
0.0094189791
0.0092202007
0.0090243202
0.0088313903
0.0086414592
0.008454571
0.0082707657
0.0080900804
0.0079125512
0.0077382157
0.0075671084
0.0073992569
0.018543813
0.018318792
0.018092226
0.017864172
0.017634689
0.017403845
0.017171719
0.016938398
0.016703978
0.016468563
0.016232264
0.0159952
0.015757497
0.015519283
0.015280696
0.015041872
0.014802956
0.014564091
0.014325425
0.014087105
0.013849278
0.013612092
0.013375694
0.013140228
0.012905837
0.01267266
0.012440834
0.012210492
0.011981762
0.011754769
0.011529633
0.011306468
0.011085383
0.010866484
0.010649869
0.010435633
0.010223863
0.010014643
0.0098080495
0.0096041561
0.0094030298
0.009204733
0.0090093231
0.0088168531
0.008627371
0.0084409207
0.0082575419
0.0080772708
0.0079001433
0.0077262024
0.0075554903
0.018495
0.018271096
0.018045621
0.017818633
0.017590191
0.017360365
0.017129235
0.016896889
0.016663424
0.016428945
0.016193566
0.015957404
0.015720587
0.015483245
0.015245513
0.015007531
0.014769443
0.014531392
0.014293527
0.014055995
0.013818944
0.013582521
0.013346874
0.013112146
0.012878482
0.01264602
0.012414896
0.012185245
0.011957194
0.011730867
0.011506386
0.011283863
0.01106341
0.010845129
0.010629122
0.01041548
0.010204293
0.009995644
0.00978961
0.0095862638
0.009385673
0.0091878997
0.0089930017
0.0088010317
0.0086120379
0.0084260639
0.0082431487
0.0080633271
0.0078866329
0.0077131185
0.0075428575
0.018442013
0.018219321
0.017995029
0.017769196
0.017541883
0.017313161
0.017083111
0.016851824
0.016619396
0.016385934
0.016151552
0.01591637
0.015680515
0.015444118
0.015207315
0.014970247
0.014733058
0.014495892
0.014258896
0.01402222
0.013786011
0.013550417
0.013315585
0.01308166
0.012848784
0.012617098
0.012386738
0.012157836
0.011930522
0.011704919
0.011481148
0.011259324
0.011039555
0.010821947
0.010606598
0.010393602
0.010183048
0.009975018
0.0097695908
0.0095668385
0.0093668286
0.0091696234
0.0089752807
0.0087838533
0.0085953893
0.0084099324
0.0082275207
0.0080481868
0.0078719567
0.018384622
0.018163238
0.017940227
0.017715644
0.017489553
0.017262026
0.017033146
0.016803004
0.016571699
0.016339338
0.016106037
0.015871916
0.015637103
0.01540173
0.015165934
0.014929857
0.014693641
0.014457433
0.01422138
0.013985631
0.013750335
0.013515639
0.01328169
0.013048634
0.012816614
0.012585768
0.012356234
0.012128145
0.011901629
0.011676811
0.01145381
0.011232741
0.011013714
0.010796834
0.010582198
0.010369902
0.010160033
0.0099526746
0.0097479044
0.0095457951
0.0093464141
0.009149824
0.0089560825
0.0087652426
0.0085773525
0.0083924558
0.0082105908
0.0080317884
0.018322588
0.018102615
0.017880986
0.017657754
0.017432983
0.017206747
0.016979131
0.016750226
0.016520134
0.016288964
0.01605683
0.015823856
0.015590169
0.015355904
0.015121197
0.014886189
0.014651026
0.014415854
0.014180821
0.013946075
0.013711765
0.013478041
0.013245048
0.013012932
0.012781835
0.012551899
0.012323259
0.012096048
0.011870395
0.011646425
0.011424257
0.011204006
0.010985781
0.010769687
0.010555823
0.010344282
0.010135154
0.0099285208
0.0097244607
0.0095230462
0.0093243449
0.0091284194
0.0089353275
0.0087451224
0.0085578525
0.0083735619
0.00819229
0.0080140765
0.018472354
0.018255656
0.018037212
0.017817074
0.017595297
0.017371949
0.017147105
0.01692085
0.01669328
0.016464497
0.01623461
0.016003736
0.015771999
0.015539528
0.015306457
0.015072924
0.014839072
0.014605045
0.014370991
0.014137058
0.013903394
0.01367015
0.013437473
0.013205512
0.01297441
0.012744311
0.012515356
0.012287681
0.012061418
0.011836697
0.011613642
0.011392372
0.011173003
0.010955643
0.010740398
0.010527366
0.010316641
0.010108312
0.0099024615
0.0096991673
0.0094985022
0.009300534
0.0091053252
0.0089129339
0.0087234134
0.0085368125
0.0083531758
0.0081725441
0.0079949626
0.018398592
0.018183586
0.017966787
0.017748252
0.01752804
0.017306222
0.017082875
0.016858087
0.016631953
0.016404577
0.016176072
0.015946554
0.015716149
0.015484987
0.015253202
0.015020935
0.014788327
0.014555524
0.014322674
0.014089926
0.013857429
0.013625332
0.013393784
0.013162933
0.012932925
0.012703901
0.012476003
0.012249367
0.012024125
0.011800408
0.011578338
0.011358037
0.011139617
0.01092319
0.010708859
0.010496723
0.010286877
0.010079408
0.0098743997
0.0096719301
0.009472072
0.0092748928
0.0090804556
0.0088888184
0.0087000348
0.0085141539
0.008331221
0.0081512778
0.0079743725
0.018319328
0.018106129
0.017891093
0.017674278
0.017455746
0.017235571
0.017013831
0.016790617
0.016566026
0.016340163
0.016113142
0.015885082
0.015656108
0.015426353
0.015195951
0.014965044
0.014733773
0.014502287
0.014270732
0.014039258
0.013808014
0.013577152
0.013346818
0.013117162
0.012888329
0.012660461
0.0124337
0.012208181
0.011984038
0.0117614
0.01154039
0.011321129
0.011103731
0.010888306
0.010674958
0.010463786
0.010254883
0.010048339
0.0098442369
0.0096426537
0.0094436626
0.0092473315
0.0090537234
0.0088628965
0.0086749045
0.0084897971
0.0083076199
0.0081284154
0.0079522333
0.018234297
0.01802303
0.01780988
0.017594907
0.017378176
0.01715976
0.016939743
0.016718216
0.016495279
0.016271039
0.01604561
0.015819113
0.015591675
0.015363429
0.015134512
0.014905063
0.014675229
0.014445155
0.01421499
0.013984883
0.013754986
0.013525448
0.013296419
0.013068045
0.012840473
0.012613847
0.012388306
0.012163987
0.011941023
0.011719543
0.011499672
0.011281528
0.011065226
0.010850877
0.010638583
0.010428445
0.010220556
0.010015005
0.0098118736
0.0096112414
0.0094131806
0.0092177593
0.0090250404
0.0088350826
0.0086479397
0.0084636616
0.0082822943
0.0081038809
0.0079284719
0.018143239
0.017934034
0.017722899
0.017509895
0.017295087
0.017078554
0.01686038
0.016640659
0.016419492
0.016196988
0.015973263
0.01574844
0.015522648
0.015296018
0.01506869
0.014840806
0.014612509
0.014383949
0.014155273
0.013926633
0.013698178
0.01347006
0.013242427
0.013015429
0.012789209
0.012563913
0.01233968
0.012116647
0.011894946
0.011674708
0.011456056
0.011239109
0.011023982
0.010810785
0.010599622
0.010390592
0.010183788
0.0099793001
0.0097772101
0.0095775964
0.009380532
0.009186085
0.0089943185
0.0088052911
0.0086190571
0.0084356667
0.008255166
0.0080775984
0.0079030153
0.018045891
0.017838885
0.017629899
0.017418995
0.017206241
0.016991717
0.016775511
0.016557718
0.016338442
0.016117794
0.015895891
0.015672858
0.015448823
0.015223923
0.014998295
0.014772082
0.014545431
0.01431849
0.014091407
0.013864335
0.013637424
0.013410825
0.013184687
0.012959159
0.012734387
0.012510514
0.01228768
0.012066023
0.011845675
0.011626765
0.011409417
0.011193751
0.010979881
0.010767917
0.010557963
0.010350117
0.010144475
0.0099411237
0.0097401468
0.0095416223
0.0093456233
0.0091522179
0.0089614695
0.0087734368
0.0085881742
0.0084057322
0.0082261571
0.0080494927
0.0078757909
0.017941997
0.017737331
0.017530633
0.017321965
0.017111399
0.016899016
0.016684908
0.016469171
0.016251912
0.016033243
0.015813284
0.01559216
0.015370002
0.015146947
0.014923133
0.014698706
0.014473812
0.0142486
0.014023219
0.013797822
0.01357256
0.013347583
0.013123042
0.012899085
0.012675859
0.012453506
0.012232167
0.012011979
0.011793075
0.011575584
0.01135963
0.011145331
0.010932804
0.010722157
0.010513494
0.010306914
0.010102511
0.009900374
0.0097005855
0.0095032239
0.0093083622
0.0091160686
0.0089264067
0.0087394354
0.0085552094
0.0083737791
0.0081951912
0.0080194897
0.0078467272
0.017831306
0.017629126
0.01742486
0.017218568
0.017010328
0.016800223
0.016588346
0.016374798
0.016159686
0.015943125
0.015725236
0.015506146
0.015285988
0.015064899
0.01484302
0.014620496
0.014397475
0.014174105
0.013950539
0.013726928
0.013503424
0.013280177
0.013057339
0.012835058
0.012613479
0.012392748
0.012173003
0.011954383
0.011737019
0.011521041
0.011306573
0.011093733
0.010882637
0.010673393
0.010466107
0.010260876
0.010057795
0.0098569522
0.0096584304
0.0094623081
0.0092686584
0.0090775497
0.0088890455
0.008703205
0.0085200831
0.0083397303
0.0081621937
0.0079875172
0.0078157544
0.017713576
0.017514032
0.017312344
0.017108574
0.016902803
0.016695117
0.016485611
0.016274388
0.016061557
0.015847236
0.015631548
0.015414622
0.01519659
0.014977593
0.014757772
0.014537273
0.014316245
0.014094838
0.013873203
0.013651493
0.01342986
0.013208456
0.01298743
0.012766933
0.01254711
0.012328104
0.012110057
0.011893105
0.011677381
0.011463014
0.011250127
0.011038841
0.010829268
0.010621519
0.010415698
0.010211903
0.010010229
0.0098107628
0.009613589
0.0094187853
0.0092264251
0.0090365769
0.0088493042
0.0086646665
0.0084827187
0.0083035117
0.0081270927
0.0079535058
0.0077828055
0.017588577
0.017391823
0.017192864
0.016991766
0.016788611
0.016583487
0.016376495
0.016167737
0.015957327
0.015745384
0.015532031
0.015317401
0.015101628
0.014884852
0.014667217
0.01444887
0.014229959
0.014010636
0.013791054
0.013571364
0.01335172
0.013132274
0.012913175
0.012694574
0.012476616
0.012259445
0.012043203
0.011828024
0.011614043
0.011401388
0.011190182
0.010980546
0.010772592
0.010566432
0.010362167
0.010159898
0.0099597181
0.0097617155
0.0095659736
0.0093725707
0.0091815801
0.0089930705
0.0088071057
0.0086237451
0.0084430439
0.0082650533
0.0080898204
0.0079173899
0.0077478172
0.017456095
0.017262288
0.017066214
0.016867939
0.01666755
0.016465139
0.016260805
0.016054658
0.015846811
0.015637386
0.015426508
0.015214311
0.015000932
0.014786511
0.014571194
0.014355128
0.014138463
0.013921351
0.013703946
0.013486399
0.013268865
0.013051496
0.012834442
0.012617853
0.012401874
0.012186651
0.011972322
0.011759026
0.011546894
0.011336055
0.011126633
0.010918747
0.010712512
0.010508036
0.010305423
0.010104772
0.0099061772
0.0097097263
0.0095155029
0.0093235854
0.0091340471
0.0089469568
0.0087623784
0.0085803715
0.0084009917
0.0082242901
0.0080503142
0.007879109
0.0077107309
0.017315939
0.017125238
0.016932206
0.016736911
0.016539441
0.016339893
0.016138369
0.015934979
0.015729841
0.015523078
0.015314818
0.015105195
0.014894348
0.014682419
0.014469555
0.014255903
0.014041616
0.013826846
0.013611745
0.013396469
0.01318117
0.012966
0.012751112
0.012536654
0.012322772
0.01210961
0.011897309
0.011686006
0.011475833
0.011266918
0.011059386
0.010853354
0.010648938
0.010446246
0.010245382
0.010046445
0.0098495278
0.0096547199
0.0094621041
0.0092717589
0.0090837577
0.0088981694
0.0087150582
0.0085344838
0.0083565019
0.0081811641
0.008008518
0.0078386088
0.0076714943
0.017167942
0.016980509
0.016790678
0.01659852
0.016404126
0.016207595
0.016009032
0.015808551
0.015606271
0.015402317
0.015196819
0.014989914
0.014781741
0.014572445
0.014362172
0.014151072
0.013939297
0.013727001
0.013514337
0.01330146
0.013088524
0.01287568
0.012663081
0.012450876
0.012239211
0.012028229
0.011818073
0.011608877
0.011400774
0.011193894
0.010988358
0.010784287
0.010581794
0.010380988
0.010181972
0.0099848463
0.0097897031
0.0095966313
0.0094057142
0.0092170303
0.0090306531
0.0088466516
0.0086650901
0.0084860288
0.0083095233
0.0081356256
0.0079643837
0.0077958431
0.0076300627
0.01701197
0.016827967
0.016641499
0.016452638
0.016261477
0.016068119
0.015872672
0.015675252
0.015475981
0.015274985
0.015072398
0.014868356
0.014663002
0.01445648
0.014248939
0.01404053
0.013831406
0.01362172
0.013411627
0.013201281
0.012990837
0.012780448
0.012570265
0.012360437
0.012151111
0.011942431
0.011734537
0.011527565
0.011321648
0.011116914
0.010913486
0.010711483
0.010511019
0.010312202
0.010115137
0.0099199214
0.0097266492
0.0095354086
0.0093462831
0.0091593511
0.0089746864
0.008792358
0.0086124304
0.0084349641
0.008260015
0.0080876353
0.0079178733
0.0077507751
0.0075864008
0.016847927
0.016667518
0.016484574
0.016299169
0.0161114
0.015921372
0.015729197
0.015534992
0.015338882
0.015140995
0.014941468
0.014740437
0.014538048
0.014334446
0.01412978
0.013924203
0.013717868
0.01351093
0.013303543
0.013095863
0.012888045
0.01268024
0.012472601
0.012265277
0.012058415
0.011852159
0.011646647
0.011442018
0.011238402
0.011035929
0.01083472
0.010634896
0.010436568
0.010239847
0.010044835
0.0098516308
0.0096603281
0.0094710153
0.0092837755
0.0090986875
0.0089158249
0.0087352571
0.0085570488
0.0083812605
0.0082079487
0.0080371658
0.0078689606
0.0077033797
0.0075404844
0.016675765
0.016499111
0.016319852
0.016138063
0.015953844
0.015767304
0.015578555
0.01538772
0.015194924
0.015000299
0.014803981
0.014606111
0.014406833
0.014206296
0.01400465
0.013802047
0.013598643
0.013394591
0.013190048
0.012985169
0.012780109
0.01257502
0.012370056
0.012165364
0.011961091
0.011757382
0.011554375
0.011352208
0.011151011
0.010950913
0.010752038
0.010554502
0.01035842
0.0101639
0.0099710453
0.0097799547
0.0095907213
0.0094034334
0.0092181745
0.0090350231
0.0088540532
0.0086753341
0.0084989309
0.0083249043
0.0081533113
0.0079842046
0.0078176336
0.0076536454
0.0074923028
0.016495487
0.016322749
0.016147334
0.015969319
0.015788808
0.01560591
0.015420744
0.015233432
0.015044103
0.01485289
0.014659932
0.01446537
0.014269352
0.014072026
0.013873543
0.013674058
0.013473724
0.013272699
0.013071137
0.012869195
0.012667027
0.012464787
0.012262627
0.012060695
0.011859139
0.0116581
0.011457721
0.011258135
0.011059475
0.010861869
0.010665439
0.010470304
0.010276576
0.010084364
0.0098937718
0.0097048968
0.0095178325
0.0093326671
0.0091494842
0.0089683624
0.0087893757
0.0086125936
0.0084380814
0.0082659003
0.0080961074
0.0079287563
0.0077638968
0.0076015768
0.0074418607
0.016307163
0.016138496
0.015967081
0.015792996
0.015616347
0.015437246
0.015255815
0.015072178
0.014886467
0.014698816
0.014509366
0.014318261
0.014125648
0.013931677
0.013736501
0.013540275
0.013343153
0.013145292
0.012946849
0.012747979
0.012548837
0.012349578
0.012150351
0.011951307
0.011752592
0.011554349
0.011356718
0.011159834
0.010963828
0.010768829
0.010574958
0.010382334
0.010191069
0.010001272
0.0098130453
0.0096264875
0.0094416916
0.0092587459
0.0090777338
0.0088987339
0.0087218203
0.0085470629
0.0083745271
0.0082042743
0.0080363623
0.0078708453
0.0077077739
0.0075471972
0.007389181
0.016110933
0.015946489
0.015779226
0.015609222
0.015436584
0.015261431
0.015083884
0.014904071
0.014722125
0.014538183
0.014352388
0.014164884
0.01397582
0.013785347
0.013593619
0.013400791
0.013207019
0.01301246
0.012817271
0.012621606
0.012425623
0.012229473
0.012033309
0.011837279
0.01164153
0.011446205
0.011251442
0.011057377
0.010864142
0.010671863
0.010480663
0.010290659
0.010101965
0.0099146868
0.0097289288
0.0095447886
0.0093623593
0.0091817289
0.0090029809
0.008826194
0.0086514424
0.0084787959
0.0083083202
0.0081400773
0.0079741253
0.0078105193
0.0076493109
0.0074905508
0.0073343072
0.015907023
0.015746947
0.01558398
0.015418201
0.015249721
0.015078659
0.01490514
0.014729295
0.014551258
0.014371168
0.014189168
0.014005406
0.013820031
0.013633195
0.013445053
0.013255761
0.013065474
0.01287435
0.012682546
0.012490218
0.012297521
0.012104608
0.011911632
0.011718739
0.011526078
0.011333789
0.011142012
0.010950883
0.010760531
0.010571084
0.010382664
0.010195388
0.010009368
0.0098247119
0.0096415227
0.0094598981
0.009279931
0.0091017094
0.0089253167
0.0087508316
0.0085783283
0.0084078767
0.0082395428
0.0080733887
0.0079094733
0.0077478522
0.0075885788
0.007431706
0.007277306
0.015695755
0.015540182
0.015381648
0.015220231
0.015056045
0.014889212
0.014719859
0.014548119
0.014374127
0.014198025
0.014019957
0.013840072
0.013658521
0.013475455
0.013291031
0.013105405
0.012918733
0.012731173
0.012542882
0.012354016
0.01216473
0.011975177
0.011785509
0.011595873
0.011406416
0.01121728
0.011028603
0.01084052
0.010653162
0.010466654
0.010281119
0.010096673
0.0099134285
0.0097314933
0.0095509696
0.009371955
0.0091945423
0.0090188196
0.0088448699
0.0086727721
0.0085026003
0.0083344245
0.0081683107
0.008004321
0.0078425147
0.0076829484
0.0075256771
0.0073707576
0.0072182696
0.015477558
0.015326614
0.015172638
0.01501571
0.014855946
0.01469347
0.014528411