/*--------------------------------*- C++ -*----------------------------------*\
| =========                 |                                                 |
| \\      /  F ield         | OpenFOAM: The Open Source CFD Toolbox           |
|  \\    /   O peration     | Version:  2312                                  |
|   \\  /    A nd           | Website:  www.openfoam.com                      |
|    \\/     M anipulation  |                                                 |
\*---------------------------------------------------------------------------*/
FoamFile
{
    version     2.0;
    format      ascii;
    arch        "LSB;label=32;scalar=64";
    class       volScalarField;
    location    "0.09";
    object      O2;
}
// * * * * * * * * * * * * * * * * * * * * * * * * * * * * * * * * * * * * * //

dimensions      [0 0 0 0 0 0 0];

internalField   nonuniform List<scalar> 
3251
(
0.18114853
0.18181904
0.18249244
0.18316853
0.18384709
0.18452786
0.18521055
0.18589487
0.18658049
0.18726707
0.18795424
0.18864164
0.18932887
0.19001553
0.19070122
0.19138552
0.19206803
0.19274832
0.19342598
0.1941006
0.19477176
0.19543907
0.19610213
0.19676056
0.19741398
0.19806205
0.1987044
0.19934072
0.19997068
0.20059399
0.20121035
0.20181952
0.20242123
0.20301526
0.20360138
0.20417941
0.20474916
0.20531047
0.20586319
0.20640718
0.20694234
0.20746855
0.20798572
0.20849378
0.20899267
0.20948232
0.2099627
0.21043377
0.21089548
0.21134783
0.21179076
0.21222426
0.21264817
0.21306255
0.21346757
0.21386322
0.21424949
0.21462634
0.18115283
0.18182323
0.18249653
0.18317252
0.18385098
0.18453165
0.18521425
0.18589848
0.18658401
0.1872705
0.18795758
0.18864489
0.18933203
0.19001861
0.19070421
0.19138844
0.19207086
0.19275107
0.19342866
0.19410319
0.19477428
0.19544151
0.19610449
0.19676285
0.1974162
0.1980642
0.19870648
0.19934273
0.19997262
0.20059586
0.20121216
0.20182126
0.2024229
0.20301687
0.20360293
0.2041809
0.20475059
0.20531183
0.20586449
0.20640843
0.20694352
0.20746968
0.20798679
0.2084948
0.20899363
0.20948323
0.20996355
0.21043455
0.21089621
0.21134849
0.21179136
0.21222479
0.21264869
0.2130631
0.21346812
0.21386377
0.21425004
0.21462685
0.1811615
0.18183169
0.18250479
0.18318058
0.18385884
0.18453932
0.18522173
0.18590578
0.18659112
0.18727743
0.18796434
0.18865148
0.18933845
0.19002486
0.1907103
0.19139437
0.19207663
0.19275669
0.19343411
0.1941085
0.19477943
0.19544652
0.19610936
0.19676757
0.19742078
0.19806864
0.19871079
0.1993469
0.19997666
0.20059977
0.20121595
0.20182492
0.20242644
0.20302029
0.20360623
0.20418408
0.20475366
0.20531479
0.20586734
0.20641117
0.20694616
0.20747221
0.20798922
0.20849713
0.20899585
0.20948535
0.20996558
0.21043648
0.21089804
0.21135022
0.211793
0.21222634
0.21265019
0.21306458
0.21346957
0.21386519
0.21425144
0.21462822
0.18117455
0.18184442
0.18251721
0.18319271
0.18387068
0.18455087
0.185233
0.18591676
0.18660184
0.18728788
0.18797453
0.1886614
0.18934812
0.19003428
0.19071948
0.1914033
0.19208533
0.19276515
0.19344235
0.19411651
0.19478722
0.19545409
0.19611671
0.19677472
0.19742772
0.19807537
0.19871732
0.19935324
0.19998281
0.20060572
0.20122171
0.2018305
0.20243185
0.20302551
0.20361128
0.20418897
0.20475837
0.20531935
0.20587174
0.20641541
0.20695024
0.20747614
0.20799301
0.20850077
0.20899935
0.20948871
0.20996879
0.21043957
0.21090099
0.21135304
0.21179569
0.21222892
0.21265268
0.21306701
0.21347194
0.21386749
0.21425368
0.21463049
0.18119197
0.18186142
0.1825338
0.18320889
0.18388647
0.18456627
0.18524803
0.18593142
0.18661614
0.18730182
0.18798812
0.18867466
0.18936104
0.19004687
0.19073174
0.19141524
0.19209696
0.19277647
0.19345336
0.19412722
0.19479764
0.19546422
0.19612656
0.19678428
0.19743701
0.19808439
0.19872608
0.19936173
0.19999105
0.20061371
0.20122946
0.20183801
0.20243911
0.20303255
0.20361809
0.20419555
0.20476474
0.2053255
0.20587768
0.20642114
0.20695578
0.20748148
0.20799815
0.20850572
0.20900412
0.2094933
0.20997321
0.2104438
0.21090506
0.21135694
0.21179944
0.21223252
0.21265616
0.21307038
0.21347521
0.21387066
0.21425675
0.1812125
0.18188146
0.18255335
0.18322797
0.18390508
0.18458444
0.18526575
0.18594871
0.186633
0.18731827
0.18800416
0.18869029
0.18937627
0.19006171
0.1907462
0.19142933
0.19211067
0.19278982
0.19346636
0.19413987
0.19480994
0.19547618
0.19613818
0.19679558
0.19744799
0.19809505
0.19873642
0.19937177
0.20000079
0.20062316
0.20123862
0.20184688
0.20244771
0.20304087
0.20362615
0.20420335
0.20477229
0.20533279
0.20588473
0.20642796
0.20696236
0.20748783
0.20800428
0.20851163
0.20900982
0.20949879
0.20997849
0.21044888
0.21090994
0.21136164
0.21180396
0.21223687
0.21266037
0.21307446
0.21347916
0.21387449
0.21426037
0.18123551
0.18190391
0.18257526
0.18324935
0.18392595
0.1846048
0.18528561
0.18596809
0.1866519
0.1873367
0.18802213
0.18870781
0.18939335
0.19007835
0.19076241
0.19144512
0.19212605
0.19280479
0.19348093
0.19415404
0.19482373
0.19548959
0.19615122
0.19680825
0.1974603
0.19810701
0.19874804
0.19938305
0.20001172
0.20063377
0.2012489
0.20185686
0.20245738
0.20305024
0.20363522
0.20421212
0.20478078
0.20534101
0.20589267
0.20643563
0.20696977
0.20749499
0.20801119
0.2085183
0.20901625
0.20950499
0.20998446
0.21045464
0.21091548
0.21136697
0.21180909
0.21224182
0.21266515
0.21307909
0.21348365
0.21387883
0.21426453
0.1812628
0.18193054
0.18260125
0.18327471
0.1839507
0.18462894
0.18530917
0.18599107
0.18667431
0.18735856
0.18804344
0.18872859
0.1894136
0.19009809
0.19078165
0.19146385
0.1921443
0.19282256
0.19349822
0.19417087
0.1948401
0.19550551
0.1961667
0.19682329
0.19747492
0.19812121
0.19876182
0.19939643
0.20002471
0.20064637
0.20126113
0.20186871
0.20246886
0.20306136
0.20364599
0.20422256
0.20479088
0.20535078
0.20590212
0.20644477
0.2069786
0.20750352
0.20801943
0.20852625
0.20902392
0.20951239
0.2099916
0.21046151
0.21092211
0.21137336
0.21181524
0.21224775
0.21267088
0.21308464
0.21348903
0.21388404
0.21426957
0.18129468
0.18196166
0.18263162
0.18330435
0.18397961
0.18465716
0.1853367
0.18601792
0.18670051
0.1873841
0.18806835
0.18875287
0.18943728
0.19012116
0.19080413
0.19148575
0.19216562
0.19284332
0.19351843
0.19419053
0.19485923
0.19552411
0.19618479
0.19684088
0.19749201
0.19813781
0.19877795
0.19941209
0.20003991
0.20066112
0.20127543
0.20188257
0.2024823
0.20307439
0.20365861
0.20423478
0.2048027
0.20536222
0.20591319
0.20645547
0.20698895
0.20751352
0.20802909
0.20853558
0.20903293
0.20952108
0.20999998
0.2104696
0.2109299
0.21138087
0.21182248
0.21225474
0.21267764
0.21309117
0.21349536
0.21389017
0.1813315
0.18199759
0.18266668
0.18333856
0.184013
0.18468973
0.18536848
0.18604893
0.18673075
0.1874136
0.18809711
0.18878091
0.18946461
0.1901478
0.19083008
0.19151103
0.19219024
0.19286729
0.19354177
0.19421325
0.19488133
0.19554561
0.19620569
0.1968612
0.19751175
0.19815699
0.19879658
0.19943017
0.20005746
0.20067815
0.20129195
0.2018986
0.20249784
0.20308944
0.2036732
0.2042489
0.20481638
0.20537546
0.205926
0.20646786
0.20700093
0.20752509
0.20804027
0.20854638
0.20904336
0.20953115
0.2100097
0.21047897
0.21093894
0.21138959
0.2118309
0.21226286
0.21268549
0.21309877
0.2135027
0.21389725
0.18137358
0.18203866
0.18270676
0.18337768
0.18405117
0.18472698
0.18540482
0.18608437
0.18676533
0.18744732
0.18813
0.18881297
0.18949586
0.19017826
0.19085976
0.19153994
0.1922184
0.19289471
0.19356845
0.19423922
0.1949066
0.19557019
0.19622959
0.19688443
0.19753433
0.19817893
0.19881789
0.19945086
0.20007755
0.20069764
0.20131086
0.20191693
0.20251561
0.20310667
0.20368989
0.20426507
0.20483204
0.20539062
0.20594066
0.20648205
0.20701465
0.20753836
0.20805309
0.20855877
0.20905532
0.2095427
0.21002084
0.21048973
0.21094932
0.2113996
0.21184056
0.21227219
0.2126945
0.21310749
0.21351113
0.18142131
0.18208524
0.18275222
0.18342204
0.18409446
0.18476922
0.18544603
0.18612458
0.18680454
0.18748557
0.18816729
0.18884934
0.18953131
0.19021281
0.19089342
0.19157274
0.19225034
0.19292581
0.19359873
0.19426868
0.19493527
0.19559807
0.19625671
0.19691079
0.19755995
0.19820382
0.19884207
0.19947434
0.20010034
0.20071976
0.20133232
0.20193775
0.20253579
0.20312623
0.20370884
0.20428343
0.20484982
0.20540783
0.20595732
0.20649816
0.20703023
0.20755343
0.20806766
0.20857285
0.20906892
0.20955583
0.21003353
0.21050197
0.21096114
0.211411
0.21185156
0.21228282
0.21270477
0.21311741
0.21352069
0.18147507
0.18213771
0.18280342
0.18347201
0.18414322
0.18481679
0.18549245
0.18616986
0.18684872
0.18752865
0.18820931
0.1888903
0.18957124
0.19025172
0.19093134
0.19160968
0.19228632
0.19296084
0.19363283
0.19430188
0.19496756
0.19562949
0.19628726
0.19694049
0.19758882
0.19823187
0.19886931
0.1995008
0.20012603
0.20074469
0.2013565
0.2019612
0.20255854
0.20314828
0.20373021
0.20430413
0.20486986
0.20542724
0.20597611
0.20651634
0.20704782
0.20757043
0.2080841
0.20858873
0.20908427
0.20957066
0.21004785
0.2105158
0.21097448
0.21142388
0.211864
0.21229482
0.21271637
0.21312862
0.18153526
0.18219645
0.18286075
0.18352796
0.18419782
0.18487007
0.18554443
0.18622057
0.18689818
0.1875769
0.18825635
0.18893617
0.18961595
0.1902953
0.1909738
0.19165105
0.19232661
0.19300008
0.19367103
0.19433905
0.19500373
0.19566467
0.19632148
0.19697376
0.19762115
0.19826329
0.19889983
0.19953044
0.2001548
0.20077261
0.2013836
0.20198748
0.20258402
0.20317299
0.20375415
0.20432733
0.20489233
0.20544899
0.20599716
0.20653672
0.20706753
0.2075895
0.20810253
0.20860655
0.20910149
0.20958729
0.21006391
0.21053131
0.21098946
0.21143835
0.21187795
0.2123083
0.2127294
0.21314116
0.18160232
0.1822619
0.18292462
0.18359029
0.18425864
0.18492942
0.18560233
0.18627707
0.18695329
0.18763064
0.18830877
0.18898727
0.18966577
0.19034386
0.19102112
0.19169714
0.19237151
0.19304379
0.19371359
0.19438047
0.19504404
0.19570388
0.1963596
0.19701083
0.19765718
0.1982983
0.19893384
0.19956346
0.20018686
0.20080373
0.20141379
0.20201678
0.20261243
0.20320052
0.20378084
0.20435319
0.20491738
0.20547324
0.20602064
0.20655944
0.20708951
0.20761076
0.20812309
0.20862643
0.2091207
0.20960586
0.21008185
0.21054864
0.21100619
0.21145449
0.21189354
0.21232335
0.21274393
0.18167668
0.18233448
0.18299546
0.18365941
0.1843261
0.18499525
0.18566656
0.18633973
0.18701441
0.18769026
0.1883669
0.18904395
0.18972103
0.19039771
0.19107359
0.19174827
0.1924213
0.19309228
0.19376079
0.19442642
0.19508874
0.19574737
0.1964019
0.19705195
0.19769715
0.19833714
0.19897157
0.1996001
0.20022244
0.20083826
0.2014473
0.20204928
0.20264395
0.20323108
0.20381046
0.20438188
0.20494517
0.20550016
0.2060467
0.20658466
0.20711392
0.20763437
0.20814592
0.2086485
0.20914203
0.20962647
0.21010177
0.21056788
0.21102478
0.21147243
0.21191085
0.21234005
0.21276005
0.18175883
0.18241465
0.1830737
0.18373577
0.18440062
0.18506796
0.18573751
0.18640894
0.18708193
0.18775611
0.18843112
0.18910657
0.18978207
0.1904572
0.19113157
0.19180475
0.19247631
0.19314585
0.19381295
0.19447718
0.19513814
0.19579542
0.19644863
0.19709738
0.19774131
0.19838005
0.19901325
0.19964059
0.20026174
0.20087642
0.20148432
0.20208519
0.20267878
0.20326485
0.20384319
0.2044136
0.20497589
0.20552992
0.20607551
0.20661254
0.2071409
0.20766047
0.20817116
0.2086729
0.20916563
0.20964928
0.21012381
0.21058917
0.21104534
0.21149229
0.21193
0.21235851
0.18184924
0.18250289
0.18315982
0.18381982
0.18448264
0.185148
0.1858156
0.18648513
0.18715625
0.1878286
0.18850181
0.1891755
0.18984926
0.1905227
0.19119539
0.19186692
0.19253687
0.19320483
0.19387036
0.19453306
0.19519251
0.19584831
0.19650007
0.1971474
0.19778993
0.19842729
0.19905915
0.19968516
0.20030502
0.20091842
0.20152508
0.20212473
0.20271713
0.20330203
0.20387923
0.20444852
0.20500973
0.20556268
0.20610723
0.20664325
0.20717061
0.20768922
0.20819897
0.20869979
0.20919162
0.2096744
0.21014809
0.21061264
0.21106802
0.21151418
0.21195111
0.21237878
0.18194842
0.18259969
0.1832543
0.18391203
0.18457263
0.18523581
0.18590129
0.18656873
0.1872378
0.18790814
0.18857938
0.18925113
0.18992299
0.19059456
0.19126541
0.19193514
0.19260332
0.19326954
0.19393336
0.19459437
0.19525217
0.19590635
0.19655652
0.19720228
0.19784327
0.19847913
0.19910951
0.19973408
0.20035251
0.20096452
0.20156982
0.20216813
0.20275922
0.20334284
0.20391879
0.20448686
0.20504687
0.20559865
0.20614206
0.20667696
0.20720324
0.20772078
0.2082295
0.20872932
0.20922017
0.209702
0.21017476
0.21063842
0.21109293
0.21153824
0.21197431
0.21240108
0.18205691
0.18270559
0.18335766
0.1840129
0.18467107
0.18533188
0.18599502
0.18666018
0.18732701
0.18799516
0.18866424
0.18933387
0.19000365
0.19067317
0.19134202
0.19200978
0.19267602
0.19334033
0.19400228
0.19466146
0.19531745
0.19596986
0.19661828
0.19726233
0.19790164
0.19853585
0.19916461
0.19978759
0.20040448
0.20101496
0.20161877
0.20221562
0.20280528
0.2033875
0.20396208
0.20452881
0.20508751
0.20563802
0.20618018
0.20671386
0.20723895
0.20775533
0.20826292
0.20876163
0.20925142
0.20973221
0.21020397
0.21066666
0.21112023
0.2115646
0.21199973
0.21242558
0.18217527
0.18282111
0.18347041
0.18412295
0.18477847
0.18543668
0.18609728
0.18675995
0.18742434
0.18809009
0.18875682
0.18942414
0.19009165
0.19075895
0.19142561
0.19209122
0.19275534
0.19341757
0.19407748
0.19473465
0.19538868
0.19603915
0.19668567
0.19732785
0.19796533
0.19859774
0.19922474
0.19984599
0.20046118
0.20107
0.20167218
0.20226744
0.20285554
0.20343624
0.20400932
0.20457459
0.20513186
0.20568098
0.20622178
0.20675413
0.20727792
0.20779304
0.2082994
0.20879692
0.20928553
0.20976519
0.21023585
0.21069749
0.21115005
0.21159341
0.21202749
0.18230405
0.18294681
0.1835931
0.1842427
0.18489534
0.18555073
0.18620857
0.18686853
0.18753027
0.18819341
0.18885758
0.18952239
0.19018743
0.1908523
0.19151658
0.19217985
0.19284167
0.19350164
0.19415933
0.19481432
0.1954662
0.19611456
0.19675901
0.19739917
0.19803465
0.19866511
0.19929019
0.19990955
0.2005229
0.20112991
0.20173032
0.20232385
0.20291025
0.20348928
0.20406074
0.20462443
0.20518015
0.20572775
0.20626707
0.20679798
0.20732036
0.2078341
0.20833912
0.20883533
0.20932267
0.2098011
0.21027057
0.21073106
0.21118254
0.21162482
0.21205764
0.18244387
0.18308328
0.18372631
0.18437271
0.18502222
0.18567456
0.1863294
0.18698643
0.18764528
0.18830559
0.18896698
0.18962907
0.19029143
0.19095367
0.19161536
0.19227608
0.19293541
0.19359293
0.1942482
0.19490082
0.19555037
0.19619645
0.19683865
0.1974766
0.19810992
0.19873825
0.19936125
0.19997858
0.20058992
0.20119497
0.20179345
0.2023851
0.20296965
0.20354689
0.20411659
0.20467855
0.20523259
0.20577854
0.20631626
0.2068456
0.20736645
0.2078787
0.20838226
0.20887705
0.20936302
0.2098401
0.21030828
0.21076753
0.21121786
0.18259531
0.18323111
0.1838706
0.18451355
0.18515968
0.18580871
0.18646031
0.18711415
0.18776988
0.18842713
0.18908551
0.18974464
0.19040411
0.19106349
0.19172238
0.19238035
0.19303698
0.19369183
0.19434449
0.19499454
0.19564157
0.19628517
0.19692494
0.1975605
0.19819148
0.19881751
0.19943825
0.20005336
0.20066253
0.20126546
0.20186186
0.20245146
0.20303403
0.20360931
0.2041771
0.20473719
0.20528941
0.20583358
0.20636956
0.2068972
0.2074164
0.20792703
0.20842902
0.20892228
0.20940674
0.20988237
0.21034912
0.21080701
0.18275902
0.1833909
0.18402658
0.1846658
0.18530828
0.18595373
0.18660183
0.18725223
0.18790459
0.18855853
0.18921366
0.1898696
0.19052593
0.19118223
0.1918381
0.19249309
0.19314679
0.19379877
0.19444861
0.19509588
0.19574018
0.1963811
0.19701824
0.19765122
0.19827966
0.1989032
0.1995215
0.20013422
0.20074104
0.20134167
0.20193582
0.20252322
0.20310363
0.2036768
0.20424253
0.20480061
0.20535085
0.2058931
0.2064272
0.20695301
0.20747041
0.2079793
0.20847958
0.20897118
0.20945403
0.20992807
0.21039328
0.21084959
0.182312
0.18293559
0.18356328
0.18419486
0.18483006
0.18546861
0.18611021
0.18675453
0.18740122
0.18804994
0.18870031
0.18935195
0.19000444
0.19065738
0.19131036
0.19196296
0.19261474
0.19326528
0.19391416
0.19456095
0.19520523
0.19584659
0.19648461
0.19711891
0.1977491
0.19837481
0.19899567
0.19961133
0.20022147
0.20082576
0.20142391
0.20201564
0.20260066
0.20317874
0.20374964
0.20431314
0.20486904
0.20541716
0.20595733
0.2064894
0.20701323
0.2075287
0.20803571
0.20853416
0.20902396
0.20950506
0.2099774
0.21044092
0.21089556
0.1825067
0.18312571
0.1837489
0.18437607
0.18500695
0.18564127
0.18627872
0.18691897
0.18756168
0.18820649
0.18885302
0.18950088
0.19014966
0.19079896
0.19144836
0.19209744
0.19274577
0.19339291
0.19403845
0.19468195
0.195323
0.19596119
0.1965961
0.19722735
0.19785454
0.19847729
0.19909526
0.19970809
0.20031545
0.20091701
0.20151249
0.2021016
0.20268407
0.20325964
0.20382808
0.20438919
0.20494275
0.20548858
0.20602651
0.2065564
0.2070781
0.2075915
0.20809647
0.20859294
0.20908082
0.20956004
0.21003053
0.21049226
0.21094511
0.18271597
0.18333005
0.1839484
0.18457084
0.18519709
0.18582687
0.18645986
0.18709575
0.18773418
0.18837478
0.18901718
0.18966098
0.19030578
0.19095117
0.19159672
0.19224202
0.19288663
0.19353012
0.19417206
0.19481204
0.19544962
0.1960844
0.19671596
0.19734392
0.19796788
0.19858747
0.19920233
0.19981211
0.20041647
0.20101511
0.20160772
0.20219402
0.20277373
0.20334661
0.20391242
0.20447095
0.20502199
0.20556536
0.20610089
0.20662843
0.20714785
0.20765901
0.20816181
0.20865615
0.20914196
0.20961915
0.21008767
0.21054746
0.21099841
0.1829405
0.18354928
0.18416245
0.18477982
0.1854011
0.18602601
0.18665424
0.18728544
0.18791928
0.18855537
0.18919334
0.1898328
0.19047333
0.19111451
0.19175594
0.19239718
0.19303779
0.19367736
0.19431546
0.19495164
0.1955855
0.19621662
0.1968446
0.19746902
0.19808952
0.19870571
0.19931723
0.19992374
0.20052489
0.20112039
0.20170992
0.20229319
0.20286995
0.20343994
0.20400292
0.20455869
0.20510703
0.20564776
0.20618072
0.20670574
0.2072227
0.20773146
0.20823193
0.20872399
0.20920757
0.2096826
0.210149
0.21060673
0.21105566
0.18318095
0.18378407
0.18439171
0.18500365
0.18561962
0.18623932
0.18686244
0.18748864
0.18811756
0.18874883
0.18938206
0.19001686
0.19065281
0.1912895
0.19192651
0.1925634
0.19319974
0.19383511
0.19446907
0.1951012
0.19573107
0.19635828
0.1969824
0.19760304
0.19821983
0.19883237
0.19944032
0.20004332
0.20064104
0.20123316
0.20181939
0.20239944
0.20297303
0.20353992
0.20409988
0.20465268
0.20519813
0.20573603
0.20626623
0.20678856
0.20730289
0.20780909
0.20830705
0.20879668
0.20927788
0.20975058
0.21021473
0.21067024
0.21111702
0.18343802
0.1840351
0.18463682
0.18524297
0.18585327
0.18646742
0.18708509
0.18770594
0.1883296
0.18895572
0.18958388
0.1902137
0.19084476
0.19147664
0.19210892
0.19274117
0.19337294
0.19400382
0.19463336
0.19526115
0.19588676
0.19650977
0.19712977
0.19774637
0.19835919
0.19896783
0.19957196
0.20017121
0.20076525
0.20135377
0.20193646
0.20251305
0.20308326
0.20364684
0.20420356
0.2047532
0.20529555
0.20583043
0.20635768
0.20687713
0.20738864
0.2078921
0.20838739
0.20887441
0.20935307
0.2098233
0.21028503
0.21073819
0.21118268
0.18371237
0.18430302
0.18489845
0.18549843
0.18610269
0.18671091
0.18732276
0.18793791
0.18855598
0.18917659
0.18979935
0.19042386
0.1910497
0.19167645
0.19230368
0.19293096
0.19355786
0.19418394
0.19480877
0.19543192
0.19605297
0.1966715
0.19728711
0.19789939
0.19850797
0.19911245
0.19971249
0.20030774
0.20089785
0.20148252
0.20206145
0.20263435
0.20320094
0.20376099
0.20431425
0.2048605
0.20539955
0.20593121
0.2064553
0.20697168
0.2074802
0.20798073
0.20847317
0.2089574
0.20943336
0.20990094
0.2103601
0.21081076
0.2112528
0.18400467
0.18458848
0.18517721
0.18577064
0.18636847
0.18697038
0.18757606
0.18818513
0.18879723
0.18941198
0.19002899
0.19064784
0.19126812
0.1918894
0.19251126
0.19313325
0.19375495
0.19437592
0.19499572
0.19561393
0.19623013
0.19684389
0.19745481
0.19806249
0.19866654
0.19926659
0.19986227
0.20045325
0.20103918
0.20161974
0.20219465
0.20276361
0.20332636
0.20388263
0.20443221
0.20497486
0.20551039
0.20603861
0.20655935
0.20707245
0.20757777
0.20807519
0.20856458
0.20904586
0.20951892
0.2099837
0.21044012
0.21088812
0.21132757
0.18431555
0.18489211
0.18547374
0.1860602
0.1866512
0.18724642
0.18784552
0.18844814
0.18905391
0.18966244
0.19027332
0.19088616
0.19150052
0.19211599
0.19273212
0.19334849
0.19396466
0.19458019
0.19519464
0.1958076
0.19641862
0.1970273
0.19763323
0.19823601
0.19883525
0.19943058
0.20002163
0.20060806
0.20118953
0.20176574
0.20233637
0.20290114
0.20345978
0.20401205
0.2045577
0.20509652
0.20562831
0.20615287
0.20667003
0.20717965
0.20768157
0.20817568
0.20866184
0.20913997
0.20960997
0.21007176
0.21052527
0.21097043
0.21140713
0.18464561
0.1852145
0.1857886
0.18636768
0.18695145
0.18753957
0.1881317
0.18872748
0.18932652
0.18992844
0.19053284
0.19113929
0.19174737
0.19235666
0.19296672
0.19357712
0.19418741
0.19479716
0.19540593
0.1960133
0.19661883
0.19722212
0.19782275
0.19842032
0.19901444
0.19960475
0.20019088
0.20077248
0.20134922
0.20192079
0.20248687
0.20304719
0.20360148
0.20414949
0.20469098
0.20522573
0.20575353
0.20627421
0.20678758
0.2072935
0.20779181
0.2082824
0.20876513
0.20923992
0.20970666
0.21016528
0.21061571
0.21105788
0.21149165
0.18499541
0.18555619
0.18612233
0.18669362
0.18726973
0.18785034
0.1884351
0.18902363
0.18961555
0.19021047
0.19080799
0.19140767
0.1920091
0.19261184
0.19321546
0.19381952
0.19442359
0.19502721
0.19562996
0.1962314
0.19683111
0.19742867
0.19802368
0.19861573
0.19920443
0.19978942
0.20037032
0.2009468
0.20151852
0.20208516
0.20264643
0.20320203
0.20375171
0.20429519
0.20483226
0.2053627
0.20588628
0.20640284
0.2069122
0.20741419
0.20790868
0.20839553
0.20887463
0.20934588
0.20980917
0.21026444
0.2107116
0.21115059
0.21158127
0.18536546
0.18591768
0.18647543
0.18703848
0.18760652
0.18817919
0.18875616
0.18933703
0.18992143
0.19050895
0.19109918
0.19169171
0.1922861
0.19288192
0.19347873
0.19407608
0.19467355
0.19527069
0.19586706
0.19646223
0.19705578
0.19764728
0.19823633
0.19882253
0.19940549
0.19998484
0.20056022
0.20113128
0.20169768
0.20225911
0.20281528
0.20336588
0.20391067
0.20444937
0.20498177
0.20550763
0.20602675
0.20653895
0.20704405
0.20754189
0.20803234
0.20851524
0.2089905
0.209458
0.20991765
0.21036936
0.21081307
0.2112487
0.21167612
0.18575618
0.18629939
0.18684831
0.18740269
0.18796221
0.18852652
0.18909527
0.18966807
0.19024453
0.19082424
0.19140679
0.19199176
0.19257872
0.19316722
0.19375684
0.19434711
0.19493762
0.1955279
0.19611753
0.19670607
0.1972931
0.1978782
0.19846096
0.19904098
0.19961788
0.20019127
0.2007608
0.20132613
0.20188691
0.20244284
0.20299361
0.20353894
0.20407856
0.20461221
0.20513966
0.2056607
0.20617511
0.2066827
0.20718331
0.20767676
0.20816293
0.20864167
0.20911287
0.20957641
0.21003221
0.21048018
0.21092025
0.21135233
0.21177631
0.18616793
0.18670168
0.18724131
0.18778657
0.18833714
0.18889266
0.18945276
0.19001705
0.19058515
0.19115664
0.19173111
0.19230812
0.19288724
0.19346803
0.19405006
0.19463287
0.19521603
0.19579909
0.19638161
0.19696316
0.19754332
0.19812167
0.19869779
0.19927129
0.19984178
0.20040889
0.20097226
0.20153154
0.2020864
0.20263652
0.2031816
0.20372136
0.20425553
0.20478385
0.2053061
0.20582204
0.20633147
0.20683421
0.20733008
0.20781892
0.20830058
0.20877493
0.20924185
0.20970123
0.21015297
0.210597
0.21103322
0.21146157
0.21188191
0.18660094
0.18712479
0.18765468
0.18819038
0.18873155
0.18927783
0.18982885
0.19038422
0.19094353
0.19150638
0.19207234
0.19264098
0.19321186
0.19378455
0.19435859
0.19493355
0.19550898
0.19608443
0.19665947
0.19723367
0.19780659
0.19837783
0.19894696
0.1995136
0.20007735
0.20063785
0.20119473
0.20174764
0.20229626
0.20284027
0.20337936
0.20391326
0.20444169
0.20496441
0.20548117
0.20599175
0.20649595
0.20699359
0.20748447
0.20796845
0.20844537
0.2089151
0.20937752
0.20983251
0.21027999
0.21071987
0.21115205
0.21157648
0.211993
0.18705535
0.18756883
0.18808853
0.18861422
0.18914556
0.18968217
0.19022367
0.19076968
0.19131979
0.19187357
0.19243061
0.19299046
0.1935527
0.19411688
0.19468254
0.19524925
0.19581656
0.19638403
0.19695121
0.19751768
0.19808301
0.19864677
0.19920857
0.19976799
0.20032467
0.20087821
0.20142827
0.2019745
0.20251657
0.20305415
0.20358696
0.2041147
0.20463711
0.20515393
0.20566493
0.20616988
0.20666859
0.20716086
0.20764651
0.20812538
0.20859733
0.20906221
0.20951991
0.20997031
0.21041331
0.21084883
0.21127678
0.21169709
0.2121096
0.18753113
0.1880338
0.18854287
0.18905811
0.18957917
0.19010567
0.19063723
0.19117345
0.19171392
0.19225822
0.19280592
0.19335658
0.19390977
0.19446503
0.19502191
0.19557999
0.19613879
0.19669789
0.19725684
0.19781521
0.19837257
0.1989285
0.1994826
0.20003447
0.20058372
0.20112998
0.2016729
0.20221212
0.20274731
0.20327816
0.20380437
0.20432566
0.20484176
0.2053524
0.20585737
0.20635643
0.20684938
0.20733602
0.20781619
0.20828971
0.20875645
0.20921625
0.20966901
0.21011459
0.21055291
0.21098387
0.21140739
0.21182339
0.2122317
0.1880281
0.18851951
0.18901752
0.18952187
0.19003222
0.19054818
0.19106937
0.19159539
0.1921258
0.1926602
0.19319815
0.19373921
0.19428293
0.19482888
0.1953766
0.19592564
0.19647555
0.1970259
0.19757624
0.19812614
0.19867517
0.19922292
0.19976897
0.20031294
0.20085443
0.20139307
0.20192851
0.2024604
0.2029884
0.20351222
0.20403153
0.20454607
0.20505556
0.20555976
0.20605841
0.2065513
0.20703823
0.207519
0.20799344
0.20846138
0.20892267
0.20937717
0.20982476
0.21026532
0.21069874
0.21112495
0.21154383
0.21195532
0.21235925
0.18854586
0.18902561
0.18951212
0.19000517
0.19050439
0.1910094
0.1915198
0.19203518
0.19255514
0.19307923
0.19360702
0.19413807
0.19467194
0.19520818
0.19574634
0.19628596
0.19682661
0.19736783
0.19790919
0.19845026
0.1989906
0.19952981
0.20006747
0.20060319
0.20113658
0.20166728
0.20219492
0.20271916
0.20323967
0.20375614
0.20426826
0.20477576
0.20527837
0.20577582
0.20626789
0.20675436
0.20723501
0.20770966
0.20817812
0.20864023
0.20909585
0.20954482
0.20998703
0.21042235
0.21085068
0.21127193
0.21168599
0.21209279
0.21249215
0.18908384
0.1895515
0.19002611
0.19050745
0.19099513
0.19148878
0.19198799
0.19249235
0.19300144
0.19351483
0.19403207
0.19455273
0.19507636
0.19560251
0.19613073
0.19666056
0.19719157
0.1977233
0.19825532
0.1987872
0.19931851
0.19984882
0.20037775
0.20090489
0.20142986
0.20195229
0.20247181
0.2029881
0.20350081
0.20400964
0.20451428
0.20501446
0.2055099
0.20600035
0.20648558
0.20696535
0.20743948
0.20790775
0.20837
0.20882606
0.20927577
0.209719
0.21015562
0.2105855
0.21100854
0.21142464
0.21183371
0.21223563
0.21263023
0.18964115
0.19009635
0.19055869
0.19102792
0.19150369
0.19198559
0.19247323
0.19296618
0.19346403
0.19396633
0.19447265
0.19498255
0.19549556
0.19601125
0.19652917
0.19704885
0.19756986
0.19809176
0.19861409
0.19913644
0.19965837
0.20017947
0.20069934
0.20121758
0.2017338
0.20224765
0.20275876
0.20326679
0.20377141
0.20427231
0.20476919
0.20526177
0.20574978
0.20623297
0.20671109
0.20718394
0.20765129
0.20811296
0.20856877
0.20901855
0.20946215
0.20989942
0.21033024
0.2107545
0.21117206
0.21158285
0.21198673
0.21238361
0.21277328
0.19021667
0.19065905
0.19110875
0.19156553
0.19202902
0.19249883
0.19297453
0.19345572
0.19394197
0.19443283
0.19492788
0.19542665
0.19592871
0.19643359
0.19694086
0.19745006
0.19796074
0.19847245
0.19898477
0.19949726
0.2000095
0.20052107
0.20103157
0.2015406
0.20204779
0.20255276
0.20305516
0.20355466
0.20405091
0.20454362
0.20503247
0.20551719
0.20599752
0.20647319
0.20694398
0.20740965
0.20787001
0.20832485
0.208774
0.20921729
0.20965457
0.21008569
0.21051053
0.21092897
0.21134089
0.21174619
0.21214476
0.21253646
0.21292103
0.19080893
0.19123818
0.19167492
0.19211893
0.19256982
0.19302719
0.19349064
0.19395974
0.19443406
0.19491316
0.1953966
0.19588393
0.1963747
0.19686847
0.19736477
0.19786316
0.1983632
0.19886443
0.19936643
0.19986876
0.20037101
0.20087275
0.2013736
0.20187314
0.20237101
0.20286684
0.20336027
0.20385096
0.20433859
0.20482285
0.20530343
0.20578006
0.20625247
0.2067204
0.20718362
0.20764191
0.20809505
0.20854286
0.20898515
0.20942175
0.20985252
0.21027731
0.21069599
0.21110844
0.21151456
0.21191425
0.21230737
0.21269377
0.1914161
0.19183194
0.19225546
0.19268641
0.19312441
0.19356908
0.19401998
0.1944767
0.1949388
0.19540585
0.19587739
0.19635299
0.19683219
0.19731454
0.1977996
0.1982869
0.19877601
0.19926649
0.19975789
0.2002498
0.20074179
0.20123344
0.20172437
0.20221417
0.20270247
0.20318891
0.20367312
0.20415478
0.20463356
0.20510914
0.20558122
0.20604954
0.20651382
0.2069738
0.20742926
0.20787996
0.2083257
0.20876629
0.20920154
0.20963128
0.21005537
0.21047365
0.21088601
0.21129233
0.21169249
0.21208642
0.21247396
0.19203596
0.19243818
0.19284824
0.1932659
0.19369079
0.1941225
0.19456062
0.19500471
0.19545435
0.1959091
0.1963685
0.19683212
0.1972995
0.1977702
0.19824375
0.19871973
0.19919767
0.19967715
0.20015772
0.20063896
0.20112046
0.2016018
0.20208259
0.20256243
0.20304094
0.20351777
0.20399257
0.20446498
0.2049347
0.20540141
0.20586481
0.20632463
0.20678059
0.20723245
0.20767996
0.20812292
0.20856109
0.20899429
0.20942235
0.20984508
0.21026233
0.21067396
0.21107985
0.21147988
0.21187394
0.21226195
0.19266584
0.19305427
0.19345071
0.19385491
0.19426651
0.19468509
0.19511023
0.19554151
0.1959785
0.19642074
0.19686781
0.19731925
0.19777462
0.19823346
0.19869532
0.19915977
0.19962635
0.20009463
0.20056418
0.20103457
0.20150539
0.20197623
0.20244669
0.20291639
0.20338494
0.203852
0.2043172
0.20478021
0.2052407
0.20569838
0.20615294
0.20660411
0.20705161
0.2074952
0.20793463
0.20836969
0.20880017
0.20922586
0.20964659
0.21006218
0.21047248
0.21087734
0.21127663
0.21167023
0.21205801
0.21243976
0.19330257
0.19367714
0.19405986
0.1944505
0.19484869
0.19525401
0.19566606
0.1960844
0.1965086
0.19693822
0.19737282
0.19781195
0.19825515
0.198702
0.19915203
0.19960481
0.20005989
0.20051684
0.20097522
0.20143463
0.20189463
0.20235484
0.20281484
0.20327426
0.20373273
0.20418987
0.20464536
0.20509884
0.20555
0.20599853
0.20644414
0.20688654
0.20732548
0.20776069
0.20819195
0.20861902
0.2090417
0.20945978
0.20987309
0.21028146
0.21068472
0.21108272
0.21147533
0.21186241
0.21224383
0.21261935
0.19394248
0.19430317
0.19467215
0.1950492
0.19543394
0.19582598
0.19622489
0.19663024
0.1970416
0.19745853
0.19788058
0.19830733