/*--------------------------------*- C++ -*----------------------------------*\
| =========                 |                                                 |
| \\      /  F ield         | OpenFOAM: The Open Source CFD Toolbox           |
|  \\    /   O peration     | Version:  2312                                  |
|   \\  /    A nd           | Website:  www.openfoam.com                      |
|    \\/     M anipulation  |                                                 |
\*---------------------------------------------------------------------------*/
FoamFile
{
    version     2.0;
    format      ascii;
    arch        "LSB;label=32;scalar=64";
    class       volVectorField;
    location    "0.09";
    object      U;
}
// * * * * * * * * * * * * * * * * * * * * * * * * * * * * * * * * * * * * * //

dimensions      [0 1 -1 0 0 0 0];

internalField   nonuniform List<vector> 
3251
(
(1.804844 0.0053642426 0)
(1.7695162 0.0053431751 0)
(1.7344421 0.0053207072 0)
(1.6996324 0.0052970345 0)
(1.6650981 0.0052720589 0)
(1.6308502 0.0052457361 0)
(1.5969 0.0052180464 0)
(1.5632586 0.0051889786 0)
(1.5299372 0.0051585258 0)
(1.4969466 0.0051266857 0)
(1.4642976 0.005093462 0)
(1.4320008 0.0050588628 0)
(1.4000665 0.0050229033 0)
(1.3685044 0.0049856031 0)
(1.337324 0.004946989 0)
(1.3065345 0.0049070923 0)
(1.2761444 0.004865951 0)
(1.2461617 0.0048236069 0)
(1.2165939 0.0047801083 0)
(1.187448 0.0047355065 0)
(1.1587303 0.0046898591 0)
(1.1304467 0.004643226 0)
(1.1026022 0.0045956725 0)
(1.0752014 0.0045472655 0)
(1.0482483 0.0044980769 0)
(1.0217461 0.0044481795 0)
(0.99569768 0.0043976499 0)
(0.97010511 0.004346565 0)
(0.94496995 0.004295005 0)
(0.92029324 0.0042430492 0)
(0.89607545 0.0041907796 0)
(0.87231656 0.0041382765 0)
(0.84901606 0.0040856217 0)
(0.82617299 0.0040328949 0)
(0.80378594 0.0039801762 0)
(0.78185314 0.0039275426 0)
(0.76037242 0.0038750707 0)
(0.73934129 0.003822833 0)
(0.71875695 0.0037709001 0)
(0.69861636 0.0037193374 0)
(0.67891621 0.003668207 0)
(0.659653 0.0036175649 0)
(0.64082306 0.003567464 0)
(0.62242258 0.0035179545 0)
(0.60444762 0.003469093 0)
(0.58689418 0.0034209505 0)
(0.56975819 0.0033736254 0)
(0.55303561 0.0033272383 0)
(0.53672256 0.0032819011 0)
(0.52081537 0.0032375346 0)
(0.50531057 0.0031938478 0)
(0.49020453 0.0031515106 0)
(0.47549413 0.0031106394 0)
(0.46117654 0.0030697059 0)
(0.4472482 0.0030289961 0)
(0.4337058 0.0029887611 0)
(0.4205465 0.0029493046 0)
(0.40776746 0.0029101455 0)
(1.8046609 0.015962656 0)
(1.7693399 0.015870534 0)
(1.7342726 0.015774382 0)
(1.6994695 0.01567438 0)
(1.6649416 0.01557045 0)
(1.6307001 0.015462581 0)
(1.5967561 0.015350792 0)
(1.5631209 0.015235124 0)
(1.5298054 0.015115624 0)
(1.4968206 0.014992358 0)
(1.4641774 0.014865403 0)
(1.4318862 0.014734851 0)
(1.3999573 0.014600806 0)
(1.3684006 0.014463388 0)
(1.3372256 0.014322727 0)
(1.3064412 0.014178966 0)
(1.2760561 0.014032258 0)
(1.2460783 0.013882771 0)
(1.2165153 0.013730676 0)
(1.1873741 0.013576159 0)
(1.158661 0.01341941 0)
(1.1303818 0.013260629 0)
(1.1025417 0.013100019 0)
(1.0751451 0.012937793 0)
(1.0481961 0.012774163 0)
(1.021698 0.01260935 0)
(0.99565354 0.012443571 0)
(0.9700648 0.012277051 0)
(0.94493337 0.012110009 0)
(0.92026029 0.01194267 0)
(0.89604604 0.01177525 0)
(0.8722906 0.011607969 0)
(0.84899346 0.011441039 0)
(0.82615365 0.011274668 0)
(0.80376979 0.011109059 0)
(0.78184009 0.010944408 0)
(0.76036239 0.0107809 0)
(0.73933421 0.010618717 0)
(0.71875276 0.010458024 0)
(0.69861498 0.01029898 0)
(0.67891757 0.010141727 0)
(0.65965705 0.0099863965 0)
(0.64082973 0.009833105 0)
(0.62243182 0.0096819602 0)
(0.6044594 0.009533061 0)
(0.58690846 0.0093865122 0)
(0.56977496 0.0092424281 0)
(0.55305487 0.0091009456 0)
(0.53674426 0.008962182 0)
(0.52083944 0.008826148 0)
(0.50533697 0.0086926765 0)
(0.49023332 0.0085616866 0)
(0.47552514 0.0084335083 0)
(0.46120954 0.0083074902 0)
(0.4472832 0.008183064 0)
(0.43374296 0.0080606762 0)
(0.42058578 0.0079408478 0)
(0.40780872 0.0078231479 0)
(1.8042841 0.026558748 0)
(1.7689768 0.026395685 0)
(1.7339228 0.026225982 0)
(1.6991329 0.026049758 0)
(1.664618 0.02586698 0)
(1.6303891 0.025677673 0)
(1.5964575 0.025481894 0)
(1.5628343 0.025279729 0)
(1.5295308 0.025071288 0)
(1.4965577 0.024856698 0)
(1.4639259 0.024636115 0)
(1.4316459 0.024409711 0)
(1.399728 0.024177683 0)
(1.3681821 0.023940247 0)
(1.3370175 0.023697638 0)
(1.3062435 0.023450111 0)
(1.2758684 0.023197937 0)
(1.2459005 0.022941403 0)
(1.2163471 0.02268081 0)
(1.1872153 0.022416473 0)
(1.1585115 0.022148719 0)
(1.1302413 0.021877883 0)
(1.1024099 0.021604313 0)
(1.0750219 0.021328359 0)
(1.0480813 0.021050381 0)
(1.0215913 0.020770741 0)
(0.99555477 0.020489804 0)
(0.96997377 0.020207935 0)
(0.94484988 0.0199255 0)
(0.92018415 0.019642861 0)
(0.89597706 0.019360376 0)
(0.87222859 0.019078398 0)
(0.84893825 0.018797272 0)
(0.82610506 0.018517334 0)
(0.80372766 0.018238911 0)
(0.78180425 0.017962313 0)
(0.76033269 0.017687843 0)
(0.73931051 0.017415781 0)
(0.71873491 0.017146395 0)
(0.69860285 0.016879932 0)
(0.67891104 0.016616618 0)
(0.65965599 0.016356657 0)
(0.64083404 0.016100233 0)
(0.6224414 0.015847507 0)
(0.60447416 0.015598625 0)
(0.58692833 0.015353723 0)
(0.56979988 0.015112933 0)
(0.55308481 0.014876395 0)
(0.53677918 0.014644242 0)
(0.52087925 0.014416511 0)
(0.50538154 0.014193106 0)
(0.49028261 0.013973692 0)
(0.47557915 0.013758451 0)
(0.46126805 0.013547081 0)
(0.44734616 0.013338918 0)
(0.43381062 0.013134361 0)
(0.42065822 0.012933982 0)
(0.40788508 0.012737719 0)
(1.8037135 0.037149553 0)
(1.7684267 0.036915698 0)
(1.7333928 0.036672575 0)
(1.6986225 0.03642027 0)
(1.6641269 0.036158782 0)
(1.6299169 0.035888169 0)
(1.5960039 0.035608529 0)
(1.5623989 0.035319998 0)
(1.5291132 0.035022741 0)
(1.4961576 0.034716955 0)
(1.4635429 0.034402868 0)
(1.4312798 0.034080738 0)
(1.3993783 0.03375085 0)
(1.3678485 0.03341352 0)
(1.3366998 0.033069087 0)
(1.3059412 0.032717917 0)
(1.2755812 0.032360397 0)
(1.2456281 0.031996938 0)
(1.2160892 0.031627967 0)
(1.1869716 0.03125393 0)
(1.1582815 0.030875288 0)
(1.1300248 0.030492517 0)
(1.1022067 0.030106101 0)
(1.0748316 0.029716536 0)
(1.0479035 0.029324324 0)
(1.0214258 0.028929971 0)
(0.99540116 0.028533985 0)
(0.9698318 0.028136878 0)
(0.94471927 0.027739155 0)
(0.9200646 0.027341321 0)
(0.89586829 0.026943872 0)
(0.87213033 0.026547296 0)
(0.84885022 0.02615207 0)
(0.82602702 0.025758659 0)
(0.80365935 0.025367509 0)
(0.78174544 0.024979052 0)
(0.76028315 0.024593698 0)
(0.73927001 0.024211835 0)
(0.71870324 0.023833828 0)
(0.69857982 0.023460014 0)
(0.67889647 0.023090701 0)
(0.6596497 0.02272617 0)
(0.64083587 0.022366667 0)
(0.6224512 0.02201241 0)
(0.6044918 0.02166359 0)
(0.58695369 0.021320373 0)
(0.56983289 0.020982915 0)
(0.55312538 0.020651358 0)
(0.53682725 0.020325826 0)
(0.52093474 0.020006364 0)
(0.50544429 0.019692894 0)
(0.49035254 0.019385131 0)
(0.47565619 0.019082956 0)
(0.46135206 0.018786104 0)
(0.44743715 0.018494198 0)
(0.43390877 0.018207446 0)
(0.42076368 0.017925998 0)
(0.40799665 0.017649429 0)
(1.8029488 0.047732459 0)
(1.7676891 0.047427966 0)
(1.7326819 0.047111584 0)
(1.6979379 0.046783366 0)
(1.6634679 0.046443338 0)
(1.6292831 0.046091588 0)
(1.5953948 0.045728255 0)
(1.5618141 0.045353521 0)
(1.5285521 0.044967612 0)
(1.4956198 0.044570789 0)
(1.463028 0.044163358 0)
(1.4307872 0.043745658 0)
(1.3989077 0.043318068 0)
(1.3673994 0.042880997 0)
(1.3362717 0.042434894 0)
(1.3055337 0.041980234 0)
(1.2751939 0.041517521 0)
(1.2452605 0.041047287 0)
(1.2157409 0.040570089 0)
(1.1866422 0.040086501 0)
(1.1579705 0.039597121 0)
(1.1297319 0.03910256 0)
(1.1019313 0.038603445 0)
(1.0745734 0.038100412 0)
(1.0476621 0.037594107 0)
(1.0212007 0.03708518 0)
(0.99519202 0.036574284 0)
(0.96963821 0.036062072 0)
(0.94454084 0.035549195 0)
(0.91990095 0.035036294 0)
(0.89571905 0.034524006 0)
(0.87199513 0.034012953 0)
(0.84872872 0.033503744 0)
(0.82591886 0.03299697 0)
(0.80356421 0.032493202 0)
(0.78166299 0.031992986 0)
(0.7602131 0.031496845 0)
(0.73921206 0.031005271 0)
(0.71865713 0.030518727 0)
(0.69854528 0.030037639 0)
(0.67887325 0.029562399 0)
(0.65963758 0.029093361 0)
(0.64083463 0.028630837 0)
(0.62246065 0.0281751 0)
(0.60451176 0.027726385 0)
(0.58698402 0.027284892 0)
(0.56987345 0.026850792 0)
(0.55317607 0.026424233 0)
(0.53688798 0.026005328 0)
(0.52100541 0.025594114 0)
(0.50552476 0.025190518 0)
(0.49044267 0.024794287 0)
(0.47575589 0.024405175 0)
(0.46146124 0.024022913 0)
(0.44755579 0.02364729 0)
(0.43403686 0.023278318 0)
(0.42090108 0.022915205 0)
(1.8020454 0.057699384 0)
(1.7668179 0.057328521 0)
(1.7318422 0.056943284 0)
(1.697129 0.056543705 0)
(1.6626893 0.056129835 0)
(1.6285342 0.055701793 0)
(1.5946749 0.055259755 0)
(1.5611228 0.05480395 0)
(1.5278888 0.054334658 0)
(1.4949839 0.053852203 0)
(1.4624191 0.053356963 0)
(1.4302047 0.052849353 0)
(1.398351 0.05232984 0)
(1.366868 0.051798927 0)
(1.3357652 0.05125716 0)
(1.3050515 0.050705117 0)
(1.2747355 0.050143417 0)
(1.2448254 0.049572703 0)
(1.2153286 0.048993653 0)
(1.1862521 0.048406965 0)
(1.1576023 0.047813364 0)
(1.1293848 0.047213589 0)
(1.101605 0.0466084 0)
(1.0742674 0.045998567 0)
(1.0473759 0.04538487 0)
(1.0209339 0.044768094 0)
(0.99494403 0.04414903 0)
(0.96940861 0.043528463 0)
(0.94432917 0.042907178 0)
(0.91970676 0.04228595 0)
(0.8955419 0.041665545 0)
(0.87183461 0.041046711 0)
(0.8485844 0.040430183 0)
(0.82579036 0.039816668 0)
(0.80345113 0.039206854 0)
(0.78156497 0.038601397 0)
(0.76012978 0.038000924 0)
(0.73914311 0.037406026 0)
(0.71860223 0.036817256 0)
(0.69850412 0.036235126 0)
(0.67884556 0.035660107 0)
(0.65962309 0.03509262 0)
(0.64083311 0.034533041 0)
(0.62247187 0.033981693 0)
(0.60453551 0.033438853 0)
(0.58702013 0.032904751 0)
(0.56992177 0.032379575 0)
(0.55323648 0.031863472 0)
(0.53696036 0.03135655 0)
(0.52108964 0.030858833 0)
(0.50562073 0.030370242 0)
(0.49055022 0.029890548 0)
(0.47587492 0.029419458 0)
(0.4615917 0.028956723 0)
(0.44769767 0.028502233 0)
(0.43418993 0.028055846 0)
(0.42106483 0.027616094 0)
(1.801035 0.067180399 0)
(1.7658436 0.066746563 0)
(1.7309033 0.066295974 0)
(1.6962248 0.065828655 0)
(1.6618191 0.065344682 0)
(1.6276974 0.064844204 0)
(1.593871 0.06432743 0)
(1.560351 0.063794632 0)
(1.5271485 0.063246143 0)
(1.4942746 0.062682348 0)
(1.4617401 0.062103692 0)
(1.4295555 0.061510667 0)
(1.397731 0.060903819 0)
(1.3662766 0.060283743 0)
(1.3352017 0.059651075 0)
(1.3045154 0.059006498 0)
(1.2742263 0.058350731 0)
(1.2443425 0.05768453 0)
(1.2148714 0.057008684 0)
(1.18582 0.056324012 0)
(1.1571948 0.055631355 0)
(1.1290014 0.054931579 0)
(1.101245 0.054225568 0)
(1.0739303 0.053514219 0)
(1.0470612 0.052798439 0)
(1.020641 0.052079145 0)
(0.99467255 0.051357252 0)
(0.96915794 0.050633676 0)
(0.94409881 0.049909329 0)
(0.91949622 0.049185111 0)
(0.89535071 0.048461909 0)
(0.87166228 0.047740595 0)
(0.8484305 0.047022018 0)
(0.82565444 0.046307001 0)
(0.80333278 0.045596339 0)
(0.78146378 0.044890794 0)
(0.76004537 0.044191091 0)
(0.73907513 0.043497914 0)
(0.71855032 0.042811903 0)
(0.69846798 0.042133652 0)
(0.67882488 0.041463703 0)
(0.65961759 0.040802546 0)
(0.64084254 0.040150612 0)
(0.62249599 0.039508277 0)
(0.60457413 0.038875855 0)
(0.58707306 0.038253605 0)
(0.56998885 0.037641728 0)
(0.55331758 0.037040373 0)
(0.53705538 0.036449633 0)
(0.52119847 0.035869525 0)
(0.50574325 0.035299965 0)
(0.49068632 0.034740749 0)
(0.47602454 0.034191596 0)
(0.46175484 0.033652285 0)
(0.44787434 0.033122751 0)
(0.43437987 0.032602699 0)
(0.42126727 0.032090432 0)
(1.7998379 0.0769115 0)
(1.7646893 0.076413221 0)
(1.7297911 0.075895731 0)
(1.6951539 0.075359056 0)
(1.6607887 0.074803296 0)
(1.6267068 0.074228629 0)
(1.5929193 0.0736353 0)
(1.5594376 0.073023626 0)
(1.5262727 0.072393994 0)
(1.4934356 0.071746852 0)
(1.4609372 0.071082713 0)
(1.428788 0.070402149 0)
(1.3969983 0.06970579 0)
(1.3655779 0.06899432 0)
(1.3345364 0.068268474 0)
(1.3038828 0.067529036 0)
(1.2736257 0.066776834 0)
(1.2437731 0.066012736 0)
(1.2143327 0.065237647 0)
(1.1853113 0.064452506 0)
(1.1567154 0.063658281 0)
(1.1285506 0.062855961 0)
(1.1008223 0.06204656 0)
(1.073535 0.061231104 0)
(1.0466926 0.060410633 0)
(1.0202985 0.059586193 0)
(0.9943555 0.058758834 0)
(0.96886576 0.057929601 0)
(0.94383092 0.057099536 0)
(0.91925205 0.056269668 0)
(0.89512968 0.055441011 0)
(0.87146386 0.054614558 0)
(0.84825415 0.053791279 0)
(0.82549966 0.052972113 0)
(0.80319908 0.052157967 0)
(0.78135071 0.051349709 0)
(0.75995249 0.050548166 0)
(0.73900201 0.049754116 0)
(0.71849658 0.04896829 0)
(0.69843325 0.048191363 0)
(0.67880882 0.047423953 0)
(0.6596199 0.046666616 0)
(0.64086292 0.045919846 0)
(0.6225342 0.045184066 0)
(0.60462993 0.044459633 0)
(0.58714625 0.043746831 0)
(0.57007926 0.043045877 0)
(0.55342507 0.042356922 0)
(0.53717981 0.041680048 0)
(0.52133974 0.041015258 0)
(0.50590125 0.04036247 0)
(0.49086098 0.039721503 0)
(0.47621581 0.039092114 0)
(0.46196277 0.038474133 0)
(0.448099 0.037867452 0)
(0.434621 0.03727143 0)
(0.42152401 0.036683453 0)
(1.7984385 0.086897081 0)
(1.7633401 0.086332897 0)
(1.7284911 0.085746967 0)
(1.6939022 0.085139327 0)
(1.6595843 0.084510103 0)
(1.6255489 0.083859497 0)
(1.591807 0.083187795 0)
(1.55837 0.08249536 0)
(1.525249 0.081782634 0)
(1.492455 0.081050131 0)
(1.4599989 0.080298435 0)
(1.4278911 0.079528198 0)
(1.396142 0.078740138 0)
(1.3647614 0.07793503 0)
(1.333759 0.077113712 0)
(1.3031436 0.07627707 0)
(1.2729239 0.075426045 0)
(1.2431081 0.07456162 0)
(1.2137035 0.073684819 0)
(1.1847172 0.072796705 0)
(1.1561556 0.071898371 0)
(1.1280244 0.070990938 0)
(1.1003289 0.070075551 0)
(1.0730736 0.069153368 0)
(1.0462625 0.068225565 0)
(1.0198991 0.067293322 0)
(0.99398592 0.066357823 0)
(0.96852537 0.06542025 0)
(0.94351901 0.064481775 0)
(0.91896795 0.063543559 0)
(0.89487276 0.062606745 0)
(0.87123348 0.061672453 0)
(0.8480497 0.060741775 0)
(0.82532056 0.059815769 0)
(0.80304478 0.058895455 0)
(0.78122067 0.05798181 0)
(0.7598462 0.057075766 0)
(0.738919 0.056178198 0)
(0.71843641 0.055289928 0)
(0.6983955 0.054411715 0)
(0.67879311 0.053544255 0)
(0.65962588 0.052688173 0)
(0.64089027 0.051844023 0)
(0.62258263 0.05101228 0)
(0.60469918 0.050193341 0)
(0.5872361 0.049387519 0)
(0.5701895 0.048595046 0)
(0.55355554 0.047816073 0)
(0.53733037 0.047050676 0)
(0.52151028 0.04629885 0)
(0.50609168 0.045560516 0)
(0.49107123 0.044835529 0)
(0.47644587 0.044123696 0)
(0.46221271 0.043424869 0)
(0.44836879 0.042738771 0)
(0.43490995 0.042063849 0)
(1.796821 0.097141469 0)
(1.7617805 0.09650994 0)
(1.7269882 0.095854051 0)
(1.692455 0.095173855 0)
(1.6581918 0.094469497 0)
(1.6242099 0.093741214 0)
(1.5905207 0.092989327 0)
(1.5571353 0.092214251 0)
(1.524065 0.091416483 0)
(1.4913207 0.090596605 0)
(1.4589133 0.089755275 0)
(1.4268533 0.088893229 0)
(1.3951511 0.088011272 0)
(1.3638165 0.087110277 0)
(1.3328591 0.086191183 0)
(1.3022878 0.085254986 0)
(1.2721114 0.084302737 0)
(1.2423378 0.083335541 0)
(1.2129747 0.082354543 0)
(1.1840289 0.081360934 0)
(1.1555069 0.080355935 0)
(1.1274145 0.079340801 0)
(1.0997569 0.078316809 0)
(1.0725386 0.077285258 0)
(1.0457637 0.076247457 0)
(1.0194356 0.075204727 0)
(0.99355695 0.074158389 0)
(0.96813011 0.07310976 0)
(0.94315668 0.072060151 0)
(0.91863779 0.071010857 0)
(0.89457401 0.069963151 0)
(0.87096543 0.068918284 0)
(0.84781166 0.06787747 0)
(0.82511186 0.06684189 0)
(0.80286478 0.065812682 0)
(0.78106877 0.064790933 0)
(0.75972182 0.06377768 0)
(0.7388216 0.062773901 0)
(0.71836548 0.061780507 0)
(0.69835057 0.060798347 0)
(0.67877374 0.059828192 0)
(0.65963167 0.058870741 0)
(0.64092086 0.057926608 0)
(0.62263769 0.056996321 0)
(0.60477843 0.056080318 0)
(0.58733926 0.055178942 0)
(0.57031637 0.054292439 0)
(0.55370591 0.053420965 0)
(0.5375041 0.052564588 0)
(0.52170723 0.051723304 0)
(0.50631176 0.050897048 0)
(0.4913144 0.05008572 0)
(0.47671215 0.04928917 0)
(0.46250215 0.04850721 0)
(0.44868105 0.047739157 0)
(0.43524399 0.046981876 0)
(1.7949687 0.10764877 0)
(1.7599942 0.10694849 0)
(1.7252666 0.10622115 0)
(1.690797 0.10546683 0)
(1.6565961 0.10468569 0)
(1.6226755 0.103878 0)
(1.5890463 0.10304414 0)
(1.5557198 0.10218455 0)
(1.5227073 0.1012998 0)
(1.4900197 0.10039054 0)
(1.457668 0.099457504 0)
(1.4256626 0.098501514 0)
(1.3940139 0.097523466 0)
(1.3627317 0.096524332 0)
(1.3318257 0.095505155 0)
(1.3013048 0.094467044 0)
(1.2711777 0.093411167 0)
(1.2414524 0.092338747 0)
(1.2121366 0.091251058 0)
(1.1832371 0.090149418 0)
(1.1547603 0.089035183 0)
(1.1267121 0.087909742 0)
(1.0990978 0.086774513 0)
(1.0719218 0.08563093 0)
(1.0451882 0.084480446 0)
(1.0189004 0.083324522 0)
(0.99306121 0.082164619 0)
(0.96767288 0.081002195 0)
(0.94273708 0.079838701 0)
(0.91825493 0.078675566 0)
(0.89422706 0.077514201 0)
(0.87065357 0.076355985 0)
(0.8475341 0.075202263 0)
(0.82486784 0.07405434 0)
(0.80265358 0.07291347 0)
(0.7808897 0.071780856 0)
(0.75957422 0.070657643 0)
(0.73870486 0.06954491 0)
(0.71827903 0.068443665 0)
(0.69829387 0.067354842 0)
(0.67874629 0.066279296 0)
(0.65963302 0.065217795 0)
(0.6409506 0.064171018 0)
(0.62269544 0.063139546 0)
(0.60486385 0.062123858 0)
(0.58745207 0.061124327 0)
(0.5704563 0.060141216 0)
(0.55387273 0.059174686 0)
(0.53769763 0.058224806 0)
(0.52192733 0.057291576 0)
(0.50655836 0.056374959 0)
(0.49158747 0.055474913 0)
(0.47701172 0.054591311 0)
(0.46282813 0.053723803 0)
(0.44903257 0.052870849 0)
(1.7928639 0.11842291 0)
(1.757964 0.1176525 0)
(1.7233098 0.11685225 0)
(1.688912 0.11602226 0)
(1.6547817 0.11516272 0)
(1.6209302 0.11427393 0)
(1.5873689 0.11335631 0)
(1.5541091 0.11241036 0)
(1.521162 0.11143671 0)
(1.4885386 0.11043607 0)
(1.4562497 0.10940927 0)
(1.4243061 0.10835721 0)
(1.3927179 0.10728088 0)
(1.3614951 0.10618136 0)
(1.3306472 0.1050598 0)
(1.3001833 0.10391741 0)
(1.2701119 0.1027555 0)
(1.2404413 0.1015754 0)
(1.2111789 0.10037852 0)
(1.1823317 0.099166305 0)
(1.1539061 0.097940254 0)
(1.125908 0.096701892 0)
(1.0983426 0.095452776 0)
(1.0712144 0.094194485 0)
(1.0445276 0.092928616 0)
(1.0182854 0.09165677 0)
(0.99249088 0.090380557 0)
(0.96714613 0.089101576 0)
(0.94225291 0.087821418 0)
(0.91781236 0.086541655 0)
(0.89382512 0.085263833 0)
(0.87029135 0.083989466 0)
(0.84721071 0.082720031 0)
(0.82458243 0.081456956 0)
(0.80240532 0.080201619 0)
(0.78067781 0.078955339 0)
(0.75939798 0.077719371 0)
(0.73856356 0.076494897 0)
(0.71817201 0.075283024 0)
(0.69822053 0.074084774 0)
(0.67870608 0.072901086 0)
(0.65962541 0.0717328 0)
(0.64097512 0.07058066 0)
(0.62275167 0.0694453 0)
(0.6049514 0.068327243 0)
(0.58757059 0.067226892 0)
(0.57060549 0.06614453 0)
(0.55405233 0.065080325 0)
(0.53790742 0.064034352 0)
(0.52216717 0.063006624 0)
(0.50682816 0.061997143 0)
(0.49188723 0.061005932 0)
(0.47734142 0.06003285 0)
(0.46318738 0.059077121 0)
(0.44942022 0.058135767 0)
(1.7904879 0.12946757 0)
(1.7556719 0.1286257 0)
(1.7210999 0.12775113 0)
(1.6867829 0.12684397 0)
(1.6527317 0.12590445 0)
(1.618958 0.1249329 0)
(1.5854729 0.12392976 0)
(1.5522879 0.12289563 0)
(1.5194142 0.12183117 0)
(1.4868628 0.12073719 0)
(1.4546446 0.11961458 0)
(1.4227702 0.11846433 0)
(1.39125 0.11728755 0)
(1.3600937 0.11608541 0)
(1.3293111 0.11485916 0)
(1.2989111 0.11361016 0)
(1.2689024 0.1123398 0)
(1.2392931 0.11104957 0)
(1.2100907 0.10974099 0)
(1.1813023 0.10841566 0)
(1.1529341 0.10707521 0)
(1.1249922 0.1057213 0)
(1.0974817 0.10435565 0)
(1.0704072 0.10297996 0)
(1.0437729 0.10159599 0)
(1.017582 0.10020549 0)
(0.99183754 0.098810199 0)
(0.96654173 0.097411879 0)
(0.94169631 0.096012259 0)
(0.91730247 0.094613056 0)
(0.89336087 0.093215955 0)
(0.8698717 0.091822607 0)
(0.84683466 0.090434621 0)
(0.82424902 0.089053555 0)
(0.80211364 0.087680911 0)
(0.78042698 0.086318127 0)
(0.75918716 0.084966567 0)
(0.73839197 0.083627523 0)
(0.71803892 0.082302199 0)
(0.69812525 0.080991711 0)
(0.67864796 0.079697078 0)
(0.65960388 0.078419218 0)
(0.64098964 0.077158939 0)
(0.62280175 0.07591693 0)
(0.6050366 0.074693759 0)
(0.5876905 0.073489859 0)
(0.57075976 0.072305536 0)
(0.55424066 0.071140971 0)
(0.53812956 0.069996249 0)
(0.52242295 0.068871405 0)
(0.50711751 0.067766487 0)
(0.49221014 0.066681583 0)
(0.47769771 0.065616503 0)
(0.46357613 0.064569465 0)
(1.7878211 0.14078619 0)
(1.7530987 0.13987159 0)
(1.7186185 0.13892134 0)
(1.6843914 0.13793557 0)
(1.6504287 0.13691452 0)
(1.6167416 0.13585858 0)
(1.5833416 0.13476823 0)
(1.55024 0.13364412 0)
(1.5174482 0.13248699 0)
(1.4849771 0.13129771 0)
(1.4528377 0.13007727 0)
(1.4210406 0.12882676 0)
(1.389596 0.12754737 0)
(1.3585141 0.12624038 0)
(1.3278042 0.12490718 0)
(1.2974755 0.12354921 0)
(1.2675367 0.12216802 0)
(1.2379958 0.12076521 0)
(1.2088603 0.11934245 0)
(1.1801373 0.11790146 0)
(1.1518333 0.11644403 0)
(1.123954 0.11497196 0)
(1.0965048 0.1134871 0)
(1.0694902 0.11199133 0)
(1.0429144 0.11048653 0)
(1.0167807 0.10897462 0)
(0.99109212 0.10745749 0)
(0.9658509 0.10593703 0)
(0.94105881 0.10441514 0)
(0.91671706 0.10289367 0)
(0.89282638 0.10137444 0)
(0.86938696 0.099859258 0)
(0.84639856 0.098349859 0)
(0.82386049 0.096847933 0)
(0.80177164 0.09535511 0)
(0.78013053 0.093872947 0)
(0.75893534 0.092402925 0)
(0.73818389 0.09094644 0)
(0.71787376 0.089504801 0)
(0.69800223 0.088079215 0)
(0.67856637 0.086670788 0)
(0.65956305 0.085280512 0)
(0.64098895 0.083909263 0)
(0.62284065 0.082557787 0)
(0.60511458 0.081226695 0)
(0.58780711 0.079916458 0)
(0.57091457 0.078627403 0)
(0.55443331 0.077359734 0)
(0.53835978 0.076113547 0)
(0.52269054 0.074888906 0)
(0.50742241 0.073685899 0)
(0.4925523 0.072504658 0)
(0.47807662 0.071344878 0)
(0.46399049 0.070202919 0)
(1.7848425 0.15238194 0)
(1.750224 0.15139342 0)
(1.7158456 0.15036619 0)
(1.6817185 0.14930042 0)
(1.6478537 0.14819636 0)
(1.6142628 0.14705445 0)
(1.5809572 0.14587523 0)
(1.5479482 0.14465939 0)
(1.5152472 0.14340776 0)
(1.4828652 0.14212129 0)
(1.4508131 0.14080104 0)
(1.4191017 0.13944821 0)
(1.3877412 0.13806408 0)
(1.3567416 0.13665006 0)
(1.3261125 0.13520763 0)
(1.2958629 0.13373839 0)
(1.2660015 0.13224399 0)
(1.2365364 0.13072617 0)
(1.2074751 0.12918674 0)
(1.1788248 0.12762758 0)
(1.1505919 0.12605059 0)
(1.1227821 0.12445774 0)
(1.0954008 0.12285103 0)
(1.0684527 0.12123248 0)
(1.0419417 0.11960414 0)
(1.0158715 0.11796807 0)
(0.99024487 0.11632631 0)
(0.9650642 0.11468092 0)
(0.94033126 0.11303393 0)
(0.91604731 0.11138734 0)
(0.8922131 0.10974313 0)
(0.86882887 0.10810324 0)
(0.84589441 0.10646954 0)
(0.82340909 0.10484387 0)
(0.80137185 0.10322796 0)
(0.77978126 0.10162352 0)
(0.75863554 0.10003213 0)
(0.73793258 0.098455297 0)
(0.71767001 0.096894437 0)
(0.69784518 0.095350853 0)
(0.67845521 0.093825734 0)
(0.65949702 0.092320153 0)
(0.64096737 0.090835051 0)
(0.62286288 0.089371234 0)
(0.60518003 0.087929359 0)
(0.58791525 0.086509933 0)
(0.57106493 0.085113319 0)
(0.55462548 0.083739737 0)
(0.53859341 0.082389311 0)
(0.52296542 0.081062123 0)
(0.50773846 0.07975829 0)
(0.49290942 0.078477932 0)
(0.47847366 0.077220226 0)
(1.7815303 0.16425768 0)
(1.7470264 0.16319412 0)
(1.7127606 0.1620887 0)
(1.6787438 0.1609416 0)
(1.6449873 0.15975312 0)
(1.6115025 0.15852374 0)
(1.578301 0.15725404 0)
(1.5453943 0.15594479 0)
(1.5127935 0.15459688 0)
(1.4805098 0.15321135 0)
(1.4485542 0.15178936 0)
(1.4169374 0.15033219 0)
(1.3856696 0.14884124 0)
(1.3547609 0.14731803 0)
(1.3242209 0.14576417 0)
(1.2940585 0.14418136 0)
(1.2642826 0.1425714 0)
(1.2349012 0.14093617 0)
(1.2059219 0.13927762 0)
(1.1773518 0.13759777 0)
(1.1491972 0.13589867 0)
(1.1214642 0.13418244 0)
(1.0941579 0.13245123 0)
(1.0672831 0.13070723 0)
(1.0408438 0.12895263 0)
(1.0148436 0.12718965 0)
(0.98928536 0.12542049 0)
(0.96417152 0.12364736 0)
(0.93950388 0.12187243 0)
(0.91528373 0.12009788 0)
(0.89151184 0.11832582 0)
(0.86818852 0.11655834 0)
(0.84531361 0.11479744 0)
(0.82288651 0.1130451 0)
(0.80090622 0.1113032 0)
(0.77937137 0.10957354 0)
(0.75828023 0.10785784 0)
(0.73763076 0.10615772 0)
(0.71742064 0.1044747 0)
(0.69764729 0.10281018 0)
(0.67830789 0.10116543 0)
(0.65939943 0.099541606 0)
(0.64091874 0.09793972 0)
(0.62286246 0.096360635 0)
(0.60522717 0.094805058 0)
(0.58800934 0.093273543 0)
(0.57120543 0.091766483 0)
(0.5548119 0.09028414 0)
(0.53882538 0.088826648 0)
(0.52324267 0.08739411 0)
(0.50806084 0.085986613 0)
(0.4932766 0.084603994 0)
(0.47888413 0.083244647 0)
(1.7778612 0.17641594 0)
(1.7434835 0.17527632 0)
(1.7093414 0.17409158 0)
(1.6754459 0.17286192 0)
(1.6418084 0.17158769 0)
(1.6084404 0.17026939 0)
(1.5753534 0.16890769 0)
(1.542559 0.16750341 0)
(1.5100684 0.16605751 0)
(1.4778928 0.16457113 0)
(1.4460433 0.16304551 0)
(1.4145304 0.16148204 0)
(1.3833645 0.15988223 0)
(1.3525557 0.15824772 0)
(1.3221135 0.15658023 0)
(1.2920471 0.15488161 0)
(1.2623651 0.15315379 0)
(1.2330757 0.15139879 0)
(1.2041865 0.14961869 0)
(1.1757044 0.14781566 0)
(1.1476361 0.14599192 0)
(1.1199873 0.14414973 0)
(1.0927635 0.14229141 0)
(1.0659692 0.14041929 0)
(1.0396087 0.13853573 0)
(1.0136854 0.1366431 0)
(0.98820243 0.13474377 0)
(0.96316206 0.13284009 0)
(0.93856619 0.13093441 0)
(0.91441615 0.12902905 0)
(0.89071278 0.12712626 0)
(0.86745641 0.12522828 0)
(0.84464693 0.12333728 0)
(0.82228381 0.12145534 0)
(0.8003661 0.1195845 0)
(0.77889248 0.11772667 0)
(0.7578613 0.11588371 0)
(0.73727057 0.11405734 0)
(0.71711805 0.11224919 0)
(0.69740121 0.11046075 0)
(0.67811731 0.10869339 0)
(0.6592634 0.10694834 0)
(0.64083637 0.10522669 0)
(0.62283295 0.10352936 0)
(0.60524976 0.10185712 0)
(0.58808334 0.10021056 0)
(0.57133021 0.09859012 0)
(0.55498692 0.096996109 0)
(0.53905019 0.095428695 0)
(0.52351693 0.093887959 0)
(0.50838422 0.092373889 0)
(0.49364839 0.090885668 0)
(1.7738112 0.18885889 0)
(1.7395717 0.18764228 0)
(1.705565 0.1863772 0)
(1.6718025 0.18506386 0)
(1.6382953 0.18370263 0)
(1.6050551 0.18229408 0)
(1.5720936 0.18083893 0)
(1.5394222 0.17933807 0)
(1.5070522 0.17779255 0)
(1.474995 0.17620358 0)
(1.4432615 0.17457252 0)
(1.4118625 0.17290085 0)
(1.3808082 0.17119021 0)
(1.3501088 0.16944234 0)
(1.3197738 0.16765911 0)
(1.2898124 0.16584248 0)
(1.2602332 0.16399453 0)
(1.2310445 0.16211742 0)
(1.2022538 0.16021339 0)
(1.1738682 0.15828474 0)
(1.1458942 0.15633386 0)
(1.1183378 0.15436318 0)
(1.0912042 0.15237514 0)
(1.0644982 0.15037227 0)
(1.0382239 0.14835707 0)
(1.0123849 0.14633207 0)
(0.98698423 0.14429981 0)
(0.96202431 0.1422628 0)
(0.93750703 0.14022355 0)
(0.91343378 0.13818451 0)
(0.88980542 0.13614813 0)
(0.86662235 0.13411676 0)
(0.84388453 0.13209273 0)
(0.82159145 0.13007826 0)
(0.79974224 0.12807552 0)
(0.77833565 0.12608657 0)
(0.75737008 0.12411336 0)
(0.73684363 0.12215774 0)
(0.7167541 0.12022145 0)
(0.69709906 0.11830609 0)
(0.67787582 0.11641311 0)
(0.65908153 0.11454382 0)
(0.64071312 0.11269939 0)
(0.62276741 0.1108808 0)
(0.60524107 0.10908887 0)
(0.58813072 0.10732426 0)
(0.57143296 0.10558746 0)
(0.55514443 0.10387886 0)
(0.53926192 0.10219862 0)
(0.52378243 0.10054683 0)
(0.50870285 0.098923344 0)
(0.49401933 0.097327107 0)
(1.7693547 0.20158828 0)
(1.7352661 0.2002939 0)
(1.7014074 0.19894758 0)
(1.66779 0.19754954 0)
(1.6344251 0.19610019 0)
(1.6013245 0.19460014 0)
(1.5684998 0.19305019 0)
(1.5359626 0.1914513 0)
(1.5037244 0.18980461 0)
(1.4717963 0.18811141 0)
(1.4401895 0.18637317 0)
(1.4089146 0.18459149 0)
(1.3779821 0.18276811 0)
(1.347402 0.1809049 0)
(1.3171839 0.17900386 0)
(1.2873371 0.17706709 0)
(1.2578702 0.1750968 0)
(1.2287913 0.17309531 0)
(1.2001082 0.17106501 0)
(1.1718278 0.16900835 0)
(1.1439568 0.16692788 0)
(1.1165011 0.16482619 0)
(1.089466 0.16270589 0)
(1.0628562 0.16056965 0)
(1.036676 0.15842015 0)
(1.010929 0.1562601 0)
(0.98561822 0.15409218 0)
(0.96074609 0.15191907 0)
(0.93631458 0.14974344 0)
(0.91232512 0.1475679 0)
(0.88877863 0.14539505 0)
(0.86567556 0.14322741 0)
(0.84301591 0.14106743 0)
(0.82079927 0.13891749 0)
(0.7990248 0.1367799 0)
(0.77769132 0.13465683 0)
(0.75679732 0.13255038 0)
(0.73634095 0.13046251 0)
(0.7163201 0.12839506 0)
(0.69673241 0.12634973 0)
(0.67757527 0.12432808 0)
(0.6588459 0.1223315 0)
(0.64054131 0.12036123 0)
(0.62265838 0.11841831 0)
(0.60519388 0.11650364 0)
(0.58814449 0.11461793 0)
(0.57150692 0.11276177 0)
(0.55527788 0.11093559 0)
(0.53945423 0.10913965 0)
(0.52403303 0.10737388 0)
(0.50901107 0.10563811 0)
(0.49438427 0.10393184 0)
(1.7644654 0.21460545 0)
(1.730541 0.21323266 0)
(1.6968434 0.21180433 0)
(1.6633838 0.2103207 0)
(1.6301737 0.20878222 0)
(1.597225 0.20718956 0)
(1.5645492 0.20554357 0)
(1.5321581 0.20384531 0)
(1.5000631 0.202096 0)
(1.4682756 0.20029704 0)
(1.4368065 0.19844999 0)
(1.4056668 0.19655656 0)
(1.3748667 0.19461861 0)
(1.3444164 0.19263816 0)
(1.3143256 0.19061732 0)
(1.2846033 0.18855834 0)
(1.2552584 0.18646359 0)
(1.2262991 0.18433551 0)
(1.1977329 0.18217666 0)
(1.1695671 0.17998966 0)
(1.1418081 0.1777772 0)
(1.1144619 0.17554203 0)
(1.0875339 0.17328696 0)
(1.0610289 0.17101479 0)
(1.0349511 0.16872839 0)
(1.0093042 0.16643062 0)
(0.98409114 0.16412434 0)
(0.95931452 0.16181239 0)
(0.93497633 0.1594976 0)
(0.91107804 0.15718275 0)
(0.88762063 0.15487058 0)
(0.86460459 0.15256378 0)
(0.84203 0.15026495 0)
(0.81989649 0.1479766 0)
(0.79820332 0.14570119 0)
(0.77694936 0.14344102 0)
(0.75613318 0.14119833 0)
(0.735753 0.13897518 0)
(0.71580681 0.13677353 0)
(0.6962923 0.13459518 0)
(0.67720696 0.13244179 0)
(0.65854808 0.13031484 0)
(0.64031275 0.12821563 0)
(0.62249794 0.1261453 0)
(0.60510049 0.12410478 0)
(0.5881172 0.12209489 0)
(0.57154486 0.12011628 0)
(0.55538028 0.11816954 0)
(0.53962033 0.11625496 0)
(0.52426211 0.11437218 0)
(0.50930256 0.11252058 0)
(0.49473693 0.11070057 0)
(1.7591156 0.22791128 0)
(1.7253695 0.22645957 0)
(1.6918467 0.22494865 0)
(1.6585584 0.2233787 0)
(1.6255163 0.22175022 0)
(1.5927323 0.22006396 0)
(1.5602181 0.21832083 0)
(1.5279855 0.21652198 0)
(1.496046 0.21466873 0)
(1.4644109 0.21276257 0)
(1.4330913 0.21080517 0)
(1.402098 0.20879836 0)
(1.3714416 0.20674413 0)
(1.3411322 0.20464462 0)