/*--------------------------------*- C++ -*----------------------------------*\
| =========                 |                                                 |
| \\      /  F ield         | OpenFOAM: The Open Source CFD Toolbox           |
|  \\    /   O peration     | Version:  2312                                  |
|   \\  /    A nd           | Website:  www.openfoam.com                      |
|    \\/     M anipulation  |                                                 |
\*---------------------------------------------------------------------------*/
FoamFile
{
    version     2.0;
    format      ascii;
    arch        "LSB;label=32;scalar=64";
    class       volScalarField;
    location    "0.01";
    object      H2O;
}
// * * * * * * * * * * * * * * * * * * * * * * * * * * * * * * * * * * * * * //

dimensions      [0 0 0 0 0 0 0];

internalField   nonuniform List<scalar> 
3275
(
0.0018988081
0.011544387
0.023700767
0.034775818
0.043764749
0.050527966
0.055509607
0.059109478
0.061657139
0.063427343
0.064650035
0.065513596
0.06616418
0.066708811
0.067222305
0.067754726
0.068338008
0.068991225
0.069724505
0.070539182
0.071420881
0.072347375
0.073412178
0.074545902
0.075741466
0.07699239
0.078291196
0.079629904
0.081000499
0.082395912
0.08373549
0.085107317
0.086512398
0.08789903
0.08925852
0.090581684
0.091859007
0.093080699
0.094236682
0.095316534
0.096309388
0.097203794
0.097987492
0.098647373
0.099150605
0.099508041
0.099697618
0.09969245
0.099474748
0.099006214
0.098260941
0.09720572
0.0027328692
0.013780693
0.025475093
0.035933042
0.044415818
0.050803305
0.055570311
0.059054803
0.061544943
0.063291042
0.064508338
0.065376835
0.066037577
0.066594385
0.067120274
0.067664402
0.068258329
0.068920952
0.069662598
0.070485805
0.071367297
0.072304493
0.0733743
0.074511483
0.075710293
0.076964106
0.078265446
0.079606332
0.08097866
0.082375195
0.083715896
0.085090882
0.08649675
0.087884163
0.089244363
0.090568146
0.091845991
0.093068108
0.094224421
0.095304511
0.096297514
0.09719198
0.097975648
0.098635288
0.09913797
0.099495591
0.099684974
0.099679476
0.099461333
0.098992269
0.098246327
0.097190348
0.0050536533
0.017952885
0.02862782
0.037956638
0.045538437
0.051240037
0.055629663
0.058912717
0.061303411
0.063009776
0.064220749
0.065101508
0.065783859
0.066365693
0.06691672
0.067484445
0.06809978
0.068781283
0.069539599
0.070380108
0.071260134
0.072221267
0.073299301
0.074443738
0.075649122
0.076908766
0.078215213
0.079560497
0.080936341
0.082335053
0.083678149
0.085059308
0.086466773
0.087855743
0.089217346
0.090542338
0.091821186
0.093044104
0.094201021
0.095281525
0.096274755
0.097169265
0.0979528
0.098612082
0.099114083
0.099471325
0.099660022
0.099653654
0.099434418
0.098964091
0.098216706
0.097159098
0.0093530616
0.023385015
0.032192316
0.040234737
0.046782119
0.051619092
0.055574724
0.058624268
0.060902629
0.062569133
0.06378071
0.064685082
0.065402534
0.066023171
0.066612427
0.067215696
0.067863181
0.068572906
0.069355822
0.070215242
0.071107923
0.0720976
0.073187384
0.07434282
0.075558109
0.076826508
0.078140625
0.079492548
0.080873744
0.082275424
0.083622491
0.085012541
0.086422472
0.087813795
0.089177498
0.090504287
0.09178462
0.093008714
0.094166508
0.095247599
0.096241134
0.09713567
0.097918964
0.098577726
0.099078863
0.099435246
0.099622765
0.099614982
0.09939399
0.098921649
0.098172022
0.097111912
0.014575227
0.027189513
0.035452386
0.041992485
0.047428762
0.051861875
0.055338341
0.058116844
0.060305605
0.061951398
0.063180165
0.064124548
0.064893209
0.065567586
0.066208578
0.06685937
0.067549712
0.068296826
0.069112547
0.069992747
0.070911187
0.071933045
0.073038686
0.074208914
0.075437428
0.076717481
0.078041809
0.079402637
0.080791174
0.082196039
0.083549227
0.084950467
0.086363792
0.087758285
0.089124792
0.090453969
0.091736266
0.092961907
0.094120848
0.095202696
0.096196611
0.097091155
0.097874098
0.098532156
0.099032211
0.099387304
0.099573154
0.099563406
0.099339994
0.098864879
0.098112194
0.097048706
0.01205539
0.027674972
0.036295911
0.042402539
0.047297995
0.051457851
0.054813232
0.057428438
0.059523863
0.061186499
0.062455871
0.063458159
0.064292798
0.065032936
0.065735736
0.066442519
0.067183289
0.067973991
0.068829315
0.069728042
0.070686141
0.071738956
0.072864014
0.074051822
0.075295907
0.076589636
0.077925946
0.079297332
0.080695015
0.082101976
0.083463989
0.084877402
0.08629484
0.087693112
0.089062933
0.090394917
0.091679512
0.092906959
0.09406723
0.095149949
0.09614429
0.097038823
0.097821331
0.098478537
0.098977342
0.099330836
0.099514652
0.099502533
0.099276208
0.098797762
0.098041419
0.096973912
0.0067708127
0.02441323
0.03467176
0.04152876
0.0465285
0.050537957
0.053867566
0.056532424
0.058601853
0.060296132
0.061629586
0.062707009
0.063621086
0.064437098
0.065209806
0.065979053
0.066776237
0.067614933
0.068507726
0.069437765
0.07044028
0.071521267
0.072668885
0.07387649
0.075137974
0.076446944
0.077796595
0.079179843
0.080588784
0.081995177
0.083369799
0.084795461
0.086217619
0.087620173
0.088993716
0.090328838
0.091615997
0.092845452
0.094007195
0.095090872
0.096085671
0.096980175
0.097762176
0.098418411
0.098915816
0.09926747
0.099448963
0.099434145
0.099204513
0.098722289
0.09796181
0.09688977
0.004469717
0.019705067
0.031239435
0.03916707
0.044862989
0.049107576
0.052478815
0.055257177
0.057440783
0.059232291
0.06063614
0.061813605
0.062828021
0.063736036
0.06459208
0.0654346
0.066298634
0.067193486
0.068123352
0.069103947
0.070150952
0.071263741
0.072438379
0.073669458
0.074951471
0.076278376
0.077643702
0.079040927
0.08046556
0.081865236
0.083260371
0.08469802
0.086125972
0.087533661
0.088911627
0.090250464
0.091540647
0.092772463
0.093935932
0.095020724
0.096016046
0.096910495
0.097691875
0.098346936
0.09884267
0.099192104
0.099370798
0.099352741
0.099119146
0.098632403
0.097866977
0.09678953
0.0034394943
0.015743696
0.027141479
0.035860147
0.042267584
0.047082027
0.050716328
0.053641267
0.05600489
0.057930629
0.059493845
0.060771573
0.061909455
0.062926106
0.063879463
0.064805732
0.065748017
0.066697161
0.067685705
0.068723076
0.069814446
0.070964251
0.072170437
0.073428799
0.074734599
0.076082252
0.077465649
0.078878647
0.0803162
0.081717336
0.083136516
0.084583731
0.086018736
0.08743248
0.088815621
0.090158782
0.091452478
0.092687029
0.09385249
0.094938559
0.095934467
0.096828829
0.097609459
0.098263123
0.098756885
0.099103689
0.099279071
0.099257188
0.09901892
0.098526863
0.09775562
0.096671824
0.0028853963
0.012858105
0.02327808
0.032176794
0.039131094
0.044456157
0.048568754
0.051742118
0.054300541
0.056416809
0.058152252
0.059596859
0.060866106
0.062005211
0.063070199
0.064089305
0.065111393
0.066138723
0.067193346
0.068287788
0.069428796
0.070620763
0.071863065
0.073152594
0.074485548
0.07585686
0.077260804
0.078691545
0.080140172
0.081550924
0.082994945
0.084451523
0.085894689
0.087315454
0.088704563
0.090052698
0.091350421
0.092588099
0.093755827
0.09484334
0.095839895
0.096734126
0.097513863
0.098165882
0.098657341
0.099001071
0.099172586
0.099146243
0.098902535
0.098404315
0.097626315
0.096535157
0.0025324449
0.010785646
0.020016751
0.028588384
0.035772131
0.04150323
0.046017657
0.049604579
0.052369562
0.054701065
0.056641402
0.058272369
0.05969594
0.060972697
0.062157919
0.063287578
0.064400595
0.065510886
0.066638361
0.067796111
0.068992146
0.070231364
0.071514352
0.072838959
0.074202507
0.075600473
0.077027516
0.078478641
0.079935369
0.081365712
0.082833116
0.084300022
0.085752517
0.087181317
0.088577232
0.089931021
0.09123331
0.092474523
0.093644806
0.094733931
0.095731188
0.096625233
0.097403913
0.098054015
0.098542804
0.098882981
0.099050027
0.099018538
0.098768557
0.098263271
0.097477504
0.0963779
0.0022771262
0.0092648832
0.017375649
0.025357465
0.032467034
0.038420313
0.043261619
0.047200768
0.05027306
0.05281413
0.054974195
0.056807759
0.058403044
0.059830816
0.061148843
0.06239769
0.063611825
0.064812347
0.0660193
0.067246405
0.068502822
0.069794291
0.071122511
0.072486058
0.073883686
0.075311367
0.076764038
0.078239847
0.079697288
0.081162777
0.082648484
0.084127689
0.085590809
0.087028705
0.088432304
0.089792458
0.091099874
0.092345046
0.093518176
0.094609082
0.095607088
0.096500878
0.097278315
0.097926197
0.098411916
0.098748016
0.098909942
0.098872566
0.098615406
0.098102103
0.097307479
0.096198267
0.0020764726
0.0081160699
0.015254424
0.022565468
0.029394146
0.035379697
0.040426374
0.044615573
0.048033783
0.050822502
0.053176404
0.055217652
0.056995568
0.05858431
0.060045098
0.061421393
0.062744946
0.064042489
0.065335215
0.066637415
0.067959397
0.069307972
0.070685925
0.072092114
0.073527334
0.074987851
0.076468235
0.077962911
0.079438126
0.080937369
0.082439777
0.083932966
0.085408055
0.086856155
0.088268347
0.089635603
0.090948728
0.092198293
0.093374567
0.094467418
0.095466211
0.096359658
0.097135641
0.097780968
0.098263174
0.098594631
0.098750729
0.098706665
0.09844136
0.097919
0.097114363
0.095994304
0.0019106731
0.0072225242
0.013541613
0.020194597
0.026634757
0.032502623
0.037627955
0.041995682
0.045653983
0.048732116
0.051305396
0.053527455
0.05548546
0.057240521
0.058850965
0.060361835
0.061801034
0.063201482
0.064585767
0.065968352
0.067360753
0.068771063
0.070203225
0.071655414
0.073131755
0.074628381
0.076139226
0.07764468
0.07915968
0.080684615
0.082205407
0.083714221
0.085202649
0.086662091
0.088083812
0.089458928
0.090778356
0.092032757
0.093212471
0.094307426
0.09530703
0.096200024
0.096974309
0.097616708
0.098094919
0.098421114
0.098570618
0.098519001
0.098244512
0.097711974
0.096896095
0.095763871
0.0017694757
0.0065086053
0.012144015
0.018190408
0.02420334
0.029855821
0.034951463
0.039415032
0.043250556
0.04653551
0.04936195
0.051779844
0.05389992
0.055809191
0.057572709
0.059223927
0.060782325
0.062290348
0.063771344
0.065238965
0.066706138
0.06818247
0.069673415
0.071174263
0.072695313
0.074231523
0.075761455
0.077303246
0.078853944
0.080402656
0.081943667
0.083469728
0.084972877
0.086444814
0.08787702
0.089260769
0.090587103
0.091846784
0.093030232
0.094127437
0.095127854
0.096020259
0.096792573
0.097431627
0.09790531
0.098225569
0.098367648
0.098307545
0.098022756
0.097478835
0.096650413
0.095504621
0.0016469001
0.0059245376
0.01098949
0.016492798
0.022079215
0.027463132
0.032448976
0.036931115
0.040877939
0.044324028
0.047333498
0.049978948
0.052251373
0.054329591
0.0562182
0.058014825
0.05969203
0.061310962
0.062893184
0.064449608
0.065995206
0.067541321
0.069096132
0.07064685
0.072216428
0.073780409
0.075353451
0.07693533
0.07851544
0.080089754
0.081652758
0.08319766
0.084716906
0.0862025
0.087646153
0.089039311
0.090373156
0.091638557
0.092826021
0.093925607
0.094926817
0.095818464
0.09658849
0.097223738
0.097692306
0.098005896
0.098139648
0.09807005
0.09777376
0.097217166
0.096374833
0.095213982
0.0015390556
0.00543682
0.010023493
0.015047385
0.020227901
0.02532112
0.0301447
0.034582276
0.038578978
0.042136827
0.045293711
0.048114937
0.050563288
0.052780419
0.054817069
0.05675172
0.058533769
0.060265999
0.061953561
0.063601305
0.065228049
0.066846792
0.068472208
0.070070877
0.071676552
0.073297846
0.074914291
0.076530972
0.078142354
0.079744068
0.081330781
0.082896079
0.084432775
0.08593318
0.087389236
0.088792578
0.090134529
0.091406079
0.092597825
0.093699897
0.09470185
0.095592533
0.09635991
0.096990833
0.097453643
0.097759762
0.097884209
0.097804029
0.097494947
0.096924299
0.096066637
0.094889134
0.0014431898
0.0050222977
0.0092049532
0.013808295
0.018612352
0.023412029
0.028043009
0.032389348
0.036383719
0.040005529
0.043268989
0.046210445
0.04884659
0.05120668
0.053372544
0.055410097
0.057327754
0.059170426
0.06095612
0.062695752
0.064405253
0.066097525
0.067782092
0.069446892
0.071109127
0.072774635
0.074434228
0.076088241
0.077732794
0.079363663
0.080975733
0.082562923
0.084118389
0.08563473
0.087104129
0.088518408
0.089869046
0.091147152
0.092343419
0.093448052
0.09445066
0.095340127
0.096104441
0.096730462
0.097186803
0.097484576
0.097598659
0.097506722
0.097183463
0.096597272
0.095722636
0.094526981
0.0013572885
0.0046646147
0.0085027771
0.01273789
0.017197834
0.021712234
0.026136069
0.030359482
0.034310316
0.037953762
0.041285768
0.044322885
0.047082585
0.049608053
0.051904023
0.054037479
0.05606573
0.05801848
0.059903547
0.061735168
0.063528148
0.065295223
0.067044654
0.068774281
0.070493895
0.072207713
0.073911876
0.075605291
0.077284823
0.078946513
0.080585498
0.082196004
0.083771498
0.085304859
0.086788503
0.088214445
0.089574317
0.090859353
0.092060347
0.093167575
0.094170702
0.095058649
0.095819425
0.096439898
0.096888988
0.097177462
0.097280031
0.097175072
0.09683615
0.096232834
0.095339529
0.094124175
0.0012798084
0.0043520738
0.007893488
0.011805628
0.015953609
0.020196954
0.024409592
0.028490387
0.032367125
0.035997093
0.039363542
0.042469
0.045325457
0.047962515
0.050412291
0.052646767
0.054766764
0.056816364
0.058799725
0.060722428
0.062598599
0.064441225
0.066258517
0.068052824
0.069830688
0.071595434
0.073345738
0.075080311
0.076796459
0.078490507
0.080157848
0.081792992
0.083389692
0.084941091
0.086439829
0.08787811
0.089247719
0.090540017
0.091745892
0.092855698
0.093859153
0.094745213
0.095501906
0.096116111
0.096557088
0.09683522
0.096925035
0.096805691
0.096449522
0.095827404
0.094913666
0.0012095323
0.0040761068
0.0073593643
0.010986947
0.014853212
0.018842551
0.022846594
0.026773965
0.030555192
0.034144002
0.037515578
0.040662577
0.043590002
0.046317674
0.048879708
0.051226521
0.053449306
0.055579803
0.057649457
0.059661095
0.061618915
0.063536936
0.065423365
0.067282406
0.069119168
0.070936517
0.072734329
0.074511509
0.076265687
0.07799345
0.079690435
0.08135141
0.082970388
0.084540753
0.086055358
0.087506586
0.088886374
0.090186201
0.091397053
0.092509357
0.09351288
0.094396612
0.095148599
0.095755727
0.096187644
0.096454299
0.096530017
0.096394824
0.096019723
0.095377046
0.094441046
0.001145479
0.0038302802
0.0068869766
0.0102624
0.013874195
0.017627493
0.021429578
0.025198996
0.02887058
0.032397328
0.035749795
0.038913883
0.041888021
0.044682876
0.047316894
0.04979119
0.05210052
0.054330701
0.05646456
0.058555432
0.060591751
0.062583998
0.064539586
0.066463121
0.068359017
0.070229911
0.072076226
0.073897114
0.075690458
0.077453066
0.079180791
0.080868626
0.082510815
0.084100957
0.0856321
0.087096795
0.088487118
0.089794665
0.091010513
0.092125155
0.093128406
0.094009284
0.09475585
0.095354999
0.09577681
0.096030751
0.09609093
0.095938313
0.095542497
0.094877443
0.093917266
0.0010868447
0.0036096547
0.0064659579
0.0096167621
0.012998131
0.016532753
0.020141705
0.023752923
0.027306262
0.03075576
0.03406978
0.037229845
0.04022905
0.043070789
0.045764687
0.048316635
0.050745323
0.053038837
0.05526913
0.057414153
0.059519869
0.061584321
0.063608102
0.06559532
0.067550033
0.069474736
0.071370081
0.073235376
0.075068689
0.076866994
0.078626319
0.080341842
0.082008001
0.083618583
0.085166805
0.08664537
0.088046482
0.089361841
0.090582607
0.091699332
0.092701874
0.093579272
0.0943196
0.09490976
0.095320315
0.095560198
0.095603295
0.095431552
0.095013142
0.094323874
0.093337602
0.0010329621
0.0034103616
0.006088171
0.009037918
0.012210162
0.01554232
0.018967736
0.02242315
0.025853662
0.029215357
0.032475998
0.03561453
0.038620085
0.041490635
0.044230087
0.046844085
0.049345998
0.051751204
0.054017917
0.056267492
0.05840659
0.060540105
0.062630288
0.064679622
0.066692168
0.06867027
0.070614626
0.072524572
0.074398269
0.076232793
0.078024293
0.079768087
0.081458764
0.083090263
0.084655945
0.086148639
0.08756066
0.0888838
0.090109288
0.09122773
0.092229011
0.09310219
0.093835346
0.094415387
0.094813423
0.095037785
0.095062173
0.094869447
0.094426457
0.093710905
0.00098327013
0.0032293144
0.0057471291
0.0085160865
0.011498125
0.014642906
0.017894592
0.021198146
0.02450399
0.027770852
0.030966903
0.03406974
0.037065758
0.039949029
0.042719378
0.045380433
0.047942129
0.050423788
0.052765546
0.055067204
0.057279618
0.059453698
0.061607978
0.063716892
0.065785539
0.067815934
0.069808675
0.071763005
0.073677055
0.075547937
0.077371852
0.079144208
0.080859696
0.082512366
0.084095689
0.085602594
0.087025484
0.088356224
0.0895861
0.090705754
0.091705093
0.092573182
0.093298099
0.093866759
0.094250882
0.094458134
0.094462159
0.094246361
0.093776765
0.093032816
0.0009372914
0.0030640097
0.0054375856
0.0080432705
0.010851924
0.013823314
0.016911041
0.020067667
0.023248905
0.026416487
0.029539654
0.032595507
0.035568675
0.038450488
0.041237684
0.04393126
0.046536819
0.049062609
0.051501023
0.053834775
0.056126053
0.058348265
0.060543638
0.062708153
0.064830406
0.066911271
0.068951119
0.070948999
0.072902878
0.074809814
0.076666
0.078466866
0.080207155
0.081880984
0.083481892
0.085002876
0.0864364
0.08777438
0.089008139
0.090128342
0.091124905
0.091986883
0.092702348
0.093258219
0.093626889
0.093815233
0.09379742
0.093556051
0.093057903
0.092283402
0.00089461528
0.0029123842
0.0051552374
0.0076128522
0.010263081
0.013073982
0.016007312
0.019022558
0.022080579
0.025146336
0.028190588
0.031190545
0.034129809
0.036997813
0.039788934
0.042501637
0.045137952
0.047701309
0.050190171
0.052609645
0.054915583
0.057223483
0.059451032
0.061654273
0.063827153
0.065955927
0.068040927
0.0700809
0.072073538
0.074015732
0.075903599
0.07773253
0.079497261
0.08119192
0.082810075
0.084344751
0.085788442
0.087133087
0.088370027
0.089489931
0.090482706
0.091337387
0.092042022
0.092583538
0.092935081
0.093102632
0.093061151
0.092791843
0.092263202
0.091455948
0.00085488447
0.002772713
0.0048965083
0.007219293
0.0097244025
0.012386665
0.015174813
0.018054568
0.020991692
0.023954487
0.026915541
0.029852622
0.032748852
0.035592399
0.03837585
0.041095516
0.043750697
0.046342171
0.048870441
0.051344618
0.053702512
0.056035257
0.058345736
0.060559211
0.062776376
0.064949628
0.067077133
0.06915708
0.071186803
0.073162914
0.075081377
0.076937478
0.078725884
0.080440682
0.082075416
0.083623098
0.085076216
0.086426702
0.08766589
0.088784431
0.089772207
0.090618213
0.091310464
0.091835886
0.092168485
0.092313233
0.092246067
0.091946492
0.091385218
0.090543144
0.00081778474
0.0026435336
0.004658388
0.0068579067
0.0092297266
0.011754183
0.014405926
0.017156215
0.019975406
0.022835147
0.025710073
0.028578844
0.031424528
0.034234498
0.037000023
0.03971569
0.042378702
0.044987836
0.047542574
0.050044288
0.052484418
0.054824523
0.057181401
0.059443336
0.061678466
0.063892103
0.06605882
0.068175934
0.070240411
0.072248504
0.074195926
0.076077799
0.077888656
0.079622483
0.081272748
0.082832404
0.084293891
0.085649103
0.086889335
0.088005203
0.088986542
0.089822292
0.090500406
0.091007809
0.091319497
0.091439304
0.091344324
0.091012213
0.090416082
0.089537172
0.00078303688
0.0025235901
0.0044383119
0.0065246871
0.0087737284
0.011170237
0.013693845
0.016320678
0.01902532
0.021782692
0.024569608
0.027365878
0.030154842
0.032923457
0.035662053
0.038363892
0.04102458
0.043641321
0.046212439
0.048737983
0.051222166
0.05360199
0.055960382
0.058295922
0.060549962
0.062783067
0.064985139
0.067135877
0.069232074
0.071269569
0.073243717
0.075149405
0.076980974
0.078732249
0.080396563
0.081966764
0.083435198
0.084793684
0.086033451
0.087145054
0.088118266
0.088941952
0.08960397
0.090091212
0.090379883
0.090472493
0.090347474
0.089980403
0.08934737
0.088429745
0.00075039045
0.0024117909
0.0042340704
0.0062161757
0.0083517692
0.010629264
0.013032458
0.015541707
0.018135437
0.020791694
0.023489535
0.026210105
0.028937281
0.031657905
0.034361691
0.037040923
0.039689988
0.042304837
0.044882616
0.047421634
0.049920644
0.052367486
0.054718896
0.057078859
0.059398751
0.061625245
0.063855392
0.066035305
0.068159484
0.07022311
0.072221111
0.074148052
0.075998028
0.077764641
0.079441037
0.081019902
0.082493448
0.083853377
0.08509082
0.08619625
0.087159365
0.087968942
0.088612694
0.089077369
0.089340791
0.089403874
0.089246551
0.088842139
0.088170208
0.087212187
0.00071961887
0.0023071773
0.0040437395
0.0059293596
0.0079597778
0.010126319
0.012416249
0.014813566
0.017300134
0.019856936
0.022465265
0.025107732
0.027768961
0.030435925
0.033097999
0.035746772
0.038375718
0.040979791
0.043555121
0.046098855
0.048609049
0.051085915
0.053464322
0.055823738
0.058179448
0.060435812
0.062667674
0.064872469
0.067020297
0.069106085
0.071124384
0.073069369
0.074934829
0.076714093
0.078400061
0.079985209
0.081461566
0.08282068
0.084053549
0.085150545
0.086101284
0.086894464
0.087517605
0.087956928
0.08819281
0.088224017
0.088031879
0.087587995
0.086875358
0.085875533
0.00069051575
0.0022088989
0.0038656284
0.0056615923
0.0075941573
0.0096569914
0.011840226
0.014130971
0.016514136
0.018973414
0.021492278
0.024054879
0.026646745
0.029255193
0.031869485
0.034480757
0.037081811
0.039666817
0.042231042
0.044770628
0.047282217
0.049761565
0.052193961
0.054533345
0.056894766
0.059209168
0.061429235
0.063645848
0.065812199
0.06791545
0.06994977
0.071908907
0.073786268
0.075574867
0.077267308
0.078855805
0.080332161
0.081687727
0.082913342
0.08399925
0.084934991
0.085709243
0.086309419
0.086719864
0.086926047
0.086923257
0.086693525
0.086208266
0.085453365
0.084410691
0.00066289193
0.0021161955
0.0036982389
0.0054105323
0.0072517111
0.009217321
0.011299853
0.013489053
0.015772499
0.01813635
0.020566156
0.023047634
0.025567335
0.028113088
0.030674233
0.033241662
0.035807699
0.038365904
0.040910848
0.0434379
0.045942994
0.048422341
0.050873186
0.053218065
0.055568731
0.057908161
0.060147939
0.062353962
0.064532898
0.066648192
0.068693522
0.070662203
0.072547194
0.074341143
0.076036319
0.077624632
0.079097617
0.080446393
0.081661602
0.08273334
0.083651076
0.084403589
0.084979165
0.085355104
0.085530299
0.085491579
0.085221233
0.08469321
0.083894763
0.082808649
0.00063657339
0.002028383
0.0035402348
0.0051740953
0.0069295845
0.0088037473
0.010791005
0.012883324
0.015070594
0.017341189
0.019682604
0.022082108
0.024527346
0.02700679
0.029510025
0.032027866
0.03455233
0.037076516
0.039594434
0.042100843
0.044591139
0.047061652
0.049512365
0.051872238
0.054197972
0.056535354
0.058818297
0.061004016
0.063180137
0.065301394
0.067351996
0.069324876
0.071212512
0.073007127
0.074700629
0.076284589
0.077750239
0.079088431
0.080289586
0.081343625
0.0822399
0.082967149
0.083513549
0.083855699
0.083995802
0.083918579
0.08360517
0.083033178
0.082190308
0.081060746
0.00061139964
0.001944843
0.0033904178
0.0049504173
0.0066252192
0.0084130586
0.010309929
0.012309649
0.014404098
0.016583613
0.018837482
0.021154474
0.023523363
0.025933362
0.028374434
0.030837463
0.033314301
0.035797714
0.038281268
0.040759179
0.043226152
0.045677094
0.048105755
0.050494161
0.052796249
0.055114776
0.057407091
0.059598853
0.061752168
0.063872355
0.065921753
0.067892753
0.069777321
0.071567203
0.073253926
0.074828702
0.076282434
0.077605684
0.078788627
0.079820991
0.080691985
0.081390255
0.081903884
0.082210356
0.082312276
0.082194197
0.081835804
0.081218852
0.080331308
0.07915901
0.00058722262
0.001865015
0.0032477103
0.0047378261
0.0063363165
0.0080423549
0.0098532069
0.011764226
0.013768985
0.015859546
0.018026823
0.020261006
0.022552
0.024889822
0.027264917
0.029668362
0.032091968
0.034528285
0.036970537
0.0394125
0.041848336
0.044272298
0.04667821
0.049060234
0.051356214
0.053639671
0.055916293
0.058134927
0.06025397
0.062358609
0.064399677
0.066362026
0.068237088
0.070016127
0.071690265
0.073250355
0.074686957
0.075990331
0.077150397
0.078156682
0.078998249
0.079663665
0.080140935
0.080409166
0.080470078
0.080309042
0.079904244
0.079241836
0.078310067
0.077096584
0.00056390597
0.0017883906
0.0031111414
0.0045348196
0.0060608101
0.0076890187
0.0094177322
0.011243567
0.013161526
0.015165166
0.017246858
0.019398115
0.021609944
0.023873203
0.026178891
0.02851838
0.030883551
0.033266843
0.035661234
0.038060159
0.040457368
0.042846643
0.045221175
0.047571958
0.049881758
0.05211449
0.05436933
0.05658064
0.058688223
0.060757821
0.062783169
0.064729455
0.066587864
0.068349251
0.070004316
0.071543561
0.072957212
0.074235219
0.075367251
0.076342661
0.077150322
0.077778774
0.078216162
0.078443376
0.078460751
0.078254821
0.077802816
0.077095121
0.076120384
0.07486821
0.00054132456
0.0017145092
0.0029798375
0.0043400495
0.005796844
0.0073506915
0.0090006906
0.010744488
0.012578282
0.014496912
0.016494038
0.018562383
0.020694007
0.02288061
0.025113802
0.027385329
0.029687231
0.032011931
0.034352254
0.036701381
0.039052747
0.041399832
0.043735766
0.046052799
0.048343312
0.050543302
0.052757603
0.054938598
0.057054653
0.059071807
0.061070639
0.062992587
0.064826524
0.06656279
0.068191662
0.069703296
0.071087611
0.072334245
0.07343264
0.074371959
0.075141027
0.075728369
0.076122289
0.076305698
0.076277771
0.076024686
0.075525707
0.074773655
0.073758113
0.072470772
0.00051936435
0.001642956
0.0028530149
0.0041523093
0.0055427573
0.0070252569
0.0085995446
0.010264099
0.012016107
0.013851498
0.015765058
0.017750597
0.019801162
0.021909279
0.024067195
0.026267086
0.028501232
0.030762121
0.033042505
0.035335395
0.037633995
0.03993159
0.042221412
0.044496783
0.046752524
0.048919995
0.051083266
0.053230319
0.055323707
0.057306551
0.059260175
0.061149777
0.06295099
0.064654121
0.06624914
0.067725863
0.069073922
0.070282731
0.071341535
0.072239372
0.072965045
0.073507108
0.073853963
0.07399095
0.073916239
0.073614621
0.073069684
0.072274969
0.071221766
0.069903874
0.00049792231
0.0015733595
0.0027299758
0.0039705262
0.0052970723
0.0067108279
0.0082120228
0.0097997991
0.011472152
0.013225927
0.015056879
0.016959785
0.018928596
0.020956629
0.023036771
0.025161671
0.027323905
0.029516101
0.031731013
0.033961547
0.036200741
0.038441713
0.040677659
0.042902217
0.045111238
0.047245037
0.049347639
0.051450846
0.053505366
0.055456901
0.057353012
0.059200864
0.060960535
0.06262208
0.064175167
0.065609291
0.066913852
0.068078087
0.069091112
0.069941934
0.070619429
0.071112268
0.071408361
0.071496803
0.071374142
0.071023845
0.070434405
0.069599773
0.068513128
0.067170415
0.00047690674
0.0015053912
0.0026101047
0.0037937551
0.0050584874
0.0064057391
0.0078361138
0.0093492742
0.010943869
0.012617503
0.014366754
0.016187246
0.018073744
0.020020308
0.022020451
0.024067313
0.026153812
0.028272772
0.030417017
0.032579411
0.034752873
0.036930335
0.039104676
0.041268542
0.043413336
0.045523104
0.047557367
0.049599518
0.051596469
0.053526897
0.055354184
0.057146858
0.058856008
0.060467347
0.061970208
0.063353837
0.064607466
0.065720232
0.066681216
0.067479493
0.06810421
0.068544828
0.068785439
0.068824435
0.068653205
0.068255068
0.067623427
0.06675265
0.065637862
0.064277141
0.000456239
0.0014387668
0.0024928669
0.0036211758
0.0048258715
0.0061085411
0.0074700623
0.0089104987
0.010429019
0.012023846
0.013692252
0.015430587
0.01723434
0.019098251
0.021016433
0.022982518
0.024989794
0.027031331
0.029100073
0.031188909
0.033290696
0.03539825
0.037504294
0.039601346
0.041681474
0.043736449
0.045709467
0.047681506
0.049618319
0.051497081
0.053265677
0.054989786
0.056640083
0.058192748
0.05963711
0.060962356
0.062157641
0.063212113
0.064114909
0.064855248
0.065422523
0.065806459
0.065992342
0.06597978
0.065759319
0.065315312
0.064644747
0.063742622
0.062606023
0.061235089
0.00043585384
0.0013732467
0.0023778086
0.0034520917
0.0045982631
0.0058179989
0.0071123693
0.0084817379
0.0099256775
0.011442911
0.013031281
0.014687753
0.016408451
0.018188723
0.020023245
0.021906129
0.023831048
0.025791346
0.027780141
0.029790398
0.031814975
0.033846647
0.035878104
0.037901956
0.039910791
0.041897591
0.043805215
0.045699517
0.047568044
0.049380744
0.051089477
0.052735149
0.054318037
0.05580367
0.057181467
0.058440673
0.059570482
0.060560156
0.061399006
0.062076495
0.062582335
0.062906656
0.063037027
0.062972733
0.062703035
0.062216623
0.061511269
0.060583561
0.059432416
0.058059882
0.00041569643
0.0013086355
0.0022645607
0.0032859307
0.0043748694
0.0055330918
0.0067617927
0.008061552
0.0094322496
0.010873001
0.012382112
0.013957064
0.01559452
0.017290371
0.019039805
0.020837393
0.02267719
0.02455284
0.026457666
0.028384756
0.030327021
0.032277241
0.034228101
0.036172245
0.03810237
0.040011708
0.041849779
0.04365823
0.045448898
0.047180346
0.048836724
0.050392025
0.051897709
0.053308218
0.054611839
0.05579786
0.056855619
0.057774596
0.058544408
0.059154894
0.059596186
0.059858842
0.059933211
0.05981781
0.059500842
0.058975874
0.058240967
0.057294363
0.056136718
0.054771804
0.00039572385
0.0012447829
0.0021528389
0.0031222462
0.0041550687
0.0052530153
0.0064173514
0.0076488028
0.0089474748
0.010312784
0.011743404
0.013237237
0.014791404
0.016402265
0.018065467
0.019776009
0.021528319
0.023316348
0.025133652
0.026973476
0.028828818
0.030692487
0.032557139
0.034415274
0.036258945
0.038078106
0.039854363
0.041566418
0.04327075
0.044918338
0.046498095
0.047970735
0.049388665
0.05071711
0.051939828
0.053046368
0.054026363
0.05486963
0.055566236
0.056106564
0.056481315
0.056681147
0.056699971
0.056534959
0.05617405
0.055615261
0.054856923
0.053898866
0.052743333
0.051395594
0.0003759087
0.0011815842
0.0020424425
0.0029607211
0.0039384113
0.0049771839
0.0060783287
0.0072426603
0.0084704403
0.009761308
0.011114223
0.012527423
0.013998408
0.015523939
0.017100068
0.018722183
0.02038507
0.022082983
0.02380973
0.025558737
0.027323124
0.029095752
0.030869255
0.032636013
0.034387958
0.036116051
0.037810439
0.039432628
0.041042292
0.042599914
0.044092226
0.04547894
0.046803284
0.048043841
0.049180095
0.050202013
0.051099676
0.051863373
0.052483749
0.052951887
0.053259532
0.05339646
0.053361744
0.053148838
0.052748901
0.052161864
0.051386938
0.050425402
0.049280894
0.047959939
0.00035623898
0.0011189826
0.0019332562
0.0028011679
0.0037246224
0.0047052341
0.0057442774
0.0068426093
0.0080005906
0.0092180171
0.010494061
0.011827225
0.013215315
0.01465543
0.016143971
0.017676676
0.019248662
0.020854486
0.02248821
0.02414347
0.025813541
0.027491385
0.029169695
0.030840897
0.032497122
0.034130217
0.035732258
0.037262227
0.038772998
0.040235274
0.041633463
0.042929965
0.04415649
0.045304701
0.046350288
0.047283822