/*--------------------------------*- C++ -*----------------------------------*\
| =========                 |                                                 |
| \\      /  F ield         | OpenFOAM: The Open Source CFD Toolbox           |
|  \\    /   O peration     | Version:  2312                                  |
|   \\  /    A nd           | Website:  www.openfoam.com                      |
|    \\/     M anipulation  |                                                 |
\*---------------------------------------------------------------------------*/
FoamFile
{
    version     2.0;
    format      ascii;
    arch        "LSB;label=32;scalar=64";
    class       volScalarField;
    location    "0.01";
    object      k;
}
// * * * * * * * * * * * * * * * * * * * * * * * * * * * * * * * * * * * * * //

dimensions      [0 2 -2 0 0 0 0];

internalField   nonuniform List<scalar> 
3275
(
11.308206
12.195714
13.14187
14.148129
15.266792
16.548575
18.022271
19.678803
21.482039
23.379087
25.310413
27.216054
29.038767
30.725647
32.22865
33.504261
34.512716
35.217016
35.646153
35.870463
35.941651
35.897245
35.760536
35.546357
35.272426
34.949703
34.586316
34.188393
33.760591
33.30647
32.828767
32.329657
31.8109
31.273984
30.720182
30.150633
29.566419
28.968597
28.358232
27.73643
27.104352
26.463241
25.814457
25.159405
24.499559
23.836904
23.172611
22.508478
21.846327
21.187813
20.534834
19.889397
11.372858
12.252527
13.163193
14.15371
15.268202
16.550442
18.025466
19.682013
21.48377
23.378172
25.306175
27.208227
29.02731
30.710641
32.210233
33.482602
34.487986
35.189293
35.617282
35.841592
35.913506
35.870014
35.734591
35.521763
35.249228
34.927888
34.565843
34.169208
33.742631
33.289668
32.813058
32.314976
31.797186
31.26118
30.708232
30.139488
29.55603
28.958921
28.349229
27.728062
27.096586
26.456045
25.807804
25.1533
24.49399
23.831704
23.167813
22.504075
21.842299
21.184137
20.531474
19.886344
11.502505
12.341202
13.191048
14.158695
15.268867
16.553591
18.031527
19.688066
21.486817
23.375939
25.297337
27.19226
29.004136
30.68041
32.173222
33.439142
34.438433
35.133856
35.559631
35.784092
35.857231
35.815706
35.682863
35.472734
35.202979
34.884393
34.525019
34.130942
33.706795
33.256129
32.781682
32.285633
31.769753
31.235541
30.684276
30.117112
29.53514
28.939429
28.331055
27.71113
27.080827
26.441396
25.794208
25.140716
24.482376
23.820927
23.157851
22.494895
21.833864
21.176411
20.52441
19.879906
11.672319
12.407499
13.200011
14.153627
15.26576
16.557377
18.039908
19.69625
21.490384
23.37166
25.283289
27.167672
28.968874
30.634673
32.117401
33.373715
34.36395
35.050776
35.473379
35.698049
35.773209
35.73459
35.605596
35.3995
35.133894
34.819412
34.464019
34.073754
33.653227
33.205981
32.734753
32.241731
31.728694
31.197148
30.648385
30.083571
29.503807
28.910173
28.303754
27.685672
27.057109
26.419325
25.773694
25.121681
24.464749
23.804586
23.142736
22.480948
21.821027
21.164633
20.513636
19.870075
11.756392
12.383263
13.169832
14.130679
15.257199
16.561642
18.049711
19.705375
21.493297
23.364291
25.263149
27.133758
28.920973
30.573002
32.042438
33.286055
34.264334
34.940122
35.35878
35.583838
35.661748
35.627025
35.503135
35.302391
35.042276
34.733222
34.383093
33.997868
33.582129
33.139405
32.672436
32.183416
31.674138
31.14612
30.600667
30.03896
29.462116
28.871227
28.267393
27.651749
27.025487
26.389877
25.746303
25.096236
24.441152
23.78271
23.122491
22.462255
21.803807
21.148817
20.499155
19.856854
11.380337
12.245661
13.09972
14.093609
15.244398
16.565418
18.060016
19.713778
21.494021
23.353197
25.237382
27.092159
28.863242
30.499331
31.953326
33.182129
34.14644
34.809895
35.224329
35.450035
35.531256
35.501138
35.383228
35.188746
34.935038
34.632318
34.288327
33.908982
33.498828
33.061382
32.599383
32.115036
31.610148
31.08625
30.544662
29.986585
29.413153
28.825473
28.224661
27.611865
26.988292
26.355223
25.714052
25.066257
24.413326
23.756908
23.098606
22.440189
21.783468
21.130124
20.482029
19.841209
11.230116
12.101574
13.018981
14.052693
15.230534
16.568107
18.069176
19.720613
21.492014
23.338012
25.206182
27.043658
28.797056
30.415605
31.852551
33.064908
34.013613
34.664138
35.07436
35.301006
35.386039
35.361088
35.249828
35.062308
34.815708
34.520008
34.182823
33.809997
33.406038
32.974446
32.517964
32.038805
31.538791
31.019468
30.482176
29.928134
29.358493
28.774381
28.176929
27.567301
26.946718
26.316476
25.677977
25.03271
24.382173
23.728012
23.071849
22.415462
21.760668
21.109158
20.462811
19.823648
11.17399
11.982869
12.939296
14.010273
15.215379
16.569495
18.076676
19.724986
21.485997
23.31641
25.166062
26.98358
28.716516
30.31469
31.73176
32.924813
33.854879
34.49154
34.897493
35.125546
35.215222
35.196415
35.092962
34.913617
34.675345
34.387865
34.05865
33.693459
33.296759
32.872028
32.422016
31.948943
31.45465
30.940699
30.408452
29.859149
29.293966
28.714048
28.120547
27.514645
26.89758
26.270662
25.635308
24.993017
24.345296
23.693799
23.04016
22.386167
21.733646
21.0843
20.440015
19.802809
11.16002
11.905794
12.87354
13.971721
15.200376
16.569357
18.081416
19.725191
21.473955
23.286668
25.115316
26.910059
28.619729
30.194654
31.588956
32.759732
33.667418
34.290352
34.692258
34.922317
35.017559
35.005972
34.911498
34.741603
34.512922
34.234904
33.914862
33.558464
33.170124
32.753302
32.31075
31.8447
31.35701
30.849262
30.322843
29.779019
29.218989
28.643922
28.054993
27.453404
26.840411
26.217344
25.585632
24.946789
24.302334
23.653928
23.003219
22.352007
21.702127
21.055294
20.413404
19.778473
11.166682
11.868642
12.828438
13.941081
15.186857
16.567296
18.081987
19.719432
21.453841
23.24663
25.051843
26.821117
28.50455
30.053344
31.421949
32.567468
33.449445
34.058952
34.45725
34.690057
34.791875
34.78871
34.704357
34.545261
34.327471
34.060188
33.750555
33.404138
33.025294
32.617462
32.183394
31.725335
31.245163
30.744483
30.224707
29.687131
29.13298
28.563452
27.979743
27.383081
26.774744
26.156078
25.528532
24.893633
24.252916
23.60805
22.9607
22.312677
21.665825
21.021874
20.382732
19.750413
11.183583
11.861522
12.804515
13.920065
15.175279
16.562446
18.076799
19.705435
21.423352
23.193925
24.973244
26.714352
28.368683
29.888404
31.228337
32.34574
33.199563
33.795842
34.191169
34.42761
34.537085
34.543736
34.470502
34.323676
34.118092
33.862839
33.564876
33.229654
32.861468
32.463733
32.039201
31.590131
31.11842
30.625699
30.11341
29.58288
29.035363
28.472086
27.894274
27.30318
26.700104
26.086417
25.463584
24.83315
24.196665
23.555813
22.912271
22.267864
21.62445
20.983772
20.347749
19.718396
11.204904
11.873943
12.798294
13.908039
15.165029
16.553513
18.063763
19.680843
21.379927
23.125937
24.87686
26.587151
28.209567
29.697271
31.005538
32.091945
32.916182
33.499652
33.892851
34.133957
34.25226
34.27016
34.209058
34.076051
33.883974
33.642058
33.357038
33.03424
32.677892
32.291381
31.877458
31.438396
30.976112
30.492266
29.988333
29.46567
28.925566
28.369279
27.798065
27.213203
26.61602
26.007911
25.390362
24.764937
24.133201
23.496855
22.857593
22.217253
21.577705
20.940708
20.308196
19.682184
11.227164
11.897127
12.80429
13.902506
15.154443
16.538669
18.040656
19.643076
21.32077
23.03982
24.759818
26.436664
28.02439
29.477145
30.750706
31.803044
32.597621
33.169146
33.561299
33.808245
33.93664
33.967185
33.919381
33.801641
33.624399
33.397131
33.126332
32.817194
32.473871
32.099722
31.697495
31.269474
30.817602
30.343566
29.848875
29.334923
28.803033
28.254496
27.690601
27.112658
26.522022
25.920112
25.30844
24.688587
24.062141
23.430816
22.796324
22.16052
21.525287
20.892403
20.263811
19.641532
11.248152
11.923949
12.816404
13.899694
15.140939
16.515551
18.004961
19.589348
21.2429
22.932485
24.619046
26.259821
27.810104
29.224991
30.460754
31.475223
32.242233
32.803279
33.195723
33.449815
33.589632
33.634206
33.60095
33.499839
33.338769
33.127451
32.872142
32.577891
32.248779
31.888132
31.498692
31.082756
30.64229
30.179011
29.694465
29.190082
28.667223
28.127215
27.57138
27.001062
26.417645
25.822577
25.217394
24.603699
23.9831
23.357332
22.728121
22.097342
21.466892
20.838569
20.214327
19.596192
11.2662
11.94858
12.828429
13.895047
15.121209
16.481319
17.953839
19.516671
21.143175
22.800679
24.451244
26.053351
27.563443
28.937554
30.132474
31.105562
31.848721
32.401282
32.795585
33.058236
33.210841
33.270811
33.253421
33.170177
33.026619
32.83253
32.593954
32.315801
32.002073
31.656058
31.280492
30.877683
30.44962
29.998052
29.524563
29.030619
28.517621
27.986933
27.439916
26.877945
26.302438
25.714871
25.116807
24.509873
23.895699
23.276039
22.65264
22.027393
21.402213
20.778919
20.159474
19.545914
11.279701
11.965812
12.834388
13.883613
15.09141
16.432716
17.884185
19.421871
21.018292
22.641007
24.252956
25.813756
27.280934
28.611376
29.762513
30.693994
31.416419
31.96275
32.360646
32.63334
32.800104
32.87679
32.876689
32.81231
32.687642
32.512014
32.291376
32.0305
31.7333
31.403029
31.042408
30.653759
30.239092
29.800188
29.338668
28.856039
28.353739
27.833175
27.295741
26.742853
26.175959
25.596568
25.006269
24.406716
23.799561
23.18658
22.569538
21.95035
21.330945
20.713165
20.098982
19.490445
11.28663
11.97039
12.828537
13.860291
15.047352
16.366152
17.792645
19.301602
20.864812
22.449931
24.020592
25.537388
26.958877
28.242759
29.346756
30.240129
30.945162
31.487694
31.891011
32.175252
32.357512
32.452113
32.470995
32.425955
32.321731
32.165697
31.964148
31.721678
31.442115
31.128664
30.784036
30.41056
30.010267
29.584971
29.136329
28.665887
28.175127
27.665491
27.138417
26.595355
26.037789
25.467259
24.885384
24.293845
23.694319
23.088601
22.47848
21.865892
21.252785
20.64102
20.032581
19.429532
11.285084
11.956558
12.805307
13.820047
14.984654
16.277777
17.675651
19.152355
20.679165
22.22379
23.750426
25.220444
26.593409
27.827871
28.88164
29.743933
30.435332
30.976586
31.387167
31.684426
31.883453
31.997138
32.036346
32.011447
31.928859
31.79353
31.612151
31.389157
31.128283
30.832686
30.505061
30.147741
29.762778
29.352016
28.917148
28.45976
27.981373
27.483472
26.967534
26.435046
25.887529
25.326554
24.753772
24.170892
23.579616
22.98176
22.379136
21.773705
21.167433
20.562202
19.960002
19.362923
11.279036
11.932171
12.759364
13.758064
14.898878
16.163552
17.52945
18.970473
20.457662
21.958812
23.438595
24.859009
26.180541
27.36272
28.369558
29.206492
29.887956
30.430403
30.850017
31.161667
31.378621
31.512448
31.573076
31.569326
31.509152
31.39564
31.235428
31.0329
30.7917
30.514932
30.205269
29.865047
29.496336
29.101008
28.680789
28.237304
27.772116
27.286749
26.78272
26.261554
25.724808
25.174088
24.611075
24.037505
23.45511
22.865726
22.271186
21.673483
21.0746
20.476434
19.880986
19.290364
11.270311
11.900715
12.695369
13.669964
14.785635
16.019315
17.350137
18.752161
20.196508
21.651126
23.081155
24.449018
25.716119
26.843082
27.812645
28.629736
29.304736
29.85066
30.280908
30.608154
30.844028
30.998894
31.081769
31.10047
31.062823
30.972372
30.834187
30.653019
30.432394
30.175357
29.884556
29.562323
29.210742
28.83171
28.426986
27.998232
27.547048
27.075001
26.583645
26.074544
25.54929
25.009524
24.456956
23.893355
23.320478
22.740184
22.154327
21.564934
20.974003
20.383448
19.795281
11.259812
11.864288
12.620493
13.553597
14.640631
15.840807
17.133706
18.493517
19.89181
21.296771
22.674108
23.986315
25.195774
26.274806
27.214472
28.016463
28.688041
29.239419
29.681636
30.025448
30.281023
30.457625
30.563415
30.605522
30.59074
30.524153
30.408807
30.249787
30.050541
29.814052
29.542936
29.239518
28.90589
28.543972
28.15555
27.742322
27.305925
26.847962
26.370028
25.873723
25.360675
24.832558
24.291112
23.738137
23.17542
22.60484
22.028269
21.44778
20.865377
20.282989
19.702662
11.248048
11.824268
12.539026
13.42146
14.460624
15.623673
16.87611
18.190547
19.53961
20.891701
22.213466
23.466691
24.623327
25.66388
26.579618
27.370316
28.040902
28.599267
29.054449
29.415496
29.691287
29.890091
30.019266
30.085341
30.094112
30.051512
29.959867
29.823646
29.646469
29.431244
29.18055
28.896696
28.58178
28.237737
27.866378
27.46943
27.048567
26.605427
26.141642
25.658848
25.158707
24.642924
24.113272
23.571578
23.019661
22.45942
21.892747
21.321761
20.748467
20.17481
19.602876
11.235352
11.781649
12.453669
13.281167
14.26161
15.370074
16.573387
17.839195
19.135934
20.43175
21.695373
22.895693
24.008572
25.017331
25.913544
26.695691
27.366949
27.933295
28.402
28.780615
29.076838
29.29804
29.450828
29.541128
29.57419
29.555312
29.488115
29.375209
29.220664
29.027308
28.797672
28.534045
28.238523
27.913048
27.559454
27.179495
26.774872
26.347259
25.898321
25.429729
24.943178
24.440403
23.923204
23.393439
22.852956
22.303681
21.747518
21.18664
20.623042
20.058682
19.49569
11.221978
11.737208
12.366227
13.137475
14.053908
15.09762
16.239246
17.446036
18.685059
19.924403
21.1342
22.287137
23.361689
24.342847
25.222317
25.997587
26.670349
27.245046
27.727356
28.123444
28.440009
28.683514
28.859882
28.974452
29.032046
29.037084
28.994313
28.905271
28.77378
28.602769
28.394716
28.151879
27.876344
27.570057
27.234865
26.872543
26.484818
26.073394
25.639966
25.186238
24.713935
24.22482
23.720721
23.20352
22.675098
22.137407
21.592373
21.042209
20.48889
19.934398
11.208136
11.691591
12.277989
12.993439
13.844191
14.818116
15.890615
17.031161
18.207607
19.388744
20.545886
21.653864
22.692745
23.648391
24.512405
25.281382
25.955716
26.538445
27.033924
27.446955
27.783408
28.048843
28.248467
28.387086
28.469077
28.498448
28.479452
28.414814
28.306636
28.158309
27.972239
27.750645
27.495593
27.209027
26.892797
26.548695
26.178468
25.783845
25.366549
24.92831
24.470884
23.996057
23.505682
23.001665
22.485916
21.960419
21.427135
20.888284
20.345823
19.801785
11.194009
11.645355
12.189929
12.851068
13.636765
14.539394
15.539173
16.609113
17.719309
18.840077
19.94404
21.007438
22.011303
22.941867
23.790425
24.552702
25.227907
25.817737
26.325377
26.754412
27.109934
27.396592
27.618868
27.781041
27.887072
27.940667
27.945296
27.9048
27.820218
27.694767
27.530946
27.330928
27.096749
26.830338
26.533548
26.208174
25.85598
25.478713
25.078119
24.655954
24.213995
23.754055
23.278004
22.787769
22.285291
21.77259
21.251661
20.724704
20.193679
19.66067
11.179759
11.598984
12.102813
12.711723
13.434393
14.266556
15.192825
16.190216
17.231907
18.290418
19.339959
20.357969
21.326146
22.230837
23.06291
23.817231
24.491892
25.087353
25.60562
26.049335
26.422761
26.729541
26.973571
27.158531
27.287981
27.365319
27.393668
27.376402
27.315689
27.21314
27.07169
26.89345
26.680416
26.434494
26.157526
25.851306
25.517606
25.158186
24.774809
24.369251
23.94331
23.498818
23.037659
22.56178
22.073155
21.573833
21.065839
20.551348
20.032333
19.510919
11.165526
11.552898
12.017262
12.576343
13.238823
14.002846
14.856779
15.781601
16.753936
17.748959
18.742766
19.714039
20.64509
21.522309
22.336115
23.080552
23.752663
24.351756
24.878729
25.335486
25.72523
26.050691
26.315222
26.521952
26.673948
26.774342
26.825993
26.831554
26.794175
26.71458
26.595472
26.439075
26.247334
26.022121
25.765257
25.478527
25.163702
24.822548
24.456838
24.068365
23.658943
23.230418
22.784687
22.323707
21.849487
21.364105
20.869603
20.368135
19.861694
19.35243
11.151435
11.507463
11.93378
12.44558
13.051134
13.750235
14.534327
15.388018
16.291397
17.222517
18.1596
19.082717
19.974883
20.822587
21.615865
22.348022
23.01514
23.615482
24.148943
24.616634
25.020716
25.363166
25.646638
25.873826
26.04728
26.169809
26.244
26.272181
26.257036
26.200388
26.10344
25.968806
25.798374
25.593971
25.357384
25.090383
24.794726
24.472178
24.124518
23.753546
23.361088
22.949002
22.519189
22.073615
21.614325
21.143414
20.662937
20.175032
19.681712
19.185141
11.137591
11.462987
11.852776
12.319889
12.871953
13.509834
14.227409
15.01245
15.848314
16.715954
17.595855
18.469637
19.321167
20.137173
20.907435
21.624645
22.284047
22.882971
23.420392
23.896572
24.312695
24.670139
24.970775
25.216819
25.410414
25.553957
25.649731
25.699835
25.706313
25.671826
25.596881
25.483782
25.334539
25.15092
24.934672
24.687533
24.411244
24.107559
23.778253
23.425129
23.05002
22.65479
22.241342
21.811637
21.367764
20.911821
20.445878
19.972054
19.49238
19.009027
11.124083
11.419727
11.774577
12.199579
12.701607
13.282174
13.937028
14.656603
15.427198
16.232541
17.055416
17.879109
18.688496
19.470716
20.215462
20.914969
21.563788
22.158435
22.697042
23.179025
23.604677
23.974835
24.290656
24.553732
24.7659
24.929141
25.045331
25.11635
25.143972
25.130403
25.077205
24.985271
24.856957
24.693969
24.498
24.270749
24.013928
23.729272
23.418545
23.083543
22.726099
22.348084
21.951392
21.537967
21.109962
20.66945
20.21852
19.759267
19.293736
18.824104
11.110985
11.377891
11.699435
12.084845
12.540212
13.067395
13.663539
14.32126
15.029417
15.774293
16.540906
17.314268
18.080395
18.827005
19.543889
20.223001
20.858353
21.445779
21.982653
22.4676
22.900144
23.28051
23.609299
23.887451
24.116407
24.297793
24.433057
24.523809
24.571649
24.578211
24.545785
24.474671
24.366882
24.224239
24.048368
23.840918
23.603561
23.338004
23.045991
22.729306
22.389774
22.029263
21.649661
21.252872
20.841147
20.416492
19.981016
19.536786
19.085865
18.630434
11.098354
11.337641
11.627535
11.975793
12.387744
12.865377
13.406863
14.006559
14.655499
15.342242
16.053909
16.777227
17.499442
18.208998
18.895954
19.552165
20.17127
20.748553
21.280739
21.765752
22.202441
22.590394
22.929751
23.220864
23.464648
23.662408
23.815218
23.924356
23.991228
24.017236
24.004226
23.953479
23.86568
23.742964
23.586886
23.399032
23.181028
22.934543
22.661289
22.36303
22.041577
21.698788
21.33654
20.956702
20.56162
20.153201
19.733577
19.304777
18.868899
18.428118
11.086236
11.2991
11.559006
11.872459
12.244074
12.675831
13.166629
13.712195
14.305363
14.936677
15.595176
16.269237
16.947376
17.61887
18.274202
18.905291
19.505567
20.069909
20.594513
21.076707
21.514742
21.907629
22.255026
22.556814
22.813346
23.025515
23.194167
23.320212
23.404796
23.449167
23.45463
23.423159
23.35483
23.251488
23.114771
22.946193
22.747321
22.519775
22.265231
21.985421
21.68213
21.357195
21.012488
20.649928
20.271766
19.879893
19.476452
19.063456
18.643019
18.217305
11.074663
11.262353
11.493925
11.77482
12.109005
12.498359
12.942286
13.437566
13.978505
14.557336
15.164805
15.790838
16.425205
17.05809
17.680515
18.284616
18.863763
19.412575
19.926844
20.403414
20.840022
21.235169
21.588026
21.898088
22.165152
22.389664
22.572304
22.713634
22.814479
22.875902
22.899008
22.885352
22.8359
22.751252
22.633341
22.483601
22.303528
22.094686
21.858705
21.597275
21.31215
21.00514
20.67812
20.333027
19.971987
19.596919
19.209952
18.813094
18.408458
17.998189
11.063657
11.227455
11.432322
11.682806
11.982287
12.332495
12.733166
13.181884
13.674132
14.20356
14.762403
15.341999
15.933326
16.5275
17.116172
17.69181
18.247865
18.778829
19.28022
19.748506
20.181002
20.575768
20.931504
21.247367
21.522624
21.757391
21.952047
22.106911
22.222444
22.299503
22.339064
22.342137
22.310428
22.243784
22.144006
22.012548
21.850831
21.660354
21.442689
21.19948
20.932441
20.643356
20.334085
20.006546
19.662767
19.304706
18.934458
18.554025
18.165499
17.77101
11.05323
11.194433
11.374192
11.596305
11.863636
12.177734
12.538544
12.944249
13.391268
13.874418
14.387212
14.922246
15.471631
16.027407
16.581902
17.128013
17.659381
18.170498
18.656725
19.114264
19.540101
19.931922
20.288032
20.607205
20.888248
21.131149
21.335808
21.502343
21.630851
21.722033
21.776671
21.795553
21.780026
21.730704
21.648255
21.534411
21.390498
21.21794
21.018247
20.793007
20.543888
20.272638
19.981087
19.671114
19.34466
19.003755
18.650417
18.286634
17.914476
17.53605
11.043388
11.163289
11.319498
11.515178
11.752743
12.033549
12.357663
12.723707
13.128831
13.568805
14.038219
14.530773
15.039613
15.557666
16.077961
16.593881
17.099352
17.588967
18.058039
18.502607
18.919414
19.305852
19.659897
19.979948
20.26443
20.513328
20.725963
20.902206
21.041853
21.145575
21.213846
21.247292
21.246723
21.213599
21.147635
21.050636
20.92387
20.768685
20.586518
20.378898
20.147441
19.893842
19.619888
19.32742
19.0183
18.694636
18.358331
18.011358
17.655766
17.293631
11.034127
11.134007
11.268174
11.43926
11.649284
11.899412
12.189765
12.519285
12.885689
13.285511
13.714241
14.166533
14.636455
15.117771
15.604198
16.089644
16.568385
17.035199
17.485442
17.915084
18.320706
18.699472
19.049075
19.367637
19.65359
19.906252
20.124746
20.308678
20.457599
20.572219
20.652593
20.699169
20.712561
20.694024
20.643784
20.562734
20.452352
20.31389
20.148707
19.958264
19.744111
19.507884
19.251308
18.976202
18.684418
18.377988
18.058751
17.72868
17.389786
17.044113
11.025442
11.106554
11.220136
11.368368
11.552926
11.774792
12.034101
12.33002
12.660698
13.023281
13.413999
13.828317
14.261118
14.706928
15.16013
15.615164
16.0667
16.509766
16.93984
17.352898
17.745439
18.114473
18.45749
18.772421
19.05763
19.311884
19.534129
19.723739
19.880328
20.004076
20.094909
20.153115
20.17919
20.173924
20.138285
20.072244
19.977397
19.854914
19.706076
19.532268
19.334972
19.115749
18.876258
18.618319
18.343744
18.054454
17.752263
17.439118
17.116992
16.787886
11.017326
11.080879
11.175279
11.302305
11.463332
11.659174
11.889946
12.154973
12.452732
12.78085
13.136164
13.514817
13.912403
14.324131
14.745007
15.169997
15.594184
16.012894
16.421783
16.816908
17.194755
17.55225
17.886755
18.196052
18.478349
18.73213
18.956142
19.149548
19.311927
19.443038
19.542685
19.610992
19.648338
19.655202
19.632708
19.580759
19.500493
19.393154
19.259929
19.102121
18.921137
18.718468
18.495704
18.254656
17.99706
17.724743
17.439498
17.143231
16.83787
16.52537
11.009789
11.056902
11.133487
11.240867
11.380171
11.552056
11.756605
11.993245
12.2607
12.556977
12.879399
13.224678
13.589013
13.968221
14.357875
14.753446
15.150437
15.544495
15.931503
16.307649
16.669469
17.013874
17.338152
17.639975
17.917387
18.168756
18.392625
18.587993
18.754254
18.89097
18.997765
19.074628
19.121784
19.139569
19.128763
19.089851
19.023145
18.93003
18.811598
18.669066
18.50376
18.317112
18.110658
17.886129
17.645192
17.389601
17.121121
16.841606
16.552932
16.257006
11.002805
11.034608
11.094653
11.183853
11.303116
11.452956
11.633413
11.84398
12.083562
12.350461
12.642392
12.956535
13.289603
13.63794
13.997632
14.364624
14.734826
15.104219
15.468942
15.825356
16.170098
16.500113
16.812669
17.105371
17.37616
17.623307
17.845219
18.040745
18.209087
18.349666
18.461936
18.54579
18.601278
18.628619
18.628217
18.60107
18.546859
18.466978
18.362442
18.234383
18.084053
17.91281
17.722138
17.513645
17.288987
17.049795
16.79782
16.534854
16.262717
15.983259
10.996292
11.014081
11.058654
11.131061
11.23185
11.361415
11.519746
11.706372
11.920332
12.160156
12.423873
12.709042
13.012809
13.331974
13.663079
14.002498
14.346531
14.691495
15.033797
15.370001
15.696885
16.011468
16.311045
16.593201
16.855823
17.097107
17.315343
17.509316
17.678041
17.820802
17.936854
18.026142
18.088478
18.123949
18.132801
18.115875
18.073154
18.005434
17.913824
17.799368
17.663234
17.506687
17.331162
17.138173
16.929303
16.706115
16.470307
16.223609
15.967781
15.704611
10.990239
10.9952
11.025416
11.082297
11.166069
11.276996
11.415012
11.579664
11.770086
11.984982
12.222628
12.480895
12.757287
13.048994
13.352955
13.665933
13.984594
14.305574
14.625557
14.941328
15.249827
15.54819
15.833774
16.104186
16.357305
16.591267
16.80417
16.995011
17.162532
17.30587
17.424064
17.517266
17.584983
17.627156
17.643947
17.635902
17.603464
17.546801
17.467095
17.365307
17.242518
17.099848
16.938773
16.760675
16.56704
16.359377
16.139317
15.908527
15.668701
15.421562
10.984672
10.977717
10.994906
11.03735
11.105476
11.199286
11.318661
11.463152
11.631961
11.823923
12.037509
12.270844
12.521727
12.787675
13.065975
13.353735
13.647952
13.94557
14.243541
14.538878
14.828705
15.110294
15.3811
15.638788
15.881274
16.106666
16.312644
16.498926
16.663713
16.806059
16.925163
17.020726
17.092296
17.139721
17.163082
17.162647
17.139194
17.092451
17.023578
16.933462
16.823101
16.69339
16.54603
16.382142
16.203112
16.010411
15.805601
15.59028
15.366074
15.134634
10.979568
10.961567
10.966937
10.996059
11.049798
11.127898
11.230179
11.356183
11.505156
11.676035
11.867443
12.077707
12.30487
12.546726
12.800857
13.064676
13.335479
13.610493
13.886929
14.162028
14.433105
14.697584
14.953033
15.19719
15.427986
15.64353
15.841987
16.02222
16.18281
16.32275
16.441252
16.537722
16.611712
16.662988
16.691551
16.697549
16.681638
16.643714
16.584534
16.504999
16.40602
16.288603
16.154058
16.003576
15.838436
15.660061
15.46993
15.269567
15.060523
14.84438
10.974899
10.946772
10.941233
10.958323
10.998759
11.062469
11.149088
11.258151
11.388933
11.540444
11.711429
11.900374
12.105523
12.324901
12.556342
12.797524
13.046009
13.299283
13.5548
13.810021
14.062453
14.309684
14.549409
14.779462
14.997837
15.202698
15.392398
15.565486
15.720676
15.856924
15.973399
16.069386
16.144429
16.198205
16.230646
16.241815
16.232158
16.201844
16.151213
16.081186
15.992609
15.88646
15.763848
15.625937
15.473937
15.309192
15.133102
14.947115
14.752707
14.551386
10.970647
10.933282
10.917674
10.923934
10.952134
11.002667
11.074953
11.168505
11.282615
11.416347
11.568539
11.737808
11.92256
12.121012
12.331212
12.551065
12.778368
13.01084
13.24616
13.481997
13.716049
13.946066
14.169886
14.385457
14.590859
14.784332
14.964297
15.129268
15.277987
15.40937
15.522542
15.616732
15.691522
15.746506
15.781542
15.796617
15.791992
15.768051
15.724817
15.663204
15.583987
15.488071
15.376465
15.250251
15.110577
14.958706
14.795959
14.623703
14.443333
10.966794
10.921033
10.896249
10.892595
10.909762
10.94818
11.007372
11.086738
11.185582
11.303007
11.437924
11.589052
11.754932
11.933938
12.124298
12.324115
12.531389
12.744048
12.959973
13.177029
13.393094
13.606083
13.81398
14.014855
14.206894
14.388421
14.557915
14.713931
14.855229
14.980698
15.089428
15.180632
15.253946
15.308925
15.345319
15.363065
15.362285
15.343491
15.306503
15.252195
15.181272
15.094559
14.993001
14.877567
14.74936
14.609558
14.459403
14.30018
14.133211
10.963324
10.90998
10.876886
10.864119
10.871448
10.89874
10.945985
11.012394
11.097273
11.199755
11.318804
11.453224
11.601663
11.762628
11.934497
12.11554
12.303936
12.497795
12.695182
12.894141
13.092721
13.288995
13.481092
13.667212
13.845652
14.014827
14.173289
14.319646
14.45269
14.5713
14.674605
14.761868
14.832614
14.88641
14.922971
14.942196
14.944138
14.929267
14.897413
14.849301
14.785603
14.707074
14.614564
14.508978
14.391348
14.262775
14.12442
13.977489
13.823222
10.960226
10.900077
10.859495
10.838477
10.836887
10.854142
10.89047
10.945064
11.017185
11.105985
11.210473
11.329518
11.461857
11.606105
11.76077
11.924262
12.094913
12.270994
12.450735
12.632342
12.814021
12.993998
13.170542
13.341982
13.50673
13.6633
13.810321
13.946474
14.070595
14.181582
14.278616
14.361
14.428184
14.479746
14.515389
14.53499
14.538565
14.526488
14.498671
14.455679
14.398153
14.326798
14.242343
14.145658
14.037699
13.919492
13.792118
13.656702
13.514403
10.957489
10.89129
10.844017
10.815594
10.805834
10.814235
10.840537
10.884383
10.944865
11.021154
11.112292
11.217201
11.334692
11.463471
11.602152
11.749266
11.903278
12.0626
12.225604
12.390645
12.556073
12.720257
12.881598
13.038552
13.189647
13.333497
13.468819
13.594374
13.709061
13.811811
13.901857
13.978533
14.041276
14.089675
14.123426
14.142397
14.146577
14.13627
14.111436
14.072542
14.020177
13.954978
13.877613
13.788891
13.689699
13.580987
13.46376
13.339063
13.207972
10.955107
10.883596
10.830397
10.79537
10.778268
10.778714
10.795967
10.830039
10.879918
10.944778
11.023688
11.115612
11.219423
11.333902
11.457754
11.589613
11.728058
11.871622
12.018806
12.168095
12.317972
12.466935
12.613513
12.756283
12.893883
13.025031
13.148536
13.263247
13.368135
13.462176
13.544657
13.614947
13.672506
13.716938
13.747943
13.765385
13.769244
13.75977
13.736927
13.701163
13.653003
13.593005
13.521797
13.440125
13.348808
13.248727
13.140812
13.026029
12.905371
10.953077
10.87698
10.818604
10.777751
10.754121
10.747319
10.756636
10.781743
10.821991
10.876429
10.94415
11.02416
11.115379
11.216655
11.326769
11.444445
11.568357
11.697147
11.829426
11.963797
12.098862
12.233238
12.365571
12.494551
12.618927
12.737517
12.849223
12.952986
13.047855
13.132862
13.20735
13.270735
13.322513
13.362311
13.389844
13.404985
13.407707
13.398228
13.37648
13.342963
13.298129
13.242441
13.176503
13.101005
13.016703
12.924409
12.824982
12.719309
12.608305
10.951401
10.871438
10.80862
10.762691
10.733303
10.720023
10.722264
10.739279
10.770783
10.815728
10.873227
10.942315
11.02196
11.111063
11.208473
11.312988
11.42337
11.538349
11.656639
11.776943
11.89797
12.018445
12.137124
12.252802
12.364331
12.470628
12.570687
12.663541
12.748319
12.824121
12.890346
12.946464
12.992016
13.026662
13.050138
13.062327
13.06321
13.053013
13.031658
12.99961
12.957265
12.905066
12.843575
12.773428
12.695323
12.610006
12.518264
12.420913
12.318786
10.950087
10.86698
10.800445
10.750168
10.715763
10.696763
10.692619
10.702495
10.726019
10.762341
10.810516
10.869613
10.938638
11.016543
11.102232
11.194573
11.292398
11.39452
11.499737
11.606845
11.714647
11.821966
11.927654
12.030607
12.129773
12.224163
12.312862
12.394991
12.46976
12.536343
12.594199
12.642853
12.681899
12.711036
12.73003
12.738782
12.737309
12.725774
12.704177
12.672932
12.632365
12.582929
12.525142
12.459593
12.38692
12.307809
12.222981
12.133179
12.039163
10.949145
10.863627
10.794091
10.740177
10.701461
10.677454
10.667596
10.671171
10.687462
10.715968
10.755663
10.805644
10.864956
10.932594
11.007515
11.088641
11.174873
11.26509
11.358167
11.45298
11.548416
11.643384
11.736826
11.827729
11.915128
11.998125
12.075888
12.147627
12.21263
12.270147
12.319697
12.360862
12.393296
12.41674
12.430997
12.435988
12.431785
12.418449
12.396106
12.365089
12.325719
12.278422
12.223684
12.162047
12.094101
12.020472
11.941818
11.858816
11.772154
10.948593
10.861405
10.789579
10.732711
10.690354
10.662008
10.647113
10.645042
10.654913
10.676333
10.708349
10.750055
10.80053