/*--------------------------------*- C++ -*----------------------------------*\
| =========                 |                                                 |
| \\      /  F ield         | OpenFOAM: The Open Source CFD Toolbox           |
|  \\    /   O peration     | Version:  2312                                  |
|   \\  /    A nd           | Website:  www.openfoam.com                      |
|    \\/     M anipulation  |                                                 |
\*---------------------------------------------------------------------------*/
FoamFile
{
    version     2.0;
    format      ascii;
    arch        "LSB;label=32;scalar=64";
    class       volScalarField;
    location    "0.01";
    object      Ma;
}
// * * * * * * * * * * * * * * * * * * * * * * * * * * * * * * * * * * * * * //

dimensions      [0 0 0 0 0 0 0];

internalField   nonuniform List<scalar> 
3275
(
0.072402693
0.06509002
0.055869114
0.047660483
0.040946146
0.035670754
0.031522862
0.028208161
0.025524845
0.023321364
0.021489602
0.019947245
0.018631282
0.017494635
0.016501227
0.015623169
0.014838721
0.014130836
0.01348573
0.012897997
0.012351805
0.011838038
0.011360209
0.010909422
0.010483371
0.010078696
0.0096930569
0.0093244719
0.0089713435
0.0086322821
0.0083064586
0.0079926479
0.0076899946
0.0073980857
0.0071163082
0.0068442297
0.0065814635
0.0063276848
0.0060826171
0.0058460229
0.0056177085
0.0053974772
0.0051852856
0.0049806942
0.0047839248
0.0045942909
0.004411641
0.0042365917
0.0040680212
0.0039057006
0.003750269
0.0036013485
0.071687341
0.063329683
0.054025268
0.046259183
0.039971227
0.035005797
0.031066024
0.027887209
0.025294194
0.02315173
0.021362167
0.019849651
0.018555148
0.017434251
0.016452634
0.015583561
0.014806086
0.01410368
0.013462898
0.0128787
0.012335094
0.011823923
0.011348073
0.010898976
0.010474335
0.01007087
0.0096862743
0.0093185965
0.0089662607
0.0086278947
0.0083026844
0.0079894058
0.0076872329
0.0073957472
0.0071143461
0.0068426017
0.0065801324
0.0063266171
0.0060817828
0.0058453949
0.0056172623
0.0053971909
0.0051851397
0.0049806713
0.0047840068
0.0045944636
0.004411891
0.0042369071
0.0040683928
0.0039061223
0.0037507327
0.0036018473
0.069604876
0.05941876
0.050327101
0.043546123
0.038102539
0.033727148
0.030182495
0.027262728
0.024843378
0.0228189
0.021111328
0.019657043
0.018404563
0.017314604
0.016356203
0.015504857
0.014741167
0.014049638
0.013417637
0.012839924
0.012301424
0.011795998
0.011323837
0.01087807
0.010456232
0.010055175
0.009672659
0.0093067886
0.0089560323
0.0086190532
0.0082950658
0.0079828492
0.0076816353
0.0073909948
0.0071103456
0.0068392692
0.0065773936
0.0063244056
0.0060800387
0.0058440643
0.0056162966
0.0053965461
0.0051847763
0.0049805536
0.0047841023
0.0045947446
0.0044123299
0.0042374794
0.0040690786
0.00390691
0.0037516051
0.0036027872
0.064017994
0.052660752
0.04480215
0.039705997
0.035494173
0.031927405
0.028923703
0.026367068
0.024192026
0.022335042
0.020744759
0.019374389
0.018182822
0.017137929
0.016213485
0.015388151
0.014644745
0.013969218
0.013350175
0.012781949
0.012251648
0.01175422
0.011287622
0.010846816
0.010429153
0.010031685
0.0096522698
0.0092890957
0.0089406963
0.0086057892
0.0082836274
0.0079729989
0.007673218
0.0073838415
0.007104317
0.0068342403
0.0065732534
0.0063210548
0.0060773882
0.0058420336
0.0056148128
0.0053955435
0.0051841956
0.0049803413
0.0047842112
0.004595133
0.0044129565
0.0042383074
0.0040700773
0.0039080623
0.0037528848
0.0036041672
0.049809611
0.042029058
0.037784795
0.035065636
0.032329943
0.029755598
0.027376235
0.025244837
0.023367516
0.021717306
0.020273361
0.019008792
0.017894671
0.016907467
0.016026742
0.015235048
0.014517978
0.013863241
0.013261042
0.012705475
0.012186248
0.011698691
0.01123964
0.010805381
0.010393232
0.010000505
0.0096251893
0.0092655818
0.0089203009
0.0085881411
0.0082683962
0.0079598756
0.0076619948
0.007374296
0.0070962646
0.0068275156
0.0065677093
0.00631656
0.0060738243
0.0058392938
0.005612801
0.0053941716
0.0051833855
0.0049800219
0.0047843197
0.0045956147
0.0044137567
0.0042393763
0.004071374
0.0039095647
0.0037545586
0.0036059749
0.021346417
0.029644165
0.030565893
0.030390883
0.029077765
0.027449879
0.025723483
0.024030491
0.022457359
0.021028134
0.019742602
0.018594119
0.017565909
0.016643263
0.015811819
0.015058263
0.014371203
0.013740236
0.013157444
0.012616458
0.012110297
0.011633724
0.011183578
0.010756926
0.010351207
0.0099640117
0.0095934829
0.0092380427
0.008896406
0.0085674681
0.0082505487
0.0079445026
0.0076488493
0.0073631197
0.0070868419
0.0068196529
0.0065612348
0.0063113195
0.0060696796
0.0058361197
0.0056104845
0.0053926099
0.0051824866
0.0049797019
0.0047845049
0.0045962399
0.0044147579
0.0042406954
0.0040729615
0.0039113944
0.0037565899
0.0036081635
0.0094439337
0.020774463
0.024403328
0.02604919
0.025959213
0.025170366
0.024039438
0.022779265
0.021508473
0.020298932
0.019175898
0.018148039
0.017210154
0.016355992
0.015577224
0.014864676
0.014210079
0.013604951
0.013042998
0.012518616
0.012026684
0.011561912
0.011121663
0.010703406
0.010304817
0.0099237638
0.0095585564
0.0092077548
0.0088701744
0.0085448413
0.0082310663
0.0079277902
0.0076346255
0.007351099
0.0070767835
0.0068113409
0.0065544771
0.0063059439
0.0060655311
0.0058330584
0.0056083834
0.005391354
0.0051819716
0.0049798333
0.0047851993
0.0045974213
0.004416355
0.0042426415
0.0040751998
0.0039138947
0.0037593052
0.0036110448
0.0055268565
0.014858055
0.019286522
0.022012215
0.022880655
0.022837188
0.022263926
0.021425405
0.020469501
0.019493048
0.018540419
0.017643427
0.016804947
0.016026924
0.015307241
0.014641004
0.014023378
0.01344786
0.012909465
0.012404848
0.011929109
0.011477967
0.011049246
0.010640773
0.01025053
0.0098766754
0.0095177143
0.0091723646
0.0088395476
0.0085184842
0.0082083943
0.0079083988
0.0076181701
0.0073372481
0.0070652533
0.0068018773
0.0065468535
0.0062999574
0.0060609986
0.0058298147
0.0056062785
0.0053902519
0.0051817483
0.0049803762
0.0047864089
0.0045992045
0.004418628
0.0042453249
0.0040782251
0.0039172234
0.0037628807
0.0036148104
0.004421253
0.010974695
0.01521263
0.018422503
0.019959164
0.020523853
0.02045229
0.020007893
0.019359828
0.018617307
0.017846969
0.017084895
0.016353014
0.015657543
0.015002555
0.014387412
0.013811061
0.013268138
0.012756939
0.012274515
0.011817028
0.011381409
0.010965837
0.010568557
0.010187895
0.0098223194
0.0094705533
0.0091314931
0.0088041936
0.0084880418
0.0081822077
0.0078860342
0.0075992054
0.0073213062
0.007052006
0.0067910311
0.0065381467
0.0062931547
0.0060558883
0.0058262052
0.0056039958
0.0053891387
0.0051816596
0.0049811812
0.0047879913
0.0046014548
0.004421449
0.0042486238
0.0040819216
0.0039212719
0.0037672147
0.0036193639
0.0039643452
0.0084113843
0.012066078
0.015338797
0.017277635
0.018299207
0.018649268
0.018561418
0.018202347
0.017689426
0.017099852
0.016479947
0.015858217
0.015250069
0.014664442
0.014104514
0.01357271
0.013066439
0.012585065
0.012127097
0.01169006
0.011271811
0.010871001
0.010486326
0.010116492
0.0097602904
0.0094166869
0.0090847724
0.008763763
0.0084531811
0.0081522074
0.0078604042
0.0075774574
0.0073030156
0.0070367989
0.0067785738
0.006528141
0.0062853327
0.0060500082
0.0058220487
0.005601364
0.005387852
0.0051815521
0.0049821031
0.0047898087
0.0046040418
0.0044246946
0.0042524218
0.00408618
0.0039259373
0.00377221
0.0036246136
0.0037269241
0.0067366493
0.0096965797
0.012764515
0.014883561
0.016214718
0.016897294
0.017116222
0.01702041
0.016724851
0.016311807
0.015833711
0.015324875
0.014807314
0.014294383
0.013793573
0.013309467
0.012842511
0.012393551
0.011962415
0.011547911
0.011148822
0.010764357
0.01039369
0.010035929
0.0096902034
0.009355741
0.0090318389
0.0087179139
0.0084135665
0.0081180847
0.0078312092
0.0075526427
0.0072821068
0.0070193763
0.0067642627
0.006516606
0.0062762725
0.0060431508
0.0058171477
0.0055981954
0.0053862134
0.005181256
0.0049829801
0.0047917072
0.0046068194
0.0044282261
0.0042565873
0.0040908762
0.003931103
0.003777755
0.003630454
0.003598439
0.0056547258
0.0079507481
0.010666451
0.012795925
0.014304957
0.015231018
0.015700251
0.015835485
0.015739467
0.015493949
0.015154177
0.014758276
0.014332817
0.013894985
0.013455742
0.013021982
0.012596796
0.012182571
0.011780432
0.011390405
0.011012192
0.010645605
0.010290317
0.0099458596
0.0096117059
0.0092873648
0.0089723421
0.008666325
0.0083688613
0.0080795337
0.00779815
0.0075244752
0.0072583062
0.0069994767
0.0067478482
0.006503304
0.0062657474
0.0060350995
0.005811296
0.0055942933
0.005384035
0.0051805921
0.0049836417
0.0047935244
0.0046096329
0.0044318963
0.0042609804
0.0040958794
0.0039366448
0.0037837302
0.0036367722
0.0035196385
0.0049551176
0.006687461
0.0089911921
0.011012219
0.012589524
0.013675834
0.014338248
0.0146666
0.014748599
0.014657791
0.014449759
0.014164299
0.013830659
0.013468958
0.013092859
0.012711422
0.012330011
0.011952505
0.011581282
0.011217509
0.01086178
0.010514529
0.010175944
0.009845986
0.0095244832
0.0092112355
0.0089059916
0.0086086281
0.0083187625
0.0080362442
0.0077609272
0.0074926658
0.0072313349
0.006976832
0.0067290728
0.0064879875
0.0062535202
0.0060256274
0.0058042761
0.0055894495
0.0053811176
0.0051793698
0.0049839055
0.0047950859
0.0046123159
0.0044355465
0.0042654507
0.0041010472
0.0039424265
0.0037900058
0.0036434449
0.0034633096
0.0044974189
0.0057864496
0.0076771304
0.0095151142
0.011075327
0.012248592
0.013048871
0.013532026
0.01376593
0.013814631
0.013729116
0.01354924
0.013305378
0.013019487
0.01270716
0.012379291
0.012043146
0.011703963
0.01136529
0.011029345
0.010697566
0.010371009
0.010050381
0.0097360715
0.009428266
0.0091270605
0.0088324997
0.0085445005
0.0082629819
0.0079879146
0.0077192459
0.0074569265
0.0072009126
0.0069511701
0.0067076732
0.0064704025
0.006239346
0.0060144984
0.0057958608
0.0055834456
0.0053772515
0.005177388
0.0049835786
0.004796207
0.0046146916
0.004439008
0.0042698376
0.0041062267
0.0039483013
0.0037964426
0.0036503391
0.0034195057
0.0041924469
0.0051504247
0.0066624275
0.0082782826
0.0097593972
0.010958467
0.011846007
0.012445891
0.012805024
0.012974757
0.013000665
0.01291972
0.01276185
0.01255015
0.012301234
0.012027415
0.011737465
0.011437786
0.011132974
0.010826194
0.010519661
0.010215032
0.009913525
0.009615947
0.0093228373
0.009034637
0.0087515351
0.0084736858
0.0082012333
0.0079342557
0.0076728187
0.0074169726
0.0071667594
0.0069222172
0.0066833822
0.0064502892
0.0062229727
0.0060014687
0.0057858145
0.0055760542
0.0053722172
0.0051744352
0.0049824576
0.0047966925
0.0046165724
0.0044421011
0.0042739705
0.0041112541
0.0039541124
0.0038028913
0.0036573119
0.0033843425
0.0039843486
0.0047035222
0.0058894903
0.0072709159
0.008631674
0.0098081303
0.010738697
0.011419431
0.011876764
0.012148547
0.012272359
0.012282093
0.012205271
0.012064828
0.011877978
0.011657921
0.011414498
0.011155046
0.010885054
0.010608508
0.010328316
0.010046698
0.0097653683
0.0094855197
0.0092080853
0.0089337147
0.0086628674
0.0083959509
0.0081332519
0.0078749957
0.0076213694
0.0073725272
0.0071285994
0.0068897004
0.0066559316
0.0064273846
0.0062041436
0.005986288
0.0057738939
0.0055670393
0.0053657864
0.0051702908
0.00498033
0.0047963372
0.0046177608
0.0044446365
0.0042776682
0.0041159556
0.0039596929
0.0038091923
0.0036642103
0.0033557391
0.0038382073
0.0043885878
0.0053071332
0.006460884
0.0076774351
0.0087950979
0.0097316529
0.010460771
0.010990271
0.011344509
0.011552239
0.011642704
0.011640663
0.011567594
0.011440554
0.011273201
0.01107602
0.01085704
0.010622448
0.01037691
0.010123931
0.0098662319
0.0096060038
0.0093448265
0.0090838664
0.0088241385
0.008566346
0.0083110801
0.0080588016
0.007809884
0.007564638
0.0073233241
0.0070861641
0.0068533509
0.0066250542
0.0064014248
0.0061825988
0.0059687017
0.0057598504
0.0055561585
0.0053577232
0.0051647261
0.0049769739
0.0047949273
0.0046180498
0.0044464148
0.0042807405
0.0041201477
0.003964866
0.0038151764
0.0036708714
0.0033322583
0.0037321836
0.0041640901
0.0048715019
0.0058167939
0.0068792607
0.0079130389
0.0088259201
0.0095751259
0.010152618
0.010570071
0.010847469
0.011007641
0.011073022
0.011062529
0.010992293
0.010875837
0.01072403
0.010545276
0.010346265
0.010132195
0.0099070547
0.0096740241
0.0094356437
0.0091938593
0.0089501863
0.0087058615
0.0084618389
0.0082189014
0.0079776807
0.0077386966
0.0075023847
0.0072691127
0.0070391958
0.0068129074
0.0065904871
0.0063721473
0.0061580782
0.0059484529
0.005743431
0.0055431641
0.0053477857
0.005157505
0.0049721602
0.0047922403
0.004617224
0.0044472284
0.0042829879
0.004123638
0.0039694463
0.0038206649
0.0036771227
0.0033128161
0.0036525814
0.0040008591
0.0045463187
0.0053093012
0.0062185199
0.0071529449
0.0080195827
0.0087651068
0.0093688633
0.0098312722
0.010163803
0.010383133
0.010507327
0.010553668
0.010536543
0.010468609
0.010360717
0.010221453
0.010057796
0.0098753276
0.0096783837
0.0094705215
0.009254589
0.0090328533
0.0088071266
0.0085788741
0.0083492725
0.0081192912
0.0078897265
0.0076612414
0.0074343949
0.0072096623
0.006987452
0.0067681191
0.0065519749
0.0063392944
0.0061303235
0.0059252845
0.0057243814
0.0055278049
0.0053357269
0.0051483859
0.0049656529
0.0047880471
0.0046150603
0.0044468617
0.0042842033
0.0041262257
0.0039732391
0.0038254704
0.0036827817
0.0032965707
0.0035907727
0.0038790067
0.0043026419
0.0049119526
0.0056764645
0.0065041116
0.007308453
0.0080311102
0.0086422288
0.0091328018
0.0095064694
0.0097738675
0.0099487777
0.010045143
0.010076652
0.010054331
0.0099884291
0.0098874337
0.0097584985
0.0096074287
0.0094387622
0.0092563447
0.0090632754
0.0088620903
0.0086548526
0.0084432437
0.0082286379
0.0080121797
0.0077948212
0.0075773631
0.0073604844
0.007144766
0.0069307092
0.0067187506
0.0065092732
0.006302616
0.0060990814
0.0058989421
0.0057024475
0.0055098288
0.0053212974
0.0051371229
0.0049572113
0.0047821126
0.0046113288
0.0044450929
0.0042841726
0.004127702
0.003976042
0.0038293957
0.003282855
0.0035412585
0.0037852516
0.004118211
0.0046017008
0.0052350291
0.0059549301
0.006686698
0.007371721
0.0079743008
0.0084780347
0.0088797232
0.0091843286
0.009401298
0.0095412806
0.0096162102
0.0096358193
0.0096095504
0.0095452205
0.0094499728
0.0093297706
0.009189178
0.0090322457
0.0088622567
0.0086819574
0.0084936219
0.008299118
0.0080999954
0.0078975563
0.0076928973
0.0074869484
0.0072805037
0.007074246
0.0068687673
0.0066645845
0.0064621522
0.0062618731
0.0060641067
0.0058691766
0.0056773782
0.0054889844
0.0053042469
0.0051234679
0.0049465904
0.0047741964
0.0046057956
0.0044416965
0.004282676
0.0041278507
0.0039776434
0.0038322371
0.0032711455
0.0035004836
0.0037108503
0.003976473
0.0043591478
0.0048774174
0.0054935151
0.0061473853
0.006784107
0.0073652622
0.0078691386
0.0082868708
0.0086183369
0.0088687978
0.009045874
0.0091585138
0.0092162005
0.009226407
0.0091968526
0.0091339426
0.0090437582
0.008930752
0.0087991033
0.0086522027
0.0084929496
0.0083237866
0.0081467298
0.0079634794
0.0077754748
0.0075839426
0.0073899316
0.0071943435
0.006997958
0.006801454
0.0066054266
0.0064104004
0.0062168413
0.0060251652
0.0058357471
0.0056489284
0.005465024
0.0052843265
0.0051071721
0.0049335429
0.0047640552
0.0045982219
0.0044364468
0.0042794893
0.0041264485
0.0039778244
0.0038337799
0.0032610384
0.0034661176
0.0036500654
0.0038654509
0.0041685647
0.0045885409
0.0051082042
0.0056829418
0.0062643818
0.0068141319
0.0073071967
0.0077303192
0.0080790151
0.0083546811
0.0085619351
0.0087073084
0.0087981289
0.0088419217
0.0088442702
0.0088121899
0.0087509159
0.0086647292
0.0085579161
0.008433897
0.008295668
0.0081457942
0.0079863987
0.0078193016
0.007646057
0.0074680042
0.0072862981
0.0071019387
0.0069157954
0.0067286291
0.0065411094
0.0063538286
0.006167314
0.0059820374
0.0057984242
0.0056168616
0.0054377063
0.0052612919
0.0050879886
0.0049178213
0.0047514409
0.0045883718
0.0044291215
0.0042743815
0.0041232643
0.0039763594
0.0038338054
0.0032522261
0.0034366091
0.0035991249
0.0037766261
0.0040175615
0.0043553434
0.0047880117
0.005285571
0.005807953
0.0063190311
0.0067923854
0.0072116694
0.0075688385
0.0078618815
0.0080925792
0.0082651248
0.0083850632
0.0084580708
0.0084902458
0.0084863016
0.0084528629
0.0083924701
0.0083097932
0.0082082296
0.0080908146
0.0079601875
0.0078185331
0.0076677538
0.0075094967
0.0073451931
0.0071760897
0.007003273
0.006827694
0.0066501886
0.0064714963
0.0062922737
0.0061131069
0.0059345219
0.0057569933
0.0055809533
0.0054067995
0.0052349055
0.0050656762
0.0048991803
0.0047361136
0.0045760043
0.0044195008
0.0042671162
0.0041180591
0.0039730178
0.0032444757
0.0034109072
0.0035555331
0.0037040108
0.0038965796
0.0041667977
0.0045229203
0.0049476171
0.0054098411
0.0058774184
0.006324135
0.0067317984
0.0070896547
0.007392826
0.0076405204
0.0078347234
0.0079791903
0.0080779594
0.0081363432
0.0081588346
0.0081510235
0.0081154388
0.0080559395
0.0079761876
0.0078791862
0.0077676029
0.0076436278
0.0075092093
0.0073660612
0.0072156867
0.0070594072
0.0068983829
0.0067336356
0.0065660689
0.0063964858
0.0062256025
0.006054061
0.0058824387
0.0057112578
0.0055409937
0.0053720839
0.005204941
0.0050400029
0.0048773876
0.0047178406
0.0045608635
0.0044073753
0.0042574396
0.0041105938
0.0039675687
0.003237611
0.0033882842
0.0035176205
0.0036434258
0.0037983721
0.0040137676
0.0043039486
0.0046617199
0.005064864
0.0054862544
0.0059012377
0.0062909272
0.0066427141
0.0069494361
0.0072080665
0.0074185729
0.0075829558
0.0077039312
0.0077849231
0.0078316121
0.0078473222
0.007834885
0.0077976316
0.0077388399
0.0076616665
0.0075687648
0.0074622634
0.0073441227
0.007216093
0.0070797309
0.0069364135
0.0067873602
0.0066336519
0.0064762504
0.0063160149
0.0061537158
0.0059900466
0.0058256331
0.0056610424
0.0054967916
0.0053333561
0.0051711851
0.0050107497
0.0048522228
0.0046964058
0.0045427955
0.0043924099
0.0042450886
0.0041006404
0.0039597857
0.0032314968
0.0033682227
0.003484252
0.0035919621
0.0037175214
0.0038888272
0.0041231887
0.0044209156
0.0047677466
0.0051421107
0.0055219464
0.0058886931
0.0062287073
0.0065331389
0.0067971079
0.0070187893
0.007198534
0.0073377762
0.0074387433
0.0075061706
0.0075439448
0.0075523349
0.0075360497
0.00749733
0.0074392197
0.0073644799
0.0072751037
0.0071730268
0.0070600093
0.0069376407
0.0068073354
0.0066703554
0.0065278274
0.0063807608
0.0062300628
0.0060765516
0.0059209668
0.0057639788
0.0056061969
0.0054481769
0.0052904301
0.0051334403
0.0049777091
0.0048234709
0.00467158
0.0045215351
0.0043743779
0.0042298407
0.0040879773
0.0039494433
0.0032260278
0.0033503424
0.0034546377
0.0035475907
0.0036500198
0.0037860505
0.0039738189
0.0042187469
0.0045132447
0.0048412817
0.0051840684
0.005524218
0.0058478084
0.0061448901
0.0064091347
0.0066371862
0.0068279267
0.0069815842
0.0070994453
0.0071851303
0.0072418832
0.0072699337
0.0072723512
0.0072528111
0.0072128908
0.007155635
0.00708289
0.0069965297
0.0068983002
0.0067898004
0.0066724644
0.0065475787
0.0064163014
0.006279678
0.0061386543
0.0059940885
0.0058467609
0.0056973816
0.0055465986
0.0053950038
0.0052431415
0.0050915267
0.0049406862
0.0047909243
0.0046431449
0.0044968409
0.0043530575
0.0042114891
0.0040723831
0.0039363148
0.0032211202
0.0033343536
0.0034282111
0.0035088853
0.0035929216
0.0037007803
0.0038500716
0.0040493531
0.0042962668
0.0045798969
0.0048850572
0.0051961781
0.0054997228
0.0057852005
0.0060452512
0.0062752813
0.0064729138
0.0066373206
0.0067688993
0.0068702087
0.006942876
0.0069886918
0.0070085195
0.0070062873
0.0069838015
0.0069431954
0.0068864324
0.0068153102
0.0067315235
0.0066366611
0.0065321561
0.0064193011
0.0062992703
0.0061731324
0.0060418619
0.005906349
0.0057674075
0.0056257824
0.0054821561
0.0053371534
0.0051913495
0.0050452847
0.0048995029
0.0047543882
0.0046108974
0.0044684983
0.0043282476
0.0041898268
0.0040536347
0.0039201773
0.0032167055
0.0033200267
0.0034045506
0.0034748295
0.0035440651
0.0036294011
0.0037471597
0.0039075285
0.0041119843
0.0043540311
0.0046221041
0.0049028744
0.0051837355
0.0054541646
0.0057061796
0.0059342598
0.0061349979
0.0063066255
0.0064487118
0.0065626485
0.0066490897
0.006709998
0.0067459969
0.0067592103
0.006752914
0.0067281785
0.0066865995
0.0066301052
0.0065602989
0.0064787376
0.0063868287
0.0062858541
0.0061769876
0.0060613082
0.0059398085
0.0058134014
0.0056829275
0.0055491603
0.005412812
0.0052745375
0.0051349396
0.0049945792
0.0048539993
0.0047136866
0.004574656
0.004436321
0.0042997593
0.0041646491
0.0040315167
0.0039008143
0.0032127265
0.0033071738
0.0033833292
0.0034446836
0.0035018596
0.0035691289
0.0036611736
0.0037887434
0.0039559216
0.0041598099
0.0043922323
0.0046423065
0.0048987647
0.0051514918
0.0053922704
0.0056149617
0.0058153607
0.0059908888
0.0061403352
0.0062639977
0.006362077
0.0064353887
0.0064857498
0.0065134309
0.0065212928
0.0065115739
0.0064843124
0.0064417029
0.0063853017
0.0063166029
0.006236961
0.0061476286
0.0060497643
0.0059444445
0.0058326684
0.0057153627
0.0055933864
0.0054675353
0.0053385462
0.0052071002
0.0050738271
0.0049392978
0.0048040324
0.004668675
0.0045342718
0.0044001511
0.0042674167
0.0041357582
0.0040058221
0.003878017
0.0032091346
0.0032956354
0.0033642825
0.0034178949
0.0034651248
0.0035178294
0.0035889607
0.003689127
0.00382402
0.0039935036
0.0041923874
0.0044122474
0.0046434175
0.0048765454
0.0051035243
0.0053178927
0.0055148757
0.0056912288
0.0058450381
0.0059756857
0.0060829095
0.0061668076
0.0062290826
0.006269847
0.0062906645
0.0062942273
0.0062805326
0.0062509353
0.0062072569
0.0061508843
0.0060830887
0.0060050729
0.0059179682
0.005822835
0.0057206684
0.0056123993
0.0054988968
0.0053809715
0.0052593785
0.0051348217
0.0050079535
0.0048793428
0.0047495031
0.0046192665
0.0044896188
0.0043598534
0.0042310522
0.0041029627
0.0039763556
0.0038515876
0.0032058875
0.0032852735
0.0033471882
0.0033940366
0.0034329735
0.0034738665
0.003528002
0.0036054235
0.0037126712
0.0038516047
0.0040195242
0.0042103199
0.0044160502
0.0046283851
0.004839622
0.0050432459
0.0052341346
0.0054085357
0.0055639443
0.0056990056
0.0058129685
0.0059055922
0.0059773658
0.0060296104
0.0060621852
0.0060772537
0.0060760955
0.0060586874
0.0060269368
0.0059822603
0.0059258002
0.0058586901
0.0057820213
0.0056968272
0.0056040878
0.0055047284
0.0053996196
0.0052895791
0.0051753732
0.0050577212
0.00493729
0.0048146663
0.0046903645
0.0045654415
0.0044405549
0.004315317
0.0041904881
0.0040660868
0.0039429404
0.0038213453
0.0032029484
0.0032759661
0.0033318534
0.0033727674
0.0034047264
0.0034359805
0.003476296
0.0035349293
0.0036187241
0.003730884
0.0038706821
0.0040340701
0.00421483
0.0044058148
0.004599957
0.0047909254
0.0049734583
0.0051434607
0.0052979627
0.0054350279
0.0055534398
0.0056526142
0.0057322759
0.0057937637
0.0058366586
0.0058621352
0.0058718898
0.0058658602
0.0058451618
0.0058114541
0.005765732
0.005709034
0.0056423976
0.0055668207
0.0054832574
0.005392618
0.0052957659
0.0051935178
0.0050866437
0.0049758698
0.0048618776
0.0047452884
0.0046266267
0.0045072083
0.0043870244
0.0042662929
0.0041455408
0.0040249965
0.0039054337
0.0037871329
0.0032002847
0.003267604
0.0033181068
0.0033538049
0.0033798517
0.0034031933
0.0034322556
0.0034754199
0.0035394677
0.0036284246
0.0037430477
0.0038810367
0.0040377965
0.0042074321
0.0043836738
0.00456057
0.0047329092
0.0048964153
0.0050477884
0.0051846532
0.0053053888
0.0054090351
0.0054947674
0.0055634846
0.0056151166
0.0056499412
0.0056689789
0.0056732559
0.0056627732
0.0056392204
0.0056035622
0.0055567032
0.0054996189
0.0054332639
0.0053585575
0.0052763856
0.0051875959
0.0050929969
0.0049933561
0.0048894023
0.0047818318
0.0046713142
0.0045583882
0.004444308
0.0043288731
0.0042127176
0.0040961605
0.0039796008
0.0038637165
0.0037488167
0.0031978673
0.0032600892
0.0033057935
0.0033369077
0.0033579222
0.0033747363
0.0033946198
0.0034250768
0.0034725977
0.0035416354
0.0036340017
0.003748811
0.0038829222
0.0040316791
0.0041897065
0.0043515818
0.0045123061
0.0046675746
0.0048138897
0.0049485667
0.005069649
0.0051758081
0.0052659667
0.0053397283
0.0053984219
0.0054414439
0.0054687542
0.0054817403
0.005480584
0.0054663481
0.0054400059
0.0054023358
0.0053542494
0.0052966502
0.0052304152
0.0051563961
0.0050754173
0.0049882718
0.0048957189
0.0047984862
0.0046972803
0.0045927985
0.004485575
0.0043767265
0.0042660985
0.0041546044
0.0040423328
0.00392983
0.0038177006
0.0037062904
0.0031956703
0.0032533328
0.0032947722
0.0033218643
0.0033385855
0.0033499954
0.003362381
0.0033824164
0.0034161728
0.0034682464
0.0035411483
0.0036350871
0.0037481666
0.0038768937
0.0040168208
0.0041631561
0.0043112443
0.0044568854
0.0045965076
0.0047272278
0.0048468307
0.004953673
0.0050463319
0.0051237481
0.005187734
0.0052376888
0.0052721918
0.0052922018
0.0052993355
0.0052936587
0.0052758108
0.0052466038
0.0052068892
0.0051575128
0.0050992998
0.005033059
0.0049595829
0.0048796416
0.0047939803
0.004703319
0.0046083656
0.004509822
0.0044082006
0.0043045221
0.004198778
0.0040919977
0.0039840566
0.0038756469
0.0037673274
0.0036594775
0.0031936707
0.0032472541
0.0032849129
0.0033084856
0.0033215434
0.0033284708
0.0033347269
0.0033462278
0.0033685671
0.003406291
0.00346233
0.0035376992
0.0036315248
0.003741357
0.0038636563
0.0039943158
0.00412912
0.0042640851
0.0043956734
0.004520903
0.004637377
0.0047431799
0.0048366128
0.0049164487
0.0049840565
0.005039561
0.0050798041
0.0051058146
0.0051198578
0.0051219837
0.0051117521
0.0050902007
0.0050581634
0.0050164173
0.0049657188
0.004906825
0.0048404883
0.0047674492
0.0046884314
0.0046041397
0.0045152694
0.004422509
0.0043263737
0.0042278328
0.004127051
0.0040249614
0.0039213407
0.0038170409
0.0037125708
0.0036083342
0.0031918477
0.0032417802
0.003276096
0.0032965999
0.0033065377
0.0033097476
0.0033109945
0.0033155185
0.0033284222
0.003354079
0.0033956278
0.0034546463
0.0035310668
0.003623338
0.0037287677
0.0038439465
0.0039651594
0.0040887243
0.0042112303
0.004329681
0.0044415571
0.0045447684
0.0046374908
0.0047185763
0.0047886811
0.0048475797
0.0048922491
0.0049233533
0.0049430993
0.0049521011
0.0049485498
0.0049337944
0.0049087035
0.0048739518
0.0048302115
0.0047781828
0.0047185712
0.0046520815
0.0045794096
0.0045012361
0.0044182305
0.0043310676
0.0042403033
0.0041468653
0.0040511152
0.0039535279
0.0038542123
0.003754033
0.0036534409
0.0035528543
0.0031901824
0.0032368444
0.0032682108
0.0032860501
0.00329334
0.003293474
0.0032906351
0.0032894693
0.0032946033
0.0033101654
0.0033393519
0.0033841051
0.0034449672
0.0035211316
0.0036106653
0.0037108332
0.0038184496
0.0039301951
0.0040428624
0.0041535215
0.0042596108
0.0043589511
0.0044497234
0.0045307354
0.0046017322
0.0046624015
0.0047102884
0.0047456499
0.0047703045
0.0047845544
0.0047867985
0.0047780017
0.0047591399
0.0047307219
0.0046933464
0.0046476567
0.0045943098
0.0045339699
0.0044672998
0.0043949499
0.0043175589
0.004235803
0.0041502984
0.0040619089
0.0039709806
0.0038778025
0.0037827927
0.0036867137
0.0035899996
0.0034930788
0.0031886583
0.0032323867
0.0032611556
0.0032766913
0.0032817458
0.0032793461
0.003273187
0.0032673975
0.0032661586
0.003273318
0.003292025
0.0033244335
0.0033715256
0.0034330903
0.0035078499
0.0035936943
0.0036879677
0.0037877498
0.0038900959
0.0039922137
0.004091579
0.0041859949
0.0042736362
0.0043531748
0.0044236922
0.0044848492
0.0045349337
0.0045735169
0.0046018181
0.0046200328
0.0046271434
0.0046235385
0.004610147
0.0045873655
0.0045557238
0.004515807
0.0044682227
0.0044135904
0.0043525343
0.0042856708
0.0042136195
0.004137062
0.0040566715
0.0039731599
0.0038868562
0.0037980118
0.0037072564
0.0036152266
0.0035223634
0.0034291014
0.0031872602
0.0032283521
0.0032548363
0.0032683896
0.003271569
0.0032670965
0.0032582559
0.0032487279
0.0032422858
0.0032424854
0.0032523619
0.0032741654
0.0033091782
0.0033576479
0.0034188437
0.003491214
0.0035726095
0.0036605228
0.0037523109
0.0038453743
0.0039372873
0.0040258857
0.0041093257
0.0041861491
0.004255215
0.004315542
0.0043667216
0.0044074498
0.0044383445
0.0044592257
0.0044703219
0.0044711528
0.0044624218
0.0044445452
0.0044179719
0.004383228
0.0043408698
0.0042914684
0.0042356062
0.0041738671
0.0041068544
0.0040351939
0.0039598066
0.0038808842
0.0037990198
0.0037144124
0.0036278201
0.0035397687
0.0034507081
0.0033610763
0.0031859745
0.0032246909
0.0032491665
0.0032610206
0.0032626393
0.003256487
0.0032454995
0.0032329697
0.0032223034
0.0032167689
0.0032192469
0.0032320009
0.0032565018
0.0032933369
0.0033422164
0.0034020716
0.0034712192
0.0035475586
0.0036287683
0.0037124782
0.0037964067
0.0038784569
0.0039567894
0.0040298664
0.0040964253
0.0041551868
0.0042061128
0.0042478927
0.0042803153
0.0043031426
0.0043170443
0.0043215352
0.0043166684
0.0043029426
0.0042807428
0.0042505446
0.00421285
0.0041681814
0.0041170761
0.0040600843
0.0039977701
0.0039307189
0.0038599049
0.0037854501
0.0037078257
0.0036273287
0.0035447778
0.00346061
0.0033752799
0.0032892261
0.0031847891
0.0032213582
0.0032440664
0.0032544696
0.0032548
0.0032473027
0.0032346164
0.003219699
0.003205628
0.0031953975
0.0031917125
0.0031967931
0.003212213
0.0032387988
0.0032766055
0.0033249684
0.0033826193
0.0034478416
0.0035186388
0.0035928929
0.0036684973
0.0037434628
0.0038159913
0.0038845314
0.0039476882
0.0040038722
0.0040533903
0.0040953585
0.0041283725
0.0041522305
0.0041680109
0.0041754062
0.0041736264
0.0041632565
0.0041447052
0.0041184046
0.004084793
0.0040443398
0.0039975411
0.0039448909
0.0038868464
0.0038240259
0.0037575277
0.0036873107
0.0036136878
0.0035371861
0.0034585128
0.0033781018
0.003296404
0.0032138525
0.003183693
0.0032183132
0.0032394631
0.0032486301
0.0032479067
0.0032393482
0.003225339
0.0032085463
0.003191756
0.0031777066
0.0031689197
0.0031675343
0.003175163
0.0031927908
0.0032207322
0.0032586509
0.0033056367
0.0033603239
0.0034210304
0.0034858976
0.003553018
0.003620539
0.003686757
0.0037501471
0.0038090721
0.0038615914
0.0039087629
0.0039503036
0.0039830486
0.0040072138
0.0040239905
0.0040335216
0.0040339885
0.004026151
0.0040105224
0.0039874694
0.0039573507
0.0039205837
0.0038776229
0.0038288588
0.003774594
0.0037156581
0.0036532898
0.0035870345
0.0035171835
0.0034444645
0.0033694844