/*--------------------------------*- C++ -*----------------------------------*\
| =========                 |                                                 |
| \\      /  F ield         | OpenFOAM: The Open Source CFD Toolbox           |
|  \\    /   O peration     | Version:  2312                                  |
|   \\  /    A nd           | Website:  www.openfoam.com                      |
|    \\/     M anipulation  |                                                 |
\*---------------------------------------------------------------------------*/
FoamFile
{
    version     2.0;
    format      ascii;
    arch        "LSB;label=32;scalar=64";
    class       volScalarField;
    location    "0.01";
    object      N2;
}
// * * * * * * * * * * * * * * * * * * * * * * * * * * * * * * * * * * * * * //

dimensions      [0 0 0 0 0 0 0];

internalField   nonuniform List<scalar> 
3275
(
0.023533474
0.10422174
0.19093547
0.26556977
0.32672225
0.37524111
0.41440142
0.44651891
0.47326382
0.4957291
0.5147069
0.53083554
0.54463633
0.55653164
0.56686582
0.57592187
0.58393359
0.59109424
0.59756223
0.60344855
0.60876787
0.61353621
0.61831366
0.62282343
0.62710966
0.63121497
0.63517367
0.6390144
0.64276212
0.64644108
0.64988415
0.65335581
0.65689141
0.66039388
0.66387323
0.66733666
0.67078929
0.6742346
0.67767471
0.68111061
0.68454242
0.68796956
0.69139093
0.69480527
0.69808773
0.70141239
0.70476999
0.70799223
0.71119253
0.71443357
0.7176273
0.72076168
0.036531575
0.12896717
0.21069217
0.27962551
0.33641027
0.381685
0.41880843
0.44961215
0.47550685
0.49739753
0.51597122
0.53181041
0.54540119
0.55714151
0.56735935
0.57632678
0.58427022
0.59137737
0.59780395
0.60366409
0.6089205
0.61369651
0.6184568
0.62294825
0.62722015
0.63131364
0.63526236
0.63909445
0.64283428
0.6465054
0.6499423
0.65341375
0.65694408
0.66044218
0.66391777
0.66737789
0.67082756
0.67427021
0.67770789
0.68114158
0.68457134
0.68799656
0.69141611
0.69482853
0.69810938
0.70143284
0.70478915
0.7080101
0.71120949
0.71444943
0.71764207
0.7207754
0.073388654
0.1795715
0.24926265
0.30672035
0.3551147
0.39410231
0.42736219
0.4556379
0.47990487
0.50068245
0.51846704
0.53373875
0.54691683
0.55835183
0.56833999
0.57713211
0.58494047
0.59194149
0.59828515
0.60409497
0.60921978
0.6140239
0.61874134
0.62319764
0.62744128
0.63151135
0.63544027
0.63925525
0.64297949
0.64663479
0.65005981
0.65353059
0.65705055
0.66054006
0.66400824
0.66746185
0.67090571
0.6743431
0.67777602
0.68120534
0.68463107
0.68805255
0.69146856
0.69487757
0.69815536
0.70147613
0.70482975
0.70804811
0.71124572
0.71448341
0.71767374
0.7208049
0.1556421
0.25896344
0.30331816
0.34420745
0.38124031
0.41141298
0.43933227
0.4642723
0.48626897
0.50546876
0.52212056
0.53657214
0.54915117
0.5601409
0.56979271
0.57832721
0.58593679
0.59278095
0.59899995
0.60469468
0.60971156
0.61451434
0.61916534
0.62357006
0.62777192
0.63180725
0.63570675
0.63949637
0.64319759
0.6468286
0.65023684
0.65370572
0.65721048
0.66068727
0.66414446
0.66758838
0.67102358
0.67445316
0.67787898
0.6813018
0.68472154
0.68813745
0.69154824
0.69495229
0.69822562
0.70154222
0.70489175
0.70810623
0.71130119
0.7145355
0.71772232
0.72085023
0.32373808
0.36043845
0.37064069
0.38853687
0.41096981
0.43338188
0.4546124
0.47509121
0.49434397
0.51160005
0.52682996
0.54024318
0.55205942
0.56247828
0.57169638
0.5798969
0.5872486
0.59388795
0.59994528
0.60546492
0.61039046
0.61516026
0.61972554
0.62406334
0.62821053
0.63220016
0.63606089
0.63981724
0.64348859
0.64708563
0.65047369
0.65393841
0.65742339
0.66088348
0.66432618
0.66775728
0.67118101
0.67460026
0.67801666
0.68143087
0.68484268
0.68825121
0.69165509
0.69505264
0.69832008
0.70163105
0.70497511
0.70818441
0.71137587
0.71460567
0.71778784
0.7209114
0.59153352
0.46682815
0.43549831
0.43258593
0.44079279
0.45490762
0.47119463
0.48735953
0.50328946
0.5184726
0.53214713
0.54441443
0.55538349
0.56516241
0.57389075
0.58171136
0.58876989
0.59517399
0.60105333
0.60633973
0.61120991
0.61590764
0.62037817
0.62463976
0.62872394
0.63266059
0.63647627
0.64019413
0.64383201
0.64738544
0.65075387
0.65421124
0.65767351
0.66111425
0.66454006
0.6679562
0.67136653
0.67477367
0.67817906
0.68158318
0.68498567
0.68838556
0.69178137
0.69517132
0.69843188
0.70173621
0.70507381
0.70827702
0.71146433
0.71468884
0.71786554
0.72098398
0.68539086
0.5443187
0.49022205
0.47194604
0.47019422
0.47672689
0.4875863
0.50013665
0.51289912
0.52578676
0.53784395
0.54891308
0.55899133
0.5680899
0.57629362
0.58370362
0.59044654
0.59659262
0.60223986
0.60733754
0.61214158
0.61673028
0.6211013
0.62528019
0.62929527
0.63317351
0.63693938
0.64061488
0.64421826
0.64771633
0.65106953
0.65451538
0.6579528
0.66137221
0.66477932
0.66817884
0.67157426
0.67496791
0.67836102
0.68175389
0.68514601
0.68853626
0.69192307
0.69530455
0.69855744
0.70185433
0.70518471
0.7083811
0.71156376
0.71478234
0.71795294
0.72106567
0.72165261
0.60355206
0.54000333
0.51047083
0.49981427
0.49959094
0.50498659
0.51358719
0.52348631
0.53413937
0.54425352
0.55401401
0.56311392
0.57145378
0.57906774
0.58601007
0.59239745
0.59824798
0.60359151
0.60854742
0.61323305
0.61769031
0.62194855
0.62603246
0.62996748
0.63377769
0.63748533
0.64111129
0.64468024
0.64809882
0.65144754
0.65487383
0.65828269
0.66167726
0.66506245
0.66844244
0.67182032
0.67519808
0.67857672
0.68195631
0.68533619
0.68871507
0.69209125
0.69546275
0.69870658
0.70199467
0.70531649
0.70850481
0.71168194
0.71489349
0.71805687
0.72116285
0.7376589
0.64517543
0.58171304
0.54594839
0.52848519
0.52236503
0.52306299
0.52775791
0.53476373
0.54301252
0.5514879
0.5596721
0.56773009
0.57524348
0.58221053
0.58862917
0.5946283
0.60008871
0.6051851
0.6099663
0.61448388
0.61879379
0.62292546
0.6269019
0.6307457
0.63447803
0.63811866
0.64168664
0.64520308
0.64855306
0.65189636
0.65528962
0.65866632
0.6620324
0.66539234
0.66874975
0.6721073
0.67546664
0.67882848
0.68219266
0.68555831
0.68892398
0.69228781
0.6956477
0.69888097
0.70215882
0.70547068
0.70864961
0.71182022
0.71502354
0.71817855
0.72127665
0.74590736
0.67402773
0.61553372
0.57738425
0.55538856
0.54459227
0.54117107
0.54241291
0.54655301
0.55246986
0.55912434
0.56594593
0.57282666
0.57944153
0.58571576
0.59155293
0.59707871
0.60220783
0.60702311
0.61157343
0.61590045
0.62004636
0.62403733
0.62789362
0.63163493
0.63527934
0.63884395
0.6423455
0.64579362
0.64908479
0.6524148
0.65576671
0.65910698
0.66244076
0.66577194
0.66910358
0.67243789
0.67577614
0.67911872
0.68246523
0.68581455
0.68916505
0.6925147
0.69586125
0.69908239
0.70234848
0.70564885
0.70881699
0.71198005
0.71517382
0.71831921
0.72140828
0.75081805
0.6941963
0.6424563
0.60459423
0.58004129
0.56581452
0.55897195
0.55717611
0.5586943
0.56236464
0.56722758
0.57264404
0.57834255
0.58402036
0.5895379
0.59479556
0.59982346
0.60457137
0.60907719
0.61337274
0.61748795
0.62145306
0.62528908
0.62901246
0.63263994
0.6361863
0.63966575
0.64309364
0.64645515
0.64970034
0.6530038
0.65630859
0.65960801
0.66290553
0.66620431
0.66950685
0.67281486
0.67612922
0.67944996
0.6827764
0.68610718
0.68944045
0.69277397
0.69610535
0.69931268
0.7025654
0.7058527
0.70900856
0.71216295
0.7153457
0.71848019
0.72155896
0.75410091
0.70859818
0.66371933
0.62776456
0.60221355
0.58569725
0.5761815
0.57177061
0.57097979
0.57256265
0.57569123
0.57970568
0.58422799
0.58894963
0.59368947
0.59832959
0.60284053
0.60717769
0.61134847
0.61536687
0.61925031
0.62301816
0.62668513
0.63026283
0.63376521
0.63720342
0.64058833
0.64393886
0.64718576
0.65040906
0.6536647
0.65691862
0.6601728
0.66342996
0.66669257
0.66996254
0.67324107
0.6765286
0.6798248
0.68312867
0.68643858
0.68975242
0.69306777
0.69638204
0.69957378
0.70281142
0.70608394
0.70922597
0.71237053
0.7155406
0.71866287
0.72173002
0.75648666
0.71916346
0.68051299
0.64729164
0.6218732
0.60403833
0.59256206
0.58602815
0.58317384
0.58292892
0.58441546
0.58706148
0.59042978
0.59419332
0.59814422
0.60214298
0.60611961
0.61002245
0.61383596
0.6175569
0.62119019
0.62474504
0.62822932
0.63164864
0.63501489
0.63833499
0.64161498
0.64486183
0.64802081
0.65120726
0.65440195
0.65760034
0.66080478
0.66401736
0.6672399
0.67047371
0.67371944
0.67697708
0.68024592
0.68352459
0.68681117
0.6901033
0.69339832
0.69669342
0.69986769
0.70308848
0.70634442
0.70947096
0.71260436
0.7157601
0.7188687
0.72192282
0.75832136
0.72713385
0.69385067
0.6636598
0.63912615
0.62074837
0.60794882
0.59975844
0.59517403
0.59328014
0.59330724
0.59464527
0.596892
0.5997111
0.60287321
0.60621901
0.60964823
0.61309875
0.61653663
0.61994232
0.62330884
0.62663603
0.6299249
0.63317315
0.63639268
0.63958526
0.64275152
0.64586461
0.64897071
0.65209169
0.65521945
0.65835735
0.66150738
0.66467106
0.66784952
0.67104346
0.67425296
0.67747755
0.68071607
0.68396679
0.68722749
0.6904955
0.69376791
0.69704169
0.70019652
0.70339857
0.70663603
0.70974532
0.7128661
0.71600584
0.71909922
0.72213879
0.75978665
0.73330708
0.70453994
0.67736056
0.65416283
0.63582631
0.62224501
0.61283267
0.60684429
0.60353201
0.60222831
0.60238349
0.60357096
0.60545956
0.60784485
0.6105375
0.61341152
0.61639717
0.61944538
0.62252091
0.62560608
0.62869232
0.63177453
0.63483876
0.63790175
0.64095821
0.64397325
0.64699286
0.65002515
0.65306587
0.65612095
0.65919321
0.66228408
0.66539442
0.66852469
0.67167494
0.67484468
0.67803292
0.68123806
0.68445799
0.68769012
0.6909315
0.69417894
0.69742913
0.70056243
0.70374378
0.70696072
0.71005094
0.71315749
0.7162795
0.719356
0.72237943
0.7609877
0.73820257
0.71320121
0.68884725
0.66721564
0.64933472
0.63541124
0.62516352
0.61808149
0.61358384
0.61111119
0.61017668
0.61038924
0.61141996
0.61302539
0.61507598
0.61739202
0.61990582
0.62255514
0.62528871
0.62808019
0.63091375
0.63378057
0.63664662
0.6395446
0.64242705
0.6453249
0.64824561
0.65118004
0.6541336
0.65711012
0.66011146
0.66313831
0.66619079
0.66926867
0.67237132
0.67549767
0.67864617
0.68181478
0.68500095
0.68820174
0.69141387
0.69463384
0.69785807
0.70096766
0.70412625
0.70732055
0.71038975
0.71348035
0.7165828
0.71964069
0.72264629
0.7619909
0.74216589
0.7203024
0.69851474
0.67852846
0.66137742
0.64745335
0.63670086
0.62880945
0.62335273
0.61988042
0.61797133
0.61729124
0.61750743
0.61839441
0.6198189
0.6215696
0.62361045
0.62585719
0.6282401
0.63072786
0.63329835
0.63594593
0.63859589
0.64129197
0.64404114
0.64680954
0.64960976
0.65243875
0.6552984
0.65819045
0.66111553
0.66407343
0.66706349
0.67008471
0.67313577
0.67621501
0.67932031
0.68244912
0.68559848
0.68876505
0.69194521
0.69513513
0.69833093
0.70141454
0.7045482
0.7077176
0.71076375
0.71383655
0.71691756
0.71995499
0.72294096
0.76284116
0.74543281
0.72619421
0.70669507
0.688337
0.67208124
0.65841057
0.64742608
0.63897716
0.6327738
0.62847016
0.62572001
0.62421663
0.62369142
0.62390409
0.62470583
0.62593549
0.62750795
0.62934156
0.63136775
0.63354428
0.63584138
0.63823812
0.64068917
0.64320608
0.64578766
0.64841454
0.65108774
0.65380427
0.65656351
0.65936523
0.66220871
0.66509272
0.66801574
0.670976
0.67397146
0.6769998
0.68005834
0.68314402
0.68625343
0.68938281
0.69252817
0.69568537
0.69885017
0.70190544
0.70501192
0.708154
0.71117499
0.71422802
0.7172856
0.72030066
0.72326508
0.76357019
0.74816781
0.73114005
0.71366146
0.69685777
0.68158221
0.66834477
0.65734583
0.64855589
0.64179941
0.63682529
0.63335888
0.63113802
0.62992218
0.62951364
0.62973869
0.6304544
0.63156884
0.63299463
0.63466257
0.63652351
0.63854115
0.6406868
0.64292644
0.64525494
0.64766495
0.65014211
0.65268169
0.65527919
0.65793182
0.6606375
0.6633941
0.66619933
0.66905072
0.67194569
0.67488148
0.6778551
0.68086328
0.68390242
0.68696865
0.69005778
0.69316545
0.69628715
0.69941831
0.7024428
0.70551976
0.70863194
0.71162555
0.71465671
0.71768882
0.72067949
0.72362034
0.76420127
0.75048767
0.7353376
0.71963586
0.70428302
0.69001584
0.67733149
0.66648583
0.65753588
0.6503979
0.64490315
0.6408432
0.638003
0.63617715
0.63518364
0.63488112
0.63510803
0.63577522
0.6368018
0.63811397
0.63965822
0.64139341
0.64328633
0.64530637
0.64743923
0.64967281
0.65199356
0.65439333
0.65686569
0.65940586
0.66201001
0.6646746
0.66739621
0.67017142
0.67299682
0.67586887
0.67878392
0.68173808
0.68472724
0.687747
0.69079275
0.69385975
0.69694311
0.70003791
0.7030291
0.7060741
0.70915356
0.71211751
0.71512464
0.71812917
0.72109335
0.76475203
0.75247737
0.73893552
0.72479685
0.71077962
0.69751099
0.68545295
0.67488525
0.66592264
0.65855177
0.65267275
0.64813638
0.64477369
0.64241381
0.64089411
0.64009822
0.63986985
0.64011076
0.64074749
0.64171005
0.64293968
0.64439205
0.64603107
0.64782637
0.64975815
0.65181065
0.65396941
0.6562238
0.65856546
0.66098774
0.66348515
0.6660528
0.66868611
0.67138069
0.67413227
0.67693655
0.67978918
0.68268567
0.68562134
0.6885913
0.69159049
0.69461376
0.69765587
0.70071152
0.70366688
0.70667744
0.70972097
0.71265299
0.71563385
0.71860861
0.72154415
0.76523608
0.75420019
0.74204653
0.72928629
0.7164901
0.70418629
0.69279278
0.68259195
0.67373351
0.66625558
0.66011371
0.65521003
0.65141806
0.64860033
0.64662089
0.64536036
0.64470977
0.64455385
0.6448172
0.64543778
0.64635787
0.64752954
0.64891488
0.65048267
0.65220967
0.65407724
0.65606946
0.65817367
0.66037966
0.66267911
0.66506496
0.667531
0.67007151
0.67268116
0.67535477
0.6780873
0.6808737
0.68370887
0.68658754
0.68950433
0.69245372
0.69543015
0.69842802
0.70144171
0.70435874
0.70733241
0.71033609
0.71323403
0.71618641
0.71912915
0.72203367
0.76566416
0.75570422
0.74475736
0.73321607
0.72153287
0.71014799
0.69943238
0.68965851
0.68099438
0.67351371
0.66721494
0.66204299
0.65790899
0.65470665
0.65232467
0.65065739
0.64960293
0.64907833
0.64899435
0.64928427
0.64990164
0.65079716
0.65193078
0.65327045
0.65479066
0.65647057
0.65829275
0.66024281
0.6623089
0.66448112
0.66675102
0.66911111
0.6715546
0.67407517
0.67666681
0.67932371
0.68204014
0.68481036
0.68762854
0.69048878
0.69338511
0.69631153
0.69926212
0.70223099
0.70510732
0.70804205
0.71100029
0.71386269
0.71678445
0.7196928
0.72256379
0.76604482
0.75702665
0.74713578
0.73667556
0.7260048
0.71548736
0.70544694
0.69613834
0.68773619
0.68033734
0.67397213
0.66861981
0.66422401
0.66070675
0.65797988
0.65595398
0.65454123
0.65366136
0.6532553
0.65323725
0.65355911
0.65418512
0.65507097
0.6561839
0.65749699
0.65898781
0.66063755
0.66243042
0.66435312
0.66639438
0.66854443
0.67079465
0.67313718
0.67556479
0.67807065
0.68064818
0.68329098
0.68599268
0.68874691
0.69154724
0.69438721
0.69726042
0.70016062
0.70308176
0.70591523
0.70881051
0.7117136
0.71454108
0.71743018
0.72030165
0.76638499
0.75819672
0.74923535
0.73973683
0.72998594
0.72028167
0.71090266
0.70208145
0.69399085
0.68674108
0.68038527
0.67492958
0.67034489
0.6665783
0.66356307
0.66122651
0.65949443
0.65829403
0.65758224
0.65727362
0.65732125
0.65768264
0.65832672
0.65921622
0.66032355
0.66162522
0.66310132
0.66473497
0.66651165
0.66841889
0.67044579
0.67258264
0.67482067
0.67715173
0.6795682
0.68206279
0.68462844
0.68725816
0.68994504
0.69268212
0.69546246
0.69827923
0.70112584
0.70399618
0.7067847
0.70964529
0.71247214
0.71527203
0.71812593
0.72095784
0.76669032
0.75923773
0.75109893
0.74245857
0.73354302
0.72459695
0.71585769
0.70753339
0.69978913
0.69274108
0.6864576
0.68096528
0.6762573
0.67230237
0.66905315
0.66645325
0.66444222
0.66296
0.6619548
0.66137888
0.6611675
0.66128166
0.66168854
0.66235976
0.66326434
0.66437819
0.66568072
0.66715416
0.66878309
0.67055402
0.67245508
0.67447564
0.67660602
0.67883728
0.68116105
0.68356936
0.68605449
0.6886089
0.69122511
0.69389567
0.69661314
0.69937023
0.70215998
0.70497608
0.70771554
0.71053031
0.71329536
0.71606127
0.71887406
0.72166311
0.76696547
0.76016848
0.75276121
0.74488893
0.73673199
0.72849005
0.72036353
0.71253591
0.70516081
0.69835466
0.69219502
0.68672332
0.68195039
0.67786318
0.67443151
0.67161417
0.6693638
0.66763121
0.66636967
0.66553261
0.66508536
0.66496605
0.66514832
0.66560598
0.6663125
0.6672413
0.66837156
0.66968492
0.67116532
0.67279849
0.67457173
0.67647361
0.67849369
0.6806223
0.68285037
0.6851693
0.68757078
0.69004669
0.69258905
0.69518991
0.69784133
0.70053552
0.70326509
0.7060234
0.7087098
0.71147332
0.71418148
0.71690933
0.71967591
0.72241913
0.7672143
0.76100433
0.75425051
0.74706776
0.73960006
0.73201011
0.72446599
0.71712748
0.71013459
0.7036
0.69760562
0.692203
0.68741647
0.68324792
0.679682
0.67669122
0.67424034
0.67229029
0.67080102
0.66973055
0.66905782
0.6687218
0.6686945
0.66894648
0.66946041
0.6702083
0.67116886
0.67232343
0.6736555
0.67515029
0.67679446
0.67857593
0.68048358
0.68250713
0.68463688
0.68686364
0.68917855
0.69157299
0.69403847
0.69656656
0.69914885
0.70177702
0.70444314
0.70714013
0.70976987
0.71247856
0.7151306
0.71781672
0.72053303
0.72322751
0.76744008
0.76175792
0.75559021
0.74902825
0.74218729
0.73519975
0.72820593
0.72134354
0.71473811
0.70849584
0.70269929
0.69740616
0.69265066
0.68844652
0.68479089
0.68166833
0.67905469
0.67692037
0.67523306
0.67395904
0.67306788
0.67253724
0.67231141
0.67237355
0.67269957
0.67327211
0.67406683
0.67506504
0.67625002
0.67760672
0.67912135
0.68078133
0.68257502
0.68449158
0.68652079
0.68865293
0.69087865
0.69318885
0.69557461
0.69802703
0.70053724
0.70309639
0.70569587
0.70832811
0.71089787
0.71354863
0.71614348
0.7187841
0.72144694
0.72408971
0.76764554
0.7624398
0.75679975
0.75079825
0.74452778
0.7380961
0.73161984
0.72521672
0.71899785
0.71306123
0.70748731
0.70233678
0.69765056
0.69345145
0.68974677
0.68653149
0.68379126
0.68150534
0.6796489
0.67819461
0.67711315
0.67639582
0.67598965
0.6758722
0.67602321
0.6764249
0.67705896
0.67790433
0.6789445
0.6801643
0.68154974
0.68308787
0.68476667
0.68657484
0.68850174
0.69053719
0.69267142
0.69489489
0.69719829
0.69957233
0.70200771
0.70449499
0.70702482
0.70958887
0.71209561
0.71468506
0.71722098
0.71981239
0.72241888
0.72500698
0.76783304
0.76305879
0.75789542
0.75240128
0.74665075
0.74073154
0.7347403
0.72877706
0.72293905
0.71731525
0.71198206
0.70700065
0.70241599
0.69825748
0.69454048
0.69126862
0.68843612
0.68603024
0.68403329
0.68242431
0.68118062
0.68028246
0.67971609
0.67943153
0.67942034
0.67965895
0.68013803
0.68083513
0.68173378
0.68281882
0.68407624
0.6854929
0.68705651
0.68875547
0.69057877
0.69251589
0.69455666
0.69669121
0.69890986
0.70120301
0.70356099
0.70597386
0.70843125
0.71092356
0.7133647
0.71588842
0.71836387
0.72090252
0.72344987
0.72598034
0.76800456
0.76362237
0.758891
0.75385731
0.74858129
0.74313435
0.73759646
0.73205211
0.72658567
0.72127682
0.71619669
0.71140502
0.70694869
0.70286149
0.69916491
0.69586955
0.69297696
0.69048145
0.68837189
0.68663322
0.68524773
0.68419561
0.68347571
0.68304195
0.6828774
0.68296713
0.68329586
0.68385052
0.68461192
0.68556527
0.68669667
0.687993
0.68944181
0.69103132
0.69275026
0.69458783
0.69653358
0.69857732
0.70070911
0.70291909
0.70519735
0.70753359
0.70991628
0.71233259
0.71470736
0.71715743
0.71957275
0.72205537
0.72454073
0.72701054
0.76816184
0.76413692
0.75979818
0.75518341
0.75034107
0.74532936
0.74021433
0.73506707
0.72996027
0.72496449
0.72014486
0.71555836
0.71125203
0.70726226
0.70361488
0.70032596
0.69740307
0.69484664
0.69265142
0.6908078
0.68930305
0.68812268
0.68725419
0.6866907
0.68638559
0.68633661
0.68652523
0.68694286
0.68757226
0.68839788
0.6894061
0.69058398
0.69191907
0.6933995
0.69501387
0.69675117
0.69860072
0.70055214
0.70259523
0.70471997
0.70691639
0.70917423
0.71148137
0.71381445
0.71612952
0.71848563
0.72084898
0.72327169
0.72569194
0.728098
0.76830637
0.76460786
0.76062698
0.75639422
0.75194885
0.74733832
0.74261716
0.73784499
0.73308406
0.72839627
0.72384049
0.71947002
0.71533078
0.71146021
0.70788697
0.70463122
0.70170532
0.69911485
0.69685968
0.69493511
0.69333289
0.69204213
0.69104988
0.69036415
0.68993475
0.68975609
0.6898172
0.69010392
0.69060737
0.69131008
0.6921988
0.69326086
0.69448399
0.69585635
0.69736648
0.69900328
0.70075593
0.70261386
0.70456673
0.70660438
0.7087169
0.71089488
0.71313111
0.71535944
0.71761439
0.71989028
0.72219658
0.7245517
0.72690353
0.72924275
0.76843944
0.76503992
0.761386
0.75750238
0.75342091
0.74918036
0.74482571
0.74040684
0.73597679
0.7315895
0.72729756
0.72315006
0.71919082
0.7154572
0.71197938
0.70878033
0.70587608
0.70327641
0.70098556
0.69900315
0.69732499
0.6959437
0.69484841
0.69405036
0.69351289
0.69321627
0.6931594
0.6933259
0.69370906
0.69429453
0.69506821
0.69601783
0.69713146
0.69839738
0.6998042
0.70134079
0.70299627
0.70475997
0.70662142
0.70857034
0.71059676
0.71269122
0.71484561
0.71698524
0.71917091
0.72136809
0.72361216
0.72589451
0.72817497
0.7304443
0.7685622
0.76543714
0.76208267
0.75851882
0.75477148
0.75087234
0.74685851
0.74277168
0.73865686
0.73456073
0.73052987
0.72660892
0.72283898
0.71925634
0.71589169
0.71276973
0.70990914
0.70732296
0.70501906
0.70300081
0.70126769
0.69981608
0.69864026
0.69773653
0.69710544
0.6967064
0.69654108
0.69659899
0.69686863
0.69734315
0.69800696
0.69884827
0.69985551
0.70101725
0.70232225
0.70375946
0.70531799
0.70698715
0.70875637
0.71061527
0.7125537
0.71456188
0.71663054
0.71868551
0.72079763
0.7229158
0.72509271
0.72729904
0.72950515
0.73170167
0.76867563
0.76580306
0.76272344
0.75945305
0.75601295
0.75242909
0.74873211
0.74495679
0.74114123
0.73732565
0.73355095
0.72985731
0.72628271
0.72286175
0.71962476
0.71659722
0.7137996
0.71124736
0.70895126
0.70691777
0.70514959
0.70364626
0.70240477
0.70141985
0.70070169
0.70021522
0.69995249
0.69991114
0.70007741
0.70044707
0.70100691
0.70174468
0.70264929
0.70370973
0.70491498
0.70625415
0.70771646
0.70929121
0.71096783
0.71273584
0.71458494
0.716505
0.71848612
0.72045681
0.72249141
0.72453011
0.72663559
0.72876333
0.73089238
0.73301329
0.7687806
0.76614077
0.76331393
0.76031334
0.75715618
0.75386373
0.75046126
0.74697782
0.74344557
0.739899
0.73637387
0.73290597
0.72952999
0.72627838
0.72318046
0.72026181
0.71754384
0.71504368
0.71277429
0.71074466
0.70896019
0.70742312
0.70613317
0.70508842
0.70428768
0.70373051
0.70338268
0.70325119
0.70332529
0.70359674
0.7040591
0.70469872
0.7055051
0.70646769
0.70757581
0.70881883
0.71018612
0.71166708
0.71325117
0.71492788
0.71668678
0.71851756
0.7204101
0.72229639
0.72424742
0.72620783
0.72823804
0.73028484
0.7323343
0.73437698
0.7688779
0.76645294
0.76385903
0.76110694
0.75821071
0.7551878
0.75205912
0.74884888
0.74558421
0.74229461
0.73901115
0.73576551
0.73258905
0.72951179
0.72656161
0.72376355
0.72113932
0.71870708
0.71648133
0.71447302
0.71268973
0.71113599
0.70981373
0.70872276
0.70786081
0.70723946
0.70682024
0.70660885
0.70660021
0.70678236
0.70715387
0.70770124
0.70841433
0.70928306
0.71029722
0.71144648
0.71272044
0.71410869
0.71560078
0.71718622
0.71885451
0.7205952
0.7223985
0.72420367
0.72605584
0.72794712
0.7298968
0.73186038
0.73382788
0.73578987
0.76896819
0.76674195
0.76436302
0.76184018
0.7591849
0.75641154
0.75353741
0.75058269
0.74757027
0.74452531
0.74147469
0.73844631
0.73546826
0.73256803
0.72977172
0.72710339
0.72458454
0.72223377
0.72006657
0.71809529
0.71632922
0.71477477
0.71343571
0.71231334
0.71140633
0.7107312
0.71025342
0.70997296
0.7098898
0.70999378
0.7102806
0.71074224
0.71136748
0.71214688
0.71307073
0.71412909
0.71531189
0.71660895
0.71801001
0.71950469
0.72108242
0.72273236
0.72444393
0.72616317
0.72792562
0.72974309
0.73160733
0.73348591
0.73536935
0.73724841
0.76905207
0.76700987
0.76482967
0.76251862
0.76008611
0.75754398
0.75490655
0.75219069
0.74941568
0.74660296
0.74377573
0.7409584
0.73817599
0.73545343
0.73281486
0.73028305
0.72787888
0.7256209
0.72352511
0.72160478
0.71987047
0.71833006
0.71698887
0.71584971
0.71491244
0.71419348
0.71366988
0.71333135
0.71318331
0.71321828
0.71342845
0.71381101
0.71435422
0.71504925
0.71588689
0.71685768
0.71795192
0.71915975
0.72047117
0.72187605
0.72336397
0.72492362
0.72653933
0.72817271
0.72984866
0.73158816
0.73336492
0.73515669
0.73695417
0.73874826
0.76913008
0.76725853
0.76526226
0.76314713
0.76092082
0.75859309
0.75617583
0.75368314
0.75113127
0.74853848
0.74592474
0.74331135
0.74072046
0.73817447
0.73569553
0.7333049
0.73102251
0.72886651
0.72685297
0.72499568
0.72330605
0.72179307
0.72046341
0.71932156
0.71837028
0.71761284
0.71705598
0.71667176
0.71646887
0.71644322
0.71658596
0.71689601
0.71736341
0.71797939
0.71873533
0.71962229
0.72063098
0.72175193
0.72297546
0.72429188
0.72569161
0.72716631
0.72867231
0.73022647
0.73181776
0.73347572
0.73516364
0.73686708
0.73857694
0.74028432
0.76920268
0.76748951
0.7656637
0.76373
0.76169473
0.75956593
0.7573535
0.75506923
0.75272685
0.75034188
0.7479315
0.74551425
0.74310962
0.74073768
0.73841851
0.73617178
0.73401625
0.73196938
0.73004698
0.72826298
0.72662928
0.72515564
0.7238497
0.72271706
0.72176142
0.72098468
0.72040118
0.71998217
0.71973412
0.71965605
0.71974078
0.71998506
0.72038312
0.72092569
0.72160479
0.72241201
0.72333853
0.72437529
0.72551298
0.72674219
0.7280536
0.72943847
0.73085173
0.73231561
0.73382629
0.73539875
0.73699664
0.73861052
0.74023143
0.74185065
0.76927028
0.76770424
0.76603653
0.76427099
0.76241284
0.76046871
0.75844686
0.75635716
0.75421122
0.75202225
0.74980501
0.7475756
0.74535115
0.74314948
0.74098873
0.7388869
0.73686146
0.73492896
0.7331047
0.73140244
0.72983425
0.72841034
0.727139
0.72602659
0.72507757
0.72429443
0.72369367
0.7232501
0.72296631
0.72284445
0.72287939
0.72306548
0.72340078
0.72387578
0.72448316
0.72521503
0.72606313
0.72701877
0.72807304
0.72921677
0.73044061
0.73173546
0.73305978
0.73443435
0.73586609
0.73734852
0.73885598
0.74037955
0.74191054
0.74344052
0.76933325
0.76790395
0.76638297
0.76477341
0.76307956
0.76130693
0.75946239
0.75755425
0.75559231
0.75358785
0.75155356
0.74950338
0.74745232
0.74541617
0.74341119
0.74145375
0.73955995
0.7377453
0.73602438
0.73441056
0.7329158
0.73155048
0.73032328
0.72924112
0.72830911
0.72753045
0.72692104
0.72646284
0.72615247
0.72599545
0.7259883
0.72612413
0.72640317
0.72681662
0.72735759
0.72801879
0.72879246
0.72967042
0.73064415
0.73170476
0.73284271
0.73404804
0.73528576
0.73657355
0.73792415
0.73931623
0.74073302
0.74216586
0.74360638
0.74504642
0.76939191
0.76808974
0.76670499
0.76524016
0.76369878
0.76208541
0.76040582
0.75866698
0.75687722
0.75504616
0.7531847
0.75130492
0.74941997
0.74754377
0.74569084
0.74387597
0.74211387
0.74041893
0.73880488
0.7372845
0.73586946
0.73457006
0.73339518
0.73235211
0.73144669
0.73068383
0.73006964
0.72960734
0.7292796
0.72909584
0.72905376
0.72914766
0.72937663
0.72973459
0.7302146
0.73080996
0.73151345
0.73231743
0.73321389
0.73419437
0.73524919
0.73636441
0.73751802
0.73872226
0.73998978
0.74129196
0.74261827
0.7439604
0.74531029
0.7466601
0.76944656
0.76826256
0.7670043
0.76567378
0.76427388
0.76280842
0.7612822
0.75970114
0.75807229
0.75640388
0.75470529
0.75298701
0.7512605
0.74953804
0.74783254
0.74615727
0.74452561
0.74295079
0.74144558
0.74002207
0.73869144
0.73746377
0.7363479
0.73535134
0.73448027
0.73373969
0.73313341
0.73267154
0.73233504
0.73213238
0.7320627
0.73212179
0.73230728
0.73261574
0.73304024
0.73357468
0.73421238
0.73494623
0.73576873
0.73667219
0.73764903
0.73867068
0.7397437
0.74087077
0.74205209
0.7432651
0.74450153
0.74575339
0.74701293
0.74827266
0.76949743
0.76842326
0.76728241
0.7660765
0.76480787
0.76347968
0.762096
0.76066182
0.75918315
0.75766703
0.75612156
0.75455583
0.75297984
0.75140441
0.74984096
0.74830138
0.74679775
0.74534214
0.74394633
0.74262161
0.74137858
0.74022693
0.73917529
0.73823114
0.73740077
0.73668915
0.73609984
0.73564485
0.73530667
0.73509219
0.73500181
0.73503257
0.73518105
0.73544583
0.73582023
0.7362987
0.7368751
0.7375428
0.73829475
0.73912355
0.74002169
0.74096203
0.741954
0.74300415
0.74409911
0.74522431
0.74637197
0.74753447
0.74870445
0.74987471
0.76954475
0.76857258
0.76754066
0.76645027
0.76530334
0.76410249
0.76285114
0.76155354
0.7602148
0.758841
0.75743911
0.75601702
0.75458347
0.75314795
0.7517206
0.75031199
0.74893298
0.74759451
0.74630737
0.74508202
0.74392836
0.74285557
0.74187194
0.74098479
0.7402003
0.73952348
0.73895804
0.73851616
0.73818259
0.73796269
0.73785793
0.73786633
0.73798389
0.73821061
0.73854018
0.7389676
0.73948725
0.740093
0.74077825
0.7415358
0.74235705
0.74322109
0.74413569
0.74510833
0.74611875
0.74715787
0.74821829
0.74929285
0.75037461
0.76958872
0.76871117
0.76778019
0.76679681
0.76576259
0.76467971
0.76355106
0.76238026
0.76117169
0.75993057
0.75866294
0.75737567
0.75607637
0.7547734
0.7534757
0.75219267
0.75093402
0.74970964
0.74852931
0.74740265
0.74633881
0.74534638
0.74443324
0.74360637
0.74287179
0.74223447
0.74169824
0.74127484
0.74095138
0.74073172
0.74061828
0.74060971
0.74070216
0.740896
0.74118582
0.74156699
0.74203442
0.74258255
0.74320552
0.74389756
0.74463938
0.74543197
0.74627615
0.74717032
0.74809855
0.74905373
0.75002893
0.7510174
0.75201262
0.7696295
0.76883959
0.76800202
0.7671176
0.76618761
0.76521386
0.76419879
0.76314549
0.76205773
0.76094001
0.75979757
0.75863639
0.75746313
0.75628512
0.75511025
0.75394687
0.75280363
0.7516894
0.75061303
0.74958326
0.74860851
0.74769673
0.74685527
0.74609073
0.74540889
0.74481457
0.74431161
0.7439111
0.74360232
0.74338778
0.74327065
0.74324997
0.74332256
0.74348835
0.7437432
0.74408271
0.74450228
0.74499681
0.74556081
0.74618857
0.74686182
0.74758446
0.74835996
0.74917716
0.75002596
0.7508998
0.75179224
0.75269697
0.75360787
0.76966725
0.76895834
0.76820704
0.76741396
0.76658015
0.76570714
0.76479697
0.7638523
0.76287637
0.76187308
0.760847
0.75980331
0.75874788
0.75768712
0.756628
0.75557789
0.75454451
0.75353577
0.75255964
0.75162402
0.75073656
0.74990456
0.74913481
0.74843349
0.74780603
0.74725705
0.7467903
0.74641606
0.74612556
0.74592019
0.74580362
0.74577519
0.74583236
0.74597466
0.74619894
0.74650115
0.74687712
0.74732217
0.74783106
0.74839769
0.74900784
0.74966511
0.75037291
0.75111621
0.75188865
0.75268415
0.75349671
0.7543205
0.75514984
0.76970208
0.76906785
0.768396
0.76768701
0.76694174
0.76616146
0.76534792
0.76450337
0.76363065
0.76273313
0.76181477
0.76088014
0.75993436
0.75898306
0.75803238
0.75708885
0.75615931
0.7552508
0.75437045
0.75352536
0.75272246
0.75196837
0.75126932
0.75063099
0.75005845
0.74955605
0.74912737
0.74878179
0.74851225
0.74831925
0.74820673
0.74817425
0.7482198
0.74834267