/*--------------------------------*- C++ -*----------------------------------*\
| =========                 |                                                 |
| \\      /  F ield         | OpenFOAM: The Open Source CFD Toolbox           |
|  \\    /   O peration     | Version:  2312                                  |
|   \\  /    A nd           | Website:  www.openfoam.com                      |
|    \\/     M anipulation  |                                                 |
\*---------------------------------------------------------------------------*/
FoamFile
{
    version     2.0;
    format      ascii;
    arch        "LSB;label=32;scalar=64";
    class       volScalarField;
    location    "0.01";
    object      nut;
}
// * * * * * * * * * * * * * * * * * * * * * * * * * * * * * * * * * * * * * //

dimensions      [0 2 -1 0 0 0 0];

internalField   nonuniform List<scalar> 
3275
(
0.024584537
0.025608212
0.026582732
0.02749375
0.02840342
0.029377492
0.03046108
0.031662217
0.032964273
0.034334924
0.035734739
0.037122559
0.038458486
0.039705651
0.040830945
0.041804939
0.042601419
0.043196779
0.043611909
0.043893864
0.04407647
0.04418578
0.044234814
0.044229905
0.044183526
0.044101799
0.043988997
0.043848121
0.043681249
0.043489805
0.043274734
0.043036691
0.042776139
0.042493453
0.04218895
0.041862963
0.041515882
0.041148188
0.040760477
0.04035348
0.039928087
0.039485355
0.039026545
0.038553064
0.038066489
0.037568929
0.037061866
0.036547431
0.036027862
0.035505345
0.034982334
0.034461425
0.024660121
0.025665094
0.026586807
0.027475737
0.028380385
0.029356608
0.03044427
0.03164866
0.032952634
0.034323952
0.035723509
0.037110476
0.03844518
0.039690903
0.040814638
0.041787032
0.042581916
0.043175667
0.04359035
0.043872564
0.044055857
0.044165903
0.044215948
0.044212046
0.044166686
0.044085955
0.043974112
0.043834149
0.043668144
0.043477518
0.043263218
0.043025902
0.042766036
0.042483996
0.042180105
0.041854696
0.041508165
0.041140993
0.040753779
0.040347257
0.039922319
0.039480025
0.03902164
0.038548596
0.038062453
0.037565183
0.037058447
0.036544337
0.036025082
0.035502864
0.034980127
0.034459495
0.024814451
0.025750261
0.026581032
0.027435713
0.028334334
0.029316051
0.030411714
0.03162224
0.03292973
0.034302177
0.035701097
0.037086296
0.038418526
0.039661353
0.040781978
0.041751182
0.042542905
0.043133504
0.04354735
0.043830178
0.044014712
0.044126315
0.044178391
0.044176502
0.044133173
0.044054425
0.043944488
0.043806339
0.043642049
0.043453039
0.04324026
0.043004373
0.042745853
0.04246508
0.042162382
0.041838101
0.041492635
0.041126475
0.040740222
0.040334617
0.039910553
0.039469098
0.03901152
0.038539264
0.038053886
0.037557277
0.037051195
0.036537726
0.036019088
0.035497468
0.034975299
0.034455218
0.025021
0.025799193
0.026539548
0.027367191
0.028265626
0.029257991
0.030365117
0.031584007
0.032896111
0.034269866
0.035667608
0.037050041
0.038378505
0.039616967
0.040732921
0.041697347
0.042484354
0.043070363
0.043483044
0.043766782
0.043953289
0.0440672
0.044122308
0.044123429
0.044083132
0.044007342
0.043900246
0.043764798
0.043603062
0.043416457
0.043205939
0.042972177
0.042715655
0.042436761
0.042135833
0.041813222
0.041469335
0.04110467
0.040719838
0.040315586
0.039892814
0.039452595
0.038996202
0.038525087
0.038040811
0.037545215
0.037040116
0.036527598
0.03600988
0.035489149
0.034967839
0.03444858
0.025137355
0.025737495
0.026444838
0.027266384
0.028176565
0.029185751
0.03030655
0.031535161
0.032852435
0.034227331
0.035623148
0.037001709
0.038325061
0.039557665
0.04066738
0.041625433
0.04240618
0.042986324
0.043397619
0.043682633
0.043871798
0.043988798
0.044047927
0.044053044
0.044016761
0.043944886
0.043841549
0.043709675
0.043551317
0.043367892
0.043160364
0.042929412
0.042675531
0.04239912
0.042100531
0.041780125
0.041438322
0.041075632
0.040692675
0.040290206
0.039869136
0.039430546
0.038975713
0.038506095
0.038023257
0.037529018
0.037025225
0.036513968
0.035997467
0.035477915
0.034957745
0.034439578
0.024763292
0.025550611
0.026303154
0.027146086
0.028077876
0.029107319
0.030242805
0.03148054
0.032802395
0.034177881
0.035570972
0.036944733
0.038261947
0.0394876
0.040589954
0.041540492
0.042313869
0.042887507
0.043297421
0.04358404
0.043776375
0.043897018
0.043960854
0.043970647
0.043939054
0.043871749
0.043772798
0.043645096
0.04349068
0.043310968
0.043106931
0.042879258
0.042628461
0.04235495
0.04205909
0.041741259
0.04140189
0.041041505
0.040660736
0.04026035
0.039841267
0.039404576
0.038951562
0.038483687
0.038002524
0.037509879
0.037007619
0.03649784
0.035982763
0.035464592
0.034945757
0.034428871
0.024610526
0.025355319
0.026150678
0.027021673
0.027976971
0.02902609
0.030175937
0.031422317
0.032747882
0.034123066
0.035512664
0.036880814
0.038191039
0.03940886
0.040502959
0.041445061
0.042210128
0.042777016
0.043185688
0.043474219
0.043670156
0.043794882
0.043863946
0.04387894
0.043852553
0.043790319
0.043696235
0.04357316
0.043423119
0.043247528
0.043047366
0.042823335
0.042575962
0.042305672
0.042012845
0.041697875
0.041361211
0.041003388
0.040625051
0.040226979
0.039810104
0.039375524
0.038924531
0.038458594
0.03797929
0.037488423
0.036987873
0.036479742
0.035966255
0.035449621
0.034932274
0.034416819
0.024550371
0.02519277
0.026000123
0.026893402
0.027870731
0.028938681
0.030102341
0.03135686
0.032685281
0.034058848
0.035443665
0.036804843
0.03810663
0.039315107
0.040399412
0.041331492
0.042086515
0.042646299
0.043053921
0.043344878
0.043545147
0.043674727
0.043749911
0.043771023
0.043750743
0.043694453
0.043606073
0.043488424
0.043343514
0.043172756
0.042977142
0.042757387
0.042514035
0.042247528
0.041958264
0.041646656
0.041313171
0.040958359
0.040582882
0.040187532
0.039773254
0.039341156
0.038892541
0.038428882
0.037951767
0.037462997
0.036964464
0.036458277
0.035946665
0.035431844
0.034916252
0.034402485
0.024528957
0.02508014
0.025867975
0.026770149
0.027763701
0.028847565
0.030023206
0.031284388
0.032614186
0.033984726
0.035363241
0.036715792
0.038007544
0.039205052
0.040277926
0.041198288
0.04194108
0.042494079
0.042901021
0.043195004
0.043400398
0.043535687
0.043617882
0.04364608
0.043632845
0.043583404
0.043501598
0.043390203
0.04325121
0.043086029
0.042895664
0.042680846
0.042442139
0.042180002
0.041894857
0.041587137
0.041257329
0.040906002
0.040533835
0.040141637
0.039730364
0.039301142
0.03885528
0.038394262
0.037919682
0.037433346
0.036937156
0.036433228
0.035923794
0.035411078
0.034897523
0.03438572
0.02452613
0.025012642
0.025762437
0.026658729
0.027660082
0.028755036
0.029939501
0.031205193
0.032534263
0.033899955
0.035270443
0.036612603
0.037892477
0.039077288
0.040136999
0.041043902
0.041772518
0.042319159
0.042725929
0.043023632
0.043235004
0.043376975
0.043467007
0.043503339
0.043498115
0.043456456
0.043382119
0.043277834
0.04314557
0.042986735
0.042802345
0.042593152
0.042359738
0.042102585
0.041822138
0.041518855
0.041193244
0.040845898
0.040477512
0.040088915
0.039681081
0.039255145
0.038812433
0.038354437
0.037882759
0.037399213
0.03690571
0.036404371
0.035897436
0.035387136
0.034875918
0.034366367
0.024532665
0.024977783
0.025684329
0.026562835
0.027562825
0.028662701
0.029852013
0.031118997
0.032444972
0.033803664
0.035164141
0.036493969
0.037760046
0.038930288
0.039975006
0.040866728
0.041579774
0.042120424
0.042527662
0.04282987
0.043048105
0.043197938
0.043296435
0.04334209
0.043345854
0.043312928
0.043246979
0.04315068
0.043025977
0.04287428
0.042696616
0.042493756
0.042266304
0.04201477
0.041739623
0.041441348
0.041120477
0.040777627
0.040413516
0.040028991
0.039625044
0.039202828
0.038763682
0.038309107
0.037840718
0.037360336
0.03686988
0.03637148
0.035867382
0.035359824
0.03485126
0.034344269
0.024543247
0.024964054
0.025629969
0.026483095
0.027473328
0.028571497
0.029760746
0.031025461
0.032345544
0.033694796
0.035043032
0.036358445
0.037608707
0.038762406
0.039790208
0.040664963
0.041361689
0.04189685
0.042305326
0.042612919
0.042838966
0.042997862
0.043105455
0.043161715
0.043175421
0.043152191
0.043095559
0.043008138
0.042891848
0.042748096
0.042577925
0.042382125
0.042161327
0.041916065
0.041646839
0.041354161
0.041038593
0.040700774
0.040341449
0.039961486
0.039561896
0.039143852
0.038708705
0.038257971
0.037793275
0.037316447
0.036829418
0.036334325
0.03583342
0.03532895
0.034823373
0.034319264
0.024554768
0.024962729
0.025593549
0.026417708
0.027391423
0.028481473
0.029665448
0.03092392
0.032234941
0.033572086
0.034905649
0.036204421
0.037436754
0.038571843
0.039580709
0.04043653
0.041117068
0.041647517
0.04205815
0.042372098
0.042606975
0.042776072
0.04289357
0.042961591
0.042986235
0.042973673
0.042927296
0.042849653
0.042742635
0.042607649
0.04244575
0.042257753
0.042044312
0.041805992
0.041543324
0.041256851
0.040947163
0.04061493
0.04026092
0.039886026
0.039491282
0.039077878
0.038647182
0.038200726
0.037740145
0.037267282
0.036784076
0.036292675
0.035795334
0.035294314
0.034792074
0.034291188
0.024565408
0.024967052
0.025568835
0.026363228
0.027315567
0.02839176
0.029565325
0.030813323
0.032111856
0.033434015
0.034750345
0.036030121
0.037242311
0.038356646
0.03934446
0.040178885
0.040844762
0.041371646
0.041785509
0.042106864
0.042351631
0.042532038
0.04266036
0.042741198
0.042777793
0.042776871
0.042741687
0.042674721
0.042577838
0.042452443
0.042299605
0.042120159
0.041914791
0.041684094
0.041428635
0.041148987
0.040845775
0.040519695
0.040171546
0.039802245
0.03941285
0.039004572
0.038578797
0.038137072
0.037681046
0.037212574
0.036733604
0.036246295
0.03575291
0.035255719
0.034757184
0.034259876
0.024573911
0.024971604
0.025549547
0.026315233
0.027243128
0.028300663
0.029458963
0.030692232
0.031974716
0.033278848
0.034575255
0.035833598
0.037023345
0.038114711
0.039079328
0.039890083
0.040543869
0.04106866
0.041486964
0.041816839
0.042072575
0.042265374
0.042405532
0.042500104
0.042549689
0.042561369
0.042538301
0.042482904
0.042397014
0.042282032
0.042139042
0.041968903
0.041772327
0.041549944
0.041302352
0.041030162
0.040734029
0.040414684
0.040072954
0.039709785
0.039326258
0.038923606
0.038503237
0.038066712
0.037615697
0.037152058
0.036677754
0.036194956
0.035705933
0.035212965
0.034718518
0.034225162
0.024579086
0.024971645
0.025529869
0.026268871
0.027170706
0.028205793
0.029344436
0.030558841
0.03182167
0.033104645
0.034378337
0.035612712
0.03677766
0.037843788
0.038783075
0.039570034
0.040213913
0.040738244
0.041162294
0.041501833
0.04176961
0.041975836
0.042128999
0.042237936
0.042301633
0.042326844
0.042316793
0.042273837
0.042199783
0.042096028
0.041963668
0.041803585
0.041616522
0.041403144
0.041164084
0.040899989
0.04061155
0.04029953
0.039964789
0.0396083
0.039231172
0.038834662
0.038420196
0.037989356
0.037543823
0.037085473
0.036616281
0.036138427
0.035654189
0.035165857
0.034675896
0.03418688
0.024579263
0.024962455
0.025504347
0.02621918
0.027094444
0.028104228
0.029219372
0.030411005
0.031650609
0.032909256
0.03415739
0.035365175
0.036502886
0.037541473
0.038452992
0.039218503
0.039854787
0.040380388
0.040811531
0.04116188
0.041442729
0.041663285
0.041831002
0.041954302
0.042033497
0.042073083
0.042076912
0.042047241
0.041985842
0.041894107
0.041773144
0.041623857
0.041447022
0.041243337
0.041013473
0.040758114
0.040477986
0.040173888
0.039846713
0.039497463
0.039127276
0.038737432
0.038329381
0.037904723
0.037465155
0.037012567
0.036548946
0.036076485
0.035597471
0.035114201
0.034629139
0.034144866
0.024572818
0.024938784
0.025467815
0.026161418
0.027010289
0.027992683
0.029081046
0.03024629
0.031459199
0.03269035
0.033910053
0.035088564
0.036196527
0.037205265
0.03808681
0.038835549
0.039466792
0.039995424
0.040434997
0.040797258
0.041092154
0.041327946
0.041511369
0.041649492
0.041745161
0.041799982
0.041818512
0.041802928
0.041754969
0.04167602
0.041567198
0.041429432
0.041263525
0.041070213
0.040850203
0.040604216
0.040333018
0.040037441
0.039718413
0.039376968
0.03901427
0.038631628
0.038230512
0.037812543
0.037379436
0.036933095
0.036475517
0.036008912
0.035535574
0.035057807
0.034578072
0.034098957
0.024563996
0.024909259
0.025415624
0.026091196
0.026914225
0.027867681
0.028926483
0.030062035
0.031244923
0.032445443
0.033633824
0.034780352
0.035856007
0.036832566
0.037686238
0.038422022
0.03905071
0.039584074
0.040033335
0.04040852
0.040718343
0.040970193
0.04117022
0.041323955
0.041436594
0.041507573
0.041541566
0.041540819
0.041507039
0.041441602
0.041345634
0.041220085
0.041065788
0.040883513
0.040674003
0.040438019
0.040176363
0.039889905
0.039579606
0.039246532
0.038891878
0.038516977
0.038123325
0.037712562
0.037286423
0.036846822
0.036395772
0.0359355
0.035468305
0.034996496
0.034522529
0.034048988
0.024554671
0.024877744
0.025352935
0.02600481
0.026802466
0.027725697
0.028752572
0.029855428
0.031005133
0.032171944
0.033326128
0.03443792
0.035478673
0.036420755
0.037252945
0.03797941
0.038607841
0.039147473
0.039607532
0.039996511
0.040322005
0.040590602
0.040807863
0.040978463
0.041107764
0.041196072
0.041246177
0.041260947
0.041242028
0.041190781
0.041108339
0.040995669
0.040853635
0.040683036
0.040484656
0.040259291
0.04000778
0.039731032
0.03943004
0.039105905
0.038759849
0.038393234
0.038007578
0.037604545
0.037185886
0.036753531
0.036309503
0.035856051
0.035395477
0.034930095
0.034462354
0.024545675
0.024846371
0.025287159
0.02590082
0.026671529
0.027563284
0.0285562
0.029623605
0.030737129
0.031867217
0.032984381
0.034058626
0.03506179
0.035974133
0.036789668
0.037509879
0.03814001
0.038687193
0.039158938
0.039562384
0.039904119
0.040189994
0.040425005
0.04061336
0.040759391
0.040865701
0.040932577
0.04096347
0.040960024
0.040923586
0.040855289
0.040756118
0.040626962
0.040468652
0.040282005
0.040067855
0.039827078
0.039560618
0.039269504
0.038954868
0.038617964
0.038260178
0.037883054
0.037488276
0.037077617
0.036653019
0.036216515
0.035770381
0.035316918
0.034858444
0.034397426
0.024537379
0.02481632
0.025222362
0.02579131
0.026518992
0.027377177
0.028334407
0.029363762
0.030438261
0.031528655
0.032606102
0.033639905
0.034608467
0.035497283
0.036299961
0.037016271
0.037649578
0.038205234
0.038689275
0.039107613
0.039465941
0.039769435
0.040022562
0.040229152
0.040392539
0.0405167
0.040601162
0.04064868
0.040661238
0.040640154
0.040586561
0.040501456
0.040385748
0.040240299
0.040065958
0.039863594
0.039634117
0.039378508
0.039097829
0.038793246
0.038466039
0.038117622
0.037749563
0.037363568
0.03696143
0.036545105
0.036116634
0.035678324
0.035232469
0.034781387
0.03432757
0.024529933
0.024788235
0.025160749
0.02568319
0.026359614
0.027170035
0.028084614
0.0290733
0.030106085
0.031153773
0.032189089
0.033186329
0.034126198
0.03499567
0.035788119
0.036502063
0.037139412
0.037704026
0.038200609
0.038633985
0.039009011
0.039330248
0.039601656
0.039826672
0.040008218
0.040149658
0.040252459
0.040317009
0.040346007
0.040340742
0.040302338
0.040231802
0.040130061
0.039997999
0.039836498
0.039646456
0.039428819
0.039184601
0.038914897
0.038620904
0.03830393
0.037965416
0.03760695
0.037230262
0.036837165
0.03642963
0.036009706
0.035579733
0.035141987
0.034698786
0.034252639
0.024523382
0.024762444
0.025103464
0.025580314
0.026202402
0.026957162
0.027818909
0.028758324
0.029744739
0.030748994
0.031744699
0.032708638
0.033622966
0.034475392
0.035258991
0.035971266
0.036612857
0.037186399
0.037695374
0.038143576
0.038535149
0.038874007
0.039163649
0.039407122
0.039607086
0.039765953
0.039886911
0.039969037
0.040014805
0.040025728
0.040002919
0.039947383
0.039860062
0.03974186
0.039593684
0.039416462
0.039211172
0.038978856
0.038720643
0.038437758
0.038131538
0.037803447
0.037455095
0.037088231
0.036704691
0.036306461
0.035895604
0.035474482
0.035045347
0.034610521
0.024517708
0.024739079
0.025051033
0.025484719
0.026052684
0.026748468
0.027551649
0.028435606
0.029371112
0.030329682
0.031285654
0.032217072
0.033106842
0.033942886
0.034717835
0.035428264
0.03607367
0.036655539
0.037176319
0.03763877
0.038046425
0.038402546
0.038710134
0.038971874
0.039190133
0.039367
0.039505168
0.039605513
0.039668249
0.039695624
0.039688719
0.039648534
0.039576014
0.039472082
0.039337664
0.039173712
0.038981233
0.038761297
0.038515061
0.038243779
0.037948813
0.037631651
0.037293919
0.036937387
0.03656391
0.036175497
0.035774229
0.035362469
0.034942444
0.034516508
0.02451286
0.02471815
0.025003618
0.025397347
0.025913433
0.026550144
0.027292451
0.028117146
0.028998125
0.029908326
0.030823023
0.031721049
0.032585656
0.033404661
0.034170128
0.034877722
0.035525873
0.036114951
0.036646461
0.03712223
0.037545184
0.037917924
0.038242928
0.038522516
0.038758779
0.038953628
0.039108856
0.039227056
0.039307097
0.039351075
0.039360281
0.039335704
0.039278288
0.039188965
0.039068673
0.038918388
0.038739137
0.038532017
0.038298211
0.038038996
0.03775576
0.03745001
0.037123389
0.036777682
0.036414767
0.036036675
0.035645508
0.035243607
0.034833191
0.03441664
0.024508767
0.02469958
0.024961156
0.025318475
0.025786091
0.026365718
0.027047086
0.027811194
0.028635343
0.029494779
0.030366113
0.031228939
0.03206673
0.032867059
0.03362137
0.034324435
0.034973659
0.035568354
0.036109063
0.036596872
0.037034036
0.037422411
0.037764048
0.038060833
0.038314581
0.038527002
0.038699606
0.038834491
0.038932267
0.038992865
0.039018277
0.039009466
0.038967366
0.03889291
0.038787045
0.038650761
0.038485103
0.038291188
0.038070221
0.037823503
0.037552441
0.037258561
0.036943519
0.036609112
0.036257245
0.035889967
0.035509395
0.035117841
0.034717526
0.034310849
0.024505345
0.02468324
0.024923443
0.025247975
0.025671127
0.026196985
0.026819262
0.027523213
0.028289567
0.029096538
0.02992248
0.030747938
0.031556678
0.032336057
0.03307692
0.033773193
0.034421306
0.035019569
0.035567598
0.036065854
0.036515772
0.0369185
0.037275679
0.037588788
0.037859288
0.038088712
0.038278408
0.038429634
0.03854454
0.038621918
0.03866351
0.038670513
0.038643844
0.038584428
0.038493213
0.038371195
0.038219432
0.038039058
0.037831293
0.037597459
0.03733898
0.037057396
0.036754375
0.036431724
0.036091368
0.035735378
0.035365875
0.034985147
0.034595417
0.034199091
0.024502507
0.024668962
0.024890189
0.025185473
0.025568399
0.026044561
0.026610858
0.027256491
0.027965339
0.028719051
0.029498018
0.030284006
0.031061275
0.031817103
0.032541844
0.033228664
0.033873097
0.034472525
0.035025704
0.035532412
0.035993277
0.036408838
0.03678019
0.03710849
0.037394814
0.037640465
0.037846603
0.038014221
0.038144947
0.038239289
0.038296913
0.038319664
0.038308437
0.038264138
0.038187711
0.03808015
0.037942518
0.037775959
0.037581707
0.037361096
0.037115567
0.03684667
0.03655608
0.036245608
0.035917206
0.035572953
0.035214975
0.034845534
0.034466857
0.034081344
0.024500165
0.024656555
0.024861047
0.025130447
0.025477376
0.025908274
0.026422455
0.027012434
0.027665384
0.028366016
0.029097089
0.029841876
0.030585379
0.031315006
0.032020789
0.032695273
0.033333205
0.033931129
0.034486997
0.034999862
0.035469567
0.03589616
0.036280107
0.036622201
0.036923215
0.037184137
0.037405913
0.037589391
0.037735436
0.037845903
0.037919555
0.037957862
0.037961976
0.037932773
0.03787118
0.037778183
0.037654844
0.037502309
0.03732182
0.037114719
0.036882458
0.036626597
0.036348811
0.036050907
0.035734871
0.035402778
0.035056756
0.034699043
0.034331867
0.033957615
0.024498237
0.024645814
0.024835638
0.025082292
0.025397298
0.025787453
0.026253816
0.026791616
0.027391081
0.028039685
0.028722697
0.029425103
0.030132895
0.030833847
0.031517879
0.032177088
0.032805573
0.033399145
0.033955014
0.034471509
0.034947734
0.035383287
0.035778058
0.036132339
0.036446677
0.036721733
0.036958151
0.037156626
0.037317793
0.037442974
0.03753261
0.037586172
0.03760541
0.037591175
0.037544365
0.037465952
0.037356988
0.037218613
0.037052071
0.036858708
0.03663998
0.036397454
0.036132801
0.035847812
0.035544522
0.035224981
0.034891321
0.034545751
0.034190495
0.033827927
0.024496642
0.024636532
0.024813572
0.02504036
0.025327275
0.025681117
0.026104138
0.026593719
0.027142777
0.027741129
0.02837666
0.029036154
0.02970679
0.030376942
0.031036638
0.031677725
0.032293818
0.032880113
0.033433156
0.033950595
0.034430884
0.034873109
0.035276705
0.035641431
0.035967515
0.036255354
0.036505258
0.036717722
0.036893272
0.037032522
0.037137127
0.037205781
0.037239802
0.037240294
0.037208116
0.037144213
0.037049618
0.036925463
0.036772981
0.036593517
0.036388526
0.036159579
0.035908339
0.035636564
0.035346366
0.035039735
0.034718809
0.034385759
0.034042812
0.033692324
0.02449531
0.024628506
0.024794454
0.025003991
0.025266357
0.025588106
0.025972246
0.026417785
0.026919866
0.027470455
0.028059792
0.028676515
0.029309135
0.029946826
0.030579944
0.031200288
0.03180116
0.032377281
0.032924633
0.033440262
0.033922045
0.034368528
0.034778767
0.035152035
0.035488121
0.035787184
0.036049247
0.036274538
0.03646344
0.03661637
0.036734442
0.036817961
0.036866319
0.036881185
0.03686338
0.036813815
0.036733495
0.036623533
0.036485148
0.036319673
0.03612856
0.035913371
0.035675763
0.035417466
0.035140662
0.034847253
0.034539388
0.034219194
0.033888908
0.033550862
0.024494177
0.024621539
0.024777899
0.024972531
0.025213573
0.025507173
0.025856742
0.026262471
0.026721256
0.027227054
0.027772083
0.028346811
0.028941166
0.029545275
0.03015001
0.030747317
0.031330365
0.03189355
0.032432406
0.032943471
0.033424114
0.033872394
0.034286962
0.034666697
0.035010922
0.035319473
0.035592194
0.03582902
0.036030133
0.036195848
0.036326596
0.036423869
0.036486235
0.036515001
0.036511201
0.036475699
0.036409464
0.03631358
0.036189245
0.036037774
0.035860602
0.035659278
0.035435456
0.035190902
0.034927716
0.034647779
0.03435324
0.034046199
0.033728889
0.03340361
0.024493189
0.02461545
0.02476354
0.024945348
0.025167971
0.025437044
0.02575612
0.0261262
0.026545539
0.02700979
0.027512864
0.028046941
0.028603374
0.029173342
0.029748385
0.030320772
0.030883709
0.031431417
0.031959115
0.03246294
0.032939828
0.033387411
0.033803931
0.034187943
0.034538308
0.034854498
0.035136231
0.035383162
0.035595212
0.035772558
0.035915453
0.036024874
0.036100897
0.036142978
0.036152705
0.036130887
0.036078448
0.035996436
0.035886018
0.035748484
0.035585246
0.035397837
0.035187909
0.034957241
0.034707828
0.034441562
0.034160571
0.033866936
0.03356287
0.033250636
0.024492297
0.024610071
0.024751031
0.024921844
0.025128632
0.025376461
0.025668836
0.026007267
0.026391023
0.026817136
0.027280953
0.027776197
0.028295593
0.028831415
0.029375982
0.029922025
0.030462944
0.030992935
0.031507033
0.032001087
0.03247169
0.032916107
0.033332188
0.033718212
0.034072596
0.034394541
0.034683522
0.034938998
0.035160592
0.035348326
0.035502367
0.035622982
0.035711545
0.035766425
0.035789092
0.035780472
0.035741439
0.035672996
0.035576272
0.035452524
0.035303136
0.03512962
0.034933619
0.034716888
0.034481335
0.034228879
0.033961607
0.033681578
0.033390969
0.033092007
0.024491462
0.02460525
0.024740054
0.024901459
0.025094688
0.025324216
0.025593361
0.025903909
0.02625585
0.026647298
0.027074785
0.027533386
0.0280171
0.02851929
0.029033112
0.029551873
0.030069294
0.030579683
0.03107802
0.031559978
0.032021902
0.03246076
0.032874079
0.033259825
0.033616039
0.033941812
0.03423622
0.034498567
0.03472818
0.034924954
0.035088906
0.035220102
0.035319469
0.03538673
0.035421618
0.035425604
0.035399485
0.03534421
0.035260863
0.035150662
0.035014956
0.034855227
0.034673094
0.034470274
0.034248597
0.034010031
0.033756588
0.033490296
0.033213296
0.032927771
0.024490654
0.024600855
0.024730318
0.024883677
0.025065332
0.025279164
0.025528215
0.025814368
0.026138091
0.026498314
0.026892521
0.02731694
0.027766713
0.028236242
0.028719542
0.029210564
0.029703454
0.03019275
0.030673493
0.031141291
0.031592333
0.032023368
0.032431668
0.032814895
0.033170798
0.033498444
0.033796434
0.03406388
0.034299862
0.034504257
0.034676834
0.034817546
0.034926583
0.035005162
0.035051562
0.035067469
0.035053671
0.035011064
0.034940681
0.034843693
0.034721409
0.034575269
0.034406853
0.03421784
0.034009989
0.033785324
0.033545744
0.033293249
0.033029938
0.032757949
0.024489845
0.024596768
0.024721564
0.02486803
0.025039821
0.025240241
0.025471997
0.025736936
0.026035812
0.026368139
0.026732148
0.027125015
0.027542882
0.027981108
0.02843455
0.028897835
0.029365611
0.029832735
0.030294413
0.030746287
0.031184479
0.031605593
0.032006695
0.032385238
0.032738987
0.03306647
0.033366121
0.033636829
0.033877502
0.034088031
0.034267849
0.034416768
0.034534778
0.034622868
0.03468028
0.034707279
0.034705101
0.03467456
0.034616628
0.034532423
0.034423203
0.034290355
0.034135405
0.033960011
0.033765912
0.03355506
0.033329282
0.033090563
0.032840946
0.032582518
0.024489017
0.024592887
0.024713561
0.0248541
0.025017484
0.025206469
0.025423397
0.025669985
0.025947121
0.026254712
0.026591554
0.026955579
0.027343779
0.027752368
0.028176994
0.028612967
0.029055472
0.029499759
0.029941281
0.030375804
0.030799465
0.031208802
0.031600758
0.031972661
0.032322237
0.032647576
0.032946967
0.033219111
0.033462979
0.033678039
0.033863612
0.034019381
0.034145254
0.03424158
0.034308959
0.034346211
0.034354867
0.034335693
0.0342896
0.034217648
0.034121036
0.034001089
0.033859274
0.033697244
0.033516694
0.03331947
0.033107363
0.032882317
0.032646321
0.032401401
0.024488166
0.024589113
0.024706105
0.024841515
0.024997719
0.025176962
0.025381211
0.02561199
0.025870206
0.026156009
0.026468596
0.02680649
0.02716738
0.027548221
0.027945383
0.028354832
0.028772307
0.029193491
0.02961415
0.030030246
0.030438009
0.030833991
0.031215086
0.031578542
0.031921989
0.032243304
0.032540622
0.032812479
0.033057831
0.033275807
0.03346563
0.033626848
0.033759285
0.033862901
0.033938687
0.033985448
0.034004032
0.033995425
0.033960461
0.03390013
0.033815568
0.03370804
0.033578951
0.033429936
0.033262619
0.033078753
0.032880094
0.032668533
0.032445996
0.032214447
0.024487342
0.02458532
0.024699021
0.024829957
0.024979997
0.025150926
0.025344344
0.025561542
0.025803364
0.026070077
0.026361156
0.026675561
0.027011538
0.027366662
0.027737946
0.028121962
0.028514994
0.028913177
0.029312634
0.029709578
0.030100402
0.030481735
0.030850489
0.031203875
0.03153943
0.03185497
0.032148479
0.032418375
0.03266347
0.032882749
0.033075287
0.033240526
0.033378168
0.033488053
0.033570705
0.033626048
0.033653587
0.033654658
0.033630013
0.033580573
0.033507404
0.033411719
0.033294869
0.033158416
0.033003915
0.032833039
0.032647511
0.032449152
0.032239825
0.032021424
0.024486514
0.024581557
0.024692193
0.024819162
0.024963863
0.025127664
0.025311816
0.025517359
0.025745015
0.02599507
0.026267179
0.026560612
0.026874042
0.027205552
0.027552701
0.02791261
0.028282076
0.028657688
0.029035943
0.029413348
0.029786508
0.030152189
0.03050737
0.03084928
0.031175419
0.031483574
0.03177164
0.032037935
0.03228113
0.032500111
0.032693815
0.03286162
0.033003089
0.033117982
0.03320628
0.033268933
0.033304423
0.033314202
0.033298981
0.03325961
0.033197094
0.033112578
0.033007361
0.032882894
0.032740712
0.032582368
0.032409557
0.032224027
0.032027568
0.031822004
0.024485545
0.024578111
0.024685518
0.024808915
0.02494893
0.025106569
0.02528276
0.025478289
0.02569372
0.025929266
0.026184708
0.026459518
0.026752678
0.027062674
0.027387519
0.027724813
0.028071819
0.028425562
0.028782917
0.02914071
0.029495791
0.029845105
0.030185752
0.030515021
0.030830437
0.031129773
0.031410865
0.03167202
0.031911769
0.032128905
0.032322204
0.032491123
0.032635023
0.032753555
0.032846547
0.03291477
0.032957348
0.032974758
0.032967975
0.03293777
0.032885075
0.032810946
0.032716639
0.032603513
0.032473032
0.032326678
0.032166077
0.031992908
0.031808887
0.03161576
0.024484451
0.024574838
0.024679019
0.024799056
0.024934874
0.02508712
0.025256417
0.025443304
0.025648175
0.025871077
0.026111907
0.026370241
0.026645276
0.026935799
0.027240191
0.027556455
0.027882271
0.028215063
0.028552077
0.02889046
0.02922733
0.029559846
0.029885264
0.030200982
0.030504591
0.030793875
0.031066534
0.031321147
0.031556015
0.031769831
0.031961214
0.032129821
0.032274762
0.032395572
0.032492021
0.032564452
0.032612923
0.032636857
0.032637464
0.032615444
0.032571651
0.032507007
0.032422806
0.032320285
0.032200809
0.0320658
0.031916811
0.031755445
0.031583343
0.03140217
0.024483342
0.024571316
0.024672845
0.02478941
0.024921421
0.025068875
0.025232132
0.025411499
0.025607148
0.025819047
0.026047076
0.026290864
0.026549746
0.026822729
0.027108479
0.027405332
0.027711324
0.02802424
0.028341671
0.028661079
0.028979859
0.0292954
0.029605144
0.029906636
0.030197578
0.030475795
0.030738657
0.03098548
0.0312141
0.031423169
0.031611486
0.031778328
0.031922861
0.032044558
0.032143135
0.032218537
0.032271552
0.032300865
0.032307752
0.032292861
0.032256972
0.032200798
0.032125851
0.032033115
0.03192386
0.031799461
0.031661396
0.031511189
0.031350403
0.031180623
0.024482213
0.024567541
0.024666803
0.024779938
0.024908368
0.025051472
0.025209356
0.0253821
0.02556964
0.025771898
0.025988679
0.026219615
0.026464117
0.026721343
0.026990173
0.027269207
0.02755678
0.027850989
0.028149739
0.028450788
0.028751805
0.029050416
0.02934426
0.029631036
0.029908543
0.030174676
0.030427336
0.030665081
0.030886156
0.031089198
0.031273056
0.031436766
0.031579524
0.031700747
0.0318001
0.031877409
0.031933338
0.031966982
0.031978948
0.031970021
0.031940903
0.031892414
0.031825695
0.031741798
0.031641886
0.031527281
0.031399373
0.031259608
0.031109464
0.030950445
0.024481055
0.024563708
0.024660518
0.024770746
0.024895523
0.02503462
0.025187639
0.02535441
0.025534769
0.025728509
0.025935347
0.026154884
0.026386564
0.026629638
0.026883139
0.02714587
0.027416408
0.027693116
0.027974172
0.02825761
0.028541353
0.028823264
0.029101188
0.029372995
0.029636619
0.02989009
0.030131554
0.030359316
0.030571804
0.030767668
0.030945759
0.031105032
0.031244706
0.031364143
0.031462969
0.031540948
0.031598446
0.031635167
0.031651011
0.031646896
0.031623469
0.031581527
0.03152202
0.031445976
0.03135449
0.031248805
0.031130227
0.031000121
0.030859884
0.030710941
0.024479879
0.024559853
0.024653961
0.02476171
0.024882818