/*--------------------------------*- C++ -*----------------------------------*\
| =========                 |                                                 |
| \\      /  F ield         | OpenFOAM: The Open Source CFD Toolbox           |
|  \\    /   O peration     | Version:  2312                                  |
|   \\  /    A nd           | Website:  www.openfoam.com                      |
|    \\/     M anipulation  |                                                 |
\*---------------------------------------------------------------------------*/
FoamFile
{
    version     2.0;
    format      ascii;
    arch        "LSB;label=32;scalar=64";
    class       volScalarField;
    location    "0.01";
    object      omega;
}
// * * * * * * * * * * * * * * * * * * * * * * * * * * * * * * * * * * * * * //

dimensions      [0 0 -1 0 0 0 0];

internalField   nonuniform List<scalar> 
3275
(
459.9723
476.24233
494.3762
514.59435
537.49837
563.30794
591.64912
621.52324
651.6764
680.91273
708.28593
733.14058
755.06787
773.83561
789.31922
801.44264
810.13068
815.26949
817.34906
817.20905
815.43852
812.41623
808.42514
803.67247
798.31623
792.47796
786.24925
779.7003
772.88519
765.84547
758.6128
751.2115
743.6599
735.97184
728.15705
720.22215
712.17128
704.00661
695.72867
687.33674
678.82923
670.20396
661.45892
652.59158
643.59911
634.48453
625.24135
615.87032
606.37312
596.74996
587.00585
577.14958
461.18418
477.40043
495.10244
515.13487
537.98431
563.77229
592.08074
621.89088
651.95909
681.10373
708.38997
733.16835
755.0312
773.74508
789.18336
801.26777
809.92094
815.02603
817.09098
816.94774
815.18118
812.16532
808.1833
803.44084
798.09538
792.26793
786.04983
779.51115
772.70585
765.67546
758.45162
751.05866
743.51493
735.83427
728.02645
720.09811
712.05341
703.89456
695.62211
687.23537
678.73276
670.11216
661.37159
652.50886
643.52105
634.40937
625.16956
615.80196
606.30809
596.68811
586.94681
577.0933
463.54058
479.26512
496.25793
516.06807
538.88218
564.65965
592.91387
622.60188
652.50513
681.47099
708.58712
733.21585
754.95183
773.55933
788.90783
800.91484
809.49886
814.53749
816.57394
816.42589
814.66468
811.6632
807.69947
802.97743
797.65349
791.84765
785.65072
779.13249
772.34675
765.33495
758.12869
750.75232
743.22423
735.55828
727.76428
719.84893
711.81645
703.66909
695.40747
687.03095
678.53799
669.92654
661.19465
652.34033
643.36073
634.25598
625.02305
615.66217
606.17481
596.56117
586.82586
576.97809
466.5009
480.92588
497.37137
517.17502
540.08214
565.90955
594.09975
623.61466
653.28037
681.98865
708.85854
733.2697
754.82029
773.27153
788.48754
800.37983
808.86131
813.80266
815.79797
815.64253
813.89152
810.9113
806.97492
802.28352
796.9918
791.21826
785.05299
778.56531
771.8088
764.82476
757.64476
750.29317
742.78842
735.14442
727.37105
719.47508
711.46082
703.3306
695.08511
686.72379
678.2452
669.64734
660.92832
652.08628
643.1185
634.0245
624.80192
615.45104
605.97335
596.36913
586.64293
576.80388
467.68611
481.13709
498.01145
518.24541
541.48541
567.45642
595.57128
624.86999
654.23758
682.62087
709.17789
733.31096
754.623
772.87176
787.91498
799.65667
808.00331
812.8195
814.76312
814.59922
812.86268
809.91131
806.01148
801.361
796.11209
790.38144
784.25817
777.81104
771.09331
764.14609
757.00093
749.6822
742.20842
734.59354
726.84753
718.97726
710.98717
702.87968
694.65557
686.31441
677.85484
669.27497
660.57299
651.74712
642.79479
633.71522
624.50643
615.16882
605.70393
596.11218
586.3981
576.57077
459.56477
479.27078
498.0285
519.17648
542.93273
569.11522
597.16734
626.22109
655.25768
683.28394
709.49374
733.31586
754.35894
772.37743
787.22253
798.79
806.97987
811.65584
813.54334
813.37194
811.65368
808.7369
804.88035
800.2781
795.07944
789.39906
783.32499
776.92536
770.25303
763.34894
756.24459
748.96436
741.52685
733.94608
726.23212
718.39198
710.43019
702.34932
694.15027
685.83272
677.39543
668.83661
660.15457
651.34761
642.41328
633.35069
624.15812
614.83608
605.38618
595.80902
586.10917
576.29567
456.31353
477.27953
497.84489
520.05265
544.3954
570.80053
598.79421
627.59894
656.28716
683.93655
709.7801
733.27173
754.02652
771.79611
786.42528
797.80093
805.8164
810.34494
812.17556
811.99864
810.30256
807.42511
803.61736
799.06916
793.92659
788.30226
782.28303
775.93631
769.31456
762.45851
755.39962
748.16229
740.7652
733.22244
725.5442
717.73762
709.80739
701.75619
693.58508
685.29385
676.88139
668.34604
659.68622
650.90031
641.98601
632.9424
623.76794
614.46328
605.03012
595.46922
585.78526
575.98723
455.14544
475.64713
497.66289
520.95576
545.92681
572.57259
600.50732
629.04849
657.36002
684.59188
710.0299
733.15298
753.58321
771.06976
785.45104
796.60356
804.41155
808.78156
810.55318
810.37364
808.70602
805.87602
802.12646
797.64225
792.56585
787.00757
781.0529
774.76847
768.20626
761.40676
754.4014
747.21458
739.86509
732.3671
724.73094
716.96391
709.07087
701.05464
692.91645
684.65624
676.27305
667.76537
659.13173
650.37063
641.47993
632.45872
623.30566
614.02153
604.60813
595.06641
585.40119
575.62147
454.97326
474.71002
497.66326
521.9142
547.49098
574.37627
602.248
630.51229
658.42377
685.2098
710.20969
732.92876
753.00125
770.17252
784.27465
795.17217
802.7313
806.94423
808.65811
808.48048
806.84879
804.07534
800.39415
795.9845
790.98492
785.50322
779.62336
773.41107
766.91782
760.18383
753.24048
746.11219
738.81786
731.37175
723.78437
716.06321
708.21329
700.23763
692.13763
683.91341
675.56418
667.0886
658.48534
649.75305
640.88972
631.89455
622.76637
613.50608
604.11566
594.59623
584.9528
575.19439
455.29732
474.50571
497.95124
522.9462
549.05322
576.15286
603.95083
631.92789
659.42298
685.7422
710.27865
732.56514
752.24825
769.07446
782.86741
793.47885
800.75242
804.81166
806.47162
806.30238
804.71544
802.00869
798.40687
794.08299
789.17147
783.77739
777.98308
771.85326
765.43882
758.77972
751.90726
744.84591
737.61466
730.22791
722.69636
715.02769
707.22714
699.29793
691.24167
683.05867
674.74835
666.30954
657.74109
649.04182
640.20986
631.24457
622.14492
612.91202
603.54798
594.05414
584.43572
574.7018
455.86499
474.88291
498.53413
524.04291
550.57054
577.8397
605.54707
633.22848
660.29804
686.13644
710.19066
732.021
751.28835
767.74165
781.19657
791.49326
798.45464
802.36236
803.97481
803.82243
802.29049
799.66169
796.15105
791.92481
787.11316
781.81828
776.12072
770.08413
763.75878
757.18434
750.39206
743.40642
736.24653
728.92696
721.4586
713.84936
706.10472
698.22813
690.22142
682.08514
673.81892
665.4218
656.89282
648.23099
639.43462
630.50324
621.436
612.23421
602.90015
593.4354
583.84542
574.13935
456.53714
475.64162
499.34881
525.16667
551.991
579.37158
606.96606
634.34492
660.98522
686.33556
709.89463
731.25106
750.08073
766.13591
779.22533
789.17925
795.8133
799.57449
801.14856
801.02368
799.55853
797.02008
793.61321
789.49716
784.79776
779.61412
774.02495
768.09278
761.8672
755.38759
748.68511
741.78431
734.7044
727.46013
720.06264
712.52007
704.83817
697.02063
689.06957
680.98576
672.76907
664.41879
655.93417
647.31443
638.55808
629.66485
620.6341
611.46733
602.16704
592.7351
583.17717
573.5025
457.22946
476.59562
500.29364
526.2571
553.25504
580.68166
608.13696
635.20654
661.41801
686.27905
709.33556
730.20541
748.57959
764.21407
776.91145
786.49289
792.80023
796.42554
797.97375
797.88933
796.50434
794.06976
790.78008
786.78745
782.21317
777.15329
771.68458
765.86837
759.7536
753.37934
746.77664
739.97012
732.97911
725.81859
718.49993
711.03156
703.41949
695.66773
687.77864
679.75329
671.59181
663.29375
654.8586
646.28582
637.57414
628.7235
619.7335
610.60587
601.34336
591.94812
582.42606
572.78657
457.88581
477.58739
501.25101
527.23796
554.29708
581.70228
608.98911
635.74279
661.52826
685.90281
708.45472
728.82968
746.7341
761.92769
774.20694
783.37721
789.38477
792.89276
794.43147
794.40289
793.11305
790.79696
787.63869
783.78332
779.34757
774.42437
769.08854
763.40021
757.40763
751.14952
744.65688
737.95438
731.0615
723.99344
716.76185
709.37547
701.8406
694.16156
686.34103
678.38037
670.28
662.03976
653.65941
645.13866
636.47649
627.6731
618.72832
609.64416
600.42361
591.06918
581.58701
571.98666
458.46184
478.48669
502.10005
528.02294
555.04672
582.3651
609.45252
635.88306
661.24667
685.14028
707.18911
727.06488
744.48819
759.22272
771.05915
779.78183
785.5373
788.95394
790.50338
790.54843
789.37029
787.18838
784.17648
780.47284
776.18943
771.41621
766.22604
760.67779
754.81903
748.68819
742.31615
735.72766
728.94238
721.97576
714.83974
707.54337
700.0933
692.49418
684.74901
676.85949
668.82636
660.64976
652.32974
643.8663
635.25871
626.5074
617.61251
608.57633
599.40215
590.09285
580.65479
571.09778
458.9146
479.17598
502.72049
528.51959
555.42943
582.60074
609.45743
635.55652
660.50249
683.92237
705.47205
724.84668
741.78005
756.03889
767.40984
775.68784
781.23258
784.5883
786.17209
786.3108
785.26239
783.23133
780.38146
776.84453
772.72767
768.11806
763.08656
757.69084
751.97781
745.98555
739.74488
733.28063
726.61265
719.75666
712.72491
705.52681
698.16935
690.65755
682.99477
675.18305
667.22348
659.11654
650.8626
642.46195
633.91417
625.22
616.37986
607.39639
598.27318
589.01351
579.62401
570.11476
459.19318
479.53575
502.99412
528.63177
555.36671
582.33773
608.93317
634.69134
659.22308
682.17679
703.23266
722.10551
738.54098
752.30824
763.18524
771.06792
776.4478
779.77692
781.42159
781.67596
780.77657
778.91392
776.24234
772.88749
768.95175
764.51961
759.66001
754.42947
748.87422
743.03204
736.93368
730.60407
724.06327
717.32729
710.40872
703.31733
696.06049
688.64361
681.07043
673.34337
665.46388
657.4328
649.25086
640.91868
632.43617
623.80437
615.02402
606.09818
597.03075
587.82543
578.48913
569.03231
459.25072
479.43627
502.80352
528.26064
554.77576
581.50112
607.80658
633.21336
657.33283
679.82721
700.39483
718.76537
734.69504
747.9552
758.31082
765.89449
771.16306
774.50325
776.23764
776.63126
775.90124
774.22522
771.74872
768.59154
764.85174
760.61109
755.93678
750.88417
745.49888
739.8184
733.87341
727.68898
721.28538
714.67893
707.88259
700.90651
693.75847
686.44428
678.96808
671.3327
663.54
655.59118
647.48733
639.22947
630.81785
622.25385
613.53854
604.67543
595.66881
586.52276
577.24451
567.84503
459.16944
479.02553
502.02838
527.30677
553.56889
580.01067
606.00004
631.04419
654.75157
676.79186
696.87571
714.74286
730.15774
742.89474
752.78296
760.1498
765.36268
768.75369
770.60823
771.16576
770.62617
769.15548
766.89113
763.94736
760.4185
756.38342
751.9078
747.04593
741.84283
736.33571
730.55523
724.52658
718.2703
711.80302
705.13808
698.28604
691.2551
684.0515
676.67981
669.14331
661.44423
653.58422
645.56475
637.38722
629.0523
620.56169
611.91684
603.12179
594.1812
585.09954
575.8844
566.54734
458.98849
478.36793
500.74553
525.6706
551.65202
577.77861
603.42903
628.09889
651.39239
672.98158
692.58437
709.94468
724.83317
737.02707
746.58916
753.82256
759.03586
762.51818
764.52398
765.27061
764.94282
763.69633
761.66128
758.94673
755.64371
751.82827
747.56471
742.90634
737.89761
732.5755
726.97066
721.10844
715.00962
708.6912
702.16691
695.44771
688.54228
681.45728
674.19777
666.76744
659.16899
651.40447
643.47579
635.38477
627.13251
618.72108
610.1523
601.43083
592.56168
583.54975
574.40302
458.72897
477.50587
499.08703
523.28835
548.92358
574.70681
599.99949
624.28313
647.15901
668.29718
687.41956
704.2655
718.61062
730.38051
739.73137
746.90892
752.17708
755.79067
757.97858
758.93931
758.84454
757.84099
756.05223
753.58261
750.52004
746.93821
742.8999
738.45763
733.65535
728.5298
723.11168
717.42646
711.49525
705.33538
698.961
692.38351
685.61205
678.65376
671.51415
664.19741
656.70669
649.04449
641.21315
633.21496
625.05149
616.72518
608.23824
599.59607
590.804
581.86733
572.79466
458.40462
476.47145
497.13925
520.3869
545.29311
570.6824
595.60485
619.48965
641.94239
662.62583
681.26716
697.58494
711.48274
722.98154
732.22166
739.4131
744.78664
748.56934
750.96908
752.16804
752.32685
751.58449
750.05859
747.84924
745.04135
741.70679
737.90665
733.69284
729.10885
724.19125
718.97075
713.47303
707.71948
701.72781
695.51257
689.08566
682.45665
675.6332
668.62131
661.42565
654.04985
646.49689
638.76957
630.87065
622.80221
614.56713
606.16798
597.61104
588.90187
580.04616
571.05341
458.02619
475.29195
494.96414
517.11515
541.04015
565.69945
590.12336
613.59374
635.61682
655.83548
673.99772
689.9134
703.52318
714.86932
724.08231
731.34744
736.87081
740.85707
743.496
744.9559
745.38771
744.92386
743.67669
741.74233
739.20288
736.12862
732.57921
728.60586
724.2517
719.55315
714.54097
709.24104
703.67506
697.86111
691.81419
685.54665
679.06857
672.38809
665.51174
658.4447
651.19109
643.75438
636.13785
628.34474
620.37771
612.24011
603.9349
595.46935
586.84906
578.08023
569.17338
457.60319
473.9923
492.61038
513.57756
536.35955
560.05968
583.74849
606.64302
628.18029
647.96929
665.75525
681.38383
694.81346
706.09339
715.34426
722.73205
728.44218
732.66157
735.56389
737.30484
738.02774
737.85845
736.90483
735.25927
733.0013
730.19962
726.91297
723.19156
719.07834
714.60958
709.8161
704.72399
699.35526
693.7284
687.85883
681.75937
675.44061
668.91121
662.17821
655.24732
648.12321
640.80981
633.31091
625.63027
617.77111
609.73738
601.5325
593.16466
584.63938
575.96353
457.14452
472.59606
490.11908
509.85213
531.39212
553.98001
576.75733
598.93786
619.91549
639.26631
656.71909
672.12389
685.43974
696.71127
706.04647
713.59359
719.5197
723.99549
727.1813
729.2203
730.25016
730.39018
729.74347
728.39932
726.43481
723.91717
720.90447
717.44593
713.5842
709.35548
704.79066
699.91606
694.75398
689.32332
683.63992
677.71711
671.56594
665.19563
658.61375
651.82655
644.83923
637.65625
630.28189
622.72042
614.97569
607.05231
598.95448
590.69077
582.26675
573.69029
456.65863
471.12569
487.5266
506.00041
526.24308
547.62014
569.35792
590.71121
611.05018
629.92751
647.0501
662.25548
675.49055
686.78642
696.2346
703.96519
710.1277
714.87672
718.3607
720.71136
722.06155
722.52351
722.19544
721.16371
719.50336
717.28024
714.55161
711.36615
707.76578
703.78678
699.46008
694.81221
689.86582
684.64014
679.15149
673.41365
667.4382
661.23485
654.81176
648.17571
641.33247
634.28703
627.04415
619.60863
611.98501
604.17866
596.19463
588.04151
579.72523
571.25479
456.15346
469.60246
484.8659
502.07303
520.99377
541.10251
561.71764
582.14744
601.77056
620.12393
636.89283
651.89435
665.05521
676.38655
685.95985
693.88561
700.29539
705.32792
709.11893
711.7913
713.47236
714.26561
714.26589
713.55588
712.20878
710.28935
707.85394
704.95071
701.62083
697.90048
693.82073
689.40831
684.68614
679.67386
674.3882
668.84339
663.05153
657.02287
650.76609
644.28857
637.59663
630.69581
623.59137
616.28865
608.79295
601.11042
593.24691
585.21102
577.00922
568.6516
455.63636
468.04626
482.167
498.11293
515.70867
534.52126
553.95929
573.3924
592.23018
610.00241
626.37742
641.14994
654.22254
665.58236
675.27794
683.39859
690.057
695.37567
699.47736
702.47848
704.49639
705.62701
705.96225
705.58145
704.55493
702.94691
700.81268
698.19959
695.14841
691.69481
687.8701
683.70118
679.21125
674.42029
669.34544
664.00139
658.40073
652.55422
646.47111
640.15936
633.62585
626.8767
619.91767
612.75462
605.39371
597.84187
590.10566
582.19378
574.11343
565.87559
455.11404
466.47537
479.45718
494.15709
510.44
527.95033
546.18033
564.56341
582.55673
599.68964
615.62104
630.12526
643.07992
654.44634
664.24831
672.55252
679.45189
685.05228
689.46346
692.79377
695.14971
696.62111
697.29488
697.24815
696.54793
695.25734
693.43078
691.11455
688.34901
685.16933
681.60689
677.68878
673.43845
668.87618
664.01949
658.88351
653.4813
647.82414
641.92183
635.7829
629.41482
622.8243
616.01761
609.00111
601.78192
594.36768
586.76564
578.98474
571.03297
562.92207
454.59247
464.90629
476.76095
490.23758
505.23073
521.44864
538.45903
555.76075
572.85721
589.2951
604.72904
618.91676
631.71251
643.05185
652.93317
661.39975
668.52398
674.39463
679.10788
682.76188
685.45226
687.26401
688.27731
688.56645
688.19613
687.22738
685.71326
683.69916
681.22476
678.3251
675.03116
671.37031
667.36618
663.03931
658.40758
653.4865
648.2896
642.82865
637.11398
631.15469
624.95888
618.53385
611.88637
605.02325
597.95274
590.68305
583.22218
575.57939
567.76346
559.78686
454.07689
463.35363
474.10004
486.38216
500.11646
515.06345
530.85723
547.0593
563.21976
578.91312
593.79578
607.61415
620.20248
631.47214
641.39664
649.99572
657.32087
663.44319
668.44448
672.4111
675.42798
677.57512
678.92605
679.55003
679.51052
678.86613
677.6673
675.95885
673.77971
671.16471
668.14446
664.74635
660.99417
656.90869
652.50805
647.80815
642.82293
637.56465
632.04414
626.27107
620.25414
614.00129
607.51981
600.81679
593.90199
586.78386
579.47131
571.97386
564.30115
556.46639
453.57176
461.83005
471.49337
482.61466
495.12678
508.83282
523.42426
538.5204
553.717
568.62477
582.90533
596.30031
608.62836
619.77948
629.70379
638.39813
645.89307
652.24167
657.51057
661.77339
665.10473
667.5777
669.26032
670.21584
670.50523
670.18497
669.3024
667.90115
666.01978
663.6926
660.95003
657.81903
654.32361
650.48464
646.32051
641.84743
637.07973
632.03011
626.7099
621.1293
615.29762
609.22344
602.91458
596.37826
589.62629
582.66685
575.50984
568.16502
560.64302
552.95783
453.08079
460.34627
468.95711
478.95527
490.28611
502.78737
516.19959
530.1943
544.41203
558.49973
572.13214
585.05112
597.06444
608.04434
617.91984
626.66617
634.29352
640.83679
646.34702
650.88461
654.51366
657.29886
659.30317
660.58379
661.19726
661.1978
660.6301
659.5358
657.95296
655.91526
653.45286
650.59221
647.35727
643.76901
639.84598
635.60465
631.05969
626.22421
621.10999
615.72774
610.08736
604.19805
598.06823
591.70529
585.1233
578.32969
571.33546
564.15056
556.78688
549.25915
452.60701
458.91118
466.50471
475.42075
485.61439
496.95161
509.21455
522.12129
535.3552
548.5969
561.54144
573.93536
585.58027
596.33462
606.10931
614.85985
622.57706
629.27799
634.998
639.78403
643.68921
646.76943
649.0813
650.67674
651.60654
651.92127
651.66444
650.87497
649.58952
647.84136
645.66002
643.07168
640.09976
636.76537
633.08711
629.08165
624.76395
620.14748
615.24443
610.06601
604.62259
598.92392
592.97919
586.79737
580.39198
573.77107
566.94657
559.92904
552.7315
545.36936
452.15278
457.53188
464.14708
472.0247
481.12757
491.3448
502.49361
514.33297
526.58584
538.96517
551.18962
563.01461
574.24013
584.71498
594.33531
603.03926
610.79978
617.61691
623.51051
628.51405
632.6694
636.02323
638.62472
640.52078
641.75559
642.37517
642.42245
641.9334
640.94236
639.48186
637.58093
635.26528
632.55769
629.47917
626.04834
622.282
618.19532
613.80206
609.11481
604.1452
598.90409
593.40181
587.64843
581.65422
575.43179
568.99044
562.34282
555.50033
548.47688
541.28857
451.71986
456.21386
461.89276
468.77773
476.83801
485.98167
496.05546
506.85386
518.13573
529.64491
541.12491
552.34338
563.10275
573.24623
582.65872
591.26379
599.01841
605.90675
611.93383
617.11985
621.4953
625.09727
627.9667
630.14514
631.66962
632.58266
632.92439
632.72882
632.02699
630.85033
629.22746
627.18323
624.73994
621.91802
618.73618
615.21122
611.35846
607.19189
602.72445
597.96815
592.93432
587.63392
582.07783
576.27707
570.24378
563.98885
557.52539
550.86566
544.02433
537.0182
451.30952
454.96114
459.74809
465.68778
472.75487
480.87308
489.91392
499.70254
510.02988
520.66885
531.38786
541.96916
552.221
561.98476
571.1376
579.59144
587.28952
594.20165
600.31896
605.64885
610.2105
614.03128
617.14373
619.58247
621.37745
622.56985
623.19403
623.28221
622.86164
621.96311
620.61412
618.83844
616.65778
614.0919
611.15941
607.87703
604.26015
600.32295
596.07862
591.53955
586.71752
581.62403
576.27065
570.66892
564.83075
558.76911
552.49712
546.02782
539.37665
532.56109
450.92253
453.77646
457.71744
462.76033
468.8844
476.0264
484.07861
492.89245
502.2873
512.06295
522.01199
531.93268
541.6418
550.98217
559.82651
568.07807
575.66881
582.55599
588.71804
594.15028
598.86093
602.86762
606.19445
608.86826
610.91174
612.3666
613.25887
613.6179
613.46758
612.83958
611.75843
610.2467
608.32527
606.01345
603.32932
600.28957
596.90953
593.20347
589.1848
584.8662
580.25989
575.37779
570.23199
564.83461
559.19747
553.336
547.26261
540.99131
534.53827
527.92168
450.5593
452.66138
455.80346
459.99866
465.23031
471.44603
478.5555
486.43262
494.92173
503.84713
513.02429
522.26821
531.4061
540.28492
548.77599
556.77679
564.21045
571.0237
577.18373
582.67472
587.49438
591.65072
595.15907
598.03905
600.31149
602.00715
603.1491
603.76314
603.86978
603.50271
602.68132
601.42686
599.75951
597.69813
595.26003
592.46171
589.31834
585.84422
582.05287
577.95724
573.56986
568.90296
563.96893
558.7808
553.35149
547.69648
541.82838
535.76241
529.51538
523.10608
450.21988
451.61652
454.00724
457.40413
461.79406
467.13373
473.34747
480.32829
487.9423
496.03593
504.44587
513.00388
521.5489
529.93418
538.03221
545.73735
552.96642
559.65767
565.7687
571.2737
576.16064
580.42832
584.08376
587.13979
589.61359
591.5258
592.89613
593.74673
594.09916
593.97984
593.40714
592.401
590.98083
589.16453
586.96869
584.40925
581.50121
578.25874
574.69543
570.8244
566.65841
562.2099
557.49151
552.51756
547.30172
541.85899
536.20286
530.34943
524.3161
518.12224
449.90408
450.64166
452.32863
454.97646
458.57513
463.089
468.45465
474.58137
481.35416
488.63915
496.29243
504.16212
512.09953
519.96575
527.6366
535.00571
541.9859
548.50905
554.5249
559.99903
564.91062
569.25002
573.01637
576.21571
578.85957
580.96187
582.53779
583.60563
584.18614
584.29953
583.96287
583.19449
582.01286
580.43467
578.47576
576.15126
573.47589
570.46363
567.12802
563.48224
559.53924
555.31168
550.81243
546.05714
541.05961
535.83469
530.39684
524.76282
518.95061
512.98008
449.61145
449.73592
450.76635
452.71393
455.57135
459.30937
463.8749
469.19099
475.15897
481.66244
488.57491
495.76008
503.08181
510.4101
517.62574
524.62364
531.31477
537.62666
543.50294
548.90206
553.79558
558.16619
562.00576
565.3136
568.09483
570.35862
572.11492
573.37831
574.16601
574.49485
574.37943
573.83654
572.88297
571.53423
569.80522
567.71022
565.26352
562.47876
559.36933
555.9484
552.229
548.22419
543.9474
539.41445
534.63938
529.63726
524.42346
519.01529
513.43121
507.69155
449.34141
448.89785
449.31825
450.61365
452.7791
455.79072
459.60406
464.15384
469.35541
475.10781
481.29998
487.81011
494.51448
501.29252
508.03123
514.62848
520.9952
527.05645
532.75148
538.03312
542.86652
547.2277
551.10189
554.48203
557.36733
559.76196
561.67132
563.10573
564.07837
564.60318
564.69201
564.36019
563.62231
562.49259
560.98475
559.11231
556.88878
554.3275
551.44156
548.24404
544.74807
540.96695
536.91471
532.60657
528.05777
523.28285
518.29834
513.12191
507.77246
502.27067
449.09321
448.1256
447.98146
448.67181
450.19365
452.52759
455.6364
459.46461
463.93953
468.97418
474.47056
480.32026
486.41146
492.63329
498.87975
505.05292
511.06525
516.84098
522.31664
527.44087
532.17372
536.48555
540.35578
543.77158
546.72671
549.22041
551.25329
552.8323
553.96619
554.66572
554.93909
554.80206
554.26583
553.34295
552.04589
550.38739
548.38009
546.03687
543.37048
540.39383
537.12008
533.56238
529.7354
525.65418
521.33422
516.79035
512.03966
507.10018
501.99118
496.73361
448.86604
447.41699
446.75259
446.88382
447.80931
449.5134
451.96483
455.11638
458.90541
463.25793
468.08637
473.29469
478.78233
484.44799
490.19313
495.92494
501.55864
507.01906
512.24145
517.1717
521.76601
525.99021
529.81877
533.23386
536.22438
538.78465
540.90906
542.60501
543.87513
544.72655
545.16278
545.20273
544.85245
544.12237
543.02399
541.56912
539.76957
537.63758
535.18544
532.4259
529.37194
526.03578
522.43389
518.58067
514.49141
510.18146
505.66822
500.97005
496.10647
491.0986
448.65902
446.7696
445.62783
445.24455
445.61971
446.74069
448.58123
451.101
454.24664
457.95347
462.14436
466.73415
471.63264
476.74773
481.98849
487.26777
492.50451
497.62527
502.56531
507.26904
511.69005
515.79068
519.54145
522.92033
525.91217
528.50683
530.68824
532.47282
533.8521
534.83018
535.41183
535.60798
535.42494
534.87151
533.95793
532.69479
531.09297
529.16387
526.9193
524.3717
521.53379
518.41542
515.03789
511.4127
507.55491
503.48058
499.20735
494.75379
490.13959
485.38589
448.47122
446.18088
444.60309
443.74844
443.61793
444.20137
445.47662
447.4091
449.95378
453.05295
456.63896
460.63633
464.96432
469.53951
474.27843
479.09996
483.92732
488.68974
493.32354
497.77278
501.98952
505.93368
509.57267
512.88081
515.83878
518.4324
520.64982
522.4907
523.95027
525.02964
525.73219
526.06306
526.02794
525.63392
524.88989
523.8051
522.38942
520.65328
518.60786
516.26487
513.63668
510.73597
507.5791
504.17988
500.55285
496.71461
492.68277
488.47595
484.11387
479.61764
448.30171
445.64818
443.67409
442.3897
441.79668
441.88683
442.64126
444.03129
446.0167
448.54696
451.56245
454.99622
458.77602
462.82647
467.07129
471.43541
475.84676
480.23787
484.54693
488.71864
492.7045
496.46299
499.95929
503.16498
506.05761
508.62004
510.83982
512.7087
514.22141
515.37621
516.17411
516.61695
516.70927
516.45615
515.86505
514.9438
513.70116
512.14661
510.29057
508.14418
505.71963
503.03014
500.09004
496.91372
493.51581
489.91287
486.12245
482.16313
478.05452
473.81767
448.14956
445.16886
442.83651
441.16236
440.14847
439.78819
440.06602
440.95644
442.42416
444.42468
446.90529
449.80644
453.06343
456.60823
460.37132
464.28355
468.27775
472.29016
476.26148
480.13776
483.87085
487.4186
490.74488
493.81939
496.61738
499.11931
501.3105
503.17917
504.71786
505.9219
506.78968
507.32066
507.51879
507.387
506.931
506.15715
505.07306
503.68728
502.00945
500.05014
497.82117
495.33546
492.60669
489.64893
486.47688
483.10692
479.55644
475.84382
471.9884
448.01387
444.74028
442.08602
440.06044
438.66584
437.89701
437.74022
438.17298
439.16411
440.67418
442.65636
445.05751
447.81958
450.88113
454.17892
457.64947
461.23049
464.86213
468.48807
472.05629
475.51962
478.83609
481.96902
484.88698
487.56367
489.97767
492.11221
493.95328
495.49114
496.71839
497.6309
498.22604
498.50765
498.47694
498.1371
497.49326
496.55193
495.32074
493.8085
492.02525
489.98221
487.69179
485.1674
482.4222
479.47112
476.33022
473.01661
469.54837
465.9446
447.89376
444.35986
441.4184
439.07814
437.3415
436.20384
435.65298
435.66892
436.22385
437.28258
438.80321
440.73812
443.03507
445.6385
448.4909
451.53408
454.71048
457.96427
461.24232
464.49497
467.67658
470.74595
473.66651
476.40638
478.93831
481.23961
483.29189
485.07936
486.5903
487.81496
488.74783
489.3855
489.72854
489.77729
489.53356
489.00129
488.18585
487.09391
485.73338
484.11369
482.24553
480.14073
477.81184
475.27177
472.5352
469.6178
466.53628
463.30831
459.95256
447.7884
444.02518
440.82959
438.20967
436.16763
434.69921
433.79338
433.43208
433.59026
434.2362
435.3322
436.8353
438.69832
440.87088
443.30061
445.93423
448.71866
451.602
454.53445
457.46893
460.36176
463.17297
465.86663
468.41096
470.77837
472.94539
474.8925
476.60269
478.06271
479.26094
480.19091
480.84817
481.23061
481.33761
481.16988
480.73033
480.02322
479.05425
477.83052
476.36073
474.65502
472.72482
470.58123
468.23726
465.70712
463.00601
460.15013
457.15659
454.04344
447.69703
443.73385
440.3155
437.44917
435.13665
433.37385
432.15054
431.45015
431.24982
431.52073
432.22864
433.33458
434.7957
436.56618
438.5982
440.84295
443.25151
445.77578
448.36922
450.98753
453.58918
456.13581
458.59255
460.92817
463.11522
465.12992
466.95216
468.56416
469.95164
471.10159
472.00661
472.66119
473.06159
473.20615
473.09455
472.72871
472.11196
471.24912
470.1465
468.81218
467.25552
465.4871
463.51746
461.35919
459.02593
456.53232
453.89394
451.12726
448.24953
447.61889
443.48362
439.87227
436.79106
434.24124
432.2187
430.71367
429.7107
429.18871
429.12123
429.47689
430.2201
431.31171
432.70986
434.37075
436.24957
438.30123
440.48117
442.74605
445.05432
447.36675
449.64683
451.86103
453.97907
455.97399
457.82216
459.5033
460.99931
462.29533
463.37735
464.23726
464.86865
465.26675
465.42903
465.3542
465.04339
464.49911
463.72526
462.72734
461.51322
460.09137
458.47125
456.66308
454.67881
452.53148
450.23509
447.80452
445.25544
442.60425
447.55336
443.27241
439.49627
436.23006
433.47436
431.22484
429.47201
428.20124
427.39281
427.02216
427.06037
427.47466
428.22904
429.28506
430.60246
432.13997
433.85594
435.70911
437.65914
439.66718
441.69634
443.71204
445.68234
447.57814
449.3733
451.04469
452.57222
453.93787
455.12656
456.12371
456.9207
457.51052
457.88778
458.04923
457.99285
457.7191
457.22978
456.52796
455.61815
454.50865
453.20696
451.721
450.06086
448.23786
446.26434
444.15358
441.91968
439.57743
437.14227
447.49984
443.09837
439.18417
435.76118
432.8292
430.38355
428.41487
426.90908
425.84758
425.20739
424.96158
425.07976
425.52868
426.27277
427.27487
428.49679
429.90002
431.44623
433.09789
434.81871
436.57408
438.33141
440.06045
441.73345
443.32532
444.8137
446.17901
447.40359
448.47247
449.37089
450.08997
450.62239
450.96239
451.10624
451.05137
450.79766
450.34638
449.70033
448.86386
447.8436
446.64644
445.28003
443.75387
442.0786
440.26582
438.32801
436.27838
434.13081
431.89966
447.45787
442.95983
438.93285
435.37963
432.29909
429.68611
427.53138
425.82127
424.53803
423.66002
423.16202
423.01567
423.19
423.65198
424.36708
425.29986
426.4145
427.67534
429.0474
430.49677
431.99101
433.49949
434.99366
436.44721
437.83628
439.13947
440.33791
441.41457
442.35482
443.14409
443.77347
444.23556
444.52449
444.6363
444.56809
444.31933
443.89093
443.28545
442.50689
441.56094
440.45339
439.19198
437.78557
436.24406
434.57826
432.7998
430.92101
428.95474
426.91425
447.42706
442.85532
438.73942
435.08074
431.87735
429.12368
426.81041
424.92435
423.4485
422.36237
421.6422
421.26138
421.19093
421.39996
421.85622
422.52662
423.37771
424.3762
425.48935
426.68544
427.93405
429.2064
430.4756
431.71684
432.90752
434.02733
435.05831
435.98418
436.79089
437.46435
437.99575
438.37787
438.60496
438.67304
438.57911
438.32237
437.90351
437.32489
436.59006
435.70388
434.67188
433.50133
432.20048
430.77851
429.24547
427.61211
425.88981
424.09041
422.22603
447.40713
442.78351
438.60103
434.85979
431.55704
428.68692
426.24019
424.20411
422.56246
421.29576
420.38158