/*--------------------------------*- C++ -*----------------------------------*\
| =========                 |                                                 |
| \\      /  F ield         | OpenFOAM: The Open Source CFD Toolbox           |
|  \\    /   O peration     | Version:  2312                                  |
|   \\  /    A nd           | Website:  www.openfoam.com                      |
|    \\/     M anipulation  |                                                 |
\*---------------------------------------------------------------------------*/
FoamFile
{
    version     2.0;
    format      ascii;
    arch        "LSB;label=32;scalar=64";
    class       surfaceScalarField;
    location    "0.01";
    object      phi;
}
// * * * * * * * * * * * * * * * * * * * * * * * * * * * * * * * * * * * * * //

dimensions      [1 0 -1 0 0 0 0];

oriented        oriented;

internalField   nonuniform List<scalar> 
6433
(
8.3099319e-07
3.3456378e-08
7.5624078e-07
7.4752327e-08
6.7467041e-07
8.1571408e-08
6.0044173e-07
7.4230626e-08
5.3850328e-07
6.1940676e-08
4.8809868e-07
5.0406002e-08
4.4693327e-07
4.1163237e-08
4.1298183e-07
3.3942365e-08
3.8461115e-07
2.8351517e-08
3.605834e-07
2.3995521e-08
3.399565e-07
2.0579097e-08
3.2199338e-07
1.7897184e-08
3.0613484e-07
1.577174e-08
2.919576e-07
1.406737e-08
2.7913441e-07
1.2688645e-08
2.674134e-07
1.1560856e-08
2.5659577e-07
1.0631207e-08
2.4652689e-07
9.8575793e-09
2.3709721e-07
9.2067703e-09
2.2828026e-07
8.6348663e-09
2.1971286e-07
8.1598913e-09
2.1162067e-07
7.7286883e-09
2.0390133e-07
7.3475964e-09
1.9648802e-07
7.0129683e-09
1.8934681e-07
6.7096655e-09
1.8245202e-07
6.4316694e-09
1.7578358e-07
6.1740825e-09
1.6932574e-07
5.9330502e-09
1.6306605e-07
5.7054872e-09
1.5699474e-07
5.4888631e-09
1.5110569e-07
5.2810953e-09
1.4539011e-07
5.0806196e-09
1.398442e-07
4.8867616e-09
1.3446448e-07
4.6978714e-09
1.2924798e-07
4.5134422e-09
1.2419231e-07
4.332934e-09
1.1929548e-07
4.155988e-09
1.1455581e-07
3.9823657e-09
1.0997185e-07
3.811927e-09
1.0554231e-07
3.6446053e-09
1.01266e-07
3.4803818e-09
9.7141768e-08
3.3192636e-09
9.3168562e-08
3.1613236e-09
8.9345309e-08
3.0064734e-09
8.5670196e-08
2.8549943e-09
8.213017e-08
2.7070039e-09
7.8734421e-08
2.5626755e-09
7.5480537e-08
2.4224973e-09
7.2348167e-08
2.2862422e-09
6.9346511e-08
2.1543472e-09
6.6476155e-08
2.0272955e-09
1.9049318e-09
8.2156376e-07
7.6335728e-08
7.3942193e-07
1.5689204e-07
6.5798354e-07
1.6300751e-07
5.873357e-07
1.4487576e-07
5.290196e-07
1.2025307e-07
4.8132244e-07
9.8097567e-08
4.4205284e-07
8.0422456e-08
4.0940915e-07
6.6567434e-08
3.8194598e-07
5.5784672e-08
3.5855475e-07
4.7342308e-08
3.3838197e-07
4.0690613e-08
3.2074839e-07
3.5450088e-08
3.0513342e-07
3.1283823e-08
2.9113983e-07
2.7933699e-08
2.7845754e-07
2.5217801e-08
2.6684671e-07
2.2991927e-08
2.5611651e-07
2.1154423e-08
2.4611843e-07
1.9623037e-08
2.3674205e-07
1.8340179e-08
2.2797487e-07
1.7279943e-08
2.1943865e-07
1.6177851e-08
2.113876e-07
1.5392862e-08
2.0369614e-07
1.4641632e-08
1.9630645e-07
1.3976409e-08
1.8918576e-07
1.3372426e-08
1.8230895e-07
1.2818485e-08
1.7565636e-07
1.2304975e-08
1.6921254e-07
1.1824255e-08
1.6296533e-07
1.1370206e-08
1.5690521e-07
1.0937777e-08
1.5102613e-07
1.0522932e-08
1.4531953e-07
1.0122491e-08
1.3978174e-07
9.7351136e-09
1.3440936e-07
9.3575579e-09
1.2919951e-07
8.9888112e-09
1.2414987e-07
8.6278074e-09
1.1925852e-07
8.2738378e-09
1.1452384e-07
7.9264368e-09
1.099444e-07
7.5853402e-09
1.0551896e-07
7.2504389e-09
1.0124637e-07
6.921732e-09
9.7125544e-08
6.5993056e-09
9.3155455e-08
6.2832393e-09
8.9334973e-08
5.9736145e-09
8.5662298e-08
5.67137e-09
8.2124437e-08
5.3761256e-09
7.873063e-08
5.0880986e-09
7.5478495e-08
4.8085157e-09
7.2347734e-08
4.5367724e-09
6.9347548e-08
4.2736439e-09
6.6478536e-08
4.0201081e-09
3.7757312e-09
7.9801953e-07
1.4281627e-07
7.0211914e-07
2.5279002e-07
6.2418033e-07
2.4094355e-07
5.6181084e-07
2.0724182e-07
5.1074087e-07
1.7131841e-07
4.6821948e-07
1.4061256e-07
4.3257228e-07
1.1605806e-07
4.0243514e-07
9.6684224e-08
3.7672598e-07
8.1461871e-08
3.5456843e-07
6.9453237e-08
3.352788e-07
5.9916867e-08
3.1828858e-07
5.2357586e-08
3.0315075e-07
4.6316584e-08
2.8951791e-07
4.1436987e-08
2.7711299e-07
3.7467295e-08
2.6571952e-07
3.4203678e-08
2.5516208e-07
3.150297e-08
2.4530375e-07
2.9245991e-08
2.3604624e-07
2.7344122e-08
2.2733821e-07
2.5758507e-08
2.1890311e-07
2.4200171e-08
2.1092128e-07
2.2996895e-08
2.032846e-07
2.1880368e-08
1.959418e-07
2.089171e-08
1.8886194e-07
1.9993103e-08
1.8202092e-07
1.916834e-08
1.7539986e-07
1.8403249e-08
1.6898398e-07
1.7686535e-08
1.6276162e-07
1.7009169e-08
1.5672379e-07
1.6363593e-08
1.5086462e-07
1.5744084e-08
1.4517593e-07
1.5145759e-08
1.3965436e-07
1.4566631e-08
1.3429666e-07
1.4002001e-08
1.2910013e-07
1.3450353e-08
1.2406259e-07
1.2910125e-08
1.1918223e-07
1.2380278e-08
1.1445754e-07
1.1860139e-08
1.0988718e-07
1.1349332e-08
1.0546999e-07
1.0847716e-08
1.0120491e-07
1.0355312e-08
9.7090894e-08
9.8722841e-09
9.3126998e-08
9.398736e-09
8.9312089e-08
8.9349781e-09
8.5644424e-08
8.4825495e-09
8.211105e-08
8.0405537e-09
7.8721263e-08
7.6092891e-09
7.5472711e-08
7.1907197e-09
7.2345248e-08
6.7838816e-09
6.9348072e-08
6.3898449e-09
6.6481742e-08
6.0101429e-09
5.6441097e-09
7.4345847e-07
2.6395627e-07
6.3744245e-07
3.5880308e-07
5.7275531e-07
3.0562711e-07
5.2523772e-07
2.5475478e-07
4.8489358e-07
2.1165639e-07
4.4948646e-07
1.7601217e-07
4.1893235e-07
1.4659874e-07
3.9237188e-07
1.232216e-07
3.6915182e-07
1.0464702e-07
3.4875368e-07
8.9801402e-08
3.3073155e-07
7.7872456e-08
3.1467061e-07
6.8332759e-08
3.0022575e-07
6.065306e-08
2.8711922e-07
5.4410477e-08
2.7512037e-07
4.9307196e-08
2.6404611e-07
4.5093288e-08
2.5374288e-07
4.1594491e-08
2.4409006e-07
3.8659645e-08
2.3499811e-07
3.6172412e-08
2.2639859e-07
3.4082316e-08
2.1810586e-07
3.2123327e-08
2.1022489e-07
3.0505913e-08
2.0266891e-07
2.9037548e-08
1.9539596e-07
2.7735321e-08
1.8837695e-07
2.655103e-08
1.8158926e-07
2.5463054e-08
1.7501521e-07
2.4452834e-08
1.6864099e-07
2.3505613e-08
1.6245572e-07
2.2609632e-08
1.5645117e-07
2.1754862e-08
1.5062174e-07
2.0934267e-08
1.4495982e-07
2.0141154e-08
1.3946249e-07
1.9372908e-08
1.3412676e-07
1.8623576e-08
1.2895016e-07
1.7891138e-08
1.2393072e-07
1.7173581e-08
1.1906684e-07
1.6469568e-08
1.1435712e-07
1.5778243e-08
1.0980038e-07
1.509914e-08
1.0539557e-07
1.4432103e-08
1.0114173e-07
1.3777181e-08
9.7037925e-08
1.3134626e-08
9.3083297e-08
1.2504574e-08
8.9276754e-08
1.1887617e-08
8.5616653e-08
1.1285833e-08
8.2090073e-08
1.0697846e-08
7.8706373e-08
1.0124045e-08
7.5463237e-08
9.5671307e-09
7.2340749e-08
9.0258172e-09
6.9348113e-08
8.5013768e-09
6.6485795e-08
7.9960209e-09
7.5088385e-09
6.1159604e-07
5.1632136e-07
5.3854088e-07
4.3185428e-07
5.0712583e-07
3.370371e-07
4.7985339e-07
2.8202074e-07
4.5310232e-07
2.3839915e-07
4.2679472e-07
2.0230892e-07
4.0204486e-07
1.7133387e-07
3.7966297e-07
1.4557656e-07
3.5950775e-07
1.2476336e-07
3.4129477e-07
1.0795976e-07
3.2486159e-07
9.4234891e-08
3.0997639e-07
8.3128214e-08
2.9641514e-07
7.410145e-08
2.839839e-07
6.6703948e-08
2.7250857e-07
6.0618705e-08
2.6184769e-07
5.5565706e-08
2.5187464e-07
5.135221e-08
2.4248861e-07
4.7801786e-08
2.3360807e-07
4.4780798e-08
2.2516852e-07
4.222408e-08
2.1704963e-07
3.989122e-08
2.0930094e-07
3.788426e-08
2.0185224e-07
3.6085625e-08
1.946717e-07
3.4483986e-08
1.877331e-07
3.3025987e-08
1.8101587e-07
3.168486e-08
1.7450397e-07
3.0438007e-08
1.6818484e-07
2.9267496e-08
1.6204866e-07
2.8159088e-08
1.5608819e-07
2.7100341e-08
1.5029814e-07
2.6083353e-08
1.4467174e-07
2.5099541e-08
1.3920658e-07
2.4145652e-08
1.3389999e-07
2.3214751e-08
1.2874985e-07
2.2304315e-08
1.2375448e-07
2.1411937e-08
1.1891247e-07
2.0536023e-08
1.1422266e-07
1.9675569e-08
1.0968403e-07
1.8830047e-08
1.0529568e-07
1.7999303e-08
1.010568e-07
1.7183433e-08
9.6966578e-08
1.6382781e-08
9.302426e-08
1.5597549e-08
8.9228865e-08
1.4828596e-08
8.5578853e-08
1.4078552e-08
8.2061369e-08
1.3345568e-08
7.8685809e-08
1.263018e-08
7.5449886e-08
1.1935807e-08
7.2334073e-08
1.1260801e-08
6.9347505e-08
1.0606671e-08
6.6490535e-08
9.9763584e-09
9.3686902e-09
3.0075713e-07
3.0541744e-07
3.7701224e-07
3.55594e-07
3.8837462e-07
3.2566832e-07
3.8329617e-07
2.8709119e-07
3.7113576e-07
2.5054979e-07
3.5610371e-07
2.1732809e-07
3.3995276e-07
1.8746699e-07
3.2393343e-07
1.6157095e-07
3.0883867e-07
1.3981961e-07
2.9478818e-07
1.2195674e-07
2.8176733e-07
1.0718879e-07
2.6973416e-07
9.5077906e-08
2.5859723e-07
8.5133672e-08
2.4826067e-07
7.6913489e-08
2.3862315e-07
7.0105804e-08
2.2959904e-07
6.4419187e-08
2.2110185e-07
5.965523e-08
2.1306244e-07
5.5620628e-08
2.0541153e-07
5.2184533e-08
1.9810875e-07
4.9252353e-08
1.9109399e-07
4.6602879e-08
1.8436639e-07
4.4282332e-08
1.7788197e-07
4.2212827e-08
1.7161954e-07
4.0361273e-08
1.655589e-07
3.8673376e-08
1.5968402e-07
3.7118517e-08
1.5398237e-07
3.5670883e-08
1.4844418e-07
3.4310077e-08
1.4306179e-07
3.3019946e-08
1.3782986e-07
3.1785966e-08
1.3274396e-07
3.0599886e-08
1.2779898e-07
2.9451441e-08
1.2299332e-07
2.8336774e-08
1.1832497e-07
2.724833e-08
1.1379235e-07
2.6183183e-08
1.0939428e-07
2.5138608e-08
1.0512975e-07
2.4112833e-08
1.0099794e-07
2.3104757e-08
9.6998122e-08
2.2113828e-08
9.3129666e-08
2.113991e-08
8.9391969e-08
2.0183174e-08
8.578453e-08
1.9243976e-08
8.2306597e-08
1.8322844e-08
7.8957704e-08
1.7420406e-08
7.573632e-08
1.6540347e-08
7.2631327e-08
1.5679938e-08
6.9650987e-08
1.4840195e-08
6.6793198e-08
1.4025155e-08
6.4041415e-08
1.3232365e-08
6.140324e-08
1.2464367e-08
5.8879132e-08
1.1724069e-08
1.1010414e-08
2.0640774e-07
1.9143164e-07
3.0479524e-07
2.5719858e-07
3.418603e-07
2.8859406e-07
3.5288931e-07
2.7605099e-07
3.5123809e-07
2.5218688e-07
3.4332576e-07
2.2522288e-07
3.3230105e-07
1.984689e-07
3.1985776e-07
1.7398351e-07
3.0715808e-07
1.524783e-07
2.9483448e-07
1.3421891e-07
2.8307385e-07
1.1887576e-07
2.7193984e-07
1.0612175e-07
2.6144027e-07
9.5519941e-08
2.5155184e-07
8.66655e-08
2.4222372e-07
7.9272648e-08
2.3341071e-07
7.3052886e-08
2.2504925e-07
6.7813453e-08
2.1708486e-07
6.3353217e-08
2.0946434e-07
5.9545666e-08
2.0216562e-07
5.6264986e-08
1.9514304e-07
5.3313322e-08
1.8837768e-07
5.0706245e-08
1.8184039e-07
4.8379827e-08
1.7551375e-07
4.6288871e-08
1.693803e-07
4.4379015e-08
1.6342613e-07
4.2616299e-08
1.5764028e-07
4.0972245e-08
1.5201418e-07
3.9424306e-08
1.465412e-07
3.7954598e-08
1.4121698e-07
3.6546789e-08
1.3603727e-07
3.5192278e-08
1.3099788e-07
3.3879529e-08
1.2609773e-07
3.2603722e-08
1.2133509e-07
3.1357092e-08
1.1670876e-07
3.0136264e-08
1.1221783e-07
2.8938264e-08
1.0786156e-07
2.7761182e-08
1.0363932e-07
2.6603855e-08
9.9550579e-08
2.5465738e-08
9.5594862e-08
2.4346738e-08
9.1771715e-08
2.3247122e-08
8.8080757e-08
2.2167285e-08
8.4521373e-08
2.110807e-08
8.1093167e-08
2.0069943e-08
7.7794729e-08
1.9057588e-08
7.4614675e-08
1.8067472e-08
7.1561575e-08
1.7101082e-08
6.8633315e-08
1.6163088e-08
6.5813218e-08
1.5250302e-08
6.3109185e-08
1.4366156e-08
6.0521466e-08
1.3513694e-08
1.2691888e-08
1.6953197e-07
1.1694525e-07
2.5309999e-07
1.736184e-07
2.9993078e-07
2.4174966e-07
3.2221868e-07
2.5374711e-07
3.2969515e-07
2.4469104e-07
3.2860562e-07
2.2628917e-07
3.2262545e-07
2.0442008e-07
3.1399966e-07
1.8257178e-07
3.0410228e-07
1.6232679e-07
2.9374014e-07
1.4451375e-07
2.8338345e-07
1.2915118e-07
2.7332457e-07
1.1608309e-07
2.6360868e-07
1.0511209e-07
2.5428858e-07
9.5838152e-08
2.4536725e-07
8.8019069e-08
2.3684704e-07
8.1384761e-08
2.2868899e-07
7.5758704e-08
2.2084867e-07
7.0949014e-08
2.1330783e-07
6.6814355e-08
2.0605999e-07
6.3217326e-08
1.9905617e-07
5.9991902e-08
1.9228012e-07
5.7127276e-08
1.8571365e-07
5.456166e-08
1.7934303e-07
5.2245402e-08
1.7315409e-07
5.0124473e-08
1.6713554e-07
4.8162236e-08
1.6127836e-07
4.6328185e-08
1.5557551e-07
4.4598023e-08
1.5002168e-07
4.2952268e-08
1.4461365e-07
4.1373573e-08
1.3934739e-07
3.9852113e-08
1.3422004e-07
3.8376497e-08
1.2923096e-07
3.694002e-08
1.243789e-07
3.5535303e-08
1.1966307e-07
3.4158491e-08
1.1508291e-07
3.2806433e-08
1.1063799e-07
3.1477129e-08
1.0632797e-07
3.01694e-08
1.0215253e-07
2.8882743e-08
9.8111406e-08
2.7617142e-08
9.4204321e-08
2.6372984e-08
9.043104e-08
2.5150743e-08
8.6791131e-08
2.3951543e-08
8.3284263e-08
2.2775805e-08
7.9909193e-08
2.1629115e-08
7.665426e-08
2.0507249e-08
7.3528407e-08
1.9412105e-08
7.0529507e-08
1.8349033e-08
6.7640741e-08
1.7314251e-08
6.487043e-08
1.6311843e-08
6.2218526e-08
1.5345159e-08
1.4413132e-08
1.4989683e-07
6.4737106e-08
2.1531417e-07
1.0818286e-07
2.6350899e-07
1.935354e-07
2.9270429e-07
2.2452984e-07
3.0740563e-07
2.2996403e-07
3.1251149e-07
2.2115294e-07
3.1144583e-07
2.0544896e-07
3.0662633e-07
1.8734549e-07
2.9963271e-07
1.692625e-07
2.9147823e-07
1.5259311e-07
2.8274677e-07
1.3779206e-07
2.7386825e-07
1.2485642e-07
2.65073e-07
1.1377058e-07
2.5643688e-07
1.043142e-07
2.480174e-07
9.6245653e-08
2.3987238e-07
8.9332963e-08
2.3197798e-07
8.34306e-08
2.2432256e-07
7.8345408e-08
2.1692259e-07
7.39333e-08
2.0976197e-07
7.0067577e-08
2.0280756e-07
6.6606288e-08
1.9605094e-07
6.3513749e-08
1.8948108e-07
6.07312e-08
1.8308858e-07
5.820751e-08
1.7686323e-07
5.588948e-08
1.707968e-07
5.373867e-08
1.6488263e-07
5.1723243e-08
1.5911551e-07
4.9817639e-08
1.5349187e-07
4.8000942e-08
1.4800946e-07
4.6255613e-08
1.42665e-07
4.4570219e-08
1.374571e-07
4.2933889e-08
1.3238555e-07
4.133826e-08
1.274497e-07
3.9776374e-08
1.2264929e-07
3.8244012e-08
1.179842e-07
3.673792e-08
1.1345436e-07
3.525607e-08
1.0905976e-07
3.3797317e-08
1.0480036e-07
3.2361248e-08
1.0067615e-07
3.0947963e-08
9.6687065e-08
2.9557993e-08
9.2833055e-08
2.8191941e-08
8.9113889e-08
2.6851193e-08
8.5529346e-08
2.553622e-08
8.2078358e-08
2.4253443e-08
7.8749018e-08
2.2998029e-08
7.5550668e-08
2.1772248e-08
7.2481166e-08
2.0582182e-08
6.9523611e-08
1.9423564e-08
6.6686811e-08
1.8301026e-08
6.3970328e-08
1.7218184e-08
1.617398e-08
1.3680032e-07
2.8326282e-08
1.8686352e-07
5.8093567e-08
2.3266563e-07
1.4770598e-07
2.6534432e-07
1.9182126e-07
2.8532046e-07
2.0995404e-07
2.9564841e-07
2.1078585e-07
2.991303e-07
2.0192067e-07
2.9801564e-07
1.8840424e-07
2.9394961e-07
1.7326011e-07
2.8807483e-07
1.5838278e-07
2.8112508e-07
1.446402e-07
2.7360033e-07
1.3226215e-07
2.6582214e-07
1.2140156e-07
2.5797109e-07
1.119915e-07
2.5014339e-07
1.0385492e-07
2.4244157e-07
9.6832243e-08
2.3488829e-07
9.0752648e-08
2.2749159e-07
8.5471633e-08
2.2027502e-07
8.0852789e-08
2.1324042e-07
7.6775681e-08
2.0637189e-07
7.3118449e-08
1.996668e-07
6.9832023e-08
1.9312116e-07
6.6859377e-08
1.8673072e-07
6.4149903e-08
1.8048975e-07
6.1651938e-08
1.7439356e-07
5.9326232e-08
1.684382e-07
5.7140372e-08
1.6262071e-07
5.5068083e-08
1.5693948e-07
5.3087288e-08
1.5139333e-07
5.1181003e-08
1.4598013e-07
4.9336139e-08
1.4070004e-07
4.7542264e-08
1.3555337e-07
4.5790041e-08
1.3054022e-07
4.4072812e-08
1.2566093e-07
4.2386137e-08
1.209159e-07
4.0726758e-08
1.1630551e-07
3.9092687e-08
1.1183014e-07
3.7482879e-08
1.0749007e-07
3.5897056e-08
1.032856e-07
3.4335482e-08
9.9216919e-08
3.2798871e-08
9.5284202e-08
3.1288e-08
9.1487441e-08
2.9804515e-08
8.7826569e-08
2.8349013e-08
8.4300707e-08
2.6928715e-08
8.0897733e-08
2.5538236e-08
7.7627422e-08
2.4180184e-08
7.4487621e-08
2.2861433e-08
7.1461384e-08
2.1577291e-08
6.855811e-08
2.0333099e-08
6.5776839e-08
1.9132272e-08
1.7974065e-08
1.2816085e-07
3.3310364e-09
1.6568414e-07
2.053459e-08
2.0717519e-07
1.0617747e-07
2.4077093e-07
1.5818544e-07
2.6417768e-07
1.8650304e-07
2.7862415e-07
1.9628936e-07
2.8607631e-07
1.9441065e-07
2.8843238e-07
1.8597993e-07
2.8723319e-07
1.743785e-07
2.8366992e-07
1.6184868e-07
2.7857055e-07
1.4962486e-07
2.7249616e-07
1.3820274e-07
2.6584185e-07
1.278957e-07
2.5886425e-07
1.1878168e-07
2.5172126e-07
1.1077576e-07
2.4454661e-07
1.0378187e-07
2.3739785e-07
9.7650627e-08
2.3031388e-07
9.2270141e-08
2.2333157e-07
8.7520813e-08
2.1646815e-07
8.3295018e-08
2.0972378e-07
7.94885e-08
2.0310385e-07
7.6046853e-08
1.9661172e-07
7.2915361e-08
1.9024895e-07
7.0045488e-08
1.8401479e-07
6.7388005e-08
1.7790848e-07
6.4903891e-08
1.7192922e-07
6.2560965e-08
1.6607662e-07
6.0332783e-08
1.6035127e-07
5.8196691e-08
1.5475316e-07
5.6136576e-08
1.4928181e-07
5.413817e-08
1.4393888e-07
5.2191115e-08
1.3872538e-07
5.0285954e-08
1.3364227e-07
4.8416181e-08
1.2869061e-07
4.6577308e-08
1.2387138e-07
4.4766176e-08
1.191855e-07
4.2980919e-08
1.1463378e-07
4.1220663e-08
1.1021693e-07
3.9485328e-08
1.0593556e-07
3.7775392e-08
1.0179019e-07
3.6091794e-08
9.7781247e-08
3.4435536e-08
9.3908978e-08
3.2808534e-08
9.0173511e-08
3.1211581e-08
8.657418e-08
2.9652674e-08
8.3098681e-08
2.8125922e-08
7.9757252e-08
2.6634251e-08
7.654774e-08
2.5185386e-08
7.3453215e-08
2.377418e-08
7.04837e-08
2.2407185e-08
6.7637651e-08
2.1086663e-08
1.9812789e-08
1.2281742e-07
-1.3466428e-08
1.5037897e-07
-7.0736367e-09
1.8661849e-07
6.988805e-08
2.192917e-07
1.2545941e-07
2.4451076e-07
1.6122679e-07
2.6195758e-07
1.787792e-07
2.7268975e-07
1.8360679e-07
2.78153e-07
1.8043401e-07
2.7967519e-07
1.7276051e-07
2.7838271e-07
1.6302933e-07
2.7515302e-07
1.5272449e-07
2.7058981e-07
1.4261574e-07
2.6513897e-07
1.3317105e-07
2.5911698e-07
1.2460111e-07
2.5273483e-07
1.1692544e-07
2.4615742e-07
1.101134e-07
2.3947785e-07
1.0405901e-07
2.3276295e-07
9.8681764e-08
2.2606562e-07
9.3885018e-08
2.1941879e-07
8.9578485e-08
2.1283807e-07
8.5675237e-08
2.0633818e-07
8.2121655e-08
1.9993026e-07
7.8866797e-08
1.9362226e-07
7.5865574e-08
1.874188e-07
7.3072236e-08
1.8132347e-07
7.0449055e-08
1.7533898e-07
6.7964914e-08
1.6946795e-07
6.5593614e-08
1.637131e-07
6.331337e-08
1.580759e-07
6.1107857e-08
1.5255822e-07
5.8963318e-08
1.471628e-07
5.6868858e-08
1.4189171e-07
5.4815553e-08
1.3674688e-07
5.2797079e-08
1.3173016e-07
5.0809064e-08
1.2684325e-07
4.8848557e-08
1.2208765e-07
4.6913918e-08
1.1746471e-07
4.500452e-08
1.1297556e-07
4.3120548e-08
1.0862124e-07
4.1262755e-08
1.0440261e-07
3.9432352e-08
1.0032041e-07
3.7630624e-08
9.6375172e-08
3.5859772e-08
9.2567266e-08
3.412085e-08
8.8896263e-08
3.2422629e-08
8.5349707e-08
3.0758741e-08
8.193834e-08
2.9132418e-08
7.8660006e-08
2.7552334e-08
7.5497948e-08
2.6012922e-08
7.2462616e-08
2.4521854e-08
6.9552049e-08
2.3080292e-08
2.1689303e-08
1.1982171e-07
-2.4334605e-08
1.3968568e-07
-2.6996355e-08
1.7043208e-07
3.9077055e-08
2.0096748e-07
9.4855723e-08
2.2667028e-07
1.3545103e-07
2.4606058e-07
1.5930945e-07
2.5935243e-07
1.7022675e-07
2.6746277e-07
1.7222418e-07
2.7146355e-07
1.6864642e-07
2.7235107e-07
1.6201231e-07
2.7096126e-07
1.5396671e-07
2.6793065e-07
1.454777e-07
2.6373476e-07
1.3717361e-07
2.5873152e-07
1.2938442e-07
2.5317425e-07
1.2223512e-07
2.4725755e-07
1.1576304e-07
2.4110705e-07
1.0991668e-07
2.3481531e-07
1.0464992e-07
2.2845253e-07
9.9893872e-08
2.220674e-07
9.5579083e-08
2.1569034e-07
9.1636799e-08
2.0934617e-07
8.8018911e-08
2.0305421e-07
8.4680123e-08
1.9682929e-07
8.1580117e-08
1.9068172e-07
7.8677764e-08
1.8461979e-07
7.5937681e-08
1.7865006e-07
7.3330654e-08
1.7277847e-07
7.0831338e-08
1.6700986e-07
6.8419769e-08
1.6134779e-07
6.6079445e-08
1.5579657e-07
6.379735e-08
1.5036007e-07
6.1562759e-08
1.450416e-07
5.9367337e-08
1.3984418e-07
5.7205112e-08
1.3477059e-07
5.5072008e-08
1.2982331e-07
5.2965415e-08
1.2500452e-07
5.088402e-08
1.2031614e-07
4.8827537e-08
1.1575985e-07
4.6796489e-08
1.1133711e-07
4.4791969e-08
1.0704923e-07
4.2815518e-08
1.0289726e-07
4.086876e-08
9.8882087e-08
3.8954214e-08
9.500435e-08
3.7073249e-08
9.126389e-08
3.5235422e-08
8.7648141e-08
3.3433915e-08
8.4168383e-08
3.1672255e-08
8.0822468e-08
2.9960188e-08
7.7593948e-08
2.8291742e-08
7.4493504e-08
2.6675483e-08
7.1518938e-08
2.5111803e-08
2.3602479e-08
1.1855489e-07
-3.0921348e-08
1.3254863e-07
-4.106174e-08
1.5800458e-07
1.3539752e-08
1.8568684e-07
6.7086957e-08
2.1084796e-07
1.1019816e-07
2.3124147e-07
1.3881733e-07
2.4637254e-07
1.54988e-07
2.5664441e-07
1.6183303e-07
2.6281117e-07
1.6234629e-07
2.65711e-07
1.5896246e-07
2.6609852e-07
1.5341071e-07
2.6458402e-07
1.4680292e-07
2.6166367e-07
1.3988015e-07
2.5772127e-07
1.3308678e-07
2.5303918e-07
1.2665056e-07
2.4783719e-07
1.2067538e-07
2.4226933e-07
1.1516836e-07
2.3645122e-07
1.1012167e-07
2.304704e-07
1.0549778e-07
2.2439092e-07
1.0125076e-07
2.1825731e-07
9.7331353e-08
2.1210483e-07
9.3700644e-08
2.0596128e-07
9.0320959e-08
1.9984865e-07
8.7158035e-08
1.9378319e-07
8.4176537e-08
1.8777819e-07
8.1344473e-08
1.8184453e-07
7.8635181e-08
1.7599123e-07
7.6025664e-08
1.7022564e-07
7.3497122e-08
1.6455426e-07
7.103443e-08
1.5898329e-07
6.8624993e-08
1.535181e-07
6.625897e-08
1.4816342e-07
6.3928739e-08
1.4292348e-07
6.162888e-08
1.3780207e-07
5.9355801e-08
1.3280254e-07
5.7107369e-08
1.2792783e-07
5.4882722e-08
1.2318054e-07
5.2682011e-08
1.1856292e-07
5.0506181e-08
1.1407696e-07
4.8356738e-08
1.097244e-07
4.6235615e-08
1.0550672e-07
4.4144833e-08
1.0142516e-07
4.2087272e-08
9.7480679e-08
4.006467e-08
9.3673427e-08
3.8087397e-08
8.9990769e-08
3.6148201e-08
8.6444574e-08
3.4250891e-08
8.3032695e-08
3.2406446e-08
7.9739111e-08
3.0608451e-08
7.6574582e-08
2.8866151e-08
7.3536819e-08
2.7179532e-08
2.5550894e-08
1.1861249e-07
-3.4467839e-08
1.2814626e-07
-5.0680717e-08
1.4875161e-07
-7.1655292e-09
1.7323342e-07
4.2497722e-08
1.9710873e-07
8.6209156e-08
2.1771202e-07
1.1809299e-07
2.3400728e-07
1.3856227e-07
2.4593609e-07
1.4976192e-07
2.5393027e-07
1.541955e-07
2.5862202e-07
1.5409732e-07
2.606654e-07
1.5117493e-07
2.6062597e-07
1.4662893e-07
2.5897485e-07
1.4129437e-07
2.5611066e-07
1.356877e-07
2.5233856e-07
1.3013343e-07
2.4789388e-07
1.2480559e-07
2.4295444e-07
1.1976618e-07
2.3765543e-07
1.1504903e-07
2.3210067e-07
1.1065022e-07
2.2636876e-07
1.0654927e-07
2.2051741e-07
1.0271784e-07
2.1459232e-07
9.9128991e-08
2.0862978e-07
9.5754564e-08
2.0265918e-07
9.256757e-08
1.9670282e-07
8.953959e-08
1.9077929e-07
8.6642968e-08
1.8490382e-07
8.3854825e-08
1.7908856e-07
8.1154511e-08
1.7334415e-07
7.8525851e-08
1.6767992e-07
7.5954675e-08
1.6210399e-07
7.3429837e-08
1.5662351e-07
7.0942549e-08
1.5124475e-07
6.8486145e-08
1.4597325e-07
6.6055982e-08
1.4081392e-07
6.3649144e-08
1.3577109e-07
6.1264131e-08
1.3084854e-07
5.8900659e-08
1.2604959e-07
5.6559426e-08
1.2137717e-07
5.424189e-08
1.1683381e-07
5.1950045e-08
1.1242178e-07
4.9686285e-08
1.0814301e-07
4.7453093e-08
1.0399915e-07
4.5253756e-08
9.9991535e-08
4.309044e-08
9.6120634e-08
4.0974366e-08
9.2373801e-08
3.8897864e-08
8.8763553e-08
3.6864995e-08
8.5287732e-08
3.4888167e-08
8.1930838e-08
3.2960446e-08
7.8703595e-08
3.1091585e-08
7.5603747e-08
2.9281475e-08
2.7532801e-08
1.1969258e-07
-3.5911089e-08
1.2584493e-07
-5.6932348e-08
1.4214689e-07
-2.3587593e-08
1.6333692e-07
2.1176771e-08
1.8542375e-07
6.3983524e-08
2.0559862e-07
9.7771154e-08
2.224541e-07
1.2155001e-07
2.3554762e-07
1.3649955e-07
2.4500601e-07
1.445538e-07
2.5124705e-07
1.4765611e-07
2.5478639e-07
1.4741627e-07
2.5613159e-07
1.4504294e-07
2.5572373e-07
1.4143831e-07
2.5393778e-07
1.3718406e-07
2.5109071e-07
1.326654e-07
2.4743303e-07
1.281212e-07
2.4315858e-07
1.2367111e-07
2.384177e-07
1.1939018e-07
2.3332868e-07
1.1530885e-07
2.2798328e-07
1.1143313e-07
2.2245124e-07
1.0775678e-07
2.167883e-07
1.0426683e-07
2.1103906e-07
1.0094634e-07
2.0524033e-07
9.7776726e-08
1.9942051e-07
9.47373e-08
1.9360367e-07
9.1806211e-08
1.8780895e-07
8.8964461e-08
1.8205256e-07
8.6195379e-08
1.7634853e-07
8.3484913e-08
1.7070876e-07
8.0821083e-08
1.6514362e-07
7.8194409e-08
1.5966218e-07
7.5597505e-08
1.5427237e-07
7.302492e-08
1.4898115e-07
7.0473027e-08
1.4379467e-07
6.793979e-08
1.387183e-07
6.5424502e-08
1.3375676e-07
6.2927601e-08
1.2891417e-07
6.0450441e-08
1.2419416e-07
5.7995094e-08
1.1959992e-07
5.5564129e-08
1.1513426e-07
5.316047e-08
1.1079964e-07
5.0787126e-08
1.0659815e-07
4.8447848e-08
1.0253153e-07
4.6145291e-08
9.8600625e-08
4.3891583e-08
9.4792831e-08
4.1678645e-08
9.1121377e-08
3.951074e-08
8.7584067e-08
3.7401955e-08
8.4165997e-08
3.5344694e-08
8.0877781e-08
3.3349122e-08
7.7717292e-08
3.1415264e-08
2.9546102e-08
1.2155466e-07
-3.594529e-08
1.2515278e-07
-6.0644269e-08
1.3772942e-07
-3.6305899e-08
1.5570728e-07
3.0420928e-09
1.7569949e-07
4.3824273e-08
1.9495686e-07
7.8337377e-08
2.1185387e-07
1.0446618e-07
2.2565229e-07
1.2250195e-07
2.362093e-07
1.33783e-07
2.4373179e-07
1.3990293e-07
2.4858801e-07
1.4231017e-07
2.5120068e-07
1.4215883e-07
2.5197122e-07
1.4037327e-07
2.5124276e-07
1.3759306e-07
2.4932343e-07
1.3423954e-07
2.4646886e-07
1.3060322e-07
2.4288475e-07
1.268551e-07
2.3873332e-07
1.2311074e-07
2.3414427e-07
1.1943653e-07
2.2922042e-07
1.1586452e-07
2.2404214e-07
1.1241104e-07
2.1867449e-07
1.0907843e-07
2.1316991e-07
1.0586236e-07
2.0757253e-07
1.0275376e-07
2.0191688e-07
9.9740001e-08
1.9623169e-07
9.6806414e-08
1.9054116e-07
9.3938764e-08
1.8486535e-07
9.1124466e-08
1.7922149e-07
8.8352543e-08
1.736243e-07
8.5613606e-08
1.6808654e-07
8.2900261e-08
1.6261933e-07
8.0206864e-08
1.5723236e-07
7.7529456e-08
1.5193413e-07
7.4865672e-08
1.4673209e-07
7.2214562e-08
1.4163276e-07
6.9576387e-08
1.3664185e-07
6.6952447e-08
1.3176438e-07
6.4344882e-08
1.2700473e-07
6.1756481e-08
1.2236679e-07
5.9190471e-08
1.1785401e-07
5.6650387e-08
1.1346938e-07
5.413983e-08
1.0921552e-07
5.1663076e-08
1.0509459e-07
4.9223332e-08
1.0110785e-07
4.6833711e-08
9.724281e-08
4.448573e-08
9.3513491e-08
4.2183787e-08
8.9917602e-08
3.9943931e-08
8.6440901e-08
3.7757715e-08
8.309384e-08
3.5635671e-08
7.9874511e-08
3.3578137e-08
3.1588323e-08
1.2400875e-07
-3.5072266e-08
1.2568865e-07
-6.245287e-08
1.3510262e-07
-4.5884312e-08
1.5005637e-07
-1.2096573e-08
1.6780151e-07
2.5880819e-08
1.8578669e-07
6.0142792e-08
2.0229679e-07
8.7735341e-08
2.163863e-07
1.0817892e-07
2.2768892e-07
1.2223209e-07
2.3621783e-07
1.311088e-07
2.4219624e-07
1.360474e-07
2.4593541e-07
1.3811397e-07
2.4778732e-07
1.3819246e-07
2.4807347e-07
1.3695342e-07
2.4706878e-07
1.3486517e-07
2.4502151e-07
1.322442e-07
2.4214324e-07
1.292987e-07
2.3860413e-07
1.2618486e-07
2.3454225e-07
1.2300291e-07
2.3007011e-07
1.1981026e-07
2.252766e-07
1.1664673e-07
2.2023497e-07
1.1353029e-07
2.1500524e-07
1.1047003e-07
2.0963755e-07
1.0746732e-07
2.0417278e-07
1.0451828e-07
1.9864481e-07
1.0161594e-07
1.9308218e-07
9.8751702e-08
1.8750891e-07
9.591758e-08
1.8194555e-07
9.3106257e-08
1.7640972e-07
9.0311395e-08
1.7091666e-07
8.7528082e-08
1.6547964e-07
8.4752759e-08
1.6011019e-07
8.1983241e-08
1.5481844e-07
7.9218667e-08
1.4961322e-07
7.6459389e-08
1.4450227e-07
7.3706811e-08
1.394924e-07
7.0963249e-08
1.3458953e-07
6.8231754e-08
1.297989e-07
6.5515941e-08
1.2512515e-07
6.2819791e-08
1.205724e-07
6.0147525e-08
1.1614425e-07
5.7503406e-08
1.1184388e-07
5.4892296e-08
1.0767393e-07
5.2318027e-08
1.0363608e-07
4.9794793e-08
9.9718024e-08
4.7313726e-08
9.5934704e-08
4.4879264e-08
9.228363e-08
4.2509726e-08
8.875127e-08
4.0195562e-08
8.5347905e-08
3.7947695e-08
8.2071914e-08
3.576692e-08
3.3656581e-08
1.2690957e-07
-3.3646067e-08
1.2716003e-07
-6.2847254e-08
1.3393068e-07
-5.2843271e-08
1.4611125e-07
-2.4492176e-08
1.6157278e-07
1.0186819e-08
1.7804682e-07
4.3422784e-08
1.9383004e-07
7.1693526e-08
2.078507e-07
9.3886233e-08
2.1956957e-07
1.1022617e-07
2.2883089e-07
1.2154344e-07
2.3571813e-07
1.288371e-07
2.4043954e-07
1.3304841e-07
2.4326546e-07
1.3499942e-07
2.4448702e-07
1.3534013e-07
2.4436527e-07
1.3456972e-07
2.4311839e-07
1.3304723e-07
2.4095065e-07
1.3099367e-07
2.3803717e-07
1.2859553e-07
2.3452262e-07
1.2598435e-07
2.3052676e-07
1.2324246e-07
2.2614485e-07
1.2043387e-07
2.21457e-07
1.1759166e-07
2.1652972e-07
1.1473874e-07
2.114189e-07
1.1188752e-07
2.0617114e-07
1.0904329e-07
2.0082528e-07
1.0620728e-07
1.9541411e-07
1.0337722e-07
1.8996549e-07
1.005502e-07
1.845033e-07
9.7723073e-08
1.7904809e-07
9.4892972e-08
1.7361764e-07
9.2057846e-08
1.682274e-07
8.9216549e-08
1.6289085e-07
8.6368947e-08
1.5761977e-07
8.3515932e-08
1.5242448e-07
8.0659362e-08
1.4731401e-07
7.7801967e-08
1.4229627e-07
7.4947231e-08
1.3737822e-07
7.2099252e-08
1.3256598e-07
6.926258e-08
1.2786498e-07
6.6442047e-08
1.2328007e-07
6.3642641e-08
1.1881555e-07
6.086935e-08
1.1447515e-07
5.8127685e-08
1.1026205e-07
5.5422176e-08
1.0617836e-07
5.2768231e-08
1.0221208e-07
5.0156616e-08
9.8379172e-08
4.7591768e-08
9.4676808e-08
4.5094468e-08
9.1092213e-08
4.2653796e-08
8.7635526e-08
4.028117e-08
8.4305442e-08
3.7978003e-08
1.3014949e-07
-3.1910523e-08
1.2934564e-07
-6.2202851e-08
1.3393426e-07
-5.764502e-08
1.436222e-07
-3.4427128e-08
1.5684739e-07
-3.3077388e-09
1.7166745e-07
2.8316741e-08
1.8646592e-07
5.6594619e-08
2.0011478e-07
7.9922533e-08
2.1195204e-07
9.8058597e-08
2.2168262e-07
1.1146549e-07
2.2926322e-07
1.2089019e-07
2.3480138e-07
1.2712309e-07
2.3849141e-07
1.3089958e-07
2.405633e-07
1.3283414e-07
2.4126036e-07
1.3341296e-07
2.4079053e-07
1.3303119e-07
2.3932941e-07
1.3194e-07
2.3704631e-07
1.3033392e-07
2.3409092e-07
1.2836518e-07
2.3058959e-07
1.2613934e-07
2.266412e-07
1.237472e-07
2.223311e-07
1.212353e-07
2.1773113e-07
1.1864046e-07
2.129023e-07
1.1598625e-07
2.078963e-07
1.1328736e-07
2.0275658e-07
1.1055358e-07
1.9751994e-07
1.0778953e-07
1.9221793e-07
1.0499779e-07
1.8687767e-07
1.0217977e-07
1.8152259e-07
9.9336447e-08
1.7617302e-07
9.6468987e-08
1.7084665e-07
9.3578962e-08
1.6555893e-07
9.0668556e-08
1.6032335e-07
8.7740647e-08
1.5515175e-07
8.4798809e-08
1.500545e-07
8.1847272e-08
1.4504071e-07
7.8890843e-08
1.4011837e-07
7.5934799e-08
1.3529454e-07
7.2984743e-08
1.3057552e-07
7.0046455e-08
1.2596694e-07
6.7125769e-08
1.2147379e-07
6.4228459e-08
1.1710048e-07
6.1360739e-08
1.1285072e-07
5.8527911e-08
1.0872705e-07
5.5746752e-08
1.0471789e-07
5.3007738e-08
1.0084039e-07
5.0315365e-08
9.7091138e-08
4.7692785e-08
9.3458195e-08
4.5127467e-08
8.9951649e-08
4.2631534e-08
4.0207021e-08
1.3365065e-07
-3.0028954e-08
1.3207977e-07
-6.0807193e-08
1.3488546e-07
-6.0689509e-08
1.4236722e-07
-4.2189553e-08
1.5346063e-07
-1.4710014e-08
1.6656087e-07
1.4887125e-08
1.8018989e-07
4.2619338e-08
1.9322057e-07
6.6529813e-08
2.0491467e-07
8.5986308e-08
2.1486932e-07
1.0111534e-07
2.2293198e-07
1.1241314e-07
2.2911611e-07
1.2050396e-07
2.335396e-07
1.2601876e-07
2.3637393e-07
1.2951854e-07
2.3782324e-07
1.3145705e-07
2.3808121e-07
1.3224135e-07
2.3730447e-07