/*--------------------------------*- C++ -*----------------------------------*\
| =========                 |                                                 |
| \\      /  F ield         | OpenFOAM: The Open Source CFD Toolbox           |
|  \\    /   O peration     | Version:  2312                                  |
|   \\  /    A nd           | Website:  www.openfoam.com                      |
|    \\/     M anipulation  |                                                 |
\*---------------------------------------------------------------------------*/
FoamFile
{
    version     2.0;
    format      ascii;
    arch        "LSB;label=32;scalar=64";
    class       volScalarField;
    location    "0.01";
    object      Qdot;
}
// * * * * * * * * * * * * * * * * * * * * * * * * * * * * * * * * * * * * * //

dimensions      [1 -1 -3 0 0 0 0];

internalField   nonuniform List<scalar> 
3275
(
74646986
5.0704682e+08
8.0784846e+08
8.7116011e+08
8.2965176e+08
7.5874127e+08
6.8452739e+08
6.1239333e+08
5.4340227e+08
4.7775375e+08
4.1658146e+08
3.6118751e+08
3.1240825e+08
2.7045172e+08
2.349892e+08
2.0535708e+08
1.8075027e+08
1.6036161e+08
1.434617e+08
1.2946431e+08
1.1795205e+08
1.087125e+08
1.0039637e+08
93401273
87501225
82502413
78250574
74621676
71515154
68847552
66673913
64778429
63129220
61755411
60641846
59784057
59188051
58870439
58858846
59192577
59923503
61117155
62854011
65227637
68232241
72164311
77166389
83118672
90347574
99130570
1.0929181e+08
1.2103025e+08
1.939274e+08
8.1665353e+08
1.0526451e+09
1.025292e+09
9.2259877e+08
8.1522395e+08
7.1869452e+08
6.3256738e+08
5.5498737e+08
4.8412553e+08
4.1990598e+08
3.6279775e+08
3.1308896e+08
2.7065225e+08
2.3495822e+08
2.052271e+08
1.8058814e+08
1.602004e+08
1.4331364e+08
1.2934486e+08
1.1788353e+08
1.0862142e+08
1.0032051e+08
93345382
87460015
82472874
78230561
74609579
71509909
68848813
66679910
64785662
63140219
61769477
60658505
59802953
59208898
58893007
58882940
59218019
59950107
61144665
62881902
65255440
68263051
72194096
77196213
83147852
90375976
99156530
1.0931336e+08
1.2104242e+08
7.6840095e+08
1.6597072e+09
1.6143374e+09
1.3472929e+09
1.1068619e+09
9.2508523e+08
7.8409986e+08
6.7062208e+08
5.7662017e+08
4.9588254e+08
4.2595652e+08
3.6566677e+08
3.1424664e+08
2.7093652e+08
2.3483039e+08
2.0493116e+08
1.802452e+08
1.5987005e+08
1.4301491e+08
1.2902931e+08
1.1783001e+08
1.0843721e+08
1.0018113e+08
93243954
87388168
82424765
78201869
74597019
71511281
68863492
66704151
64812799
63174921
61810456
60704852
59853985
59264102
58951996
58945429
59283792
60018982
61216415
62956044
65331692
68343536
72276436
77280485
83232954
90461893
99239652
1.0938921e+08
1.2110394e+08
3.1107279e+09
3.4532309e+09
2.5632804e+09
1.8250841e+09
1.362323e+09
1.0768344e+09
8.7178586e+08
7.2144444e+08
6.0501836e+08
5.1099494e+08
4.3353257e+08
3.6909687e+08
3.1547463e+08
2.7106597e+08
2.3446397e+08
2.0438376e+08
1.7966782e+08
1.5933692e+08
1.4255117e+08
1.2866813e+08
1.1762021e+08
1.0815247e+08
99972897
93093249
87282594
82355550
78162409
74582206
71517643
68890648
66745353
64859121
63232626
61877709
60780306
59936632
59353190
59046976
59045916
59389529
60129791
61332117
63076285
65456306
68473864
72411049
77418901
83373620
90604997
99379782
1.0951981e+08
1.2121547e+08
1.1998127e+10
6.4243546e+09
3.6659884e+09
2.3612204e+09
1.6573545e+09
1.231664e+09
9.6427212e+08
7.7680204e+08
6.3522131e+08
5.2651676e+08
4.409405e+08
3.7211718e+08
3.1620896e+08
2.7070988e+08
2.3366209e+08
2.0346612e+08
1.7878087e+08
1.5855297e+08
1.4188432e+08
1.2821969e+08
1.1725201e+08
1.0776487e+08
99689761
92888143
87139129
82261900
78109512
74562923
71526907
68929503
66802037
64923950
63312743
61970750
60884488
60050607
59475957
59177812
59184329
59535209
60282558
61491844
63242754
65629447
68654394
72598056
77611570
83569917
90805309
99576963
1.0970541e+08
1.2137722e+08
1.8696713e+10
7.8024859e+09
4.292654e+09
2.7311365e+09
1.8836779e+09
1.3627039e+09
1.0352738e+09
8.1866376e+08
6.5990523e+08
5.383748e+08
4.4600588e+08
3.7358282e+08
3.1585724e+08
2.6957669e+08
2.3229251e+08
2.0212965e+08
1.7757402e+08
1.575278e+08
1.4101372e+08
1.2770669e+08
1.1672691e+08
1.0729984e+08
99345749
92637724
86963432
82146764
78043907
74537955
71535619
68976632
66868137
65001589
63408627
62082137
61009273
60187190
59623143
59334745
59350430
59710128
60466115
61683956
63443323
65838471
68872118
72823850
77844438
83807482
91048067
99816559
1.0993213e+08
1.2157682e+08
1.3266789e+09
5.0803715e+09
3.9442906e+09
2.7309387e+09
1.9451229e+09
1.4289009e+09
1.0777025e+09
8.3864054e+08
6.7174694e+08
5.4378788e+08
4.4729136e+08
3.727309e+08
3.1400856e+08
2.6745145e+08
2.3024528e+08
2.0032316e+08
1.7602219e+08
1.5625601e+08
1.400579e+08
1.270078e+08
1.1604704e+08
1.0676402e+08
98943850
92343489
86755825
82009469
77964085
74505066
71539917
69029779
66938869
65087902
63515748
62206997
61149492
60340943
59789064
59511851
59538061
59907886
60673806
61901516
63670723
66075733
69119195
73080230
78108989
84077531
91324135
1.000893e+08
1.1019085e+08
1.2180566e+08
18811085
1.6162032e+09
2.6547596e+09
2.3460436e+09
1.8197735e+09
1.392386e+09
1.0745852e+09
8.3811332e+08
6.6855751e+08
5.3892053e+08
4.4362062e+08
3.6876432e+08
3.1007354e+08
2.6390141e+08
2.2719483e+08
1.978068e+08
1.7393289e+08
1.5458488e+08
1.3891255e+08
1.2600473e+08
1.1518943e+08
1.0610165e+08
98444196
91975761
86494679
81834898
77860265
74458926
71535492
69094451
67016396
65188474
63641442
62354229
61315407
60523329
59986259
59722653
59761660
60143794
60921788
62161509
63942738
66359801
69415025
73387314
78425969
84401215
91655047
1.0041633e+08
1.1050144e+08
1.22081e+08
245699.06
2.919087e+08
1.277051e+09
1.6538849e+09
1.5182896e+09
1.2515539e+09
1.0069257e+09
8.0522765e+08
6.4743109e+08
5.2490036e+08
4.3166109e+08
3.6072469e+08
3.034263e+08
2.5853498e+08
2.2288224e+08
1.9442156e+08
1.7118168e+08
1.5260547e+08
1.3732371e+08
1.2467299e+08
1.1413648e+08
1.0528806e+08
97828223
91520174
86168787
81614345
77725812
74395183
71531879
69155273
67096345
65302359
63785378
62524037
61507680
60735414
60216148
59968891
60023254
60420143
61212596
62466694
64262321
66693804
69762929
73748561
78798931
84782136
92044374
1.0080098e+08
1.1086689e+08
1.2240516e+08
5593.9003
38186509
4.5692727e+08
9.5109311e+08
1.1046181e+09
1.0302737e+09
8.82449e+08
7.3504871e+08
6.0581978e+08
4.9817251e+08
4.1323327e+08
3.4686757e+08
2.9340816e+08
2.5099584e+08
2.1705373e+08
1.9002238e+08
1.6786742e+08
1.4994928e+08
1.3523053e+08
1.2303002e+08
1.128502e+08
1.0429528e+08
97074589
90960097
85765054
81337508
77552698
74307444
71522551
69208276
67179084
65427781
63946755
62716259
61726688
60978043
60479992
60252191
60324805
60739195
61548768
62819860
64632486
67080945
70166300
74167511
79231503
85223953
92495737
1.0124651e+08
1.1129007e+08
1.2278024e+08
262.4819
4455273.5
1.3082857e+08
4.5338524e+08
6.9903728e+08
7.6635006e+08
7.2171591e+08
6.3420736e+08
5.4374304e+08
4.585648e+08
3.8646755e+08
3.2780332e+08
2.7980416e+08
2.4103325e+08
2.0967359e+08
1.8436036e+08
1.6360135e+08
1.4664742e+08
1.3265896e+08
1.2102593e+08
1.1129071e+08
1.0309275e+08
96159467
90276739
85268495
80992429
77331448
74187234
71502458
69247811
67263028
65562649
64124270
62930310
61972468
61251794
60778846
60574038
60668175
61103161
61932827
63223815
65056288
67524496
70628603
74647778
79727373
85730368
93012795
1.0175608e+08
1.1177372e+08
1.2320814e+08
23.964798
538601.94
32412212
1.8475108e+08
3.8789183e+08
5.1455241e+08
5.4600343e+08
5.1750034e+08
4.6569037e+08
4.0750695e+08
3.5189855e+08
3.035205e+08
2.6253948e+08
2.2851197e+08
2.0044908e+08
1.774059e+08
1.5835574e+08
1.4262349e+08
1.2954648e+08
1.1861098e+08
1.0941749e+08
1.0164821e+08
95057042
89449414
84662327
80565493
77051242
74023335
71468961
69265053
67345589
65704245
64316028
63165103
62244643
61556917
61113511
60935719
61055092
61514159
62367250
63681352
65536801
68027767
71153349
75193023
80290260
86305070
93599083
1.0233276e+08
1.1232033e+08
1.236904e+08
3.742858
73969.661
7455375
66756608
1.9171096e+08
3.1332022e+08
3.8194999e+08
3.9767367e+08
3.8046057e+08
3.4802619e+08
3.1095738e+08
2.7460213e+08
2.4184206e+08
2.1347591e+08
1.8936159e+08
1.690877e+08
1.5207283e+08
1.3781758e+08
1.2583888e+08
1.1573886e+08
1.0719115e+08
99928991
93740203
88455976
83928174
80041473
76700370
73823903
71389149
69259170
67421265
65848913
64519432
63418963
62542347
61893256
61484462
61338270
61487092
61974176
62854421
64195216
66077078
68594072
71744053
75806908
80923860
86951681
94257855
1.0297957e+08
1.1293212e+08
1.2422812e+08
0.87863766
12066.353
1687138.1
22191748
86084943
1.7459365e+08
2.477552e+08
2.8712608e+08
2.9626658e+08
2.8580125e+08
2.6573767e+08
2.4210684e+08
2.1826811e+08
1.9617051e+08
1.7650526e+08
1.5940993e+08
1.4473268e+08
1.321936e+08
1.2149539e+08
1.1237019e+08
1.0457575e+08
97903512
92181454
87273483
83046393
79403544
76263665
73578444
71250037
69227119
67484066
65992060
64731083
63689526
62864131
62260169
61891771
61782399
61965452
62484995
63396579
64768041
66680100
69226672
72404186
76493044
81631782
87673689
94992215
1.0369916e+08
1.1361082e+08
1.2482184e+08
0.27881309
2367.1483
392358.46
7021601.9
35876050
90092786
1.498567e+08
1.9519272e+08
2.1943168e+08
2.2557681e+08
2.1973706e+08
2.0753652e+08
1.9254848e+08
1.7704185e+08
1.6209972e+08
1.4846009e+08
1.3636473e+08
1.2574668e+08
1.1649393e+08
1.0847647e+08
1.0154142e+08
95543204
90353957
85879147
81996570
78633662
75750069
73238457
71052576
69160015
67526871
66128070
64946674
63973638
63207859
62656426
62335014
62268403
62491108
63048125
63995739
65402289
67348704
69928709
73137102
77254905
82417460
88474350
95804963
1.0449372e+08
1.1435756e+08
1.2547137e+08
0.11042125
555.01995
96596.02
2177668.9
14170478
43623926
85159500
1.2541127e+08
1.5477773e+08
1.7084194e+08
1.757431e+08
1.7299056e+08
1.6589653e+08
1.565215e+08
1.464863e+08
1.3641092e+08
1.2705543e+08
1.1850934e+08
1.10836e+08
1.0404399e+08
98067281
92824722
88232603
84251681
80758134
77741176
75103349
72796561
70790067
69047739
67541357
66250214
65160890
64267243
63570600
63080102
62813167
62796061
63064560
63664707
64653606
66100155
68085499
70703113
73945944
78095731
83284033
89356557
96698431
1.0536478e+08
1.1517257e+08
1.2617555e+08
0.051517038
153.16619
25629.218
678019.69
5408979.1
20092519
45861942
76537687
1.0422645e+08
1.242563e+08
1.3577367e+08
1.4014877e+08
1.3946629e+08
1.3562358e+08
1.3002393e+08
1.2347907e+08
1.1695102e+08
1.1055535e+08
1.0455031e+08
99077405
94144334
89732524
85794738
82373297
79342233
76658367
74311011
72250919
70449318
68878951
67517965
66350571
65367302
64565265
63948503
63528451
63324480
63364520
63685756
64335399
65371465
66863460
68892751
71552493
74833527
79018399
84234193
90322668
97674292
1.0631307e+08
1.1635787e+08
1.2693205e+08
0.027174689
48.825552
7392.5777
215826.5
2029817.2
8919416.6
23621288
44629909
67231887
86931653
1.013721e+08
1.1023989e+08
1.1437967e+08
1.15007e+08
1.1331266e+08
1.1011929e+08
1.0620331e+08
1.0196119e+08
97694426
93602679
89777988
86262023
83065219
80216790
77665595
75386796
73369323
71585966
70016138
68641131
67445877
66419965
65558273
64861493
64336669
63997774
63866343
63972151
64353949
65060239
66150036
67693510
69772244
72478989
75802187
80025257
85269990
91374291
98733317
1.073383e+08
1.1729763e+08
1.2773699e+08
0.015739988
17.644685
2323.1142
71153.356
759785.21
3863000.1
11742106
25022344
41710706
58637098
73223125
84202637
91434855
95432559
96903475
96580024
95108504
92921892
90362624
87669210
84989707
82414595
79996757
77776935
75750001
73911993
72260844
70785537
69475494
68320660
67313030
66447913
65724865
65148462
64729012
64483262
64435121
64616391
65067539
65838478
66989314
68590924
70725099
73484088
76853600
81117923
86392576
92512019
99875048
1.0843853e+08
1.1829853e+08
1.2858383e+08
0.0098054595
7.1070137
793.85431
24498.082
286977.69
1650081.8
5682782.7
13575953
24998215
38239593
51248894
62497427
71247763
77418153
81304055
83277071
83921684
83616819
82674379
81349109
79818569
78206607
76596362
75046282
73582214
72219806
70969358
69833441
68811784
67902971
67106171
66422613
65856769
65417334
65118112
64978838
65025985
65293554
65823874
66668383
67888359
69555421
71751555
74568396
77988545
82297049
87601881
93735103
1.0109745e+08
1.096098e+08
1.1935342e+08
0.0064704488
3.1436141
293.80805
8850.3965
110346.36
701618.57
2699151.2
7172570.7
14539258
24185098
34823028
45123555
54136575
61401789
66864406
70574732
72935372
74246144
74770222
74735176
74321236
73668965
72879261
72025507
71154621
70298694
69480372
68714032
68009194
67372764
66810960
66330955
65942243
65657792
65495071
65476974
65632705
65998617
66619026
67547001
68845050
70585563
72850689
75731344
79206630
83562063
88896161
95041071
1.0239652e+08
1.1084565e+08
1.2045103e+08
0.0044723609
1.5077285
117.1871
3362.6724
43466.683
299230.53
1267168.4
3711966.4
8243549.8
14882998
23021855
31733494
40137402
47616139
53859207
58772542
62408385
65037224
66807294
67937228
68570478
68846642
68870766
68723978
68465985
68140944
67781820
67412827
67052146
66714296
66412133
66158577
65968088
65857944
65849361
65968506
66247437
66724975
67447531
68469875
69855788
71678428
74020072
76970826
80505951
84910943
90271358
96425277
1.0376586e+08
1.1213706e+08
1.2158329e+08
0.0032115338
0.77567802
50.101584
1344.8001
17620.461
128778.7
591608.85
1891877.2
4576235.9
8940480.3
14842614
21770491
29063183
36122068
42523904
48030441
52579412
56162850
58966578
61079512
62652195
63797518
64606936
65160238
65522162
65743695
65864867
65917184
65925813
65911743
65893725
65889969
65919652
66004243
66168680
66442435
66860479
67464171
68302079
69430718
70915144
72829242
75255350
78282720
81882660
86340251
91720020
97880411
1.0519618e+08
1.1373526e+08
1.2273447e+08
0.0023785481
0.42416614
22.835825
565.92201
7375.8404
56206.596
276133.53
954217.69
2497471.9
5259755.1
9354725.9
14595076
20576637
26825016
32918500
38549632
43545788
47842026
51353927
54316477
56661872
58590429
60134296
61362158
62336629
63109779
63724686
64217009
64616698
64949637
65239365
65508641
65780877
66081438
66438822
66885725
67460010
68205582
69173174
70421033
72015441
74030916
76549738
79660279
83330323
87846025
93229194
99396056
1.066746e+08
1.1508387e+08
0.0018090425
0.24463758
11.037808
250.32319
3195.6552
24984.834
129470
478460.86
1345286.7
3040359.6
5778581.3
9580125.3
14263884
19518539
24997318
30392657
35479963
40133467
44165586
47716138
50726953
53302267
55508782
57366577
58930709
60248361
61361183
62305471
63113264
63813363
64432637
64997344
65534398
66072560
66643557
67283103
68031824
68936091
70048740
71429673
73146280
75273535
77893427
81093316
84838440
89427443
94775622
1.0095884e+08
1.0818327e+08
1.1643619e+08
0.0014071963
0.14783788
5.6296105
116.18852
1435.1377
11350.555
61243.282
239538.57
718062.71
1732573.9
3507986.3
6169868.6
9696386.1
13930486
18633167
23545612
28438389
33135868
37495096
41407452
44934577
48039710
50794103
53218333
55333429
57175284
58779603
60179674
61406577
62489719
63457513
64338369
65161703
65958951
66764550
67616868
68559043
69639721
70913689
72442346
74293989
76543759
79272960
82567290
86387550
91032521
96371391
1.0255467e+08
1.0969863e+08
1.1776723e+08
0.0011153739
0.093087408
3.0156228
56.474096
668.52198
5284.3176
29337.764
120225.3
381245.51
976627.22
2098742.8
3907456
6474963.5
9764317.2
13645493
17933852
22431831
26958774
31360327
35537645
39326563
42886008
46073139
48968420
51580955
53913100
55990970
57841248
59490954
60967515
62298853
63513916
64643366
65720357
66781318
67866733
69021841
70297259
71749454
73441070
75441005
77824171
80670644
84063686
87958419
92652117
97987762
1.0415509e+08
1.1141564e+08
1.1904379e+08
0.00089804544
0.060776496
1.6892959
28.678867
323.04273
2526.2012
14277.977
60716.718
202083.62
546355.29
1240978.9
2439180.5
4255243.9
6731054.9
9827388.3
13438615
17419998
21615049
25875838
30094364
34059660
37850644
41436367
44676577
47715746
50490790
53012263
55296840
57364559
59238189
60942965
62506544
63959359
65335098
66671255
68009696
69397197
70885877
72533499
74403573
76565193
79092522
82063740
85558917
89526969
94263850
99592280
1.057244e+08
1.1283122e+08
1.2022475e+08
0.00073389221
0.040975316
0.98568961
15.179071
161.86123
1241.8066
7078.1456
30955.077
107305.36
304321
727297.91
1504425.1
2757525.1
4570378.4
6968320.9
9915257.6
13325479
17082718
21059488
25136873
29190723
33061190
36879922
40429373
43784886
46943051
49866327
52558437
55029929
57296428
59378207
61299701
63089460
64780329
66409730
68019997
69658681
71378783
73238821
75302678
77639111
80320890
83423482
87022991
91061992
95834784
1.011458e+08
1.0742368e+08
1.141398e+08
1.2126035e+08
0.00060622305
0.028423918
0.59689823
8.3525034
84.024986
628.20452
3581.642
15976.749
57256.342
169287.56
423655.53
919026.77
1765626.5
3061623.4
4870812.9
7209783.3
10047204
13312778
16911196
20738759
24698387
28590669
32464532
36269163
39862816
43309163
46581546
49643456
52494402
55140749
57595633
59878332
62013767
64032414
65970316
67869160
69776337
71744926
73833505
76105689
78629260
81474817
84714086
88418286
92523955
97321781
1.0260083e+08
1.0877376e+08
1.1528633e+08
1.2209161e+08
0.00050660824
0.020223643
0.37388574
4.7663966
45.140558
327.15186
1852.7607
8367.4924
30784.592
94315.752
245941.62
557381.31
1119314.7
2026802.8
3360746.1
5171878
7472248.2
10235274
13402600
16895226
20623511
24479535
28300452
32187881
36012649
39636720
43191349
46574585
49770407
52774026
55589655
58229563
60713328
63067449
65325148
67526191
69716690
71948821
74280350
76773842
79495362
82512471
85891838
89698427
93864477
98670554
1.0407851e+08
1.0993455e+08
1.1620538e+08
1.2264988e+08
0.00042713743
0.014716689
0.24150136
2.8137895
25.062601
175.3702
980.79986
4455.1976
16717.894
52762.138
142646.96
336396.52
703972.73
1328234.6
2292088.4
3663952.1
5485897.3
7767642.3
10486842
13594608
17023729
20700083
24440029
28285091
32209280
35998887
39731103
43379233
46875535
50203957
53358696
56343465
59170899
61861942
64445484
66957970
69442958
71950562
74536687
77261912
80189764
83383950
86904544
90807023
95027222
99813539
1.0513388e+08
1.1083399e+08
1.1682108e+08
1.2285705e+08
0.0003628883
0.010926076
0.16040643
1.7142328
14.358781
96.721347
531.64176
2415.0122
9188.1072
29704.312
82852.599
202477.49
440117.64
863122.87
1547393.9
2566324
3979255.2
5822359.3
8104168.6
10805904
13885414
17281882
20907209
24607575
28503264
32432294
36254937
40089586
43832548
47443426
50905836
54213872
57371845
60393698
63302495
66129904
68915531
71706113
74554468
77518079
80657056
84030851
87692333
91674476
95953112
1.0081127e+08
1.0588639e+08
1.1138899e+08
1.1704743e+08
1.2262639e+08
0.00031025193
0.0082584324
0.1092744
1.0752315
8.4745703
54.843143
295.13082
1334.075
5118.5847
16862.073
48289.946
121788.67
274033.48
557089.56
1035481.7
1779207.2
2854289.1
4313237.2
6188164.9
8486923.3
11193473
14271019
17668301
21203812
24976610
28917165
32819085
36741664
40669083
44510702
48239424
51839252
55305173
58642913
61868344
65006913
68092825
71168008
74280795
77484257
80834046
84385821
88194162
92204687
96657085
1.0129175e+08
1.0625245e+08
1.11506e+08
1.1678965e+08
1.2186448e+08
0.00026720135
0.006342559
0.076168014
0.69278304
5.1435766
31.939187
167.76174
751.45529
2893.7737
9666.7641
28293.54
73338.455
170220.98
357693.9
687775.05
1222279.1
2026288.8
3160007.6
4670805.2
6587708.6
8918186.7
11649139
14753868
18087376
21659848
25500721
29456112
33389736
37417053
41429493
45373618
49223614
52964712
56593516
60117588
63554828
66932612
70286572
73659050
77097135
80650245
84367171
88292577
92459331
96782517
1.0132288e+08
1.0612646e+08
1.1108289e+08
1.1594684e+08
1.2047427e+08
0.00023090633
0.0049404461
0.054200508
0.45751277
3.2045997
19.081398
97.599572
431.70013
1661.5639
5603.5303
16689.419
44283.225
105651.36
228802.33
454010.56
832937.02
1424920.1
2290939.2
3486508.5
5055027.6
7022578.6
9396207.8
12161400
15269446
18602556
22261497
26148174
30080193
34112989
38228957
42328816
46377429
50350396
54234748
58028946
61742255
65393912
69011820
72630789
76290313
80031813
83895217
88012153
92087400
96383696
1.0079897e+08
1.053994e+08
1.1001437e+08
1.1441614e+08
1.1835957e+08
0.00020084736
0.0038960391
0.039294214
0.30903264
2.0457141
11.678783
58.071202
252.91164
969.39244
3287.2601
9922.6478
26847.601
65611.511
145994.08
298200.52
563618.11
993378.45
1644570.6
2574665.8
3835234.4
5466161.9
7490938.4
9914916.4
12724846
15810143
19219973
22939947
26847072
30808837
34943161
39131902
43318490
47469631
51562954
55587434
59542959
63439555
67296110
71138472
74997001
78903535
82967826
87052463
91125237
95356865
99612574
1.0396327e+08
1.0819533e+08
1.1209814e+08
1.1543096e+08
0.00017493619
0.0031071068
0.028967024
0.21306426
1.3355946
7.3122549
35.303568
151.03884
574.72732
1952.6958
5951.4139
16360.205
40815.145
93030.032
195084.86
379035.2
687057.39
1169623.4
1881721
2877684.3
4205547.8
5901826.9
7987140.3
10462087
13298073
16408390
19907190
23672919
27551794
31610274
35816410
40072646
44338657
48583516
52786820
56938762
61039427
65097689
69129224
73212316
77254741
81327984
85441785
89478240
93598049
97660730
1.0171599e+08
1.0552832e+08
1.0890423e+08
1.1161314e+08
0.0001529844
0.0025014394
0.021675325
0.14965439
0.89015052
4.6762532
21.904372
91.887859
346.19767
1174.7982
3602.9652
10028.283
25455.905
59255.152
127231.16
253532.95
471741.66
824526.01
1361543.8
2135710.9
3198376
4594156.1
6356086
8501559.7
11031953
13849613
17066871
20603650
24382161
28279219
32422818
36674293
40983761
45312793
49632286
53922862
58207505
62422836
66601534
70751718
74882098
78998185
83099163
87067952
91004121
94853871
98569049
1.0193244e+08
1.0476551e+08
1.0685359e+08
0.00013379704
0.002030862
0.016435788
0.10688733
0.60452773
3.0495673
13.853029
56.898519
211.7836
715.80388
2202.223
6186.3798
15928.098
37753.235
82779.794
168782.22
321720.27
576366.31
975563.88
1567933.7
2404213.6
3532744
4994797.8
6820671.5
9028839.5
11542434
14442436
17715172
21286768
25010070
29000563
33174143
37452942
41793837
46160420
50524313
54865279
59170472
63432814
67648493
71813575
75920105
79953638
83800127
87531471
91121712
94457902
97353996
99643074
1.0113195e+08
0.00011731656
0.0016605482
0.01260599
0.077489947
0.41759819
2.0246807
8.9178354
35.823134
131.48382
441.55727
1358.9979
3841.6697
10002.812
24072.551
53757.712
111883.36
218016.59
399625.89
692300.34
1138683.9
1786044.8
2682717.8
3873960.9
5398150
7285575.4
9492608.9
12055030
15021002
18319742
21827663
25588583
29604176
33769207
38037439
42366849
46721366
51071599
55394332
59671282
63886892
68025049
72064097
75965251
79642880
83134972
86422513
89355482
91778039
93538478
94469215
0.00010314314
0.0013656584
0.0097710546
0.056927878
0.29290262
1.3662418
5.8349685
22.904969
82.772327
275.61425
846.48365
2401.4209
6305.6914
15365.575
34856.427
73873.273
146841.94
274879.63
486598.79
817965.19
1310967.7
2011098.1
2963897.5
4210964.7
5785328.1
7701186.4
9922007.6
12545753
15516432
18786775
22256351
26033437
30006679
34120450
38328939
42590099
46866701
51126214
55339975
59481653
63525352
67444782
71123098
74597285
77814837
80764176
83281613
85238956
86503415
86935742
9.0583082e-05
0.001130305
0.0076385995
0.042309542
0.20824084
0.93546631
3.8745401
14.853699
52.781516
173.94452
531.92415
1510.677
3989.9364
9818.8291
22568.673
48590.804
98312.381
187578.59
338735.35
581095.3
950479.01
1487674.8
2235871.3
3237309.9
4529495.3
6141663.3
8039754.1
10311795
12939524
15890720
19054454
22522806
26233330
30114261
34118707
38200904
42317627
46428633
50496175
54484000
58355894
62074414
65512938
68713489
71627454
74211747
76313832
77829448
78647001
78656606
7.970525e-05
0.00093858929
0.0060168191
0.031763607
0.14982067
0.64884038
2.6069355
9.7561466
34.053201
110.8958
336.99038
955.93921
2533.3826
6280.4683
14590.96
31838.603
65425.49
126980.5
233501.26
408152.15
680415.32
1085364
1661980.2
2450639.5
3490107.2
4814751.3
6404924.5
8329396.3
10602558
13198148
16029850
19138982
22524846
26102194
29825122
33646381
37518943
41396919
45235431
48989960
52615248
56065165
59217557
62103957
64690225
66892599
68593667
69705428
70138903
69812873
7.0095202e-05
0.00078162069
0.0047687027
0.024051038
0.10890428
0.45514733
1.7745525
6.480945
22.200779
71.344223
215.05927
608.08935
1613.376
4019.7896
9417.035
20778.094
43270.038
85253.126
159343.78
283333.02
480702.1
780490.54
1216362.2
1824870
2643120.6
3706465.9
5011274.6
6602936.2
8521317.4
10739783
13237152
15949583
18959862
22175298
25550334
29038171
32590306
36157627
39690657
43139079
46450568
49572730
52396323
54940166
57175798
59000367
60327080
61084722
61206472
60637339
6.1541693e-05
0.00065299638
0.0037987332
0.018342897
0.07986093
0.32239889
1.2201817
4.34792
14.606335
46.264188
138.11935
388.54733
1029.9157
2573.2542
6064.9648
13500.991
28431.09
56749.168
107604.97
194299.84
334967.97
552821.48
875772
1335322.9
1964644.8
2795205.7
3849738.2
5131783.6
6709697.6
8563555.2
10687191
13012452
15612720
18426075
21403440
24500721
27670345
30862552
34026129
37108096
40051428
42798520
45261419
47446580
49322011
50786109
51776241
52237875
52124519
51403644
5.4142491e-05
0.00054606615
0.0030380706
0.014070878
0.058991751
0.23024644
0.84622
2.9415722
9.6848915
30.203131
89.17706
249.15837
658.53523
1646.5131
3895.8636
8730.5015
18551.694
37436.901
71875.317
131558.31
230084.73
385401.06
619792.87
959280.45
1432307.6
2067578.1
2891646.1
3904958.3
5167601.6
6675630.3
8427872
10369024
12551123
14942218
17492539
20162278
22906868
25678325
28426453
31099673
33646377
35970317
38062057
39891222
41410267
42542751
43242480
43470271
43197056
42408236
4.7369121e-05
0.00045676697
0.0024368961
0.010846567
0.043835194
0.16555393
0.59105903
2.0040986
6.4632592
19.826758
57.820692
160.19594
421.41995
1052.3249
2494.4859
5615.5989
12015.528
24463.515
47462.857
87899.963
155686.95
264264.06
430806.66
675992.32
1023228.1
1497321.4
2122950.6
2903306.1
3886021.5
5077788.6
6480472.8
8053821.5
9829412.2
11799233
13915504
16143790
18444134
20772364
23081413
25322370
27445818
29365605
31077576
32555928
33740356
34579924
35040476
35096109
34731580
33945500
4.1417557e-05
0.00038299956
0.0019582724
0.008390155
0.032727834
0.11968636
0.41522141
1.3731518
4.3356757
13.0716
37.607778
103.17085
269.67882
671.30681
1591.0525
3590.7927
7720.4637
15826.839
30968.917
57921.222
103710.79
178096.14
293869.36
466857.81
715530.17
1060178.3
1521783.8
2105809.8
2848441.6
3761697.5
4849238.8
6086283.5
7484360.5
9053478.5
10750587
12547021
14408436
16296034
18167833
19979442
21683117
23215282
24566811
25714279
26600457
27192373
27466261
27406790
27008490
3.6070586e-05
0.00032040212
0.0015762957
0.0065071055
0.024522933
0.086893129
0.29301813
0.94503074
2.9200972
8.6457433
24.512993
66.496332
172.43539
427.14449
1010.2948
2281.3172
4918.9076
10132.536
19956.582
37622.031
67976.194
117891.81
196581.03
315717.34
489278.9
733063.81
1063888.8
1488018.6
2031991.8
2709084.7
3521890.3
4469610
5531777.5
6736282.3
8048385.8
9443910.1
10894469
12367585
13828074
15239837
16542981
17720982
18750112
19600779
20233515
20626257
20763740
20638543
20251961
3.1299043e-05
0.00026772757
0.0012695415
0.0050552208
0.018421469
0.06328631
0.20749006
0.65257719
1.9725258
5.731261
15.99755
42.857674
110.0909
270.9254
638.33267
1439.4189
3106.313
6416.9552
12696.209
24078.706
43819.045
76614.086
128880.87
208919.12
326886.59
494532.98
724670.96
1023246.6
1409140.3
1894963.9
2483755
3178021.5
3960169.6
4850779.1
5827144
6869547.4
7955567.2
9059119
10151565
11203068
12166521
13031271
13779955
14380378
14808752
15050252
15096075
14944073
14599175
2.7219709e-05
0.00022388678
0.0010218553
0.0039302537
0.013863869
0.046200636
0.14730294
0.45175304
1.3352809
3.8048595
10.445974
27.605032
70.145654
171.22385
401.17712
901.73838
1943.9369
4019.3046
7972.9588
15182.254
27775.004
48867.276
82784.908
135219.72
213265.94
325288.86
480596.37
684197.29
949095.87
1285959.6
1697629.3
2186875.1
2741673.3
3375237.6
4073308.6
4820671.4
5600375.3
6392422.1
7174515
7922395.7
8604509
9211219.2
9728968.6
10131244
10404083
10538220
10529351
10378417
10091669
2.353595e-05
0.00018617452
0.00082154133
0.0030572584
0.010445075
0.03378278
0.10477506
0.31332245
0.90532804
2.5284545
6.8218974
17.763899
44.594055
107.81058
250.78187
560.89252
1205.6478
2490.257
4943.0358
9432.4529
17313.96
30595.81
52102.096
85600.88
135858.93
208585.69
310239.27
444678.66
620562.62
846105.03
1123607.7
1455414.9
1833856.4
2266961
2745904.2
3259534.5
3795600.3
4339634.2
4875857.8
5379796.3
5841256.1
6248897.4
6587474.6
6842107
7003999.3
7067880.8
7032279.2
6899581.3
6675889.3
2.012399e-05
0.00015489549
0.0006603837
0.0023776225
0.0078757361
0.024736341
0.074647426
0.2176643
0.6146619
1.681701
4.4556562
11.421178
28.291566
67.649128
155.98756
346.5655
741.46941
1527.1004
3027.4261
5778.0976
10621.296
18815.715
32148.919
53031.9
84550.222
130445.06
195002.64
280985
393965.24
539779.07
720117.49
936722.48
1184881.1
1469266.2
1784419
2122549.7
2475110.9
2831931.5
3181841.8
3508209.3
3804941.7
4064370.4
4273894.7
4425409
4513678.4
4536067.7
4492654.5
4386172.6
4221788.3
1.7355502e-05
0.00012840818
0.00053034335
0.0018499875
0.0059436351
0.018137659
0.053273387
0.15148339
0.41800244
1.1199009
2.9119025
7.3411899
17.924748
42.338019
96.634203
212.93968
452.68942
928.01649
1834.0921
3494.6142
6420.8423
11381.344
19475.152
32196.111
51472.135
79661.553
119491.1
172815.63
243106.59
334221.95
447310.48
583541.54
740090.3
919566.06
1118558
1331881.4
1553806.8
1777464.7
1995130.3
2196845.8
2379070.6
2535201.9
2657685.1
2741981.2
2785221.3
2786336.3
2746074.2
2666896.9
2552756.8
1.4791717e-05
0.00010635544
0.00042532251
0.0014398292
0.0044904604
0.013324329
0.038107343
0.10569216
0.28497488
0.74744474
1.9063191
4.7234822
11.357611
26.469854
59.726246
130.34595
274.9154
560.03267
1101.4951
2091.4525
3833.9545
6787.4537
11610.141
19200.893
30725.895
47619.609
71549.808
103694.27
146150.37
201306.43
269891.29
352621.22
447829.44
556913.42
677714.27
806941.45
940946.02
1075459.3
1204105
1323509.1
1430268.1
1519346.3
1586935
1630520.5
1648691.5
1641200.8
1608943.5
1553852.9
1478716.7
1.2718788e-05
8.7813074e-05
0.00034101945
0.0011218699