/*--------------------------------*- C++ -*----------------------------------*\
| =========                 |                                                 |
| \\      /  F ield         | OpenFOAM: The Open Source CFD Toolbox           |
|  \\    /   O peration     | Version:  2312                                  |
|   \\  /    A nd           | Website:  www.openfoam.com                      |
|    \\/     M anipulation  |                                                 |
\*---------------------------------------------------------------------------*/
FoamFile
{
    version     2.0;
    format      ascii;
    arch        "LSB;label=32;scalar=64";
    class       volScalarField;
    location    "0.01";
    object      T;
}
// * * * * * * * * * * * * * * * * * * * * * * * * * * * * * * * * * * * * * //

dimensions      [0 0 0 1 0 0 0];

internalField   nonuniform List<scalar> 
3275
(
998.60545
988.06524
970.49532
948.8007
925.28597
902.10605
879.8966
859.02638
839.67089
821.98588
806.06735
791.92166
779.48887
768.67051
759.34649
751.3871
744.66209
739.04801
734.43433
730.73623
727.87954
725.86696
724.39532
723.56195
723.32394
723.6396
724.47229
725.78954
727.56276
729.76815
732.24723
735.14826
738.48717
742.15676
746.13913
750.41639
754.97081
759.78494
764.84152
770.1236
775.61461
781.29853
787.16009
793.18395
799.12589
805.29106
811.65719
817.8965
824.21927
830.73978
837.28073
843.8145
997.92994
984.57036
966.1315
944.36983
921.27192
898.82365
877.24455
856.89319
837.93955
820.57207
804.9097
790.96982
778.70144
768.01475
758.79668
750.923
744.26751
738.71029
734.14302
730.4909
727.66236
725.67266
724.22338
723.41059
723.18962
723.51966
724.36459
725.69222
727.47405
729.68617
732.17097
735.08154
738.42472
742.09811
746.08377
750.36383
754.9206
759.73661
764.79467
770.07784
775.56954
781.2537
787.11484
793.13704
799.07855
805.24463
811.61107
817.85006
824.17295
830.69304
837.23288
843.76436
995.67393
976.52567
956.69202
935.13128
913.07455
892.25328
871.95708
852.65681
834.49636
817.75899
802.60649
789.07628
777.13502
766.71047
757.7036
750.00097
743.48434
738.04094
733.56577
729.97096
727.27212
725.2905
723.88856
723.11671
722.93022
723.28957
724.15953
725.50855
727.30821
729.53421
732.03134
734.96128
738.31352
741.99505
745.98784
750.27402
754.83595
759.65625
764.71776
770.00362
775.49725
781.18255
787.0439
793.06533
799.00663
805.17304
811.53921
817.77727
824.10017
830.61888
837.15614
843.68407
989.47813
960.81879
940.99725
920.60662
900.53867
882.51863
864.23202
846.39341
829.39654
813.58743
799.18927
786.265
774.80729
764.77074
756.07698
748.62843
742.31809
737.04431
732.70829
729.23375
726.65437
724.72101
723.39219
722.68152
722.54673
722.95012
723.8578
725.23915
727.06594
729.31248
731.82908
734.78758
738.1538
741.84784
745.85158
750.14718
754.7171
759.54406
764.611
769.90113
775.39794
781.08534
786.9476
792.96893
798.91019
805.07648
811.44182
817.67825
824.00104
830.51749
837.05096
843.57428
969.57801
933.57657
915.42722
900.23734
884.61193
869.0578
853.77194
838.20913
822.71844
808.11382
794.70218
782.56961
771.743
762.21388
753.93053
746.81586
740.77653
735.72641
731.57387
728.27556
725.8186
723.96848
722.73661
722.10682
722.04056
722.50247
723.4604
724.885
726.74839
729.0211
731.56538
734.56074
737.94592
741.65687
745.6754
749.98374
754.56446
759.40045
764.47478
769.77078
775.27202
780.96245
786.82636
792.84819
798.78951
804.9553
811.31928
817.55337
823.87588
830.38918
836.91777
843.43545
890.89365
885.17508
882.20586
875.66896
866.41565
854.61463
841.59238
828.44255
815.03654
801.79879
789.52124
778.29612
768.1916
759.24515
751.43445
744.7058
738.97928
734.18892
730.24553
727.17051
724.82795
723.09148
721.97138
721.43567
721.44942
721.97983
722.99669
724.47228
726.3796
728.68031
731.26034
734.29708
737.70488
741.43596
745.47205
749.79549
754.38904
759.23576
764.3189
769.62192
775.12851
780.8227
786.68883
792.7116
798.65307
804.8181
811.18028
817.41148
823.73355
830.24304
836.766
843.27734
737.19423
824.24061
844.90303
848.94371
845.80248
838.50244
828.66593
817.68849
806.44033
794.86224
783.83146
773.59603
764.27659
755.96664
748.6736
742.36976
736.98603
732.48336
728.79342
725.92579
723.71494
722.11875
721.12098
720.68927
720.79183
721.39841
722.48092
724.01354
725.9717
728.29868
730.92392
734.00408
737.43751
741.19129
745.24713
749.58755
754.19553
759.05432
764.14738
769.45832
774.97099
780.6695
786.53831
792.56232
798.50399
804.66807
811.02815
817.25601
823.57747
830.08259
836.59935
843.1038
601.21551
751.72781
800.08772
817.51887
821.9472
819.74514
813.85736
805.68055
796.5238
786.66608
777.25168
768.14865
759.72429
752.14609
745.44979
739.63944
734.65032
730.48238
727.10915
724.44115
722.40662
720.97676
720.1213
719.81115
720.01782
720.7139
721.87361
723.47346
725.49569
727.84316
730.53246
733.65872
737.12302
740.90389
744.98321
749.3438
753.9689
758.84204
763.94689
769.26727
774.7872
780.49092
786.36303
792.38866
798.33058
804.49348
810.85097
817.07481
823.39541
829.89522
836.40467
842.90108
508.03377
679.49479
751.57356
782.62437
795.48128
798.94062
797.13569
792.20491
785.41986
777.59208
769.60895
761.95447
754.52503
747.77221
741.74977
736.50407
731.95793
728.20987
725.13771
722.71099
720.89647
719.65668
718.96434
718.79395
719.12069
719.92017
721.16914
722.84623
724.93417
727.32059
730.08567
733.25714
736.75813
740.57075
744.67754
749.06169
753.70679
758.59669
763.71532
769.04675
774.57518
780.28506
786.16113
792.18873
798.13094
804.29243
810.64682
816.86589
823.18534
829.67881
836.17976
842.66684
448.21166
614.68874
702.40296
745.71641
766.97056
776.35704
778.88065
777.29644
773.17397
767.50334
761.23646
754.91151
748.66029
742.83887
737.56265
732.95777
728.94014
725.59505
722.87126
720.73948
719.17483
718.14988
717.6422
717.63042
718.09375
719.01109
720.36185
722.12682
724.28391
726.72844
729.5759
732.79612
736.33944
740.18876
744.32723
748.73853
753.40668
758.31588
763.45039
768.79456
774.33283
780.04984
785.93053
791.96047
797.90301
804.06285
810.41358
816.62711
822.94508
829.43098
835.92219
842.39855
409.64418
560.35921
655.21237
708.1574
737.13069
752.34955
759.32365
761.18693
759.83382
756.45974
752.02345
747.15915
742.15608
737.34894
732.91211
728.97451
725.53488
722.6544
720.3198
718.51737
717.23266
716.44807
716.14722
716.31341
716.93039
717.98054
719.44614
721.311
723.53908
726.06469
728.99687
732.27184
735.86345
739.75466
743.92925
748.3715
753.0659
757.99708
763.14969
768.50839
774.05788
779.78305
785.66905
791.70167
797.64454
803.80248
810.14894
816.35612
822.67225
829.14914
835.62934
842.09347
384.11832
516.50357
611.84084
671.22644
706.72344
727.37464
738.70847
744.08391
745.52868
744.52602
742.0199
738.71745
735.03027
731.3086
727.77135
724.5672
721.7494
719.38042
717.47508
716.03641
715.06172
714.54343
714.47206
714.83599
715.62413
716.82251
718.41629
720.39603
722.68978
725.32994
728.34222
731.68021
735.3265
739.26504
743.48043
747.9576
752.68163
757.63763
762.81066
768.18574
773.7479
779.48228
785.37428
791.40992
797.35312
803.50888
809.85042
816.05035
822.36422
828.83052
835.29837
841.74864
366.66658
481.67853
573.23931
635.97054
676.48476
701.91232
717.34481
726.13263
730.45383
731.7965
731.2823
729.62017
727.30692
724.73064
722.14778
719.73397
717.58181
715.7679
714.33054
713.28951
712.65469
712.42878
712.60988
713.19151
714.1687
715.53114
717.26614
719.36042
721.7538
724.51351
727.60836
731.01719
734.72481
738.71639
742.97746
747.49372
752.25091
757.23466
762.43054
767.82395
773.40028
779.14496
785.04367
791.08264
797.02614
803.17942
809.51529
815.70703
822.018
828.47221
834.92618
841.36086
354.32691
454.10061
539.62886
603.12512
647.06174
676.43276
695.559
707.5827
714.68656
718.42413
719.88643
719.90836
719.01693
717.63409
716.05258
714.47785
713.03253
711.81397
710.88147
710.27096
710.00526
710.09769
710.55444
711.37365
712.55809
714.10095
715.99152
718.19644
720.73286
723.60498
726.79108
730.27872
734.05453
738.10505
742.41689
746.97658
751.77059
756.78518
762.00642
767.42018
773.01222
778.76832
784.67443
790.71703
796.66076
802.81123
809.1406
815.32311
821.6304
828.07098
834.50943
840.92666
345.31107
432.14852
510.75489
573.1075
618.96903
651.36516
673.67243
688.66378
698.41573
704.46467
707.94486
709.64973
710.19267
710.04397
709.50099
708.80639
708.10465
707.51819
707.12516
706.97658
707.10832
707.54458
708.30034
709.37648
710.78663
712.52675
714.56739
716.9293
719.61146
722.59962
725.8861
729.46062
733.31168
737.42727
741.79512
746.40274
751.23738
756.28598
761.53519
766.97137
772.58072
778.34936
784.26356
790.31006
796.2539
802.40119
808.72312
814.89527
821.19793
827.62328
834.04445
840.44228
338.51789
414.50999
486.11936
546.06378
592.56985
627.07359
651.98479
669.60401
681.81078
690.06806
695.49303
698.92481
700.89344
701.98982
702.5122
702.73167
702.80414
702.88264
703.06109
703.40389
703.96004
704.76478
705.84332
707.19433
708.849
710.78343
713.01641
715.55214
718.37874
721.49302
724.88908
728.55871
732.49222
736.67914
741.10841
745.76859
750.64778
755.73367
761.01352
766.47426
772.10252
777.88485
783.80782
789.85844
795.80223
801.9459
808.25932
814.41988
820.71678
827.1252
833.52722
839.90364
333.25409
400.17546
465.14309
521.9403
568.07981
603.84249
630.76004
650.61968
665.0403
675.36234
682.65357
687.75817
691.17687
693.5112
695.11734
696.27165
697.13955
697.91202
698.69108
699.55223
700.55798
701.75442
703.18091
704.82153
706.71957
708.89704
711.33581
714.04782
717.03009
720.28071
723.79565
727.5687
731.592
735.85664
740.35288
745.07035
749.99811
755.12464
760.43788
765.92533
771.57414
777.37127
783.30367
789.35859
795.30211
801.44164
807.74533
813.89293
820.18277
826.57243
832.95331
839.30628
329.07288
388.3842
447.25879
500.55578
545.58681
581.87246
610.2168
631.90644
648.26566
660.47495
669.52079
676.19963
681.0987
684.67071
687.3505
689.43172
691.13066
692.61912
694.01955
695.4229
696.90125
698.50994
700.29051
702.25448
704.43529
706.85399
709.50981
712.41156
715.56097
718.95825
722.60143
726.48627
730.60678
734.95563
739.52446
744.30406
749.28448
754.45505
759.80445
765.32079
770.99178
776.80482
782.74726
788.80663
794.74957
800.88437
807.17687
813.31002
819.59128
825.96021
832.31779
838.64529
325.6802
378.56864
431.95467
481.66068
525.07926
561.28469
590.52354
613.63273
631.63552
645.52933
656.19596
664.37391
670.64662
675.50265
679.26125
682.26064
684.78539
687.00917
689.05245
691.01913
692.99079
695.03179
697.18967
699.492
701.9707
704.64843
707.53452
710.63894
713.96696
717.52127
721.30203
725.30706
729.53222
733.97182
738.61892
743.46554
748.50276
753.72081
759.10915
764.65658
770.35134
776.18137
782.13441
788.19829
794.1403
800.26967
806.54918
812.66625
818.93724
825.28326
831.61512
837.91517
322.87756
370.30727
418.79383
464.97977
506.4753
542.13147
571.79844
595.93571
615.28129
630.64078
642.77594
652.3551
659.93461
665.98272
670.87617
674.79868
678.13579
681.09556
683.79844
686.3463
688.82927
691.32096
693.87592
696.53214
699.32378
702.27645
705.4062
708.72583
712.24382
715.96542
719.89306
724.02664
728.36389
732.90079
737.63187
742.5504
747.64857
752.91754
758.34761
763.92827
769.64838
775.4964
781.46053
787.52892
793.4696
799.5927
805.85697
811.9562
818.21502
824.53572
830.83895
320.52732
363.28433
407.41537
450.2412
489.64892
524.40979
554.11305
578.91991
599.31408
615.91317
629.35136
640.21668
649.02258
656.21232
662.1732
667.04881
671.22471
674.90786
678.26872
681.41199
684.42093
687.37948
690.34864
693.37379
696.49281
699.735
703.12148
706.66846
710.38749
714.28648
718.37016
722.64054
727.09724
731.73795
736.55867
741.554
746.71724
752.04056
757.5151
763.13108
768.87803
774.74496
780.72058
786.79341
792.73233
798.84827
805.0942
811.17383
817.41845
823.71109
829.98177
318.53151
357.26059
397.52577
437.19591
474.45097
508.07543
537.49843
562.6581
583.82313
601.43664
616.00489
628.02909
637.96939
646.23454
653.17759
659.053
664.0465
668.49528
672.48759
676.22621
679.77154
683.2106
686.60878
690.01678
693.47667
697.02175
700.67742
704.46333
708.39411
712.4803
716.72897
721.14423
725.72763
730.47854
735.3945
740.47142
745.7038
751.08481
756.60649
762.25982
768.035
773.92164
779.909
785.98613
791.92295
798.03095
804.25381
810.31243
816.54082
822.80245
829.03789
316.81868
352.05269
388.88638
425.62583
460.73014
493.05743
521.95265
547.194
568.87573
587.28623
602.80978
615.85886
626.83415
636.1042
643.99352
650.76516
656.66196
661.81393
666.50845
670.80857
674.88794
678.81884
682.65872
686.46195
690.27495
694.13506
698.07152
702.10731
706.26004
710.54286
714.96515
719.53313
724.25025
729.1176
734.13425
739.29746
744.60292
750.04487
755.61624
761.30882
767.11348
773.02047
779.01967
785.10081
791.0354
797.13551
803.32699
809.36459
815.57483
821.80248
827.99973
315.33554
347.51832
381.30277
415.34128
448.34426
479.27522
507.45265
532.54824
554.51983
573.52331
589.83098
603.76883
615.67487
625.87355
634.6601
642.29
648.99437
654.97115
660.24966
665.22661
669.77893
674.21007
678.50232
682.7112
686.88801
691.07393
695.30179
699.59761
703.98187
708.47022
713.07436
717.80256
722.66015
727.64995
732.77254
738.02655
743.40889
748.91486
754.53832
760.27189
766.10712
772.03488
778.04576
784.1304
790.06298
796.15841
802.30127
808.3225
814.51263
820.70274
314.0415
343.54574
374.61602
406.1782
437.16122
466.64644
493.96559
518.7279
540.79023
560.19905
577.12702
591.8182
604.54754
615.59317
625.21854
633.66263
641.1448
647.87529
653.83564
659.38703
664.50776
669.39135
674.14505
678.76746
683.31699
687.83803
692.36668
696.93176
701.55635
706.25855
711.05225
715.94774
720.9522
726.07014
731.30365
736.65273
742.11552
747.68838
753.36616
759.14225
765.00892
770.95764
776.97968
783.06681
788.99751
795.10255
801.15501
807.17924
813.34575
819.49359
312.90509
340.04615
368.69559
397.99511
427.05953
455.0884
481.45179
505.73069
527.71229
547.35645
564.75003
580.0618
593.50547
605.31203
615.71084
624.91842
633.13565
640.54296
647.25577
653.34084
659.0562
664.41834
669.59455
674.63451
679.56376
684.42764
689.26512
694.10761
698.98047
703.90407
708.89442
713.96374
719.12102
724.3724
729.72147
735.1696
740.71612
746.3585
752.09254
757.91246
763.81119
769.78077
775.81303
781.90064
787.82531
793.92063
799.91659
805.93233
812.06498
818.16554
311.9015
336.9482
363.43369
390.67024
417.92849
444.51952
469.86589
493.5454
515.30188
535.02998
552.74526
568.54946
582.59863
595.07722
606.17905
616.09475
625.00483
633.07207
640.42572
647.1949
653.3542
659.29945
664.88661
670.31625
675.63091
680.84357
685.99647
691.12327
696.25132
701.40303
706.59637
711.84544
717.16094
722.55059
728.01945
733.57021
739.20341
744.91761
750.70957
756.57432
762.50546
768.49548
774.53663
780.62218
786.53659
792.61451
798.56717
804.56851
810.65852
816.70736
311.01088
334.19394
358.74077
384.09874
409.66791
434.86065
459.15833
482.15284
503.56566
523.24537
541.15064
557.32543
571.87309
584.93341
596.66439
607.22901
616.78637
625.48415
633.45291
640.83319
647.54454
653.92845
660.06746
665.82482
671.52201
677.08716
682.56048
687.9771
693.36612
698.75164
704.15349
709.58749
715.06597
720.59815
726.19052
731.84704
737.56944
743.35736
749.20852
755.11879
761.08237
767.09213
773.1405
779.22111
785.1215
791.17794
797.0914
803.07314
809.11403
815.10631
310.21712
331.73579
354.54194
378.19024
402.18762
426.03611
449.27694
471.52714
492.50181
512.01983
529.99656
546.42789
561.37044
574.92233
587.2065
598.35773
608.51291
617.80361
626.3512
634.27104
641.63502
648.41391
655.02305
661.21774
667.24062
673.16003
678.95723
684.66768
690.32209
695.94604
701.56092
707.18418
712.82965
718.50799
724.22698
729.99185
735.80548
741.66857
747.57979
753.53585
759.53157
765.56008
771.61369
777.68608
783.56891
789.60025
795.47453
801.43108
807.41777
813.3482
309.50703
329.53435
350.77416
372.86669
395.40674
417.97431
440.16828
461.63706
482.10091
501.3624
519.30587
535.88868
551.12735
565.08216
577.84278
589.51607
600.21641
610.05828
619.15157
627.60271
635.51992
642.79584
649.75837
656.47479
662.83511
669.06399
675.1871
681.19367
687.11642
692.98216
698.81353
704.62942
710.44505
716.27238
722.12045
727.99564
733.90195
739.8411
745.81273
751.8144
757.84158
763.88759
769.94417
776.0044
781.86617
787.86774
793.70117
799.62669
805.55429
811.41722
308.86965
327.55665
347.38404
368.06046
389.25284
410.6082
431.77883
452.44732
472.34703
491.27461
509.094
525.73312
541.17514
555.44705
568.60776
580.73729
591.92765
602.27561
611.87774
620.82849
629.21588
637.08632
644.37973
651.49147
658.33542
664.80957
671.25098
677.55367
683.74615
689.85564
695.90577
701.91659
707.90459
713.8829
719.86171
725.84848
731.84824
737.86372
743.89552
749.94208
755.99963
762.06171
768.11884
774.16169
779.99952
785.96353
791.7547
797.64332
803.50664
809.29592
308.29577
325.77488
344.32603
363.71275
383.66119
403.87536
424.05591
443.91996
463.21886
481.75123
499.36938
515.98
531.53961
546.04671
559.5326
572.05216
583.67569
594.48206
604.55365
613.97336
622.82222
631.18305
638.91998
646.35998
653.61546
660.45154
667.14626
673.7457
680.20801
686.56174
692.83156
699.03846
705.19998
711.33031
717.44063
723.53942
729.63265
735.72401
741.81502
747.90511
753.99142
760.06806
766.1238
772.14108
777.95603
783.86545
789.61733
795.46315
801.25623
806.96511
307.77763
324.16539
341.56102
359.7723
378.57389
397.71805
416.9484
436.01531
454.69087
472.78115
490.13393
506.64177
522.24084
536.90611
550.6447
563.48859
575.48744
586.70251
597.20158
607.05534
616.33405
625.10179
633.38369
641.09469
648.68184
655.9815
662.89791
669.76812
676.49835
683.09521
689.58421
695.98704
702.32206
708.60436
714.84601
721.05635
727.24222
733.4082
739.55668
745.68809
751.8008
757.89048
763.9456
769.92018
775.73143
781.53746
787.27235
793.06703
798.78267
804.40362
307.3086
322.7079
339.05525
356.19418
373.93916
392.08307
410.40718
428.69296
446.73428
464.34834
481.3837
497.72487
513.29331
528.04526
541.96738
555.0712
567.38733
578.96002
589.84253
600.09336
609.77324
618.94273
627.66365
635.73635
643.61043
651.28774
658.53583
665.61904
672.613
679.45014
686.15622
692.75345
699.2607
705.69377
712.06546
718.38587
724.66261
730.90103
737.10434
743.27388
749.40942
755.50994
761.57789
767.45603
773.26598
779.00225
784.70789
790.43331
796.06332
801.58818
306.88296
321.3849
336.77939
352.93889
369.71061
386.9215
404.38552
421.91255
439.31808
456.43267
473.1096
489.23013
504.70601
519.47924
533.51966
546.82111
559.39694
571.27547
582.49578
593.10426
603.15193
612.69386
621.79771
630.27565
638.39536
646.37609
654.04927
661.32441
668.54696
675.61986
682.53926
689.32782
696.00465
702.58599
709.08526
715.51316
721.87797
728.18567
734.44018
740.64357
746.79648
752.89894
758.95248
764.77495
770.56036
776.22991
781.89385
787.53709
793.07313
798.49321
306.49577
320.18118
334.70778
349.97157
365.84663
382.18848
398.83923
415.63426
432.40982
449.01088
465.29814
481.15337
496.48278
511.21821
525.31619
538.7557
551.53485
563.66731
575.17869
586.10333
596.48147
606.35644
615.76842
624.71519
633.08981
641.32626
649.32994
656.898
664.29569
671.59691
678.72401
685.69919
692.54146
699.2672
705.89027
712.42188
718.8708
725.24358
731.54468
737.7767
743.94074
750.03692
756.06506
761.84042
767.58981
773.19039
778.80004
784.35167
789.78473
795.09084
306.14272
319.08343
332.8179
347.26131
362.30985
377.84291
393.72675
409.81934
425.97631
442.05731
457.93215
473.48591
488.62268
503.26762
517.36729
530.88853
543.81638
556.15138
567.90662
579.10488
589.77593
599.95371
609.67304
618.97177
627.67494
636.11747
644.37989
652.33184
659.87685
667.3727
674.70006
681.85543
688.85734
695.72211
702.4638
709.094
715.62188
722.05441
728.39648
734.65105
740.81949
746.90187
752.89723
758.62368
764.32464
769.85296
775.39632
780.84758
786.16836
791.35083
305.82001
318.07995
331.08987
344.78063
359.06661
373.84718
389.00916
404.43039
419.98422
435.54467
450.99157
466.21528
481.12044
495.62852
509.67901
523.2293
536.25351
548.74072
560.69264
572.12124
583.04636
593.49292
603.48719
613.04957
622.17165
630.76705
639.27885
647.51257
655.30071
662.93659
670.45598
677.78329
684.93723
691.93397
698.78755
705.5098
712.11015
718.59588
724.9722
731.24235
737.4078
743.46864
749.42414
755.09774
760.73003
766.1869
771.6517
776.99327
782.19196
787.24069
305.5243
317.16039
329.50605
342.50497
356.08656
370.16685
384.65013
399.43156
414.40051
429.44461
444.45407
459.3258
473.96698
488.29786
502.2534
515.78394
528.85485
541.44543
553.54732
565.16263
576.30184
586.98157
597.22165
607.04188
616.46647
625.29103
633.99314
642.44004
650.56574
658.29036
665.98057
673.46847
680.76469
687.88449
694.84159
701.6478
708.3127
714.84378
721.24648
727.52421
733.6784
739.70891
745.61636
751.2416
756.75714
762.16569
767.53359
772.75515
777.82136
782.72575
305.25263
316.31553
328.05072
340.41235
353.34227
366.77039
380.61585
394.78877
409.19281
423.7283
438.2957
452.79921
467.15
481.26897
495.08874
508.55477
521.62565
534.27264
546.4787
558.23706
569.54965
580.42535
590.87827
600.92717
610.60121
619.66553
628.52581
637.18677
645.55245
653.44969
661.25672
668.89472
676.32184
683.55391
690.60438
697.48481
704.20481
710.77196
717.19189
723.46818
729.60203
735.59189
741.43552
746.9922
752.41154
757.75334
763.00603
768.09741
773.02036
777.76942
305.00234
315.53718
326.70982
338.48304
350.80892
363.62897
376.87489
390.46971
404.32973
418.36685
432.49144
446.61529
460.65447
474.53201
488.17994
501.5407
514.56796
527.22658
539.49221
551.35035
562.79515
573.82818
584.45734
594.69747
604.57754
613.88852
622.87423
631.7239
640.28373
648.38441
656.27466
664.04581
671.5896
678.92104
686.05286
692.99607
699.76009
706.3525
712.77911
719.04386
725.14823
731.08875
736.84404
742.32512
747.65028
752.90776
758.03297
762.98278
767.75114
772.33353
304.77106
314.81798
325.47077
336.69925
348.464
360.71621
373.39815
386.44398
399.78104
413.33174
427.01572
440.75236
454.46323
468.07448
481.51893
494.73761
507.68085
520.30868
532.59081
544.50611
556.04183
567.19254
577.95896
588.34626
598.35897
607.97313
617.05601
626.03367
634.72554
643.09496
651.03515
658.90319
666.54738
673.96348
681.16278
688.15553
694.95076
701.55598
707.97712
714.21881
720.28511
726.18315
731.78677
737.20699
742.43513
747.59051
752.57627
757.37265
761.9747
766.37884
304.55668
314.15133
324.32221
335.04495
346.2871
358.00795
370.15871
382.68302
395.51789
408.59508
421.84283
435.18788
448.55751
461.88171
475.09513
488.13867
500.96071
513.51784
525.77511
537.70596
549.29165
560.5206
571.3874
581.89155
592.03574
601.82577
611.04346
620.118
628.94417
637.4724
645.52101
653.44455
661.17343
668.658
675.90907
682.93629
689.74818
696.35204
702.75368
708.95775
714.96835
720.79101
726.28926
731.597
736.73215
741.76371
746.59702
751.22769
755.6515
759.86576
304.35732
313.53133
323.25396
333.50565
344.25971
355.48217
367.13175
379.1602
391.5129
404.12993
416.94735
429.89886
442.91748
455.93745
468.89597
481.73482
494.40161
506.85068
519.04367
530.94964
542.5449
553.81261
564.74221
575.3288
585.57292
595.48175
604.82176
613.96365
622.89914
631.53775
639.70695
647.65425
655.4476
662.9817
670.2666
677.31122
684.12347
690.71022
697.07699
703.22787
709.16567
714.89359
720.28393
725.46918
730.5049
735.38709
740.05595
744.50877
748.74247
752.75539
304.17126
312.95265
322.25684
332.06829
342.36505
353.11875
364.29445
375.85076
387.74033
399.91053
412.30449
424.86236
437.52276
450.22434
462.90737
475.51525
487.99573
500.30199
512.39328
524.23533
535.80042
547.06725
558.02069
568.65152
578.95644
588.9401
598.38879
607.56084
616.56877
625.25639
633.60183
641.52483
649.35124
656.91247
664.21084
671.2538
678.04834
684.60077
690.91628
696.9983
702.84712
708.4598
713.73282
718.7891
723.7052
728.42397
732.91562
737.17839
741.21031
745.01075
303.99693
312.4105
321.32264
330.72112
340.58798
350.89946
361.62593
372.73188
384.17615
395.91252
407.89041
420.0559
432.35291
444.72452
457.11435
469.46794
481.73394
493.86518
505.81947
517.56011
529.05617
540.28258
551.21996
561.85417
572.17429
582.16352
591.769
600.91493
609.95708
618.6871
627.10247
635.04693
642.86295
650.42867
657.71857
664.73899
671.49604
677.9954
684.24213
690.23974
695.986
701.45367
706.59996
711.52263
716.29756
720.83971
725.14147
729.20218
733.02105
736.59848
303.83295
311.90058
320.44397
329.4536
338.91485
348.80779
359.10725
369.78264
380.79817
392.11314
403.68256
415.45787
427.38794
439.42015
451.50159
463.58028
475.6063
487.53284
499.317
510.92048
522.30991
533.45708
544.33883
554.93663
565.23511
575.21863
584.87364
594.02416
603.05576
611.79884
620.23403
628.18777
635.96537
643.51125
650.76921
657.74462
664.44272
670.86846
677.02661
682.92185
688.56019
693.83913
698.85239
703.64871
708.25277
712.60443
716.70371
720.55078
724.14593
727.49069
303.67811
311.41905
319.61427
328.25637
337.33351
346.829
356.72134
366.98414
377.58614
388.49145
399.65996
411.04794
422.60879
434.29397
446.05404
457.83968
469.60278
481.29739
492.88058
504.31311
515.5599
526.59034
537.37835
547.90219
558.14401
568.08937
577.73043
586.86493
595.85503
604.57798
612.99519
620.93469
628.64565
636.14594
643.34688
650.25328
656.86955
663.19976
669.24777
675.01706
680.51144
685.63061
690.4829
695.13288
699.54603
703.69449
707.57943
711.20204
714.56371
717.66721
303.53131
310.96257
318.82775
327.12116
335.83324
344.95002
354.45307
364.3195
374.52192
385.02856
395.80358
406.8075
417.99785
429.32991
440.75758
452.23428
463.71393
475.15184
486.50553
497.73543
508.80542
519.68323
530.34066
540.75362
550.90225
560.77106
570.35016
579.43444
588.34983
597.01667
605.379
613.28679
620.90084
628.32606
635.4426
642.25437
648.76479
654.97706
660.89418
666.51742
671.83998
676.79312
681.47553
685.95434
690.16279
694.09578
697.75537
701.14375
704.26325
303.39164
310.52823
318.07939
326.04083
334.40477
343.15955
352.28929
361.77403
371.58965
381.70789
392.0966
402.72007
413.53951
424.51371
435.59972
446.7537
457.9317
469.09056
480.18863
491.1865
502.04759
512.73857
523.22975
533.4953
543.51343
553.26664
562.742
571.73836
580.54288
589.11203
597.36028
605.26809
612.74418
620.05346
627.05583
633.74596
640.12558
646.19728
651.96501
657.43611
662.52708
667.31008
671.83089
676.10919
680.10012
683.80635
687.23085
690.37686
693.24833
303.25831
310.11359
317.36499
325.00935
333.0403
341.44806
350.21893
359.33534
368.77593
378.51543
388.52486
398.77178
409.22069
419.83354
430.57033
441.38983
452.25028
463.11019
473.92903
484.66794
495.2903
505.76227
516.05315
526.13576
535.98665
545.58628
554.91904
563.79029
572.45055
580.89216
589.01657
596.82025
604.1714
611.33456
618.195
624.73654
630.95975
636.86605
642.45785
647.7393
652.62715
657.21175
661.55003
665.60807
669.37001
672.8396
676.02076
678.91774
681.53565
303.13069
309.71671
316.68119
324.02189
331.73359
339.80795
348.23313
356.99355
366.07013
375.44012
385.07725
394.95191
405.03148
415.28075
425.66242
436.13773
446.66706
457.21068
467.72935
478.18504
488.54146
498.76463
508.82329
518.6893
528.33787
537.74773
546.90121
555.61143
564.09534
572.37677
580.34539
587.99771
595.19905
602.19036
608.88157
615.24833
621.29045
627.00828
632.40193
637.46704
642.14609
646.52431
650.65495
654.48019
658.00296
661.22767
664.1591
666.80247
669.1638
303.00832
309.33614
316.02552
323.0749
330.48001
338.23364
346.32542
354.74149
363.46461
372.47415
381.74613
391.25337
400.96576
410.8506
420.87302
430.99655
441.18366
451.39634
461.5968
471.74799
481.81423
491.76174
501.55903
511.17737
520.59099
529.77734
538.7172
547.23223
555.50949
563.59768
571.377
578.84218
585.86367
592.65757
599.15305
605.32007
611.15822
616.66862
621.85589
626.65132
631.11667
635.29817
639.19271
642.77542
646.0511
649.02492
651.70254
654.09014
656.19453
302.89091
308.97101
315.39643
322.16619
329.27673
336.72172
344.49196
352.57501
360.95513
369.61344
378.5279
387.67338
397.02193
406.54304
416.20405
425.97058
435.80701
445.6771
455.54447
465.37323
475.12851
484.77693
494.28711
503.63004
512.77935
521.7116
530.40645
538.69456
546.73751
554.60102
562.15959
569.40631
576.21892
582.79111
589.06567
595.0092
600.62042
605.89897
610.84695
615.39869
619.63006
623.58926
627.23647
630.56894
633.59196
636.31144
638.73386
640.86626
642.71619
302.77837
308.62101
314.79343
321.29503
328.12282
335.27118
342.73175
350.49323
358.54117
366.85807
375.42348
384.21403
393.2036
402.36361
411.66333
421.07025
430.55058
440.06972
449.59274
459.08496
468.51242
477.84241
487.04385
496.08774
504.94744
513.59897
522.02123
530.05414
537.8387
545.44922
552.75899
559.75982
566.33738
572.66612
578.69719
584.39645
589.76164
594.79017
599.47763
603.77925
607.78118
611.49374
614.88643
617.96381
620.73159
623.1963
625.36514
627.24596
628.84693
302.67083
308.28651
314.21711
320.46231
327.01951
333.88363
341.04693
348.49898
356.22636
364.21273
372.43891
380.88299
389.52043
398.32428
407.2655
416.31331
425.43555
434.59917
443.77067
452.91659
462.004
471.00095
479.87688
488.60305
497.15281
505.50193
513.62885
521.38287
528.88941
536.22309
543.26054
549.99261
556.31306
562.38017
568.14894
573.58718
578.69328
583.4683
587.85801
591.91467
595.68263
599.13756
602.27284
605.09403
607.6075
609.8204
611.74064
613.37676
614.7375
302.5686
307.96856
313.66929
319.67065
325.97029
332.5635
339.44302
346.59903
354.01892
361.68726
369.58593
377.69421
385.98886
394.44436
403.03315
411.72595
420.4921
429.30001
438.11753
446.91242
455.65282
464.30765
472.84701
481.24261
489.46802
497.49901
505.31379
512.77102
519.98524
527.02396
533.77127
540.21733
546.26394
552.05598
557.54859
562.71296
567.54611
572.04374
576.1633
579.96901
583.4858
586.68096
589.55944
592.1272
594.39112
596.35893
598.03914
599.44087
600.57332
302.47229
307.66897
313.15307
318.92452
324.9811
331.31832
337.92926
344.80449
351.93201
359.29713
366.88255
374.66853
382.63292
390.75141
398.99772
407.34391
415.76068
424.21776
432.68428
441.12921
449.52176
457.83177
466.03013
474.0891
481.98269
489.68686
497.17984
504.32939
511.24318
517.97585
524.42209
530.57164
536.33427
541.84374
547.05332
551.93988
556.50331
560.69382
564.55498
568.1209
571.37811
574.31752
576.94478
579.2664
581.28978
583.02319
584.47566
585.65682
586.57622
302.38274
307.39037
312.67296
318.23039
324.0605
330.15888
336.5188
343.13108
349.98413
357.06385
364.35358
371.83435