/*--------------------------------*- C++ -*----------------------------------*\
| =========                 |                                                 |
| \\      /  F ield         | OpenFOAM: The Open Source CFD Toolbox           |
|  \\    /   O peration     | Version:  2312                                  |
|   \\  /    A nd           | Website:  www.openfoam.com                      |
|    \\/     M anipulation  |                                                 |
\*---------------------------------------------------------------------------*/
FoamFile
{
    version     2.0;
    format      ascii;
    arch        "LSB;label=32;scalar=64";
    class       volVectorField;
    location    "0.01";
    object      U;
}
// * * * * * * * * * * * * * * * * * * * * * * * * * * * * * * * * * * * * * //

dimensions      [0 1 -1 0 0 0 0];

internalField   nonuniform List<vector> 
3275
(
(54.96306 0.36709509 0)
(48.106524 0.87092817 0)
(39.970246 0.91199128 0)
(33.028662 0.78151117 0)
(27.552427 0.61117658 0)
(23.386048 0.46777591 0)
(20.194574 0.36129463 0)
(17.702826 0.28330736 0)
(15.726742 0.22617257 0)
(14.135318 0.18382639 0)
(12.837056 0.15208794 0)
(11.763937 0.12813559 0)
(10.864933 0.10981272 0)
(10.10232 0.09558521 0)
(9.4475553 0.084402797 0)
(8.8788182 0.075493406 0)
(8.379264 0.068319915 0)
(7.9358044 0.062475424 0)
(7.5380171 0.05765245 0)
(7.1808571 0.053593428 0)
(6.8542811 0.050117896 0)
(6.5520022 0.047175714 0)
(6.2732371 0.044575874 0)
(6.0134984 0.0423342 0)
(5.7708304 0.040341006 0)
(5.5427987 0.038550172 0)
(5.3276316 0.036923206 0)
(5.1238347 0.035429613 0)
(4.9301861 0.034044933 0)
(4.7456312 0.032749036 0)
(4.5693072 0.031524784 0)
(4.4005035 0.030359463 0)
(4.2386416 0.029246964 0)
(4.0832096 0.028173981 0)
(3.9337299 0.027135164 0)
(3.7898426 0.026125189 0)
(3.6512287 0.025140067 0)
(3.5176179 0.024176718 0)
(3.3887793 0.023232812 0)
(3.2645152 0.022306574 0)
(3.1446632 0.021396574 0)
(3.0290688 0.020501423 0)
(2.9176729 0.019621263 0)
(2.8102005 0.018753842 0)
(2.706472 0.017894477 0)
(2.6064936 0.017051223 0)
(2.5101533 0.01622604 0)
(2.4174386 0.015416362 0)
(2.3279733 0.014624393 0)
(2.2417653 0.013854831 0)
(2.159009 0.01310886 0)
(2.0794879 0.012387153 0)
(54.202921 1.2128355 0)
(46.342938 2.6603031 0)
(38.269841 2.6955879 0)
(31.785177 2.277107 0)
(26.713236 1.7779743 0)
(22.83134 1.3664498 0)
(19.822972 1.0600684 0)
(17.447568 0.83453162 0)
(15.546737 0.66832451 0)
(14.005113 0.54454485 0)
(12.740697 0.45139315 0)
(11.691102 0.38086768 0)
(10.808751 0.32676974 0)
(10.05818 0.28466444 0)
(9.4123035 0.25150916 0)
(8.8502485 0.22504987 0)
(8.3558108 0.20372048 0)
(7.9163221 0.18633076 0)
(7.5216337 0.17202359 0)
(7.1669423 0.16015539 0)
(6.842394 0.14911416 0)
(6.5417555 0.14065552 0)
(6.2643572 0.13291857 0)
(6.0057832 0.12621121 0)
(5.7640796 0.12024552 0)
(5.5368684 0.1148828 0)
(5.322405 0.11000823 0)
(5.1192164 0.10553077 0)
(4.9260972 0.10137736 0)
(4.7420051 0.09748787 0)
(4.5660881 0.093811568 0)
(4.3976462 0.090310255 0)
(4.2361053 0.086965316 0)
(4.0809582 0.083737345 0)
(3.9317339 0.08061021 0)
(3.7880756 0.077568056 0)
(3.6496679 0.07459897 0)
(3.5162428 0.071693852 0)
(3.3875717 0.068845977 0)
(3.2634588 0.06605054 0)
(3.1437431 0.063304181 0)
(3.0282718 0.060604702 0)
(2.916987 0.057950738 0)
(2.8096138 0.055340075 0)
(2.7059762 0.052769765 0)
(2.6060819 0.050250216 0)
(2.5098169 0.047782353 0)
(2.4171695 0.045365268 0)
(2.327766 0.043001578 0)
(2.2416151 0.040702863 0)
(2.1589094 0.038473257 0)
(2.0794329 0.036309452 0)
(52.001975 2.6245216 0)
(42.530475 4.5984961 0)
(34.917487 4.3281568 0)
(29.410543 3.5649725 0)
(25.121379 2.7839558 0)
(21.774248 2.1605316 0)
(19.10934 1.6912414 0)
(16.953871 1.3420599 0)
(15.196516 1.0817142 0)
(13.750575 0.88600037 0)
(12.551602 0.7374936 0)
(11.547731 0.62434181 0)
(10.697881 0.53708324 0)
(9.9708981 0.46886287 0)
(9.3424801 0.41495444 0)
(8.7935827 0.37180274 0)
(8.3092405 0.33693403 0)
(7.8776213 0.30843854 0)
(7.4891905 0.28494544 0)
(7.1390907 0.26568356 0)
(6.8185569 0.24719592 0)
(6.5214714 0.23333858 0)
(6.246679 0.22060561 0)
(5.9903991 0.20953263 0)
(5.7506124 0.19967094 0)
(5.5250341 0.19079878 0)
(5.3119724 0.18272861 0)
(5.1099958 0.17531097 0)
(4.9179314 0.16842581 0)
(4.734762 0.16197361 0)
(4.559657 0.15587255 0)
(4.3919364 0.15005901 0)
(4.231036 0.14450155 0)
(4.0764575 0.13913624 0)
(3.9277429 0.13393633 0)
(3.7845421 0.12887581 0)
(3.6465459 0.12393511 0)
(3.5134917 0.11909931 0)
(3.3851553 0.11435748 0)
(3.2613446 0.1097019 0)
(3.1419019 0.10512733 0)
(3.0266771 0.10063073 0)
(2.9156146 0.096209277 0)
(2.8084419 0.091862007 0)
(2.704987 0.087587222 0)
(2.6052595 0.083396674 0)
(2.5091443 0.079290718 0)
(2.4166309 0.075270331 0)
(2.32735 0.071338978 0)
(2.241312 0.067514416 0)
(2.1587065 0.063804315 0)
(2.0793175 0.060202113 0)
(46.371264 5.3645309 0)
(36.182672 6.6219245 0)
(30.079947 5.6036755 0)
(26.139476 4.4972723 0)
(22.942368 3.5416012 0)
(20.311311 2.796174 0)
(18.108002 2.2191703 0)
(16.253054 1.7817051 0)
(14.694575 1.4499693 0)
(13.382915 1.1970077 0)
(12.276743 1.0025732 0)
(11.338278 0.85297765 0)
(10.535241 0.7366852 0)
(9.8424337 0.64515316 0)
(9.2394342 0.57244489 0)
(8.7097692 0.5139807 0)
(8.2402294 0.46657097 0)
(7.8201604 0.42768431 0)
(7.440959 0.39543634 0)
(7.0977548 0.36889596 0)
(6.7831039 0.34431395 0)
(6.4911911 0.32480317 0)
(6.2203191 0.30723054 0)
(5.9674493 0.29193733 0)
(5.7305116 0.27830313 0)
(5.5073636 0.26602442 0)
(5.2963892 0.25484457 0)
(5.0962187 0.24455888 0)
(4.9057268 0.2350031 0)
(4.7239339 0.22603922 0)
(4.5500409 0.21755855 0)
(4.3833971 0.2094721 0)
(4.2234528 0.20173505 0)
(4.0697239 0.19426167 0)
(3.921771 0.18701481 0)
(3.779254 0.17995887 0)
(3.6418732 0.17306706 0)
(3.5093738 0.16631902 0)
(3.3815381 0.15969989 0)
(3.2581796 0.15319927 0)
(3.1391455 0.14681014 0)
(3.0242898 0.14052873 0)
(2.9135607 0.13435087 0)
(2.806689 0.12827786 0)
(2.7035079 0.12230817 0)
(2.6040296 0.11645526 0)
(2.5081381 0.11071918 0)
(2.415825 0.10510271 0)
(2.3267271 0.099610797 0)
(2.2408577 0.094266045 0)
(2.1584018 0.089081035 0)
(2.0791438 0.084046347 0)
(33.60436 6.734945 0)
(27.009176 7.8098704 0)
(24.19991 6.1765727 0)
(22.335653 4.9582734 0)
(20.398083 3.9976529 0)
(18.569347 3.2368765 0)
(16.890658 2.6214318 0)
(15.387008 2.1371426 0)
(14.066155 1.760855 0)
(12.917646 1.4686911 0)
(11.925869 1.2401958 0)
(11.069033 1.0620316 0)
(10.324988 0.92202495 0)
(9.675601 0.81083759 0)
(9.1051151 0.72190281 0)
(8.600186 0.6499607 0)
(8.1497669 0.59134349 0)
(7.7446513 0.54303339 0)
(7.3774085 0.50276448 0)
(7.0434443 0.4694116 0)
(6.7364236 0.43952453 0)
(6.451076 0.41451884 0)
(6.1854678 0.39239142 0)
(5.9370834 0.3730772 0)
(5.7038992 0.35583999 0)
(5.483955 0.34029606 0)
(5.2757347 0.32612464 0)
(5.0779493 0.31307017 0)
(4.8895353 0.30092795 0)
(4.7095631 0.28952273 0)
(4.5372747 0.27872466 0)
(4.3720564 0.26841951 0)
(4.2133787 0.25854836 0)
(4.060776 0.24900733 0)
(3.9138333 0.23974917 0)
(3.7722234 0.23072951 0)
(3.6356591 0.22191491 0)
(3.5038961 0.2132801 0)
(3.3767251 0.20480668 0)
(3.2539673 0.19648187 0)
(3.1354761 0.18829711 0)
(3.0211107 0.18024795 0)
(2.910825 0.17232946 0)
(2.8043541 0.16454504 0)
(2.7015367 0.15689349 0)
(2.6023892 0.14938995 0)
(2.506795 0.14203495 0)
(2.4147479 0.13483282 0)
(2.3258927 0.12778982 0)
(2.2402478 0.12093328 0)
(2.1579915 0.11428151 0)
(2.0789076 0.10782233 0)
(10.765968 7.3545849 0)
(17.409692 6.9398522 0)
(18.593436 5.8131445 0)
(18.68464 4.9213371 0)
(17.880195 4.1381219 0)
(16.792384 3.4576988 0)
(15.614939 2.8708281 0)
(14.459283 2.3849248 0)
(13.381848 1.9934419 0)
(12.404337 1.681939 0)
(11.534549 1.4337402 0)
(10.766117 1.2370574 0)
(10.086763 1.0804923 0)
(9.4854899 0.95482799 0)
(8.9513416 0.85348503 0)
(8.4742505 0.77092129 0)
(8.0454698 0.70326614 0)
(7.6573565 0.64719932 0)
(7.3037664 0.60033338 0)
(6.9805263 0.56125843 0)
(6.6822353 0.52665663 0)
(6.4043402 0.49696743 0)
(6.1448768 0.4709064 0)
(5.9016808 0.44805321 0)
(5.6728562 0.42762445 0)
(5.4566368 0.40917162 0)
(5.251622 0.39232083 0)
(5.0566156 0.37677444 0)
(4.8706244 0.3622943 0)
(4.6927779 0.3486715 0)
(4.5223651 0.33576276 0)
(4.3588129 0.32343072 0)
(4.2016169 0.311602 0)
(4.0503332 0.30015994 0)
(3.9045739 0.28904827 0)
(3.7640272 0.27821517 0)
(3.6284205 0.2676217 0)
(3.4975212 0.25723853 0)
(3.3711305 0.24704445 0)
(3.2490777 0.23702475 0)
(3.1312242 0.22716984 0)
(3.017435 0.21747432 0)
(2.9076706 0.20793447 0)
(2.801671 0.19855268 0)
(2.6992808 0.18933179 0)
(2.600521 0.18028575 0)
(2.5052755 0.17141804 0)
(2.4135405 0.16273434 0)
(2.3249695 0.15423888 0)
(2.239587 0.14596875 0)
(2.1575645 0.13794369 0)
(2.0786844 0.13015108 0)
(4.1256396 3.1029469 0)
(11.540724 4.5975148 0)
(14.179965 4.8924775 0)
(15.478002 4.5622004 0)
(15.54221 4.0555321 0)
(15.078794 3.5152564 0)
(14.350414 3.0000608 0)
(13.518923 2.5456289 0)
(12.67552 2.1621172 0)
(11.867224 1.8465474 0)
(11.120622 1.5900579 0)
(10.442801 1.3830701 0)
(9.8306336 1.215945 0)
(9.2798836 1.0802203 0)
(8.7842371 0.96975525 0)
(8.3368619 0.87904656 0)
(7.93132 0.80424032 0)
(7.5615867 0.74190714 0)
(7.2227959 0.68968988 0)
(6.9112812 0.64575795 0)
(6.6225284 0.60698 0)
(6.3527452 0.57334991 0)
(6.100058 0.54387559 0)
(5.862566 0.51790607 0)
(5.6385567 0.49464534 0)
(5.4264591 0.4735932 0)
(5.2249973 0.45433313 0)
(5.033076 0.43653333 0)
(4.8497773 0.41992819 0)
(4.6742967 0.4042796 0)
(4.5059747 0.38943538 0)
(4.3442796 0.37523965 0)
(4.1887367 0.36160227 0)
(4.0389266 0.3483995 0)
(3.8944899 0.33556671 0)
(3.7551322 0.32304586 0)
(3.6205968 0.31079352 0)
(3.4906642 0.29877706 0)
(3.3651468 0.28697309 0)
(3.2438836 0.27536541 0)
(3.1267441 0.26394384 0)
(3.0136004 0.25270191 0)
(2.9044195 0.24163854 0)
(2.7989471 0.23075292 0)
(2.6970339 0.2200546 0)
(2.5987055 0.20955429 0)
(2.5038477 0.19926038 0)
(2.4124584 0.18917961 0)
(2.3242016 0.17931214 0)
(2.239108 0.16970795 0)
(2.1573416 0.16038529 0)
(2.0786847 0.1513327 0)
(2.4434607 1.2120675 0)
(7.932834 2.6918195 0)
(10.739615 3.8075611 0)
(12.633116 3.994339 0)
(13.319764 3.7984993 0)
(13.373575 3.4401921 0)
(13.049495 3.0312637 0)
(12.526487 2.6351449 0)
(11.914426 2.2798443 0)
(11.279099 1.9749405 0)
(10.661621 1.7204288 0)
(10.080548 1.5102097 0)
(9.5412367 1.3376859 0)
(9.0459718 1.1956853 0)
(8.5930536 1.0788251 0)
(8.1789462 0.98196236 0)
(7.799621 0.90146926 0)
(7.4507766 0.83405188 0)
(7.1288314 0.77728423 0)
(6.8307721 0.72898472 0)
(6.5530354 0.68641756 0)
(6.2925888 0.6493102 0)
(6.0477433 0.61670432 0)
(5.8168661 0.58783769 0)
(5.5984666 0.56191487 0)
(5.3911802 0.53839502 0)
(5.1938731 0.51682867 0)
(5.005565 0.49685604 0)
(4.8254237 0.47818738 0)
(4.6527217 0.46056182 0)
(4.4868592 0.44381633 0)
(4.3273489 0.42778545 0)
(4.1737525 0.41235605 0)
(4.0256805 0.39740353 0)
(3.8828045 0.38285483 0)
(3.7448506 0.36864665 0)
(3.6115807 0.35473177 0)
(3.4827906 0.34107492 0)
(3.3583059 0.32765099 0)
(3.2379768 0.31444274 0)
(3.121682 0.30143973 0)
(3.0093027 0.28863481 0)
(2.9008123 0.27602954 0)
(2.7959639 0.26362067 0)
(2.6946146 0.25142389 0)
(2.5967943 0.23944768 0)
(2.5023931 0.22770516 0)
(2.4114107 0.21620439 0)
(2.3235224 0.20494267 0)
(2.2387664 0.19398095 0)
(2.1572983 0.18333757 0)
(2.0789016 0.1730016 0)
(1.920677 0.58569569 0)
(5.6481944 1.4988678 0)
(8.1595371 2.8136294 0)
(10.225801 3.3407638 0)
(11.295143 3.4238999 0)
(11.739349 3.2578004 0)
(11.75532 2.9744636 0)
(11.510217 2.6559441 0)
(11.117341 2.3454253 0)
(10.652062 2.0650292 0)
(10.165048 1.8225127 0)
(9.6839446 1.6164273 0)
(9.2214292 1.4436632 0)
(8.7854702 1.2994592 0)
(8.3787554 1.1791929 0)
(8.0009896 1.0784563 0)
(7.6505786 0.99398787 0)
(7.3249043 0.92277767 0)
(7.0216846 0.86226663 0)
(6.7387529 0.81027143 0)
(6.4735008 0.76451156 0)
(6.2236082 0.724408 0)
(5.9876539 0.68900738 0)
(5.7643024 0.65751576 0)
(5.5523109 0.62914553 0)
(5.3505325 0.60332748 0)
(5.1579915 0.57958979 0)
(4.9738354 0.5575521 0)
(4.7973279 0.53690354 0)
(4.6278283 0.51737077 0)
(4.4648053 0.49877616 0)
(4.3078187 0.48095202 0)
(4.1564723 0.46376087 0)
(4.0104127 0.44708095 0)
(3.8693447 0.43083161 0)
(3.7330185 0.41494548 0)
(3.6012165 0.39937238 0)
(3.4737527 0.38407511 0)
(3.3504673 0.36902749 0)
(3.2312234 0.35421179 0)
(3.1159108 0.33961767 0)
(3.0044206 0.32523795 0)
(2.8967335 0.31107648 0)
(2.7926109 0.29712908 0)
(2.6919173 0.28341627 0)
(2.594687 0.2699459 0)
(2.5008163 0.25673511 0)
(2.4103064 0.24379373 0)
(2.3228456 0.23111865 0)
(2.2384805 0.21877842 0)
(2.1573578 0.20679304 0)
(2.0792621 0.19515178 0)
(1.6688618 0.27852762 0)
(4.1759379 0.77025881 0)
(6.2676 1.9908288 0)
(8.2563063 2.6893615 0)
(9.5123787 2.9857939 0)
(10.221599 2.9966295 0)
(10.504676 2.8434868 0)
(10.497097 2.6139072 0)
(10.303025 2.3608551 0)
(9.9987914 2.116159 0)
(9.6394318 1.8946847 0)
(9.2584967 1.6999431 0)
(8.8747243 1.5323215 0)
(8.5006565 1.3900228 0)
(8.1427589 1.2694783 0)
(7.8038422 1.1674116 0)
(7.484618 1.0807987 0)
(7.184097 1.007084 0)
(6.9013456 0.9438199 0)
(6.6351381 0.88901487 0)
(6.3837668 0.84072656 0)
(6.1455996 0.79815014 0)
(5.919561 0.76036213 0)
(5.7046347 0.72657491 0)
(5.4998451 0.69601941 0)
(5.3042726 0.66811298 0)
(5.1171142 0.64237308 0)
(4.9376554 0.61840716 0)
(4.7652668 0.59588685 0)
(4.5994033 0.57453809 0)
(4.4396086 0.55416778 0)
(4.2854937 0.53460591 0)
(4.1367097 0.51569851 0)
(3.9929459 0.49732631 0)
(3.853942 0.47940295 0)
(3.7194752 0.46185832 0)
(3.5893518 0.44464033 0)
(3.4634052 0.42771074 0)
(3.3414928 0.41104299 0)
(3.2234923 0.39461952 0)
(3.1093054 0.37843059 0)
(2.9988349 0.36246967 0)
(2.8920697 0.34674274 0)
(2.7887803 0.33124599 0)
(2.6888392 0.31600381 0)
(2.5922861 0.30102479 0)
(2.4990248 0.28632941 0)
(2.4090579 0.27192996 0)
(2.3220882 0.25782445 0)
(2.2381719 0.24408905 0)
(2.1574457 0.23074202 0)
(2.079696 0.21777537 0)
(1.5184055 0.083304332 0)
(3.2263739 0.31664744 0)
(4.9026883 1.3420417 0)
(6.6852345 2.0904618 0)
(7.9849563 2.5275271 0)
(8.8491367 2.684933 0)
(9.3261121 2.6547255 0)
(9.5108283 2.5176451 0)
(9.4893361 2.3299819 0)
(9.3321126 2.1293854 0)
(9.0936719 1.9365116 0)
(8.8104415 1.7595707 0)
(8.505316 1.6025413 0)
(8.1942733 1.4661833 0)
(7.8869012 1.3485598 0)
(7.5886689 1.2476701 0)
(7.3023803 1.160816 0)
(7.0287155 1.0860285 0)
(6.7680014 1.0212116 0)
(6.5199659 0.96458761 0)
(6.2837634 0.91448938 0)
(6.0584313 0.87002762 0)
(5.8432929 0.83032612 0)
(5.6376665 0.794628 0)
(5.4408579 0.76219689 0)
(5.2521824 0.73245288 0)
(5.0710213 0.70491511 0)
(4.8968064 0.67918747 0)
(4.7290265 0.65493044 0)
(4.5672391 0.63187945 0)
(4.4110668 0.60982749 0)
(4.2601785 0.58859992 0)
(4.1142773 0.56803744 0)
(3.9731 0.54802179 0)
(3.8364235 0.52846322 0)
(3.7040553 0.50929045 0)
(3.5758278 0.49045065 0)
(3.4515964 0.47190558 0)
(3.3312373 0.45362918 0)
(3.2146444 0.43560476 0)
(3.101733 0.41782382 0)
(2.9924188 0.40028115 0)
(2.8866994 0.38298503 0)
(2.7843558 0.36593293 0)
(2.6852695 0.34915272 0)
(2.589486 0.33265456 0)
(2.4969177 0.31646206 0)
(2.407569 0.30059044 0)
(2.3211596 0.28503977 0)
(2.2377544 0.26989721 0)
(2.1574797 0.25517071 0)
(2.0801251 0.24086069 0)
(1.4210427 -0.03780848 0)
(2.6095193 0.034825473 0)
(3.9265102 0.84691006 0)
(5.4551752 1.5683016 0)
(6.7046907 2.0808925 0)
(7.6357061 2.3482375 0)
(8.2395744 2.4253077 0)
(8.5706007 2.3774548 0)
(8.6922881 2.258232 0)
(8.664322 2.1071991 0)
(8.5368737 1.9487091 0)
(8.3463708 1.7951288 0)
(8.1178521 1.6535434 0)
(7.869528 1.5270228 0)
(7.6133421 1.4154891 0)
(7.3569048 1.3181487 0)
(7.1048231 1.233059 0)
(6.8593608 1.1588036 0)
(6.6220045 1.0937231 0)
(6.3934024 1.0363245 0)
(6.1735255 0.98521276 0)
(5.9620579 0.93952108 0)
(5.7587467 0.89844103 0)
(5.5632556 0.86126927 0)
(5.3751807 0.82731878 0)
(5.1940771 0.79602891 0)
(5.0195189 0.76693319 0)
(4.85109 0.73963974 0)
(4.6884087 0.71381127 0)
(4.5311396 0.68919416 0)
(4.3789865 0.66557454 0)
(4.2316836 0.64277251 0)
(4.0889913 0.62063238 0)
(3.9506969 0.59903666 0)
(3.8166171 0.57789474 0)
(3.6865928 0.55713584 0)
(3.5604848 0.53670783 0)
(3.4381727 0.51657361 0)
(3.3195532 0.4967086 0)
(3.204538 0.47709783 0)
(3.0930575 0.45773472 0)
(2.9850415 0.4386162 0)
(2.8804973 0.41975307 0)
(2.7792176 0.401145 0)
(2.6810932 0.38282307 0)
(2.5861765 0.36479986 0)
(2.4943898 0.34710181 0)
(2.4057397 0.32974797 0)
(2.3199653 0.31274113 0)
(2.237138 0.2961814 0)
(2.1573732 0.28006089 0)
(2.0804673 0.26439218 0)
(1.3537901 -0.10849272 0)
(2.2020919 -0.13802464 0)
(3.2291343 0.47831902 0)
(4.5043635 1.1301427 0)
(5.6498754 1.666842 0)
(6.582869 2.0075458 0)
(7.2567232 2.1714798 0)
(7.6907307 2.2043424 0)
(7.925328 2.1522714 0)
(8.0066763 2.0532088 0)
(7.9778657 1.9330502 0)
(7.87297 1.8071374 0)
(7.7172557 1.6850613 0)
(7.5299685 1.5719236 0)
(7.3245816 1.4694562 0)
(7.1102889 1.3780525 0)
(6.8931586 1.2967313 0)
(6.6768471 1.2246544 0)
(6.4638773 1.1606495 0)
(6.2557547 1.1035703 0)
(6.0532063 1.0523127 0)
(5.8565272 1.0061062 0)
(5.6658941 0.96423743 0)
(5.4813198 0.92607852 0)
(5.3026929 0.8910096 0)
(5.1298101 0.85850552 0)
(4.9624423 0.82812674 0)
(4.8003319 0.79949386 0)
(4.6432331 0.77228928 0)
(4.4909211 0.74626608 0)
(4.3431837 0.7212121 0)
(4.1998268 0.69694752 0)
(4.0606726 0.67332414 0)
(3.925561 0.65022708 0)
(3.7943516 0.62756746 0)
(3.6669212 0.60527686 0)
(3.5431614 0.58330545 0)
(3.4229778 0.56161856 0)
(3.3062894 0.54019416 0)
(3.1930274 0.51902002 0)
(3.0831383 0.49809223 0)
(2.9765676 0.47741069 0)
(2.8733333 0.45698917 0)
(2.7732402 0.43683031 0)
(2.6761899 0.41696845 0)
(2.5822423 0.39741918 0)
(2.4913307 0.37821172 0)
(2.4034643 0.35937018 0)
(2.3184046 0.34090098 0)
(2.2362263 0.32291454 0)
(2.1570338 0.30538977 0)
(2.0806345 0.2883502 0)
(1.3050164 -0.14783723 0)
(1.9275938 -0.24242774 0)
(2.7288473 0.20898979 0)
(3.7751156 0.77277692 0)
(4.7920332 1.2970716 0)
(5.6833532 1.6786374 0)
(6.3820275 1.9074663 0)
(6.8807103 2.009133 0)
(7.1989977 2.0194115 0)
(7.3689168 1.9719007 0)
(7.4248613 1.8920535 0)
(7.3967658 1.7967787 0)
(7.3085498 1.697385 0)
(7.1793654 1.6006601 0)
(7.0233937 1.5099452 0)
(6.8508298 1.4267789 0)
(6.6688295 1.3511671 0)
(6.4821906 1.2829019 0)
(6.2943158 1.2213334 0)
(6.1074771 1.1657036 0)
(5.9230816 1.1152194 0)
(5.7419873 1.0692621 0)
(5.5647892 1.0272417 0)
(5.3918441 0.98862661 0)
(5.2233283 0.95288153 0)
(5.0592783 0.91953265 0)
(4.8996622 0.88817876 0)
(4.7443858 0.85846649 0)
(4.5933423 0.83010718 0)
(4.4464173 0.80286287 0)
(4.3034878 0.77652874 0)
(4.1644361 0.75093406 0)
(4.0291491 0.72593957 0)
(3.8975217 0.70143592 0)
(3.7694588 0.67733872 0)
(3.6448756 0.65358395 0)
(3.5236964 0.6301258 0)
(3.4058546 0.60693349 0)
(3.2912933 0.58398879 0)
(3.1799644 0.56128319 0)
(3.071832 0.53881642 0)
(2.9668584 0.51659216 0)
(2.8650731 0.49462775 0)
(2.7662942 0.47292961 0)
(2.6704349 0.45153545 0)
(2.5775633 0.4304646 0)
(2.487625 0.40974872 0)
(2.4006324 0.38941884 0)
(2.3163716 0.36948554 0)
(2.2349179 0.35006551 0)
(2.1563648 0.33112998 0)
(2.0805338 0.31271073 0)
(1.2687575 -0.16783632 0)
(1.7389846 -0.30367414 0)
(2.3673053 0.015145622 0)
(3.2178924 0.48752419 0)
(4.1008725 0.97620059 0)
(4.9242784 1.3722399 0)
(5.6142401 1.6448787 0)
(6.1455742 1.8017126 0)
(6.5209067 1.8670413 0)
(6.7590113 1.8683239 0)
(6.8851373 1.8288538 0)
(6.923913 1.7657902 0)
(6.8966904 1.6913137 0)
(6.8215917 1.6134147 0)
(6.7127404 1.5367548 0)
(6.5807498 1.4639221 0)
(6.4334865 1.3958441 0)
(6.2765984 1.3329704 0)
(6.1141859 1.2751877 0)
(5.9491719 1.2221493 0)
(5.7835537 1.1733895 0)
(5.6186916 1.128481 0)
(5.4555737 1.086984 0)
(5.2948861 1.0484818 0)
(5.1370806 1.0125391 0)
(4.9824278 0.97874925 0)
(4.8310903 0.94676089 0)
(4.6831387 0.91626102 0)
(4.5386041 0.88699384 0)
(4.3974827 0.85873634 0)
(4.259745 0.83129948 0)
(4.1253525 0.80452727 0)
(3.994259 0.77829196 0)
(3.8664159 0.75249299 0)
(3.7417759 0.7270533 0)
(3.6202945 0.70191551 0)
(3.5019304 0.67703971 0)
(3.3866467 0.6524006 0)
(3.2744116 0.62798505 0)
(3.1651994 0.60378943 0)
(3.0589928 0.57981808 0)
(2.955772 0.5560794 0)
(2.8555791 0.53259498 0)
(2.7582464 0.50937578 0)
(2.6636992 0.48646334 0)
(2.5720149 0.46388115 0)
(2.4831526 0.44166314 0)
(2.3971291 0.41984935 0)
(2.3137554 0.39845464 0)
(2.2331059 0.37759842 0)
(2.1552637 0.35724923 0)
(2.080067 0.33744488 0)
(1.2414646 -0.17557153 0)
(1.6068499 -0.33720627 0)
(2.1035704 -0.1222425 0)
(2.7923308 0.26371196 0)
(3.547449 0.70401422 0)
(4.2898501 1.0947211 0)
(4.9479769 1.3925225 0)
(5.4865968 1.5906065 0)
(5.8958295 1.7021823 0)
(6.1830829 1.7477011 0)
(6.364845 1.7470391 0)
(6.4599696 1.7163951 0)
(6.486415 1.6680637 0)
(6.4605093 1.6107413 0)
(6.3956846 1.5499998 0)
(6.3024302 1.4893 0)
(6.1889558 1.4304078 0)
(6.0614497 1.3744072 0)
(5.9245127 1.3217128 0)
(5.7815846 1.2723931 0)
(5.6351504 1.2263179 0)
(5.4870015 1.1832783 0)
(5.3384813 1.1430066 0)
(5.190581 1.1052165 0)
(5.0440083 1.0695846 0)
(4.8992594 1.0357887 0)
(4.7566841 1.003537 0)
(4.6165148 0.97256934 0)
(4.4789168 0.94266505 0)
(4.3439971 0.91362576 0)
(4.211822 0.88528633 0)
(4.0824333 0.85750911 0)
(3.9558529 0.83018155 0)
(3.8320903 0.80321531 0)
(3.7111475 0.77654359 0)
(3.5930218 0.75011799 0)
(3.4777078 0.72390652 0)
(3.3651995 0.69789105 0)
(3.255492 0.67206498 0)
(3.1485826 0.64643078 0)
(3.0444739 0.62099845 0)
(2.943165 0.5957821 0)
(2.8447115 0.57080833 0)
(2.7489607 0.54609351 0)
(2.6558508 0.52168347 0)
(2.5654688 0.49760659 0)
(2.4777897 0.47389827 0)
(2.3928351 0.45061057 0)
(2.3104406 0.42776185 0)
(2.2306789 0.40547169 0)
(2.1536235 0.38370978 0)
(2.079131 0.3625188 0)
(1.2206846 -0.17550778 0)
(1.5124098 -0.35260952 0)
(1.9090685 -0.21773847 0)
(2.4666346 0.090714622 0)
(3.1058636 0.47736697 0)
(3.7633816 0.84900905 0)
(4.3751849 1.1565433 0)
(4.9020939 1.3827631 0)
(5.326023 1.5311684 0)
(5.6454013 1.6151335 0)
(5.8689375 1.6503847 0)
(6.0097564 1.6511666 0)
(6.0820792 1.6292494 0)
(6.0998669 1.5935333 0)
(6.0753075 1.5500746 0)
(6.0183492 1.5029655 0)
(5.9371977 1.4546889 0)
(5.8382699 1.4068973 0)
(5.7264662 1.3605108 0)
(5.605597 1.3159945 0)
(5.4785234 1.273551 0)
(5.3473876 1.2332039 0)
(5.213841 1.194873 0)
(5.0791447 1.1584148 0)
(4.9442401 1.1236254 0)
(4.8098334 1.0902839 0)
(4.6764509 1.0581666 0)
(4.5444793 1.0270743 0)
(4.414213 0.99682636 0)
(4.2858694 0.96726041 0)
(4.1596096 0.93823976 0)
(4.0355555 0.90964959 0)
(3.9137977 0.88139647 0)
(3.7944045 0.85340781 0)
(3.6774281 0.82563 0)
(3.5629089 0.79802611 0)
(3.4508784 0.77057417 0)
(3.3413628 0.74326496 0)
(3.2343845 0.71609997 0)
(3.1299653 0.68908904 0)
(3.0281286 0.66224897 0)
(2.9288931 0.63560054 0)
(2.8323289 0.60917625 0)
(2.7382989 0.58299878 0)
(2.6467549 0.55711908 0)
(2.5577938 0.53157082 0)
(2.4714086 0.5063901 0)
(2.3876273 0.48164432 0)
(2.3063076 0.45735421 0)
(2.227521 0.4336375 0)
(2.1513325 0.41046823 0)
(2.0776178 0.38789282 0)
(1.204626 -0.17063106 0)
(1.4434634 -0.35603926 0)
(1.7638472 -0.28226368 0)
(2.2162972 -0.041057334 0)
(2.7539343 0.29160481 0)
(3.3286632 0.63553039 0)
(3.8863731 0.94077584 0)
(4.3882319 1.1835138 0)
(4.8116371 1.3594374 0)
(5.1485179 1.4753762 0)
(5.4011156 1.542633 0)
(5.5773164 1.5729006 0)
(5.6875666 1.5768235 0)
(5.7431597 1.5629827 0)
(5.7546188 1.5376241 0)
(5.7310244 1.5051952 0)
(5.6802586 1.4686985 0)
(5.6086979 1.4302752 0)
(5.5213412 1.3913013 0)
(5.4222146 1.3526001 0)
(5.3144411 1.3146986 0)
(5.2004269 1.2778528 0)
(5.0820767 1.2421771 0)
(4.9608768 1.2076788 0)
(4.8379776 1.1742816 0)
(4.7142733 1.1418726 0)
(4.5904515 1.1103082 0)
(4.4670431 1.0794535 0)
(4.3444652 1.0491779 0)
(4.2230416 1.0193614 0)
(4.1030259 0.98990059 0)
(3.9846187 0.96070821 0)
(3.8679789 0.93171387 0)
(3.7532334 0.90286414 0)
(3.6404849 0.87412161 0)
(3.5298174 0.84546331 0)
(3.4213002 0.81687944 0)
(3.314992 0.78837157 0)
(3.2109437 0.75995081 0)
(3.109202 0.73163576 0)
(3.009812 0.70345114 0)
(2.9128128 0.67542544 0)
(2.8182897 0.64759798 0)
(2.7261217 0.61999874 0)
(2.6362751 0.59268474 0)
(2.548856 0.56569566 0)
(2.4638793 0.53906683 0)
(2.3813796 0.5128853 0)
(2.3012337 0.48717188 0)
(2.223513 0.46204147 0)
(2.148275 0.43747489 0)
(2.0754152 0.41352145 0)
(1.1919911 -0.16295034 0)
(1.3919876 -0.35155189 0)
(1.6539271 -0.32394171 0)
(2.0226917 -0.13980357 0)
(2.4732318 0.14152706 0)
(2.9707855 0.45303802 0)
(3.4715619 0.74718034 0)
(3.9397682 0.99667063 0)
(4.3511645 1.1914354 0)
(4.6934625 1.3326777 0)
(4.9639048 1.4273863 0)
(5.1658678 1.4844593 0)
(5.3062163 1.5129077 0)
(5.3935487 1.5205475 0)
(5.4364824 1.5135393 0)
(5.4429432 1.496461 0)
(5.4202284 1.4726232 0)
(5.3744579 1.4445313 0)
(5.3105334 1.4139292 0)
(5.2325505 1.381954 0)
(5.1437799 1.3494444 0)
(5.0467989 1.3168749 0)
(4.9437049 1.2845529 0)
(4.8361621 1.2526395 0)
(4.7254979 1.2211904 0)
(4.6127675 1.1902033 0)
(4.4988036 1.1596236 0)
(4.3842668 1.129386 0)
(4.2696882 1.0994172 0)
(4.1554922 1.0696444 0)
(4.0420202 1.0400024 0)
(3.9295492 1.0104359 0)
(3.8183044 0.9809014 0)
(3.7084705 0.95136789 0)
(3.6002004 0.92181704 0)
(3.4936215 0.8922424 0)
(3.388841 0.86264849 0)
(3.2859506 0.83304952 0)
(3.1850302 0.80346786 0)
(3.0861516 0.77393223 0)
(2.9893823 0.7444765 0)
(2.8947824 0.71513782 0)
(2.8024531 0.6859633 0)
(2.7122903 0.65699122 0)
(2.6242747 0.62828617 0)
(2.5385209 0.59989444 0)
(2.4550699 0.57184878 0)
(2.3739638 0.54426064 0)
(2.2950932 0.51714788 0)
(2.2185319 0.49062209 0)
(2.1443316 0.4646733 0)
(2.0724068 0.43935153 0)
(1.1818524 -0.15379369 0)
(1.3526617 -0.34187933 0)
(1.5694969 -0.34878754 0)
(1.8717893 -0.21231098 0)
(2.2487743 0.021980844 0)
(2.6765488 0.29927615 0)
(3.1209574 0.57629114 0)
(3.5506767 0.82471203 0)
(3.9418886 1.0306153 0)
(4.2800137 1.1906867 0)
(4.5587367 1.3080004 0)
(4.7777791 1.3886245 0)
(4.9408062 1.4396744 0)
(5.0538296 1.4678686 0)
(5.1235342 1.4789437 0)
(5.1564978 1.4774237 0)
(5.1591996 1.4668237 0)
(5.1373221 1.449806 0)
(5.0955113 1.4283678 0)
(5.0378062 1.4039054 0)
(4.9675111 1.3775552 0)
(4.8872771 1.3499841 0)
(4.7993322 1.3216834 0)
(4.7054684 1.2929645 0)
(4.6071529 1.2640131 0)
(4.5055724 1.2349405 0)
(4.4016848 1.2057852 0)
(4.296264 1.1765564 0)
(4.1899434 1.1472427 0)
(4.0832397 1.1178227 0)
(3.9765764 1.0882741 0)
(3.8703026 1.0585773 0)
(3.7647072 1.0287191 0)
(3.6600308 0.99869401 0)
(3.5564751 0.96850567 0)
(3.4542103 0.9381665 0)
(3.3533813 0.90769749 0)
(3.2541125 0.87712739 0)
(3.1565128 0.84649142 0)
(3.0606795 0.81582983 0)
(2.9667026 0.78518678 0)
(2.8746639 0.75460911 0)
(2.7846807 0.72415256 0)
(2.6966667 0.69386482 0)
(2.6106175 0.66381993 0)
(2.5266535 0.63407121 0)
(2.4448478 0.60464858 0)
(2.3652502 0.57568994 0)
(2.2877584 0.5472076 0)
(2.2124527 0.51931004 0)
(2.1393792 0.49199826 0)
(1.1735494 -0.14402072 0)
(1.3219161 -0.32889323 0)
(1.5036491 -0.361252 0)
(1.7531009 -0.26409055 0)
(2.0685728 -0.071810841 0)
(2.43459 0.17147502 0)
(2.8253878 0.42762573 0)
(3.2146419 0.66901088 0)
(3.5802899 0.87949994 0)
(3.9069694 1.0524035 0)
(4.1860966 1.1874575 0)
(4.4146221 1.2880428 0)
(4.5935104 1.3592896 0)
(4.7264162 1.406645 0)
(4.8181478 1.4350956 0)
(4.8739212 1.4489728 0)
(4.8992126 1.4518371 0)
(4.8990753 1.4463837 0)
(4.8777904 1.4347167 0)
(4.8392502 1.4184128 0)
(4.7866852 1.3988886 0)
(4.7227192 1.3769669 0)
(4.6496493 1.3533087 0)
(4.5693434 1.3283649 0)
(4.4833678 1.3024447 0)
(4.3930126 1.2757722 0)
(4.2993344 1.2484819 0)
(4.2032031 1.2206594 0)
(4.1053404 1.192358 0)
(4.0063452 1.1636114 0)
(3.9067155 1.1344433 0)
(3.8068671 1.1048733 0)
(3.7071486 1.0749214 0)
(3.6078534 1.0446107 0)
(3.5092303 1.013969 0)
(3.4114908 0.98303019 0)
(3.3148164 0.95183362 0)
(3.2193639 0.92042441 0)
(3.1252707 0.88885225 0)
(3.0326596 0.85717031 0)
(2.941643 0.82543421 0)
(2.8523242 0.79370133 0)
(2.7648379 0.7620368 0)
(2.679116 0.73049878 0)
(2.5951688 0.69917256 0)
(2.5131205 0.66812105 0)
(2.4330813 0.63737057 0)
(2.3551085 0.60708574 0)
(2.2791002 0.57726864 0)
(2.2051475 0.54802804 0)
(2.1332927 0.51937688 0)
(1.1666145 -0.1341703 0)
(1.2973299 -0.31388562 0)
(1.4515018 -0.3646454 0)
(1.658835 -0.29955027 0)
(1.9231517 -0.14410697 0)
(2.2353302 0.066688381 0)
(2.5765507 0.30002922 0)
(2.9254236 0.53007086 0)
(3.2623918 0.73978957 0)
(3.5724063 0.92018495 0)
(3.8456906 1.0683118 0)
(4.0772565 1.1851361 0)
(4.2659243 1.2738589 0)
(4.4132854 1.3385742 0)
(4.5224393 1.3833619 0)
(4.597275 1.4121629 0)
(4.642192 1.4283814 0)
(4.6614638 1.4346888 0)
(4.6589016 1.4331917 0)
(4.638196 1.425541 0)
(4.6024155 1.413395 0)
(4.5540545 1.3976894 0)
(4.4954221 1.3792333 0)
(4.4284085 1.3586027 0)
(4.3546399 1.3362193 0)
(4.2754793 1.312417 0)
(4.1920534 1.2874246 0)
(4.1053089 1.2614048 0)
(4.0160398 1.2344768 0)
(3.9249154 1.206731 0)
(3.832499 1.1782397 0)
(3.7392666 1.1490641 0)
(3.645621 1.11926 0)
(3.5519049 1.0888813 0)
(3.458411 1.0579827 0)
(3.3653902 1.026621 0)
(3.2730593 0.99485622 0)
(3.1816061 0.96275144 0)
(3.0911959 0.93037239 0)
(3.0019762 0.89778648 0)
(2.9140817 0.86506194 0)
(2.8276374 0.83226748 0)
(2.7427952 0.79947821 0)
(2.6595066 0.76676309 0)
(2.5777973 0.73422113 0)
(2.4977914 0.70192708 0)
(2.4196411 0.66991403 0)
(2.3434092 0.63835313 0)
(2.268988 0.60724075 0)
(2.1964874 0.57669088 0)
(2.1259459 0.54673051 0)
(1.1607178 -0.12456513 0)
(1.2772457 -0.2977517 0)
(1.4095743 -0.36143872 0)
(1.5832216 -0.32219871 0)
(1.8051296 -0.1985848 0)
(2.0708392 -0.017984977 0)
(2.3671243 0.19193303 0)
(2.6771058 0.40773742 0)
(2.9840385 0.61248349 0)
(3.2739156 0.79577908 0)
(3.5366115 0.95266034 0)
(3.7659317 1.0820497 0)
(3.9590987 1.1853741 0)
(4.1160012 1.2653642 0)
(4.2382251 1.3251695 0)
(4.3284145 1.3681194 0)
(4.3899159 1.3972975 0)
(4.4261545 1.4152933 0)
(4.440355 1.4241304 0)
(4.4359812 1.425457 0)
(4.4158608 1.4211146 0)
(4.3822702 1.4121012 0)
(4.337481 1.3993337 0)
(4.2833523 1.3834983 0)
(4.2215331 1.3651173 0)
(4.1534277 1.3446293 0)
(4.080204 1.3223519 0)
(4.0028627 1.2985234 0)
(3.922254 1.2733276 0)
(3.8391038 1.246912 0)
(3.7540307 1.2193988 0)
(3.6675626 1.1908924 0)
(3.5801505 1.1614863 0)
(3.4921814 1.1312672 0)
(3.4039882 1.1003181 0)
(3.3158587 1.0687212 0)
(3.2280425 1.0365583 0)
(3.1407573 1.0039122 0)
(3.0541948 0.97086606 0)
(2.9685264 0.93750295 0)
(2.8839082 0.90390475 0)
(2.8004861 0.87015225 0)
(2.7184299 0.83633074 0)