/*--------------------------------*- C++ -*----------------------------------*\
| =========                 |                                                 |
| \\      /  F ield         | OpenFOAM: The Open Source CFD Toolbox           |
|  \\    /   O peration     | Version:  2312                                  |
|   \\  /    A nd           | Website:  www.openfoam.com                      |
|    \\/     M anipulation  |                                                 |
\*---------------------------------------------------------------------------*/
FoamFile
{
    version     2.0;
    format      ascii;
    arch        "LSB;label=32;scalar=64";
    class       volScalarField;
    location    "0.09";
    object      f_Bilger;
}
// * * * * * * * * * * * * * * * * * * * * * * * * * * * * * * * * * * * * * //

dimensions      [0 0 0 0 0 0 0];

internalField   nonuniform List<scalar> 
3275
(
0.96942976
0.86457172
0.75179912
0.65460982
0.5748286
0.51134457
0.45966085
0.41699214
0.38119385
0.35082999
0.32476554
0.3058827
0.28762192
0.27180714
0.25815026
0.24626844
0.23584356
0.22661488
0.21837776
0.21097197
0.20427102
0.19817261
0.19259293
0.18746369
0.1827283
0.17833944
0.17425721
0.17044774
0.16688203
0.16353513
0.16038543
0.15741408
0.15460461
0.1519425
0.14941489
0.1470104
0.14471885
0.14253112
0.14043904
0.1384352
0.13651292
0.13466612
0.13288925
0.13117727
0.12952553
0.12792977
0.12638605
0.12489073
0.12344043
0.12203202
0.12066258
0.11932939
0.95254113
0.83238245
0.72606228
0.63625743
0.56214506
0.50290435
0.45382985
0.41287584
0.3781958
0.34860172
0.32308846
0.30452969
0.28655798
0.27095616
0.25745723
0.24569531
0.23536305
0.22620707
0.21802782
0.21066874
0.20400592
0.197939
0.19238559
0.18727847
0.18256187
0.1781891
0.17412074
0.17032331
0.16676812
0.16343046
0.16028891
0.15732481
0.15452179
0.15186545
0.14934303
0.14694322
0.14465591
0.14247203
0.14038345
0.13838281
0.13646347
0.13461936
0.13284498
0.13113529
0.12948566
0.12789187
0.12634997
0.12485634
0.12340762
0.12200068
0.12063262
0.11930072
0.90465242
0.76656267
0.67582513
0.6008859
0.53766173
0.48665739
0.44260381
0.4048542
0.37231843
0.34421749
0.31977883
0.30185211
0.28445328
0.26926915
0.25608141
0.24455633
0.23440733
0.22539536
0.21733091
0.21006452
0.20347746
0.19747313
0.19197197
0.18690888
0.1822297
0.17788897
0.17384826
0.17007483
0.1665406
0.16322136
0.16009608
0.15714642
0.15435627
0.15171145
0.14919939
0.14680892
0.14453006
0.14235387
0.14027228
0.13827804
0.13636455
0.13452582
0.13275639
0.13105127
0.12940588
0.12781599
0.12627773
0.12478748
0.12334191
0.12193792
0.12057261
0.11924328
0.79778502
0.66331721
0.6054291
0.55195156
0.50346527
0.4640392
0.4267132
0.39334851
0.36381662
0.3378357
0.31493555
0.29791366
0.28135752
0.26677858
0.25404526
0.24286756
0.23298815
0.22418853
0.21629366
0.20916444
0.20268963
0.19677817
0.19135462
0.18635699
0.18173347
0.17744045
0.17344092
0.16970326
0.1662003
0.16290854
0.15980755
0.15687943
0.15410851
0.1514809
0.14898431
0.14660781
0.14434159
0.14217688
0.14010575
0.13812107
0.13621634
0.13438565
0.13262364
0.13092535
0.12928628
0.12770225
0.12616943
0.12468424
0.12324338
0.12184379
0.1204826
0.11915713
0.57942376
0.5314066
0.51775513
0.49409188
0.46455693
0.43499059
0.40674298
0.37892782
0.35303453
0.32967256
0.30869657
0.29280338
0.27733907
0.26352985
0.25138056
0.24065187
0.23112234
0.22259915
0.21492563
0.20797588
0.20164822
0.1958587
0.19053722
0.18562577
0.18107564
0.17684556
0.17290041
0.16921003
0.16574843
0.16249304
0.15942419
0.15652463
0.15377917
0.15117438
0.14869832
0.14634033
0.14409089
0.14194142
0.13988418
0.13791219
0.13601909
0.13419909
0.13244692
0.13075772
0.12912705
0.12755081
0.12602521
0.12454675
0.12311216
0.12171842
0.1203627
0.11904236
0.23168461
0.39311707
0.43330853
0.43660665
0.42552288
0.40658793
0.38454565
0.36306269
0.34109903
0.32054262
0.30166167
0.28698618
0.27275882
0.25980584
0.24831393
0.23809395
0.22896273
0.22075549
0.21333582
0.20659248
0.2004345
0.19478591
0.18958259
0.18477108
0.18030616
0.17614929
0.17226743
0.16863214
0.16521876
0.16200581
0.1589745
0.1561083
0.15339263
0.15081453
0.14836248
0.14602618
0.14379638
0.14166476
0.13962381
0.1376667
0.13578723
0.13397977
0.13223914
0.13056059
0.12893978
0.12737268
0.12585557
0.124385
0.12295778
0.12157091
0.12022162
0.1189073
0.10980071
0.29238679
0.36206334
0.38522161
0.38683267
0.37777212
0.3626473
0.34620108
0.328579
0.31085331
0.29414047
0.28070133
0.26779603
0.25575096
0.24496167
0.23528866
0.2265878
0.21872335
0.21158008
0.2050622
0.19909004
0.19359614
0.18852279
0.18382141
0.17945052
0.17537451
0.17156268
0.16798839
0.16462845
0.16146258
0.15847294
0.15564381
0.15296123
0.15041281
0.14798748
0.14567532
0.14346739
0.14135566
0.13933284
0.13739232
0.13552806
0.13373457
0.13200681
0.13034016
0.12873035
0.12717345
0.12566581
0.12420406
0.12278506
0.12140587
0.12006375
0.11875616
0.062706301
0.21542
0.29723841
0.33488969
0.34804392
0.34770987
0.33983181
0.32801955
0.31453874
0.30006216
0.28570905
0.27356583
0.26212164
0.25110018
0.24109969
0.23204453
0.22383259
0.21635946
0.20953307
0.2032746
0.19751695
0.1922021
0.18727954
0.18270618
0.1784448
0.17446314
0.17073309
0.16723015
0.16393278
0.16082208
0.15788132
0.15509568
0.15245199
0.14993846
0.14754455
0.14526078
0.14307861
0.1409903
0.13898885
0.13706787
0.13522154
0.13344454
0.13173197
0.13007934
0.12848252
0.12693766
0.12544121
0.12398987
0.12258058
0.12121045
0.11987682
0.11857717
0.041907375
0.16134971
0.2429871
0.28865445
0.31057916
0.31780288
0.3161026
0.30927756
0.29938349
0.28823333
0.2764997
0.26566657
0.2557174
0.2458734
0.23673626
0.22836323
0.22069459
0.21365879
0.2071883
0.20122245
0.19570763
0.19059613
0.18584528
0.18141806
0.17728195
0.1734084
0.16977224
0.16635129
0.16312595
0.16007881
0.15719443
0.15445901
0.15186023
0.14938704
0.14702948
0.14477859
0.14262625
0.14056509
0.13858841
0.1366901
0.13486458
0.1331067
0.13141177
0.12977544
0.1281937
0.12666284
0.12517939
0.12374017
0.12234216
0.12098259
0.11965882
0.11836843
0.031181363
0.12387834
0.19901491
0.24770685
0.27544501
0.28867138
0.2922966
0.28995033
0.2838011
0.27544969
0.2664502
0.25725856
0.24863328
0.24009319
0.23188698
0.22425205
0.2171756
0.21061958
0.20454177
0.19890036
0.19365593
0.18877167
0.18421331
0.17995035
0.1759554
0.1722039
0.16867394
0.16534591
0.16220227
0.15922736
0.15640709
0.15372886
0.15118127
0.14875409
0.14643804
0.1442247
0.14210646
0.14007635
0.13812802
0.13625567
0.13445397
0.13271803
0.13104332
0.12942567
0.12786124
0.12634643
0.12487791
0.12345259
0.12206756
0.1207201
0.11940767
0.1181279
0.024790809
0.097689223
0.16402782
0.21228595
0.24327513
0.26089019
0.26893153
0.27047753
0.26777935
0.26227433
0.25560598
0.24838915
0.24099747
0.23373572
0.22657565
0.21972411
0.21328188
0.20724354
0.20159219
0.19630508
0.19135735
0.18672343
0.1823779
0.17829712
0.17445913
0.1708437
0.16743236
0.1642083
0.16115627
0.15826243
0.15551425
0.15290036
0.15041046
0.14803516
0.14576595
0.14359504
0.14151534
0.13952035
0.13760412
0.13576117
0.13398647
0.13227538
0.13062361
0.12902717
0.12748238
0.1259858
0.12453424
0.12312471
0.12175442
0.12042074
0.1191212
0.11785352
0.020515807
0.07898998
0.13640958
0.18214608
0.21436942
0.23489545
0.24636899
0.25127197
0.25156267
0.24884119
0.24429175
0.23889847
0.2330207
0.22684043
0.22082252
0.21479811
0.2090242
0.20353599
0.19834115
0.19343565
0.18880919
0.18444759
0.18033447
0.17645334
0.17278787
0.1693224
0.16604211
0.16293315
0.1599827
0.15717892
0.15451094
0.15196874
0.14954318
0.14722582
0.14500897
0.14288553
0.14084899
0.13889335
0.1370131
0.13520314
0.13345876
0.13177559
0.13014959
0.12857699
0.12705429
0.12557824
0.12414577
0.12275403
0.12140034
0.12008218
0.11879718
0.11754313
0.017407439
0.065272728
0.11460791
0.15676665
0.18876747
0.21094946
0.22492491
0.23255404
0.23549437
0.23516677
0.23274697
0.22900351
0.22457924
0.21963186
0.21460411
0.2094999
0.20441783
0.19950592
0.19479324
0.19029355
0.18601076
0.1819419
0.17807975
0.17441501
0.17093718
0.16763528
0.16449831
0.16151553
0.15867667
0.15597201
0.15339243
0.15092938
0.14857494
0.14632172
0.14416288
0.14209209
0.14010347
0.13819157
0.13635134
0.13457809
0.13286747
0.13121541
0.12961814
0.12807214
0.12657411
0.12512096
0.12370982
0.12233796
0.12100283
0.11970202
0.11843329
0.11719449
0.015016171
0.054924792
0.09730197
0.1355124
0.16632726
0.18916603
0.20481529
0.21455949
0.21972165
0.22151301
0.22098384
0.21890525
0.21580298
0.21210124
0.20802965
0.20380682
0.19948192
0.19516594
0.19095615
0.18688284
0.18296347
0.17920589
0.17561188
0.17217931
0.16890356
0.1657784
0.16279673
0.15995102
0.15723367
0.15463717
0.15215422
0.14977785
0.1475014
0.14531861
0.14322357
0.14121073
0.13927491
0.13741125
0.1356152
0.13388251
0.13220921
0.13059157
0.12902612
0.12750958
0.12603888
0.12461115
0.12322366
0.12187386
0.12055934
0.11927782
0.11802715
0.11680531
0.01310596
0.046910529
0.083439855
0.1177392
0.14679588
0.16954259
0.18616525
0.1974579
0.2044118
0.20802038
0.20917918
0.20861486
0.20684931
0.20425338
0.20119334
0.19777984
0.19421347
0.19053217
0.18684059
0.1832102
0.17967096
0.17624093
0.17293055
0.16974473
0.1666846
0.1637487
0.16093386
0.15823583
0.15564972
0.15317029
0.15079217
0.14850998
0.14631844
0.14421243
0.14218703
0.14023754
0.13835951
0.13654868
0.13480108
0.1331129
0.1314806
0.12990081
0.12837035
0.12688624
0.12544565
0.12404591
0.12268451
0.12135905
0.12006728
0.11880705
0.11757634
0.11637323
0.011540097
0.040555808
0.072214067
0.10285356
0.12986572
0.15199296
0.16902361
0.18136303
0.18970159
0.19481661
0.19745497
0.19825327
0.19772249
0.19623116
0.19407941
0.19151821
0.18863734
0.18560944
0.1824603
0.17928492
0.1761391
0.17305034
0.17003713
0.16711112
0.16427905
0.16154411
0.15890704
0.15636684
0.15392138
0.15156774
0.14930251
0.14712194
0.14502218
0.14299931
0.14104944
0.13916875
0.13735354
0.13560024
0.13390543
0.13226582
0.13067828
0.12913984
0.12764765
0.12619903
0.12479142
0.12342236
0.12208956
0.12079081
0.11952401
0.11828716
0.11707836
0.11589584
0.010232272
0.035412286
0.063016017
0.090339033
0.11521472
0.13637697
0.15337915
0.16633875
0.17569133
0.18201418
0.18590863
0.18792108
0.18850842
0.18804198
0.18680226
0.18500481
0.18284714
0.18040512
0.17782334
0.17511883
0.17237608
0.16963943
0.16693469
0.16427984
0.16168693
0.15916365
0.1567145
0.15434171
0.1520459
0.14982645
0.14768193
0.14561029
0.1436091
0.14167568
0.1398072
0.13800076
0.13625346
0.13456242
0.13292481
0.13133787
0.12979893
0.12830543
0.12685487
0.12544489
0.12407319
0.12273758
0.12143598
0.12016638
0.11892684
0.11771554
0.11653071
0.1153707
0.0091241072
0.031174101
0.055389865
0.079761827
0.10253217
0.12252469
0.13917665
0.15240684
0.16244731
0.1697003
0.17463115
0.1776934
0.17928854
0.17975284
0.17936643
0.17833495
0.17682632
0.1750038
0.17292882
0.17072102
0.16839229
0.16601555
0.16362806
0.16125378
0.15890964
0.15660751
0.1543555
0.15215899
0.15002124
0.14794397
0.14592769
0.14397204
0.14207604
0.14023827
0.13845698
0.13673022
0.1350559
0.13343186
0.13185588
0.13032576
0.12883932
0.1273944
0.12598889
0.12462075
0.12328799
0.12198867
0.12072094
0.11948299
0.1182731
0.11708958
0.11593082
0.11479532
0.0081743514
0.027627882
0.048993427
0.07076541
0.091533262
0.11025475
0.12633131
0.13955553
0.15000572
0.15793807
0.16369622
0.16764363
0.17012192
0.17143111
0.17182457
0.1715119
0.17065537
0.16939079
0.16785145
0.16608736
0.16419662
0.16218803
0.16012389
0.15803746
0.15594997
0.15387712
0.1518304
0.14981814
0.14784622
0.14591858
0.14403764
0.14220473
0.14042031
0.13868422
0.13699579
0.13535405
0.13375773
0.1322054
0.13069549
0.12922636
0.12779633
0.12640367
0.12504668
0.12372364
0.12243288
0.12117275
0.11994162
0.11873791
0.11756009
0.11640665
0.11527614
0.11416717
0.0073527134
0.024622155
0.043570105
0.063060425
0.081965533
0.099387086
0.11474068
0.12774791
0.13837729
0.14676852
0.15316051
0.15783331
0.16106828
0.16312508
0.1642312
0.16457981
0.16433705
0.16363419
0.1625797
0.16128256
0.15978471
0.15816492
0.15643054
0.15463699
0.15281217
0.15097525
0.14914069
0.14731968
0.14552053
0.14374932
0.14201033
0.14030651
0.13863974
0.1370111
0.13542104
0.13386951
0.13235611
0.13088015
0.1294407
0.12803671
0.12666699
0.12533029
0.12402529
0.12275065
0.12150501
0.12028699
0.11909524
0.11792841
0.11678515
0.11566415
0.11456412
0.0066362689
0.022046663
0.038927001
0.056414424
0.073610237
0.089751053
0.1042941
0.11692949
0.12755235
0.13621337
0.14306465
0.14831198
0.15217915
0.15488416
0.1566267
0.15758398
0.15790979
0.15773648
0.15717098
0.1562994
0.15521147
0.15394355
0.15255445
0.1510601
0.14950201
0.14790599
0.14628911
0.14466519
0.14304483
0.14143611
0.13984506
0.13827618
0.13673273
0.13521701
0.13373055
0.13227425
0.13084855
0.12945348
0.12808881
0.12675404
0.12544852
0.12417146
0.12292194
0.121699
0.1205016
0.11932867
0.11817911
0.11705181
0.11594564
0.11485949
0.11379226
0.0060072769
0.01981928
0.034917876
0.050642977
0.066280956
0.081189983
0.094879585
0.10703472
0.11750565
0.12627807
0.13343466
0.13911746
0.1434974
0.14675229
0.14905357
0.15055951
0.15141143
0.15173226
0.15162756
0.15118578
0.15047503
0.14956966
0.14849551
0.14731129
0.1460267
0.14467487
0.1432796
0.14185739
0.14042079
0.13897976
0.13754194
0.13611327
0.13469834
0.13330063
0.13192269
0.13056637
0.12923294
0.12792316
0.12663744
0.1253759
0.12413839
0.12292459
0.12173401
0.12056605
0.11942002
0.11829515
0.11719061
0.11610553
0.11503902
0.11399014
0.11295801
0.0054517683
0.017877578
0.031430124
0.045600587
0.059823058
0.07356394
0.086388621
0.097992201
0.10820079
0.11695495
0.12428379
0.13027664
0.13505792
0.13876824
0.14155092
0.14354363
0.14487322
0.14565295
0.14598162
0.14594377
0.14561444
0.14504938
0.14428762
0.14339512
0.14238851
0.14128883
0.14011741
0.13890015
0.13765114
0.13638208
0.13510198
0.13381813
0.13253635
0.13126125
0.12999638
0.12874448
0.12750762
0.1262873
0.12508457
0.12390011
0.12273432
0.12158733
0.12045909
0.11934936
0.1182578
0.11718395
0.11612725
0.11508709
0.11406279
0.11305364
0.11205891
0.0049585868
0.016173245
0.028375822
0.041171093
0.05411012
0.066752869
0.078721104
0.089729458
0.099594269
0.10822647
0.11561528
0.12180774
0.1268889
0.13096568
0.13415427
0.13657135
0.13832816
0.13952689
0.14025885
0.14060407
0.14063073
0.14040195
0.13995435
0.13933824
0.13859711
0.13774768
0.13680895
0.13579856
0.13473971
0.13364589
0.13252711
0.13139191
0.13024729
0.12909888
0.12795116
0.12680774
0.12567146
0.1245445
0.12342856
0.12232488
0.12123437
0.12015763
0.11909502
0.1180467
0.11701266
0.11599274
0.11498669
0.11399413
0.11301462
0.11204765
0.0045187151
0.014668303
0.025685438
0.037260819
0.049037723
0.060655314
0.071789054
0.082178776
0.091641368
0.10007025
0.10742607
0.11372284
0.11901289
0.12337343
0.12689545
0.12967516
0.13180783
0.13338369
0.13448546
0.13518724
0.13555426
0.13564081
0.13549813
0.13516345
0.13467391
0.13406894
0.13334941
0.13255895
0.1316914
0.13077508
0.12982025
0.12883671
0.12783252
0.12681426
0.12578727
0.12475595
0.12372387
0.12269387
0.12166826
0.12064882
0.11963697
0.11863376
0.11763997
0.11665613
0.11568257
0.11471945
0.11376679
0.11282447
0.11189231
0.11097001
0.004124786
0.01333248
0.023303336
0.033793543
0.044518938
0.055184719
0.065515485
0.075278948
0.084299651
0.092462696
0.099709543
0.10602919
0.11144734
0.11601575
0.11980261
0.12288484
0.12534199
0.12725198
0.12868824
0.12971808
0.13040181
0.1307919
0.13093537
0.13087234
0.13063814
0.13026064
0.12976869
0.12917727
0.12851152
0.12777469
0.12698532
0.12615552
0.12529425
0.12440895
0.12350568
0.12258956
0.12166488
0.12073507
0.119803
0.118871
0.11794096
0.11701437
0.11609242
0.115176
0.11426578
0.11336222
0.11246563
0.11157615
0.11069382
0.1098186
0.0037707232
0.012141337
0.021184515
0.030706731
0.040480919
0.050266737
0.059832474
0.068974145
0.077528558
0.085379265
0.09245604
0.098729778
0.10420518
0.10891263
0.1129003
0.11622738
0.11895843
0.12115916
0.1228934
0.12422113
0.12519729
0.12587109
0.12628666
0.12648268
0.12649215
0.12634749
0.12606926
0.12567699
0.12520086
0.12464712
0.12402728
0.12335231
0.12263561
0.12188536
0.12110812
0.12030975
0.11949519
0.11866837
0.11783271
0.11699103
0.11614567
0.11529856
0.11445126
0.11360503
0.11276086
0.11191952
0.11108157
0.11024744
0.10941737
0.10859156
0.0034514698
0.011074928
0.019292209
0.027948685
0.036862267
0.045837197
0.054679773
0.063213227
0.071289235
0.078794652
0.085653357
0.091823993
0.097295254
0.10208009
0.10620952
0.10972687
0.11268275
0.11513113
0.11712624
0.1187205
0.11996305
0.120899
0.12156931
0.12201057
0.12225531
0.12233034
0.12226369
0.12207251
0.12177786
0.12140177
0.12094373
0.12043204
0.11986062
0.11924678
0.11859719
0.11791847
0.11721622
0.11649471
0.11575789
0.11500905
0.11425094
0.11348589
0.11271583
0.11194235
0.11116677
0.11039013
0.10961328
0.10883688
0.10806141
0.10728728
0.0031627836
0.010116804
0.017596099
0.025476346
0.033610962
0.041840492
0.050003777
0.057949239
0.065544506
0.07268303
0.079287177
0.085308039
0.09072274
0.095530467
0.099747892
0.10340449
0.10653826
0.10919211
0.11141099
0.11323968
0.11472133
0.11589644
0.11680243
0.11747331
0.11793963
0.11822813
0.11836371
0.11836562
0.11825602
0.11804856
0.11775303
0.11739381
0.11697262
0.11649751
0.11597631
0.11541841
0.11483019
0.11421575
0.11357975
0.11292584
0.11225717
0.11157645
0.11088593
0.11018753
0.10948285
0.10877323
0.10805977
0.10734335
0.1066247
0.10590442
0.0029010779
0.0092532716
0.016070966
0.023253601
0.030682705
0.038228284
0.045756696
0.05313904
0.060258899
0.067018323
0.073341409
0.079175383
0.084489537
0.089272654
0.093529762
0.097278555
0.10054586
0.10336446
0.1057705
0.10780133
0.10949401
0.1108842
0.11200548
0.11288893
0.11356294
0.11405302
0.11438243
0.11457137
0.11463702
0.11459836
0.11446579
0.11425377
0.11397739
0.11363666
0.11324979
0.11281302
0.11234019
0.11183386
0.11130016
0.11074284
0.1101654
0.10957091
0.10896192
0.10834064
0.10770895
0.10706844
0.10642046
0.10576611
0.10510634
0.10444195
0.0026632994
0.0084728369
0.014695659
0.021249963
0.028039598
0.034958434
0.041895878
0.048743022
0.055398681
0.061774507
0.067798569
0.073417112
0.078594608
0.083312388
0.087566385
0.091364537
0.094724014
0.097668558
0.10022615
0.10242708
0.1043024
0.10588283
0.10719797
0.10827574
0.10914207
0.10982073
0.11033346
0.11069964
0.11093653
0.11106076
0.11108417
0.11102269
0.11088499
0.11067804
0.1104179
0.11010439
0.10975046
0.10935212
0.10892177
0.10846218
0.10797731
0.10747058
0.10694473
0.1064023
0.10584539
0.10527584
0.1046952
0.10410483
0.10350584
0.10289923
0.0024468311
0.0077657738
0.013452308
0.019439527
0.025649066
0.031994106
0.038383228
0.044724863
0.050931893
0.056925847
0.062640177
0.068022298
0.073034299
0.077652499
0.081866066
0.085675125
0.089088726
0.092122697
0.094797664
0.097137311
0.099166959
0.10091245
0.10239931
0.10365216
0.10469428
0.10554742
0.10623165
0.10676527
0.10716485
0.1074457
0.10762086
0.10770349
0.10770332
0.1076313
0.10749461
0.10729965
0.10705916
0.10677395
0.1064481
0.10608677
0.10569526
0.10527741
0.10483591
0.10437372
0.10389306
0.10339603
0.10288437
0.10235962
0.1018231
0.10127598
0.0022494163
0.0071237935
0.012325708
0.017800155
0.023482991
0.029303022
0.035184699
0.041051303
0.046828388
0.052447115
0.057847089
0.062978387
0.067802638
0.072293164
0.076434339
0.080220317
0.083653516
0.086743025
0.089502976
0.091951047
0.094107179
0.095992513
0.097628562
0.099036574
0.10023708
0.10124959
0.10209238
0.10278241
0.10333528
0.10376527
0.10408528
0.10430736
0.10444181
0.10449832
0.10448507
0.10441025
0.10427939
0.10410252
0.10387971
0.10362025
0.10332231
0.10299414
0.10263767
0.10225678
0.10185346
0.1014302
0.10098884
0.10053112
0.10005853
0.099572397
0.0020690979
0.0065397843
0.011302841
0.016312819
0.021516994
0.026856827
0.032269849
0.037691935
0.04305984
0.048313779
0.05339978
0.058271547
0.062891671
0.067232135
0.07127416
0.075007523
0.078429464
0.08154349
0.084358144
0.086885763
0.089141359
0.091141651
0.092904274
0.094447144
0.09578798
0.096943952
0.097931438
0.098765861
0.09946162
0.10003204
0.10048934
0.10084483
0.10110865
0.10129008
0.10139738
0.10143812
0.1014192
0.10134769
0.10122579
0.10106411
0.10085986
0.10062444
0.10035278
0.10005408
0.099728682
0.099380165
0.099010079
0.09862053
0.098213051
0.097789173
0.0019041696
0.0060076079
0.010372488
0.01496108
0.019729861
0.024630552
0.02961144
0.034619002
0.039599742
0.044502157
0.049278617
0.053886983
0.058291804
0.062465005
0.066386054
0.070041685
0.07342525
0.076535823
0.079377265
0.081957281
0.08428647
0.086377484
0.088244298
0.089901606
0.09136434
0.092647296
0.093764861
0.09473082
0.095558227
0.09625933
0.096845513
0.097327328
0.097714471
0.098015829
0.098239471
0.098392806
0.098482707
0.098514344
0.098494299
0.098427788
0.098316008
0.098169196
0.097983082
0.097769225
0.097521378
0.097248449
0.096950158
0.096629631
0.096288149
0.095927531
0.0017531362
0.0055219357
0.0095249341
0.013730667
0.018103056
0.022602156
0.027185089
0.0318072
0.036423382
0.040989547
0.045464086
0.049809222
0.053992099
0.057985526
0.061768337
0.065325386
0.068647225
0.071729539
0.074572422
0.077179661
0.079558007
0.081716455
0.083665604
0.0854171
0.086983177
0.088376281
0.089608783
0.090692757
0.091639827
0.092461056
0.093166876
0.093767042
0.094270617
0.094686016
0.095020971
0.095282593
0.095477397
0.095611094
0.095689481
0.095716534
0.095697594
0.095637282
0.095535895
0.095402917
0.095233581
0.095038595
0.094811666
0.09456092
0.094285897
0.093989292
0.0016146821
0.0050781189
0.0087517194
0.012609132
0.016620327
0.020752143
0.024968954
0.02923349
0.033507799
0.037754317
0.041936995
0.04602238
0.049980558
0.053785874
0.057417383
0.060859015
0.064099481
0.067131967
0.069953648
0.072565126
0.074969875
0.077173685
0.079184111
0.081009985
0.082660985
0.084147285
0.085479258
0.086667251
0.087721408
0.088651538
0.089467025
0.090176764
0.090789105
0.091311868
0.091752344
0.092117278
0.092412884
0.092644823
0.092818408
0.092938221
0.093008973
0.093033892
0.093017354
0.092963671
0.092872055
0.092751313
0.092596727
0.092417866
0.092208899
0.091976948
0.0014876443
0.0046720819
0.0080454453
0.011585576
0.01526738
0.01906323
0.022943454
0.02687692
0.030831724
0.034775976
0.038678643
0.042510394
0.046244385
0.049856907
0.053327852
0.05664098
0.059783969
0.062748288
0.065528927
0.068123997
0.070534284
0.072762838
0.074814539
0.076695672
0.078413557
0.079976215
0.081392091
0.082669825
0.083818071
0.08484535
0.085759942
0.086569808
0.087282531
0.08790527
0.088444768
0.088907341
0.089298859
0.089624744
0.089890033
0.090099306
0.090256875
0.09036647
0.090431885
0.090456475
0.090442561
0.090394817
0.090311763
0.090201332
0.090059314
0.089893915
0.0013709913
0.0043002371
0.0073996134
0.010650417
0.014031598
0.017520062
0.021091027
0.024718449
0.028375515
0.032035214
0.035670959
0.039257239
0.042770246
0.046188427
0.049492933
0.052667913
0.055700661
0.058581611
0.061304206
0.06386467
0.066261676
0.068496011
0.070570258
0.072488464
0.074255813
0.075878336
0.077362658
0.078715775
0.079944872
0.081057179
0.082059849
0.082959867
0.083763985
0.084478666
0.085110046
0.085663931
0.086145789
0.086560724
0.08691349
0.087208493
0.087449828
0.087641238
0.08778627
0.087888141
0.087949656
0.087973799
0.087962323
0.087919261
0.087843371
0.087741307
0.0012638049
0.0039594139
0.006808494
0.0097952039
0.012901822
0.016108975
0.019395908
0.02274079
0.026121075
0.029513913
0.032896608
0.036247106
0.039544488
0.042769426
0.045904576
0.048934875
0.051847731
0.054633097
0.057283437
0.05979361
0.062160678
0.06438364
0.066463176
0.068401406
0.070201635
0.071868098
0.073405735
0.074819993
0.076116648
0.077301664
0.078381069
0.079360859
0.08024692
0.081044968
0.08176051
0.082398796
0.08296482
0.08346331
0.083898703
0.084275152
0.084596533
0.084866452
0.085088276
0.085265109
0.085399788
0.085495
0.085553032
0.085576376
0.085566506
0.085526871
0.0011652679
0.0036468032
0.0062670172
0.0090124559
0.011868147
0.014817786
0.017843936
0.020928258
0.024051772
0.027195155
0.030339075
0.033464557
0.036553355
0.039588322
0.042553736
0.045435582
0.048221741
0.050902119
0.05346867
0.055915364
0.058238078
0.060434443
0.062503631
0.064446162
0.066263723
0.067958967
0.069535318
0.070996793
0.072347846
0.073593228
0.074737869
0.075786785
0.076744986
0.077617424
0.07840893
0.079124183
0.079767669
0.080343678
0.080856287
0.08130935
0.08170649
0.082051104
0.082346378
0.082595274
0.082800539
0.082964733
0.083090191
0.08317914
0.083233489
0.083255387
0.0010746498
0.0033599103
0.0057706863
0.0082955358
0.010921769
0.013635616
0.016422385
0.019266631
0.022152351
0.025063196
0.027982723
0.030894654
0.033783167
0.036633176
0.039430606
0.042162624
0.044817837
0.04738642
0.049860194
0.052232632
0.054498823
0.056655382
0.058700325
0.060632903
0.062453456
0.064163281
0.065764466
0.067259743
0.068652351
0.069945906
0.071144294
0.072251576
0.073271904
0.074209456
0.07506838
0.075852749
0.076566529
0.077213544
0.077797466
0.078321807
0.078789902
0.079204906
0.079569789
0.07988734
0.080160169
0.080390714
0.080581238
0.080733858
0.080850516
0.080933155
0.00099128576
0.0030965026
0.0053155083
0.0076385439
0.010054843
0.012552739
0.015119813
0.017743024
0.020408849
0.023103445
0.025812825
0.028523058
0.031220477
0.033891898
0.036524835
0.039107697
0.041629961
0.0440823
0.046456678
0.048746391
0.050946072
0.053051648
0.055060276
0.056970232
0.058780789
0.06049211
0.062105143
0.063621494
0.065043311
0.066373174
0.067613994
0.068768927
0.069841298
0.070834526
0.07175208
0.07259742
0.073373966
0.074085068
0.074733973
0.075323817
0.075857609
0.076338233
0.076768418
0.077150751
0.07748767
0.077781467
0.078034292
0.078248157
0.078424942
0.078566506
0.00091458439
0.0028545782
0.004897909
0.0070362272
0.0092603707
0.011560448
0.013925927
0.016345764
0.018808508
0.021302417
0.02381559
0.026336112
0.028852211
0.03135242
0.033825744
0.036261823
0.038651072
0.040984808
0.043255338
0.045456024
0.047581311
0.049626716
0.051588807
0.053465138
0.055254164
0.05695515
0.058568093
0.060093639
0.061532984
0.062887781
0.064160057
0.065352129
0.066466538
0.067505982
0.068473263
0.069371237
0.07020278
0.070970748
0.071677955
0.072327149
0.072920993
0.073462059
0.07395282
0.074395634
0.074792742
0.075146266
0.075458213
0.075730472
0.075964826
0.076163049
0.00084401272
0.0026323511
0.0045146886
0.0064838806
0.0085321036
0.010650944
0.012831468
0.015064293
0.017339695
0.019647696
0.021978159
0.024320894
0.026665773
0.029002855
0.031322514
0.033615561
0.035873364
0.038087958
0.040252128
0.042359476
0.044404464
0.046382431
0.048289586
0.050122983
0.051880475
0.053560644
0.055162729
0.056686581
0.058132588
0.059501597
0.060794848
0.062013901
0.063160575
0.06423689
0.065245016
0.066187225
0.067065856
0.067883277
0.068641861
0.069343957
0.069991877
0.070587867
0.071134116
0.071632734
0.072085744
0.07249508
0.07286258
0.073189991
0.073478975
0.073731209
0.00077908986
0.0024282182
0.004162991
0.0059772906
0.0078644347
0.0098172424
0.011828108
0.01388906
0.015991819
0.018127883
0.020288603
0.022465255
0.024649133
0.026831635
0.029004362
0.031159212
0.033288481
0.035384945
0.037441941
0.039453432
0.041414049
0.043319125
0.045164705
0.046947537
0.048665055
0.05031534
0.051897061
0.053409434
0.054852181
0.056225468
0.057529857
0.058766236
0.059935778
0.06103988
0.062080124
0.063058232
0.063976026
0.064835402
0.065638294
0.066386655
0.067082433
0.067727554
0.068323906
0.068873336
0.069377629
0.069838514
0.070257647
0.070636612
0.070976931
0.071280167
0.00071938168
0.0022407395
0.0038402564
0.005512694
0.0072523394
0.0090530607
0.010908363
0.012811446
0.014755259
0.016732543
0.018735898
0.020757846
0.022790898
0.024827616
0.026860689
0.028883003
0.030887722
0.032868356
0.034818825
0.036733521
0.03860735
0.040435768
0.042214802
0.043941057
0.04561171
0.047224493
0.048777665
0.050269961
0.051700573
0.053069115
0.054375573
0.055620264
0.056803788
0.057926991
0.058990918
0.059996781
0.060945923
0.061839785
0.062679882
0.063467777
0.064205059
0.064893327
0.065534173
0.066129171
0.06667986
0.067187745
0.067654287
0.068080893
0.068468928
0.068819829
0.00066449624
0.0020686205
0.0035441894
0.0050867198
0.0066913257
0.0083527652
0.010065487
0.011823676
0.0136213
0.015452156
0.017309907
0.019188126
0.021080359
0.022980176
0.024881215
0.026777249
0.028662238
0.030530386
0.032376198
0.034194526
0.035980616
0.037730137
0.039439207
0.041104411
0.042722803
0.044291903
0.045809686
0.047274546
0.048685276
0.050041049
0.051341389
0.052586131
0.053775392
0.054909534
0.055989128
0.057014927
0.057987831
0.058908862
0.059779138
0.06059985
0.061372239
0.062097584
0.062777179
0.063412326
0.06400432
0.064554432
0.065063917
0.065533992
0.065965852
0.06636079
0.0006140799
0.0019106981
0.0032727323
0.0046963493
0.0061773712
0.0077113142
0.0092934275
0.010918732
0.012582056
0.014278074
0.01600135
0.01774636
0.019507526
0.02127928
0.023056089
0.024832503
0.026603201
0.028363032
0.030107059
0.031830603
0.033529277
0.035199019
0.036836117
0.038437227
0.039999385
0.041520009
0.0429969
0.044428223
0.045812488
0.047148539
0.048435534
0.049672923
0.050860422
0.051997982
0.053085767
0.054124124
0.055113558
0.05605471
0.056948332
0.057795266
0.058596427
0.059352784
0.060065345
0.060735142
0.061363223
0.061950635
0.062498422
0.063007604
0.063479193
0.00056781405
0.0017659286
0.0030240418
0.004338882
0.005706879
0.0071241966
0.0085867655
0.010090315
0.011630406
0.013202457
0.014801782
0.016423618
0.018063151
0.019715542
0.021375974
0.023039678
0.024701968
0.026358279
0.028004196
0.029635492
0.031248157
0.032838426
0.034402803
0.03593808
0.037441352
0.038910022
0.040341809
0.041734741
0.043087141
0.044397619
0.045665064
0.046888624
0.048067694
0.049201891
0.050291033
0.051335122
0.052334319
0.053288926
0.054199365
0.055066162
0.055889927
0.05667134
0.057411135
0.058110089
0.05876901
0.059388722
0.059970064
0.060513887
0.061021156
0.00052541234
0.001633377
0.0027964708
0.0040119073
0.0052766393
0.0065873856
0.0079406583
0.0093327906
0.010759962
0.012218227
0.013703537
0.015211767
0.016738744
0.018280266
0.019832131
0.021390156
0.022950217
0.024508268
0.026060373
0.02760273
0.029131695