/*--------------------------------*- C++ -*----------------------------------*\
| =========                 |                                                 |
| \\      /  F ield         | OpenFOAM: The Open Source CFD Toolbox           |
|  \\    /   O peration     | Version:  2312                                  |
|   \\  /    A nd           | Website:  www.openfoam.com                      |
|    \\/     M anipulation  |                                                 |
\*---------------------------------------------------------------------------*/
FoamFile
{
    version     2.0;
    format      ascii;
    arch        "LSB;label=32;scalar=64";
    class       volScalarField;
    location    "0.09";
    object      H2O;
}
// * * * * * * * * * * * * * * * * * * * * * * * * * * * * * * * * * * * * * //

dimensions      [0 0 0 0 0 0 0];

internalField   nonuniform List<scalar> 
3275
(
0.0018975108
0.01153817
0.023684206
0.03472834
0.043638973
0.050244066
0.054959575
0.058115261
0.059997673
0.060867892
0.060971083
0.060608774
0.059824764
0.05879154
0.057619432
0.056380254
0.055120808
0.053869579
0.05264398
0.051454569
0.050307546
0.049206048
0.048151091
0.047142521
0.046179361
0.045260113
0.044382965
0.043545935
0.042746968
0.041983999
0.041254997
0.040557995
0.039891102
0.039252523
0.038640554
0.038053588
0.037490112
0.036948709
0.036428048
0.035926882
0.035444046
0.034978449
0.03452907
0.034094954
0.03367521
0.033269005
0.03287555
0.032494112
0.032124
0.031764569
0.03141521
0.031075352
0.0027310879
0.013773379
0.025454313
0.035874683
0.044268934
0.050485888
0.054980748
0.058013033
0.059831281
0.060673762
0.060771438
0.060414495
0.059644004
0.058627041
0.057471554
0.056248194
0.055003202
0.053764885
0.052550672
0.051371232
0.050232912
0.049139006
0.048090677
0.047087906
0.046129829
0.04521505
0.044341843
0.0435083
0.042712426
0.04195221
0.041225665
0.040530863
0.039865947
0.039229148
0.038618786
0.038033276
0.037471122
0.036930922
0.036411359
0.035911197
0.035429282
0.03496453
0.03451593
0.034082533
0.033663453
0.033257861
0.032864975
0.032484065
0.032114445
0.031755473
0.031406541
0.031067084
0.0050501091
0.017940186
0.028593522
0.037870661
0.045343693
0.05085017
0.054959095
0.057774555
0.059480961
0.060277118
0.060368758
0.060024875
0.059282929
0.058298976
0.057176887
0.055985146
0.054768966
0.053556347
0.05236478
0.051205167
0.050084154
0.049005347
0.047970204
0.046978969
0.046031011
0.04512513
0.044259771
0.043433172
0.04264346
0.04188873
0.041167084
0.040476669
0.039815694
0.039182444
0.038575289
0.037992682
0.037433166
0.036895366
0.036377993
0.035879834
0.035399755
0.03493669
0.034489643
0.034057679
0.033639923
0.033235555
0.032843805
0.03246395
0.032095312
0.031737255
0.031389177
0.031050518
0.0093439638
0.023354981
0.032125604
0.04009439
0.046503802
0.05110867
0.054780842
0.057339682
0.058917181
0.059664968
0.059758796
0.059439598
0.05874358
0.057810025
0.056738201
0.055593691
0.054420388
0.053245938
0.052087977
0.050957784
0.049862455
0.048806063
0.047790505
0.046816415
0.0458835
0.044990856
0.044137179
0.043320919
0.042540388
0.041793833
0.04107949
0.040395618
0.039740522
0.03911257
0.0385102
0.037931929
0.03737635
0.036842136
0.036328035
0.035832869
0.035355534
0.034894991
0.034450265
0.034020442
0.033604665
0.033202129
0.032812078
0.032433801
0.032066632
0.031709942
0.031363143
0.031025678
0.014549085
0.027121022
0.035318646
0.041758845
0.047033988
0.051206649
0.054332547
0.05663524
0.058104449
0.058822122
0.058937152
0.058659264
0.058029282
0.057164265
0.056159603
0.055077623
0.05396081
0.05283653
0.051722699
0.050631132
0.049569536
0.0485426
0.047552797
0.046601268
0.045688166
0.044812967
0.043974695
0.04317208
0.042403671
0.041667918
0.040963229
0.04028801
0.039640693
0.039019753
0.038423721
0.037851194
0.037300833
0.036771371
0.036261609
0.035770413
0.035296719
0.03483952
0.034397875
0.033970894
0.033557744
0.03315764
0.032769846
0.032393665
0.032028448
0.031673577
0.031328475
0.030992598
0.012015157
0.027539344
0.036060127
0.042036873
0.046751188
0.050629061
0.053603056
0.055662875
0.057073309
0.057798368
0.057961179
0.057742729
0.057195938
0.056413177
0.055487571
0.054478439
0.053427098
0.052360815
0.051297953
0.050250998
0.049228382
0.048235513
0.047275522
0.046350134
0.04546001
0.044605062
0.043784691
0.042997943
0.042243642
0.041520469
0.040827032
0.040161905
0.039523664
0.038910911
0.038322283
0.037756467
0.037212208
0.036688305
0.036183618
0.035697069
0.035227637
0.034774357
0.03433632
0.033912669
0.033502598
0.033105346
0.032720197
0.032346476
0.031983547
0.031630811
0.031287702
0.030953688
0.0067308417
0.024211627
0.034324619
0.041010784
0.045788377
0.049496372
0.052446683
0.054475232
0.055851865
0.056626535
0.056864078
0.056722861
0.056273218
0.055583858
0.054746354
0.05381767
0.052838304
0.051835644
0.050828659
0.049830625
0.048850782
0.047895329
0.046968117
0.046071502
0.045206695
0.044374084
0.043573474
0.042804261
0.042065562
0.041356314
0.040675339
0.040021397
0.039393224
0.038789556
0.038209148
0.037650789
0.03711331
0.036595588
0.036096548
0.03561517
0.035150482
0.034701564
0.034267546
0.033847606
0.033440967
0.033046894
0.032664695
0.032293716
0.031933341
0.031582986
0.0312421
0.030910166
0.0044269296
0.019457128
0.030773897
0.038475297
0.04390085
0.047805717
0.050763458
0.052939983
0.054363599
0.055218495
0.05556591
0.055528577
0.055195931
0.054618478
0.053884222
0.053049016
0.052152939
0.051223773
0.050281314
0.049339801
0.048409427
0.0474973
0.046608092
0.045744882
0.044909506
0.044102893
0.043325311
0.042576551
0.041856072
0.0411631
0.040496704
0.039855859
0.039239481
0.038646465
0.038075702
0.037526098
0.036996584
0.036486125
0.035993725
0.035518429
0.035059324
0.034615542
0.034186258
0.03377069
0.033368094
0.032977768
0.032599048
0.032231304
0.031873941
0.031526396
0.031188134
0.030858656
0.0033890583
0.015466375
0.026582036
0.035003721
0.041083633
0.045504584
0.048669524
0.050997239
0.052601188
0.053575553
0.054063615
0.054161782
0.053962207
0.053516695
0.052900499
0.052171501
0.051369745
0.05052371
0.049654253
0.048776747
0.047902471
0.047039552
0.046193578
0.045368431
0.044566643
0.043789743
0.043038515
0.042313195
0.04161362
0.040939341
0.040289709
0.039663936
0.039061147
0.038480411
0.037920776
0.037381279
0.036860967
0.036358906
0.035874186
0.035405928
0.034953288
0.034515456
0.034091658
0.033681157
0.033283251
0.032897273
0.032522591
0.032158602
0.031804737
0.031460455
0.031125244
0.030798619
0.0028254473
0.012554818
0.022648179
0.031179356
0.037736649
0.042612113
0.046194181
0.048735976
0.050534037
0.051718086
0.052362669
0.052626579
0.052576592
0.052280466
0.051796545
0.051185722
0.050488697
0.049734942
0.048946593
0.048140309
0.047328573
0.046520618
0.045723033
0.044940568
0.044176514
0.043433054
0.042711534
0.042012675
0.041336733
0.040683617
0.040052983
0.039444312
0.038856956
0.038290183
0.037743209
0.037215223
0.036705398
0.036212914
0.035736958
0.035276739
0.034831485
0.034400455
0.033982931
0.033578229
0.033185692
0.032804694
0.032434637
0.032074952
0.031725098
0.031384559
0.031052846
0.030729495
0.0024621537
0.010455714
0.019329951
0.027477543
0.034194014
0.039410149
0.043338967
0.046236852
0.048226431
0.049638837
0.050487655
0.050930875
0.051051038
0.050913181
0.050576086
0.050094055
0.049511157
0.048858056
0.048158332
0.047430046
0.046686965
0.045939498
0.045195293
0.044460024
0.043737784
0.043031452
0.042342981
0.041673613
0.041024049
0.040394589
0.039785224
0.039195722
0.038625684
0.038074596
0.037541862
0.037026832
0.036528823
0.036047137
0.035581071
0.035129927
0.03469302
0.034269678
0.033859252
0.033461114
0.033074657
0.0326993
0.032334486
0.031979681
0.031634376
0.031298085
0.030970343
0.03065071
0.0021960801
0.008907248
0.016637548
0.024154248
0.030736146
0.036108399
0.040303777
0.04350158
0.045758764
0.047369721
0.048459744
0.049097559
0.04939721
0.049425389
0.049244687
0.048900787
0.048440001
0.047894844
0.047290442
0.046646305
0.045977532
0.045295726
0.044609635
0.043925887
0.043249409
0.042583809
0.041931671
0.041294788
0.040674338
0.04007103
0.039485215
0.038916968
0.038366162
0.037832512
0.037315627
0.036815033
0.036330202
0.035860571
0.035405555
0.03496456
0.034536992
0.034122262
0.033719789
0.03332901
0.032949373
0.032580348
0.032221422
0.0318721
0.031531909
0.031200394
0.030877118
0.03056167
0.0019844665
0.0077298815
0.014467153
0.02128256
0.027536734
0.032882547
0.037224121
0.040626925
0.043173181
0.045000695
0.046292374
0.047149185
0.047632348
0.047832959
0.047809384
0.047612275
0.047279678
0.046848371
0.046344935
0.045790292
0.045200863
0.044589419
0.04396582
0.04333765
0.042710684
0.042089272
0.041476649
0.040875176
0.040286527
0.039711843
0.039151848
0.038606945
0.03807729
0.037562848
0.037063443
0.03657879
0.036108526
0.035652235
0.035209458
0.034779715
0.03436251
0.033957341
0.033563707
0.03318111
0.032809063
0.032447088
0.032094721
0.03175151
0.031417022
0.031090835
0.030772545
0.030461768
0.0018076299
0.006807203
0.012706187
0.018839045
0.02466947
0.029850068
0.034217156
0.037751114
0.040495982
0.04256624
0.044050347
0.045097849
0.045778549
0.046149726
0.046285911
0.046234697
0.046036191
0.045722992
0.045324895
0.044864109
0.044358294
0.043821324
0.043264138
0.042695254
0.042121279
0.041547306
0.040977225
0.040413974
0.039859733
0.039316086
0.038784145
0.038264653
0.037758061
0.037264596
0.036784308
0.036317113
0.035862823
0.035421176
0.034991851
0.034574486
0.034168691
0.03377406
0.033390174
0.03301661
0.032652946
0.032298764
0.031953651
0.031617204
0.03128903
0.030968746
0.030655982
0.030350386
0.0016554122
0.0060638479
0.011261161
0.016766415
0.022142364
0.027070918
0.031364112
0.034949426
0.037830261
0.040075606
0.041771737
0.042989878
0.043846348
0.044395232
0.044686909
0.04478092
0.044715794
0.044524315
0.044234473
0.043870768
0.043451935
0.042992847
0.042505442
0.041999114
0.04148127
0.040957722
0.040433005
0.03991063
0.039393283
0.038882998
0.03838128
0.03788922
0.037407574
0.036936837
0.036477296
0.036029075
0.035592172
0.035166484
0.034751836
0.034347991
0.033954674
0.033571577
0.03319837
0.03283471
0.032480246
0.032134621
0.031797479
0.031468469
0.031147243
0.030833457
0.030526781
0.030226894
0.0015219107
0.0054503071
0.010059919
0.015003342
0.019930589
0.024562419
0.028710875
0.032276368
0.035230283
0.037604014
0.039457406
0.040861109
0.041870419
0.042578633
0.04302892
0.043263037
0.043328688
0.043258337
0.043078841
0.042814168
0.042484672
0.042106068
0.041691168
0.041250154
0.04079117
0.040320707
0.039843917
0.039364866
0.038886743
0.038412021
0.037942601
0.037479923
0.037025053
0.036578759
0.036141571
0.035713827
0.035295716
0.034887303
0.034488561
0.034099388
0.033719627
0.033349073
0.032987493
0.032634625
0.032290193
0.031953909
0.031625476
0.031304596
0.030990969
0.030684297
0.030384287
0.030090657
0.0014033031
0.0049333275
0.0090480123
0.013494955
0.017997412
0.02231632
0.026275465
0.029765171
0.032735829
0.035190321
0.037163971
0.038708769
0.039881698
0.040726856
0.04131989
0.041694847
0.041886099
0.04193332
0.041863608
0.041699048
0.041460138
0.041163729
0.040823336
0.040449811
0.040051943
0.03963684
0.03921023
0.038776708
0.038339936
0.037902821
0.03746765
0.037036207
0.036609868
0.036189675
0.035776404
0.03537061
0.034972675
0.034582839
0.034201228
0.033827879
0.033462755
0.033105762
0.032756765
0.032415589
0.032082037
0.031755891
0.031436919
0.031124878
0.03081952
0.030520593
0.030227846
0.029941035
0.0012968982
0.0044899806
0.0081845333
0.012195213
0.016304675
0.020311837
0.024057316
0.027431254
0.03037239
0.032863718
0.03492017
0.036576303
0.037876046
0.038865924
0.03958129
0.040083158
0.040399634
0.040559514
0.040595633
0.040530577
0.040382662
0.04016921
0.039904547
0.039600041
0.039265014
0.038907111
0.038532578
0.038146493
0.037752965
0.037355308
0.036956181
0.036557703
0.03616155
0.035769039
0.035381186
0.034998768
0.034622361
0.03425238
0.033889108
0.033532723
0.033183313
0.032840898
0.032505443
0.032176865
0.031855049
0.03153985
0.031231102
0.030928621
0.030632215
0.030341678
0.030056805
0.02977739
0.0012007312
0.0041041134
0.0074385939
0.011066467
0.014817129
0.018523637
0.022045188
0.025277156
0.028153296
0.030643814
0.032748025
0.034485464
0.035887572
0.036991285
0.037834663
0.038445703
0.038875159
0.039146804
0.039284186
0.039314614
0.039256956
0.039126467
0.038937944
0.038703305
0.038432268
0.038132923
0.037811963
0.037474894
0.037126227
0.036769653
0.03640818
0.036044243
0.03567981
0.03531646
0.034955449
0.034597769
0.03424419
0.033895303
0.03355155
0.033213248
0.032880614
0.032553785
0.032232828
0.031917754
0.031608531
0.031305092
0.031007338
0.030715149
0.030428386
0.030146897
0.029870518
0.029599085
0.0011133039
0.0037642068
0.0067869398
0.010078257
0.013503817
0.016926042
0.020222682
0.02329716
0.026082639
0.028541856
0.030662928
0.032453256
0.033933169
0.035130352
0.036075622
0.036800307
0.037327723
0.03770025
0.037937795
0.038059477
0.038088185
0.038039752
0.037927179
0.037762543
0.037556033
0.037316085
0.03704976
0.036762918
0.036460422
0.036146301
0.035823876
0.035495879
0.035164551
0.03483172
0.034498874
0.034167213
0.033837698
0.033511092
0.033187994
0.032868862
0.032554044
0.03224379
0.031938273
0.0316376
0.031341825
0.031050958
0.03076497
0.030483807
0.030207386
0.029935609
0.029668358
0.0010334377
0.0034618385
0.0062120697
0.0092061783
0.012338218
0.015494973
0.0185716
0.021480879
0.024158153
0.026562459
0.028674375
0.030491995
0.032026293
0.033296558
0.03432674
0.035143061
0.03577212
0.036232991
0.036560819
0.036772618
0.036883758
0.036913729
0.036876122
0.036781134
0.036639056
0.036458802
0.036247707
0.036011911
0.035756561
0.035485975
0.035203753
0.034912893
0.034615884
0.034314788
0.034011311
0.03370685
0.033402552
0.033099346
0.032797984
0.032499066
0.032203066
0.031910349
0.031621194
0.031335804
0.03105432
0.03077683
0.030503378
0.030233974
0.029968596
0.029707198
0.02944972
0.0009601856
0.0031906972
0.0057007357
0.0084309645
0.011297949
0.014208712
0.017073804
0.019815684
0.022373573
0.024705398
0.026787029
0.028609751
0.030176999
0.031500881
0.032599185
0.033493045
0.034204938
0.034757182
0.035165149
0.035457785
0.035650221
0.035754872
0.035789303
0.035762547
0.035684467
0.035563644
0.035407898
0.035223551
0.035015961
0.034789685
0.034548559
0.034295806
0.034034137
0.033765829
0.033492785
0.03321659
0.032938563
0.032659795
0.032381183
0.032103465
0.031827238
0.031552983
0.031281081
0.031011832
0.030745463
0.030482141
0.030221984
0.029965066
0.029711426
0.029461074
0.029214003
0.00089277397
0.0029459479
0.0052427271
0.0077375464
0.010364682
0.013048198
0.015712153
0.018288225
0.020720383
0.022967168
0.025001859
0.026811037
0.028392342
0.029752011
0.030902387
0.031859789
0.032642635
0.033269966
0.033760405
0.034126229
0.034390764
0.034568693
0.034672744
0.034711194
0.034695348
0.03463351
0.034532752
0.034399833
0.034240242
0.034058726
0.033859304
0.033645383
0.033419865
0.033185215
0.032943512
0.032696515
0.032445699
0.032192308
0.031937378
0.031681777
0.031426221
0.031171303
0.030917507
0.030665223
0.030414767
0.030166384
0.029920263
0.029676547
0.029435333
0.029196685
0.028960644
0.00083056252
0.0027238131
0.0048300464
0.0071139499
0.0095236681
0.011997438
0.014471266
0.016885452
0.019189033
0.021342252
0.023317316
0.02509776
0.026677
0.028056553
0.029244078
0.030251534
0.031093497
0.031785784
0.032344413
0.032784871
0.03311668
0.033359395
0.033529823
0.03363234
0.033676086
0.033671115
0.033624991
0.033543053
0.033431309
0.033294665
0.033137262
0.032962637
0.032773852
0.03257353
0.032363906
0.032146887
0.031924095
0.031696909
0.031466497
0.031233847
0.030999791
0.030765027
0.030530137
0.030295602
0.030061822
0.029829119
0.029597754
0.029367935
0.029139819
0.028913525
0.00077301519
0.0025212894
0.0044563364
0.0065505332
0.0087628555
0.01104321
0.013338038
0.015595634
0.01777021
0.019824426
0.021730499
0.023470165
0.025033837
0.026419346
0.027630438
0.028675244
0.02956483
0.03031195
0.030930052
0.031432524
0.03183214
0.032136354
0.032366278
0.032528949
0.032631235
0.032680862
0.032687034
0.032655785
0.032591336
0.032499336
0.032383964
0.032248826
0.032097112
0.031931578
0.031754581
0.031568159
0.031374059
0.031173782
0.030968615
0.030759658
0.030547849
0.030333985
0.030118742
0.029902688
0.029686303
0.029469985
0.029254064
0.029038812
0.028824449
0.028611153
0.00071967838
0.0023359507
0.0041164749
0.0060394408
0.0080722784
0.010174426
0.012301317
0.014408562
0.016455489
0.018407617
0.020237968
0.021927422
0.023464352
0.024843785
0.026066279
0.027136692
0.028062965
0.028855025
0.029523867
0.030080818
0.030536899
0.030901782
0.031190781
0.03140682
0.031563315
0.031666631
0.031723175
0.031740465
0.03172269
0.031674818
0.031601194
0.031505446
0.03139089
0.03126038
0.031116362
0.030960978
0.030796083
0.030623281
0.030443965
0.030259336
0.030070428
0.029878131
0.029683207
0.029486306
0.029287983
0.029088709
0.028888882
0.028688835
0.028488847
0.028289156
0.00067016446
0.0021658082
0.0038062814
0.0055742036
0.0074436087
0.0093816717
0.011351485
0.013315245
0.015237213
0.017086007
0.018836013
0.020467987
0.021969031
0.023332115
0.024555259
0.025640585
0.02659331
0.027420812
0.028131812
0.028735695
0.029241975
0.029660012
0.030000934
0.030272352
0.030478684
0.030630365
0.030736861
0.030801261
0.030828022
0.030823169
0.030790979
0.030734224
0.030656651
0.030561176
0.030450277
0.030326188
0.030190845
0.030045936
0.029892946
0.029733162
0.029567708
0.029397553
0.029223539
0.029046392
0.028866738
0.028685115
0.028501984
0.028317739
0.028132716
0.027947206
0.00062413895
0.0020092105
0.0035223031
0.0051494403
0.0068698239
0.0086568815
0.010480159
0.01230769
0.014108384
0.015854047
0.017520803
0.019089843
0.020547626
0.021885684
0.02310008
0.024190693
0.025160418
0.026014382
0.026759234
0.027402545
0.027952344
0.028416901
0.028805052
0.02912419
0.029381275
0.029579391
0.029731095
0.029840302
0.029910815
0.029947401
0.029955198
0.029937096
0.029896071
0.029835422
0.029757566
0.029664832
0.029559215
0.029442457
0.029316125
0.02918158
0.029040017
0.028892479
0.028739878
0.028583008
0.028422559
0.028259132
0.028093247
0.027925355
0.027755843
0.027585054
0.00058131061
0.0018647689
0.0032616554
0.0047606316
0.0063449539
0.0079930868
0.009679968
0.011378729
0.013062565
0.014706451
0.016288472
0.01779066
0.019199344
0.020505141
0.021702661
0.022789993
0.023768088
0.024640121
0.025410889
0.026086285
0.026672884
0.027177675
0.027607929
0.02797032
0.028271042
0.028515291
0.028711919
0.028862115
0.028972737
0.02905045
0.029097137
0.029116035
0.029110905
0.029084794
0.029039663
0.028978152
0.028902257
0.028813739
0.028714247
0.028605196
0.028487842
0.028363288
0.028232505
0.028096347
0.027955562
0.027810807
0.027662655
0.027511609
0.027358107
0.02720254
0.00054142362
0.0017313024
0.0030219029
0.0044039477
0.0058638848
0.0073842284
0.0089443878
0.010521891
0.012093811
0.013638178
0.015135155
0.016567892
0.017922983
0.019190581
0.020364279
0.021440781
0.02241945
0.023301797
0.02409099
0.024791393
0.025408199
0.025947132
0.0264142
0.026815236
0.027155822
0.027441284
0.027677946
0.027870169
0.028019451
0.028134779
0.02821856
0.028274084
0.028303522
0.028310878
0.028298188
0.028267583
0.028221232
0.028160857
0.028088235
0.028004792
0.027911835
0.027810514
0.027701848
0.027586742
0.027465994
0.027340308
0.027210308
0.027076542
0.026939494
0.026799596
0.00050425144
0.0016077958
0.0028009684
0.004076115
0.0054222053
0.0068250062
0.0082676141
0.0097313072
0.011196611
0.012644419
0.014057007
0.015418827
0.016717025
0.017941657
0.019085682
0.02014478
0.021117049
0.022002617
0.022803238
0.023521915
0.024162559
0.024729708
0.025228265
0.025663201
0.026039437
0.026361841
0.026635481
0.026864529
0.027052364
0.027205134
0.02732321
0.027412762
0.027476425
0.027516397
0.027534863
0.027534622
0.027517609
0.027485061
0.027439193
0.027381319
0.027312814
0.027234851
0.027148489
0.027054673
0.026954241
0.02684794
0.026736433
0.02662031
0.026500096
0.026376263
0.00046959195
0.0014933685
0.0025970637
0.0037743126
0.0050160851
0.0063107606
0.0076444614
0.0090016358
0.010365836
0.011720588
0.013050231
0.014340631
0.015579692
0.016757655
0.017867168
0.018903213
0.019862917
0.020745283
0.021550869
0.022281481
0.022939879
0.02352951
0.024054278
0.02451831
0.024925827
0.025281086
0.025588363
0.025851547
0.02607424
0.026260688
0.026413456
0.026537031
0.026631843
0.026702768
0.026752171
0.026781559
0.026792743
0.026787738
0.026768414
0.026735901
0.02669177
0.02663716
0.026573171
0.026500774
0.026420838
0.026334143
0.026241388
0.026143197
0.026040129
0.025932693
0.00043726354
0.0013872493
0.0024086362
0.0034960913
0.004642178
0.0058373756
0.0070702807
0.0083280004
0.0095967082
0.010862304
0.012111088
0.013330379
0.014508987
0.015637543
0.016708647
0.017716866
0.018658626
0.019532041
0.020336683
0.021073331
0.021743724
0.022350332
0.022896147
0.02338449
0.023818879
0.02420294
0.024540321
0.024834521
0.025088921
0.025306974
0.0254916
0.02564605
0.02577242
0.025874286
0.025951963
0.026009842
0.026049104
0.026070602
0.026077185
0.02606982
0.02604987
0.02601847
0.025976797
0.025925836
0.025866471
0.025799509
0.025725675
0.025645621
0.025559936
0.02546916
0.00040710206
0.0012887575
0.0022343266
0.0032393091
0.0042975438
0.0054011996
0.0065408921
0.0077059435
0.0088847733
0.010065388
0.01123591
0.012385088
0.013502728
0.014580011
0.015609686
0.016586136
0.01750533
0.018364716
0.019163074
0.019900321
0.020577316
0.021195663
0.021757528
0.022265481
0.022722361
0.023131176
0.023495011
0.023816931
0.024099953
0.024347066
0.024561042
0.024744641
0.024900234
0.025030431
0.025136971
0.025222862
0.025287994
0.025335584
0.025367677
0.025384524
0.02538834
0.025379974
0.025360441
0.025330817
0.025291985
0.025244781
0.02518994
0.025128143
0.025059997
0.024986069
0.0003789583
0.0011972883
0.0020729369
0.0030020809
0.0039795854
0.004998981
0.0060525281
0.0071313851
0.0082258782
0.0093258579
0.010421104
0.011501737
0.012558589
0.013583502
0.014569533
0.01551106
0.016403798
0.017244738
0.018032047
0.018764944
0.019443542
0.020068692
0.020641826
0.021164824
0.021639886
0.022069435
0.022456027
0.022802275
0.023110803
0.023384213
0.023625014
0.023835639
0.024018366
0.024175439
0.024308821
0.024420699
0.024512655
0.024584906
0.024641129
0.024681923
0.024709108
0.024722932
0.024725263
0.024716844
0.024698387
0.024670863
0.024634986
0.024591471
0.024540935
0.024483964
0.00035269599
0.0011123006
0.0019234039
0.0027827378
0.0036859973
0.0046278134
0.0056017856
0.0066005879
0.0076161531
0.0086399267
0.0096631707
0.010677287
0.011674127
0.012646255
0.013587152
0.01449134
0.015354442
0.016173165
0.01694524
0.017669337
0.018344956
0.018972308
0.019552185
0.020085842
0.020574895
0.021021219
0.021426872
0.021794021
0.022124891
0.022421724
0.022686729
0.022922062
0.023129793
0.023311932
0.023470355
0.023606904
0.023723123
0.023820259
0.0239007
0.023964058
0.024013409
0.024049183
0.024073017
0.024085076
0.024086795
0.024078827
0.02406177
0.024036473
0.024003522
0.023963535
0.0003281902
0.0010333076
0.0017847788
0.0025797942
0.003414724
0.004285091
0.0051855847
0.006110127
0.0070519952
0.0080040007
0.0089587122
0.0099087041
0.010846806
0.011766329
0.012661255
0.013526366
0.014357324
0.015150697
0.015903929
0.016615285
0.017283782
0.017909099
0.018491479
0.019031632
0.019530641
0.019989882
0.020410944
0.020795568
0.021145594
0.02146291
0.021749421
0.022007012
0.022237522
0.022442741
0.022624387
0.022784097
0.022923364
0.023043574
0.023146311
0.023232502
0.023304099
0.02336065
0.023404875
0.023437308
0.023458866
0.023469763
0.023471365
0.02346418
0.023448687
0.023425623
0.00030532595
0.00095986924
0.0016562104
0.0023919217
0.0031639256
0.0039684703
0.0048011336
0.0056568626
0.0065300543
0.0074146798
0.0083044451
0.0091929779
0.010074024
0.010941636
0.011790337
0.01261525
0.013412186
0.014177687
0.014909037
0.015604229
0.016261914
0.016881345
0.017462309
0.018005045
0.018510169
0.018978604
0.01941151
0.019810227
0.020176225
0.020511056
0.020816322
0.021093636
0.021344606
0.021570805
0.021773764
0.02195496
0.022115781
0.022257557
0.02238161
0.022489075
0.02258123
0.022658784
0.022723224
0.022775631
0.02281577
0.022845355
0.022865345
0.022875652
0.022877468
0.022871232
0.00028399714
0.00089158623
0.001536932
0.0022179273
0.0029319492
0.0036758385
0.0044458982
0.0052379164
0.0060472193
0.0068687555
0.0076972104
0.0085271439
0.0093531418
0.010169967
0.010972699
0.011756853
0.012518467
0.013254158
0.013961148
0.014637266
0.01528091
0.015891011
0.016466985
0.017008677
0.017516302
0.017990381
0.018431687
0.018841192
0.019220018
0.0195694
0.019890643
0.0201851
0.020454137
0.020699122
0.020921395
0.021122266
0.021302999
0.021464814
0.021608893
0.021736337
0.02184823
0.021945505
0.022029247
0.022100369
0.022159456
0.022207681
0.022244872
0.022272514
0.022291386
0.022301424
0.00026410566
0.00082809476
0.0014262501
0.0020567358
0.0027173056
0.0034052865
0.004117575
0.0048506495
0.0056006049
0.0063632091
0.0071339831
0.0079083015
0.0086815056
0.0094490227
0.010206481
0.010949813
0.011675336
0.012379817
0.013060506
0.013715152
0.014341996
0.01493974
0.015507516
0.01604485
0.016551618
0.017027998
0.017474418
0.017891518
0.018280102
0.018641105
0.018975556
0.019284551
0.019569225
0.019830734
0.020070237
0.020288875
0.02048777
0.020668017
0.020830678
0.020976769
0.021107271
0.021223103
0.021325191
0.021414374
0.02149138
0.021557012
0.021611795
0.021656742
0.021691614
0.021717778
0.00024556118
0.00076906302
0.0013235355
0.0019073748
0.0025186489
0.0031550858
0.0038140687
0.0044926435
0.0051875397
0.0058952089
0.0066118803
0.0073336319
0.0080564746
0.0087764437
0.0094896909
0.01019257
0.010881713
0.011554086
0.012207035
0.012838309
0.013446061
0.014028848
0.0145856
0.015115596
0.015618437
0.016094009
0.016542447
0.016964096
0.017359473
0.017729238
0.018074162
0.018395099
0.018692961
0.018968701
0.019223291
0.019457711
0.019672933
0.019869919
0.020049613
0.020212931
0.02036076
0.02049395
0.02061333
0.020719676
0.020813706
0.020896125
0.020967554
0.021028674
0.021079916
0.021122185
0.00022828008
0.00071418806
0.0012282161
0.0017689631
0.0023347606
0.0029236686
0.0035334717
0.0041616821
0.0048055536
0.0054621066
0.0061281663
0.006800413
0.0074754433
0.0081498388
0.0088202381
0.0094834067
0.010136301
0.010776124
0.011400366
0.012006831
0.012593659
0.013159322
0.013702616
0.014222645
0.014718795
0.015190716
0.015638296
0.016061623
0.016460966
0.016836737
0.017189469
0.017519791
0.017828405
0.018116068
0.018383574
0.018631738
0.018861388
0.01907335
0.019268445
0.019447483
0.019611255
0.019760529
0.019896048
0.020018523
0.020128627
0.020227006
0.020314266
0.020390999
0.020457729
0.020515056
0.00021218276
0.00066319035
0.0011397722
0.0016407011
0.0021645355
0.0027096119
0.0032740462
0.0038557356
0.0044523668
0.0050614325
0.0056802573
0.0063060333
0.0069358637
0.0075668136
0.0081959654
0.0088204738
0.0094376194
0.010044856
0.010639852
0.011220516
0.011785022
0.012331816
0.012859618
0.013367413
0.013854434
0.014320147
0.014764237
0.015186583
0.015587233
0.015966385
0.016324358
0.016661576
0.016978548
0.017275845
0.01755409
0.01781394
0.018056077
0.018281196
0.018489997
0.018683177
0.018861429
0.019025433
0.01917585
0.01931332
0.019438459
0.019551858
0.019654082
0.019745672
0.019827141
0.019899014
0.00019719672
0.00061581192
0.0010577268
0.0015218627
0.0020069703
0.0025116221
0.0030342091
0.0035729464
0.0041258786
0.0046908903
0.0052657235
0.0058480023
0.0064352642
0.007024997
0.0076146803
0.0082018282
0.0087840326
0.0093590035
0.0099246037
0.010478878
0.011020076
0.011546664
0.012057332
0.012550997
0.013026788
0.013484041
0.01392228
0.014341215
0.014740711
0.01512078
0.015481557
0.015823283
0.016146287
0.016450973
0.016737802
0.017007281
0.017259952
0.017496379
0.017717144
0.017922835
0.018114042
0.018291354
0.018455351
0.0186066
0.018745651
0.018873039
0.018989278
0.019094864
0.019190274
0.019275989
0.00018325452
0.00057181717
0.00098164226
0.0014117838
0.0018611542
0.0023285239
0.0028125179
0.0033116153
0.0038241566
0.0043483513
0.0048822896
0.0054239589
0.0059712663
0.006522065
0.0070741851
0.0076254661
0.0081737912
0.0087171197
0.0092535173
0.0097811825
0.010298468
0.010803896
0.011296169
0.011774173
0.012236979
0.012683834
0.013114148
0.013527495
0.013923597
0.014302311
0.014663613
0.015007583
0.015334396
0.015644299
0.015937608
0.016214688
0.016475948
0.016721828
0.016952795
0.017169328
0.017371921
0.017561068
0.017737266
0.017901008
0.018052776
0.018193044
0.018322273
0.018440909
0.018549386
0.018648147
0.00017029352
0.00053098932
0.00091112035
0.0013098576
0.0017262551
0.0021592493
0.0026076601
0.0030701903
0.0035454267
0.0040318481
0.0045278346
0.0050316782
0.0055415986
0.0060557623
0.0065723051
0.0070893565
0.0076050657
0.0081176281
0.0086253103
0.0091264726
0.0096195889
0.010103263
0.010576238
0.011037407
0.011485815
0.011920656
0.012341266
0.012747122
0.013137833
0.01351313
0.01387286
0.014216969
0.014545492
0.014858543
0.015156303
0.015439011
0.015706952
0.015960449
0.016199858
0.016425555
0.016637937
0.01683741
0.017024387
0.017199284
0.017362515
0.017514491
0.017655616
0.017786285
0.017906885
0.018017818
0.00015825561
0.00049312901
0.00084579657
0.001215533
0.0016015155
0.0020028241
0.0024184417
0.0028472567
0.0032880642
0.0037395684
0.0042003897
0.004669075
0.0051441076
0.0056239208
0.0061069141
0.0065914718
0.0070759824
0.0075588592
0.0080385607
0.0085136095
0.0089826097
0.0094442614
0.0098973731
0.01034087
0.010773799
0.011195332
0.011604764
0.012001505
0.012385084
0.012755136
0.013111404
0.013453722
0.013782011
0.014096268
0.014396558
0.014683003
0.014955777
0.015215097
0.015461214
0.015694408
0.015914981
0.016123255
0.016319561
0.016504241
0.016677639
0.016840102
0.016991974
0.017133599
0.017265315
0.017387482
0.000147087
0.00045805311
0.00078533774
0.0011283078
0.0014862484
0.0018583628
0.0022437741
0.0026415262
0.0030505862
0.0034698482
0.0038981358
0.0043342072
0.0047767671
0.0052244751
0.0056759567
0.0061298175
0.0065846578
0.0070390882
0.007491746
0.0079413104
0.0083865171
0.008826172