/*--------------------------------*- C++ -*----------------------------------*\
| =========                 |                                                 |
| \\      /  F ield         | OpenFOAM: The Open Source CFD Toolbox           |
|  \\    /   O peration     | Version:  2312                                  |
|   \\  /    A nd           | Website:  www.openfoam.com                      |
|    \\/     M anipulation  |                                                 |
\*---------------------------------------------------------------------------*/
FoamFile
{
    version     2.0;
    format      ascii;
    arch        "LSB;label=32;scalar=64";
    class       volScalarField;
    location    "0.09";
    object      O2;
}
// * * * * * * * * * * * * * * * * * * * * * * * * * * * * * * * * * * * * * //

dimensions      [0 0 0 0 0 0 0];

internalField   nonuniform List<scalar> 
3275
(
0.0036607949
0.010654393
0.015018282
0.017755216
0.020277815
0.023147163
0.026658722
0.030867389
0.035757446
0.041195443
0.047006971
0.051993549
0.057586073
0.063058672
0.068281636
0.073215461
0.077850189
0.08219519
0.086266607
0.090082536
0.093661061
0.097020138
0.10017724
0.10314834
0.1059482
0.10859037
0.11108723
0.1134501
0.11568929
0.11781423
0.11983347
0.12175486
0.12358555
0.12533205
0.12700035
0.12859594
0.13012383
0.13158863
0.1329946
0.13434566
0.1356454
0.13689716
0.13810404
0.13926889
0.14039436
0.14148291
0.14253684
0.1435583
0.14454929
0.14551167
0.1464472
0.14735752
0.0060645791
0.014087741
0.017793689
0.019940128
0.022076091
0.024658888
0.027962243
0.031995713
0.036742542
0.042052755
0.047747306
0.052649815
0.05815184
0.063546576
0.068703689
0.073581842
0.078169593
0.08247494
0.086512821
0.090300298
0.093854594
0.097192944
0.10033223
0.10328795
0.10607446
0.10870498
0.11119165
0.11354556
0.11577684
0.11789476
0.11990777
0.12182359
0.12364927
0.12539129
0.12705555
0.12864747
0.13017203
0.13163382
0.13303703
0.13438556
0.13568299
0.13693264
0.13813756
0.13930061
0.14042441
0.14151142
0.14256392
0.14358405
0.1445738
0.14553503
0.14646949
0.14737879
0.012959933
0.021825203
0.023772367
0.02453032
0.025798268
0.02774865
0.03058269
0.034264273
0.038716573
0.043765644
0.049223756
0.053957697
0.05927726
0.064517293
0.069543507
0.074311027
0.078805453
0.08303203
0.087003287
0.090734226
0.094240358
0.097537494
0.10064134
0.10356644
0.10632637
0.10893372
0.1114001
0.11373615
0.11595167
0.1180556
0.12005617
0.12196087
0.1237766
0.12550966
0.12716584
0.12875046
0.13026839
0.13172415
0.13312186
0.13446537
0.13575819
0.1370036
0.13820462
0.13936407
0.14048455
0.14156848
0.14261813
0.14363561
0.14462289
0.14558182
0.14651412
0.14742142
0.029912685
0.035953892
0.033689762
0.031835428
0.031602864
0.032491683
0.034554144
0.037683
0.041673371
0.046320752
0.05142112
0.055903103
0.060947271
0.065958592
0.07079101
0.075394739
0.079751
0.083860942
0.087733504
0.091380639
0.094815333
0.098051295
0.1011025
0.1039821
0.10670251
0.10927538
0.11171153
0.11402099
0.11621301
0.1182961
0.12027811
0.12216624
0.1239671
0.1256868
0.12733092
0.12890462
0.13041265
0.1318594
0.1332489
0.13458488
0.13587082
0.1371099
0.13830509
0.13945917
0.14057467
0.141654
0.14269938
0.1437129
0.14469649
0.14565197
0.14658106
0.14748535
0.07089043
0.059604085
0.04818329
0.042186744
0.039610064
0.038998832
0.03994355
0.042250985
0.045596823
0.049695333
0.054315485
0.05846449
0.063140243
0.067852791
0.072431589
0.07682098
0.080996431
0.084953682
0.08869695
0.092234201
0.095575135
0.098730728
0.10171272
0.10453242
0.10720076
0.10972816
0.11212444
0.11439879
0.11655977
0.11861532
0.12057279
0.12243898
0.12422017
0.12592215
0.1275503
0.12910954
0.13060444
0.13203924
0.13341784
0.13474386
0.13602065
0.13725133
0.13843879
0.13958572
0.14069463
0.14176785
0.14280756
0.1438158
0.14479448
0.14574539
0.1466702
0.14757049
0.1553712
0.090667651
0.066288987
0.054914512
0.049090202
0.046557353
0.046344658
0.047627078
0.050173497
0.053613609
0.057667029
0.061430392
0.065673881
0.070043388
0.074330572
0.078473565
0.082441113
0.086222682
0.089817034
0.09322757
0.096460242
0.099522913
0.10242477
0.10517505
0.10778298
0.11025758
0.11260751
0.11484101
0.11696584
0.11898928
0.12091813
0.12275872
0.12451693
0.12619824
0.12780771
0.12935004
0.1308296
0.13225041
0.13361625
0.13493059
0.13619667
0.13741751
0.13859591
0.13973447
0.14083565
0.1419017
0.14293475
0.14393681
0.14490973
0.14585527
0.14677506
0.14767066
0.19279051
0.11974631
0.085757991
0.068555611
0.059699095
0.05519687
0.053435225
0.053614736
0.05522263
0.057923556
0.061345572
0.064687393
0.068454253
0.072449042
0.076418133
0.080292434
0.084033155
0.087622876
0.091054405
0.094326195
0.097440153
0.10040079
0.10321453
0.10588838
0.10842971
0.11084604
0.11314476
0.11533308
0.11741791
0.11940579
0.12130292
0.12311512
0.12484784
0.12650619
0.12809491
0.12961845
0.13108092
0.13248619
0.13383782
0.13513917
0.13639332
0.1376032
0.13877149
0.13990073
0.14099328
0.14205134
0.14307697
0.14407213
0.14503863
0.14597817
0.14689236
0.14778271
0.20771443
0.14589362
0.10697452
0.084635486
0.071973133
0.065114129
0.06167253
0.060523395
0.061095346
0.062906479
0.065590601
0.068449841
0.071672835
0.075233424
0.078837701
0.082403859
0.085884193
0.089253372
0.092497407
0.095609136
0.098585892
0.10142839
0.10413995
0.10672502
0.10918889
0.11153734
0.11377635
0.11591193
0.11795
0.11989629
0.12175628
0.12353521
0.12523804
0.12686944
0.12843381
0.12993526
0.13137767
0.13276465
0.13409957
0.13538562
0.13662573
0.13782269
0.13897909
0.14009734
0.14117971
0.14222834
0.14324523
0.14423224
0.14519115
0.14612362
0.1470312
0.14791536
0.21434165
0.16541817
0.12689791
0.10143581
0.085593969
0.076080009
0.070849495
0.068284755
0.067711443
0.068545301
0.070377125
0.072694367
0.075337145
0.078392565
0.081588574
0.084809196
0.087997034
0.09111797
0.094150482
0.097081222
0.099902484
0.10261081
0.10520608
0.10768993
0.11006533
0.11233614
0.11450675
0.11658184
0.11856622
0.12046468
0.12228193
0.12402254
0.1256909
0.12729121
0.12882745
0.13030339
0.13172259
0.13308841
0.134404
0.13567232
0.13689617
0.13807817
0.13922076
0.14032626
0.14139683
0.14243452
0.14344124
0.1444188
0.1453689
0.14629314
0.14719304
0.14807
0.21780972
0.17920809
0.14399884
0.1176466
0.09961974
0.087917863
0.080721579
0.076746472
0.074967064
0.074784766
0.075709726
0.077355033
0.079427617
0.081917796
0.084664745
0.087505701
0.090371314
0.093217991
0.096016123
0.098745735
0.10139373
0.10395216
0.10641722
0.10878747
0.11106338
0.11324672
0.11534014
0.11734686
0.11927047
0.12111473
0.12288348
0.12458057
0.12620974
0.12777467
0.12927888
0.13072573
0.13211846
0.13346013
0.13475363
0.13600171
0.13720695
0.13837182
0.13949862
0.14058952
0.14164658
0.14267173
0.1436668
0.14463352
0.14557351
0.14648831
0.14737939
0.14824809
0.21992483
0.18896002
0.15793971
0.13236857
0.11331124
0.099994865
0.091166974
0.085664159
0.082750835
0.081508259
0.081534293
0.082406902
0.083893537
0.085808582
0.088054124
0.09048614
0.093003171
0.095551999
0.098094629
0.10060421
0.10306202
0.10545543
0.10777673
0.11002125
0.11218679
0.11427289
0.11628032
0.11821075
0.12006643
0.12185003
0.12356443
0.12521267
0.12679781
0.12832295
0.12979109
0.13120517
0.13256805
0.13388246
0.13515101
0.1363762
0.13756042
0.13870591
0.13981482
0.14088919
0.14193093
0.14294187
0.14392373
0.14487814
0.14580666
0.14671075
0.14759181
0.14845113
0.22138068
0.19601123
0.16907415
0.14520358
0.12610142
0.11183822
0.10174746
0.094939825
0.090863739
0.088628284
0.087738538
0.087846088
0.08866572
0.090037108
0.091742171
0.093738595
0.095885017
0.098115585
0.10038391
0.10265626
0.10490818
0.10712234
0.10928695
0.11139405
0.11343863
0.11541789
0.11733064
0.1191769
0.12095751
0.12267393
0.12432806
0.12592206
0.12745825
0.12893908
0.13036703
0.13174456
0.1330741
0.13435804
0.13559869
0.13679827
0.13795893
0.1390827
0.14017156
0.14122737
0.14225191
0.14324688
0.14421389
0.14515448
0.1460701
0.14696213
0.14783191
0.14868066
0.22247148
0.20125744
0.17794359
0.15614154
0.13767267
0.12307556
0.11214969
0.10435091
0.099151959
0.09598126
0.094243517
0.093582627
0.093741995
0.094523549
0.095721784
0.097245832
0.09900544
0.10090124
0.10287933
0.10489938
0.10693134
0.10895318
0.11094908
0.11290769
0.11482117
0.11668432
0.11849392
0.12024826
0.12194672
0.12358951
0.12517745
0.12671177
0.12819404
0.129626
0.13100956
0.13234666
0.13363931
0.1348895
0.1360992
0.13727035
0.13840483
0.13950447
0.14057102
0.14160618
0.14261157
0.14358874
0.1445392
0.14546436
0.14636558
0.14724416
0.14810134
0.14893829
0.22333556
0.20527633
0.18505179
0.16537019
0.14792675
0.13347204
0.12211587
0.11359767
0.10753492
0.1034457
0.10093132
0.099548804
0.09905325
0.099245343
0.099939896
0.10100209
0.10234937
0.10389833
0.10557365
0.10732892
0.10912878
0.11094675
0.11276301
0.11456291
0.11633579
0.11807403
0.11977236
0.12142728
0.12303668
0.12459946
0.12611534
0.1275846
0.12900796
0.13038647
0.1317214
0.13301416
0.13426629
0.13547938
0.13665503
0.13779486
0.13890049
0.13997349
0.14101541
0.14202774
0.14301195
0.14396945
0.14490158
0.14580965
0.14669491
0.14755857
0.14840178
0.14922563
0.22404528
0.20843996
0.19080673
0.17313943
0.15690761
0.14292176
0.13147296
0.1225074
0.11579104
0.11097287
0.10769366
0.10565977
0.10454456
0.10416668
0.10435239
0.10497049
0.1059064
0.10709318
0.10845703
0.109938
0.11149592
0.11310023
0.1147273
0.11635935
0.11798293
0.11958808
0.12116746
0.12271581
0.12422949
0.12570609
0.12714418
0.12854305
0.12990258
0.13122306
0.13250511
0.1337496
0.13495756
0.13613015
0.13726859
0.13837417
0.1394482
0.14049201
0.14150691
0.1424942
0.14345514
0.14439099
0.14530296
0.14619223
0.14705992
0.14790714
0.14873495
0.14954434
0.22464256
0.21099131
0.19552231
0.1796947
0.16473011
0.15141377
0.14012821
0.1309571
0.12379247
0.11839977
0.11450094
0.11182405
0.11015337
0.10923842
0.10893351
0.10910672
0.10965268
0.11047403
0.11151712
0.11271754
0.11402629
0.11540915
0.1168391
0.11829537
0.11976196
0.1212266
0.12267996
0.12411506
0.12552672
0.12691123
0.12826598
0.12958929
0.13088015
0.13213809
0.13336307
0.13455537
0.1357155
0.13684417
0.13794221
0.13901056
0.14005022
0.14106224
0.14204769
0.14300764
0.14394318
0.14485538
0.14574531
0.14661399
0.14746244
0.14829165
0.14910257
0.14989612
0.22515403
0.21309258
0.19943521
0.18525224
0.17153355
0.15899497
0.14805221
0.13887307
0.13144548
0.12563153
0.12123019
0.11802344
0.11580497
0.11441106
0.11364282
0.11339021
0.11354675
0.11402451
0.11474211
0.11565641
0.11671156
0.11786744
0.1190941
0.12036813
0.12167116
0.12298878
0.12430979
0.12562552
0.12692932
0.12821616
0.12948232
0.13072509
0.1319426
0.13313361
0.13429739
0.13543362
0.1365423
0.13762365
0.13867811
0.13970624
0.14070872
0.14168632
0.14263984
0.14357014
0.14447809
0.14536459
0.14623054
0.14707681
0.1479043
0.14871388
0.1495064
0.15028265
0.2255979
0.21485484
0.20272293
0.18999359
0.17745717
0.16574135
0.15525866
0.14622291
0.13868954
0.13259623
0.12780945
0.12416348
0.12148798
0.11962294
0.11844116
0.11778695
0.11757179
0.11770696
0.11812002
0.11874334
0.11954164
0.12046739
0.12148657
0.12257348
0.12370767
0.12487283
0.126056
0.12724693
0.12843756
0.12962162
0.13079426
0.13195181
0.13309151
0.13421135
0.13530992
0.13638631
0.13743996
0.13847064
0.13947835
0.14046328
0.14142578
0.1423663
0.14328541
0.1441837
0.14506186
0.14592057
0.14676056
0.14758257
0.14838735
0.14917563
0.14994817
0.15070565
0.22598716
0.21635584
0.20551905
0.19406765
0.1826291
0.17173964
0.16178703
0.15300482
0.14549266
0.13924454
0.13418264
0.13018868
0.12712822
0.12486667
0.12327814
0.1222647
0.12169887
0.1215072
0.1216172
0.12196886
0.12250611
0.12319983
0.1240094
0.12490601
0.12586751
0.12687593
0.12791673
0.12897821
0.13005102
0.1311277
0.13220233
0.13327029
0.13432799
0.13537265
0.13640219
0.13741508
0.13841024
0.13938696
0.1403448
0.14128358
0.14220331
0.14310413
0.14398633
0.14485026
0.14569639
0.1465252
0.14733724
0.1481331
0.14891337
0.14967867
0.15042962
0.15116682
0.22633142
0.2176509
0.20792388
0.19759505
0.18716238
0.17707685
0.16769001
0.15923744
0.15184509
0.14554703
0.1403094
0.13605465
0.13268196
0.13008244
0.12814902
0.12678162
0.12590063
0.12540058
0.12522116
0.12530333
0.12559681
0.12605536
0.12665419
0.12735909
0.12814557
0.12899422
0.12988918
0.13081747
0.13176853
0.13273382
0.13370645
0.13468088
0.13565272
0.13661845
0.13757535
0.13852127
0.13945462
0.1403742
0.14127915
0.1421689
0.14304311
0.14390162
0.14474443
0.14557165
0.14638351
0.14718031
0.14796239
0.14873019
0.14948414
0.15022473
0.15095245
0.22663806
0.21878033
0.21001288
0.20067262
0.19115444
0.181835
0.17302538
0.16495175
0.1577531
0.15149051
0.14616351
0.14172815
0.13811345
0.13523503
0.13300441
0.13133426
0.13014196
0.12936319
0.12891094
0.12873517
0.12878796
0.12902631
0.12941257
0.12992495
0.13053564
0.13122285
0.13196965
0.13276193
0.13358814
0.13443873
0.13530592
0.13618336
0.13706587
0.13794926
0.13883017
0.13970588
0.14057426
0.14143367
0.14228281
0.14312073
0.14394675
0.1447604
0.14556138
0.14634957
0.14712495
0.14788762
0.14863773
0.14937555
0.15010135
0.15081549
0.15151832
0.22691284
0.21977423
0.21184321
0.20337699
0.1946879
0.1860887
0.1778511
0.17018527
0.16323361
0.15707414
0.15173071
0.14718612
0.14339496
0.14029484
0.13781471
0.13588064
0.1344202
0.13336549
0.13266491
0.1322467
0.13206834
0.13209066
0.13227652
0.13259639
0.13303049
0.13355598
0.1341535
0.13480801
0.13550711
0.13624043
0.13699939
0.13777689
0.13856707
0.13936509
0.14016697
0.14096948
0.14176999
0.14256637
0.14335694
0.14414037
0.14491562
0.14568193
0.14643871
0.14718558
0.1479223
0.14864874
0.14936489
0.15007081
0.15076665
0.1514526
0.15212886
0.22716034
0.22065555
0.21345891
0.20576839
0.19783088
0.189904
0.18222258
0.17497812
0.16831012
0.1623059
0.15700623
0.15241438
0.14850595
0.14523751
0.14255416
0.14039527
0.13869895
0.13740532
0.13645857
0.13581747
0.13542332
0.13523721
0.13522756
0.13536451
0.13562414
0.13598687
0.13643523
0.13695126
0.13752196
0.13813622
0.13878483
0.13946005
0.1401554
0.14086543
0.14158564
0.14231227
0.14304223
0.14377296
0.14450238
0.1452288
0.14595084
0.14666743
0.14737771
0.14808106
0.14877698
0.14946516
0.15014537
0.15081751
0.15148157
0.15213759
0.15278566
0.22738427
0.2214421
0.2148944
0.2078948
0.20063866
0.1933369
0.18619017
0.17937015
0.1730096
0.16719963
0.16199207
0.15740535
0.15343161
0.15004356
0.14720088
0.14485548
0.14295588
0.14145051
0.14028989
0.13942811
0.13883259
0.13845407
0.13825427
0.13821385
0.13830657
0.13851073
0.13880854
0.13918643
0.13962841
0.14012267
0.14065954
0.14123077
0.14182933
0.14244925
0.14308553
0.14373397
0.14439102
0.14505373
0.14571964
0.14638671
0.14705324
0.14771788
0.14837949
0.14903718
0.14969026
0.15033817
0.15098053
0.15161704
0.15224753
0.15287191
0.22758766
0.22214796
0.21617697
0.2097949
0.20315667
0.19643424
0.18979738
0.18339778
0.17735888
0.17177152
0.16669409
0.16215581
0.15816167
0.15469778
0.15173655
0.1492414
0.14717078
0.14548126
0.14412995
0.14307602
0.14228177
0.14172149
0.14134588
0.14113389
0.14106477
0.14111573
0.14127022
0.1415075
0.14182148
0.14219561
0.14262012
0.14308634
0.14358675
0.14411494
0.14466551
0.14523381
0.14581593
0.14640855
0.14700884
0.14761445
0.14822338
0.14883398
0.14944486
0.1500549
0.15066316
0.15126891
0.15187155
0.15247063
0.15306581
0.15365682
0.227773
0.22278439
0.21732852
0.21150018
0.20542259
0.19923561
0.19308173
0.18709322
0.18138268
0.17603779
0.17111992
0.16666557
0.16268947
0.15918856
0.15614616
0.15353595
0.15132553
0.14947934
0.14796097
0.14673482
0.14576744
0.14502958
0.14448323
0.14411396
0.14388983
0.14379311
0.14380579
0.14391108
0.14409574
0.14435021
0.1446625
0.1450234
0.14542494
0.14586034
0.14632388
0.14681055
0.1473161
0.14783687
0.14836973
0.14891201
0.14946145
0.15001612
0.15057439
0.1511349
0.15169651
0.15225828
0.15281944
0.15337936
0.15393754
0.15449355
0.22794238
0.22336056
0.21836681
0.2130365
0.20746798
0.20177483
0.19607591
0.19048527
0.18510393
0.18001442
0.17527837
0.17093668
0.16701115
0.1635073
0.16041756
0.15772454
0.15540414
0.15342814
0.15176635
0.15038832
0.14926452
0.14836699
0.14766583
0.14713862
0.14676992
0.14653375
0.14640855
0.14638435
0.1464463
0.14658225
0.14678195
0.14703798
0.14734058
0.14768269
0.14805841
0.14846242
0.14889015
0.14933768
0.14980161
0.15027899
0.15076729
0.15126435
0.15176831
0.15227758
0.15279085
0.15330696
0.15382497
0.15434409
0.15486367
0.15538312
0.22809756
0.22388399
0.21930644
0.21442531
0.20931943
0.204081
0.19880868
0.1935999
0.18854401
0.18371709
0.17917907
0.17497287
0.17112513
0.16764793
0.16454112
0.16179496
0.15939265
0.15731268
0.15553077
0.15402141
0.15275904
0.15171859
0.15087495
0.15020657
0.14969362
0.14932443
0.14907027
0.14892024
0.14886273
0.14888421
0.14897568
0.1491255
0.14932976
0.14957865
0.14986632
0.15018711
0.15053621
0.15090952
0.15130336
0.15171456
0.15214036
0.15257837
0.15302653
0.15348306
0.15394643
0.15441534
0.15488867
0.15536546
0.15584492
0.15632634
0.22824003
0.22436091
0.22015951
0.21568455
0.2109995
0.20617928
0.20130546
0.19646064
0.19172288
0.18716112
0.18283216
0.17877914
0.17503163
0.17160647
0.1685094
0.16573703
0.16327894
0.16111962
0.15924021
0.15761994
0.15623721
0.15507029
0.15409766
0.15329965
0.15265822
0.15215799
0.15177753
0.15151028
0.15133897
0.15124862
0.15123363
0.15128266
0.15138862
0.15154425
0.15174426
0.15198181
0.15225188
0.15255041
0.15287339
0.15321747
0.1535797
0.15395748
0.15434859
0.15475107
0.1551632
0.15558353
0.15601078
0.15644386
0.15688181
0.15732381
0.22837107
0.22479659
0.22093614
0.21682933
0.21252748
0.20809154
0.20358883
0.19908891
0.19465927
0.19036147
0.18624821
0.18236154
0.17873234
0.17538069
0.1723168
0.16954247
0.16705265
0.16483711
0.16288193
0.16117074
0.15968582
0.1584088
0.15732126
0.15640571
0.15564571
0.15502592
0.15452976
0.15414485
0.15386456
0.15366858
0.15355023
0.15350034
0.1535116
0.15357687
0.15368837
0.15384316
0.15403422
0.15425789
0.15450962
0.154786
0.1550839
0.15540059
0.15573367
0.15608101
0.15644077
0.15681133
0.15719127
0.15757938
0.15797456
0.15837587
0.22849178
0.22519546
0.22164488
0.21787246
0.2139199
0.2098369
0.2056789
0.20150423
0.19737073
0.19333267
0.18943807
0.18572691
0.1822302
0.17896989
0.17595943
0.17320465
0.170705
0.16845478
0.16644443
0.16466168
0.16309241
0.1617215
0.16053345
0.159513
0.15864544
0.15791666
0.15731266
0.15682157
0.15643342
0.15613347
0.15591833
0.15577338
0.15569194
0.15566852
0.15569553
0.15576804
0.15587964
0.15602905
0.15620948
0.15641796
0.15665115
0.15690616
0.15718049
0.15747188
0.15777836
0.15809817
0.15842977
0.15877183
0.15912313
0.15948261
0.22860313
0.22556133
0.22229303
0.21882492
0.21519108
0.2114321
0.20759366
0.20372445
0.19987372
0.19608877
0.19241274
0.18888282
0.18552921
0.1823747
0.17943483
0.17671849
0.17422871
0.17196361
0.16991745
0.16808159
0.16644529
0.16499649
0.16372239
0.16260999
0.16164643
0.16081917
0.16011598
0.15952575
0.15903826
0.15864247
0.1583308
0.15809228
0.15792388
0.15781444
0.15775811
0.15775073
0.15778615
0.15786062
0.15796987
0.15811071
0.15827912
0.15847221
0.15868741
0.15892229
0.15917482
0.15944313
0.15972556
0.16002067
0.16032715
0.16064382
0.22870596
0.22589748
0.22288683
0.21969616
0.21635341
0.21289188
0.20934918
0.20576588
0.20218365
0.19864337
0.19518326
0.19183733
0.18863429
0.1855969
0.1827419
0.1800803
0.17761788
0.1753559
0.17329188
0.17142035
0.16973366
0.16822254
0.16687674
0.16568547
0.16463776
0.16372269
0.16292956
0.16224826
0.1616692
0.16118297
0.1607814
0.16045596
0.16020055
0.16000659
0.15987164
0.15978602
0.15974636
0.15974883
0.15978837
0.15986111
0.15996505
0.16009629
0.16025229
0.1604304
0.1606286
0.16084489
0.16107755
0.16132502
0.16158592
0.16185897
0.22880101
0.22620674
0.2234317
0.22049434
0.21741773
0.21422924
0.2109599
0.20764344
0.20431496
0.20100953
0.19776064
0.19459894
0.19155114
0.18863933
0.18588073
0.18328766
0.18086791
0.17862521
0.17655977
0.17466889
0.17294759
0.17138918
0.16998576
0.16872864
0.16760871
0.16661667
0.16574327
0.16497953
0.16431677
0.16374662
0.16326135
0.16285345
0.16251637
0.16224336
0.16202942
0.16186747
0.16175611
0.161688
0.16165902
0.16166626
0.16170644
0.16177543
0.1618726
0.16199391
0.16213771
0.16230171
0.16248424
0.16268361
0.16289838
0.16312718
0.22888893
0.22649161
0.22393235
0.22122661
0.21839353
0.21545571
0.21243878
0.20937075
0.20628112
0.20319976
0.20015578
0.19717641
0.1942861
0.19150578
0.18885253
0.18633936
0.18397543
0.1817663
0.17971432
0.17781911
0.17607804
0.17448669
0.17303929
0.17172913
0.17054886
0.16949079
0.16854705
0.16770984
0.1669715
0.16632459
0.16576203
0.16527707
0.16486344
0.1645151
0.16422673
0.16399271
0.16380868
0.16367305
0.16357778
0.16352059
0.163498
0.1635072
0.16354585
0.16360998
0.16369976
0.16381142
0.16394375
0.16409477
0.16426308
0.16444721
0.22897031
0.22675427
0.22439289
0.22189921
0.21928917
0.21658151
0.21379745
0.21096028
0.20809469
0.20522602
0.20237937
0.1995787
0.19684603
0.19420082
0.19165953
0.18923536
0.18693827
0.18477509
0.18274984
0.18086401
0.17911692
0.17750615
0.17602784
0.17467708
0.1734482
0.17233499
0.17133097
0.17042949
0.16962394
0.1689078
0.16827473
0.16771866
0.16723384
0.16681476
0.1664563
0.16615356
0.1659023
0.165699
0.16553807
0.16541929
0.16533597
0.16528628
0.16526725
0.1652764
0.16531229
0.16537128
0.16545377
0.16555638
0.16567817
0.16581741
0.22904569
0.22699666
0.22481695
0.22251763
0.22011204
0.21761576
0.21504643
0.2124234
0.20976734
0.20709967
0.20444188
0.20181485
0.19923819
0.19672968
0.19430485
0.19197664
0.18975536
0.18764867
0.18566177
0.18379759
0.18205708
0.18043949
0.17894264
0.17756324
0.17629714
0.17513956
0.17408529
0.17312885
0.17226465
0.17148707
0.17079058
0.17016978
0.16961948
0.16913471
0.16871074
0.1683431
0.16802772
0.16776083
0.1675384
0.16735773
0.16721427
0.16710807
0.16703331
0.16698804
0.16697081
0.16697922
0.16701192
0.16706583
0.16714141
0.16723572
0.22911552
0.22722049
0.22520776
0.22308675
0.22086869
0.2185666
0.21619516
0.21377051
0.21130992
0.20883146
0.20635343
0.2038939
0.20147014
0.19909819
0.19679239
0.19456514
0.19242671
0.19038521
0.18844662
0.18661493
0.18489235
0.18327953
0.1817757
0.180379
0.17908666
0.17789519
0.17680058
0.17579847
0.17488426
0.17405323
0.17330064
0.17262177
0.17201205
0.17146702
0.17098241
0.17055415
0.17017843
0.16985163
0.16957025
0.16933121
0.16913126
0.16896829
0.16883877
0.16874001
0.16867191
0.16863033
0.16861393
0.16862102
0.16865046
0.16869957
0.22918023
0.2274273
0.22556817
0.22361089
0.22156497
0.21944131
0.2172522
0.2150111
0.21273248
0.21043152
0.20812379
0.2058248
0.20354965
0.20131261
0.19912674
0.19700366
0.19495333
0.19298396
0.19110199
0.18931214
0.18761756
0.18601998
0.18451983
0.18311647
0.18180831
0.18059304
0.17946777
0.17842917
0.17747358
0.17659715
0.17579591
0.17506587
0.17440303
0.17380349
0.17326344
0.17277924
0.17234737
0.17196449
0.17162742
0.17133318
0.17107891
0.17086209
0.17067997
0.1705302
0.17041109
0.17031987
0.17025644
0.17021725
0.17020119
0.17020682
0.22924022
0.22761846
0.22590073
0.22409391
0.22220607
0.22024643
0.21822526
0.21615384
0.2140443
0.2119094
0.20976232
0.20761635
0.20548457
0.20337956
0.20131306
0.19929577
0.19733712
0.19544517
0.19362654
0.19188639
0.19022855
0.18865553
0.18716874
0.18576851
0.18445431
0.18322485
0.18207824
0.18101208
0.18002363
0.17910983
0.17826749
0.17749328
0.17678382
0.17613575
0.17554575
0.17501057
0.17452709
0.17409226
0.17370317
0.17335708
0.17305135
0.1727835
0.17255114
0.17235204
0.17218428
0.17204579
0.17193513
0.17184993
0.17179026
0.17175289
0.22929582
0.22779522
0.22620771
0.22453924
0.22279668
0.22098782
0.21912132
0.21720663
0.21525395
0.213274
0.21127794
0.20927709
0.20728275
0.20530589
0.20335696
0.20144567
0.19958079
0.19777002
0.19601993
0.19433591
0.19272218
0.19118185
0.18971701
0.18832883
0.18701763
0.18578299
0.18462389
0.1835388
0.18252577
0.18158253
0.18070658
0.17989526
0.17914579
0.17845534
0.17782106
0.17724015
0.17670985
0.17622746
0.17579036
0.17539605
0.17504212
0.17472626
0.17444629
0.17420014
0.17398589
0.17380173
0.17364599
0.17351697
0.17341345
0.17333332
0.22934736
0.22795868
0.22649118
0.22494999
0.22334099
0.22167078
0.21994669
0.21817668
0.21636932
0.21453366
0.21267911
0.21081531
0.20895196
0.20709859
0.20526442
0.20345812
0.20168775
0.19996051
0.19828275
0.19665988
0.19509632
0.19359557
0.19216022
0.19079204
0.18949203
0.18826053
0.18709725
0.1860014
0.18497177
0.18400679
0.18310461
0.1822632
0.18148034
0.18075374
0.18008102
0.1794598
0.17888771
0.17836238
0.17788153
0.1774429
0.17704433
0.17668372
0.17635907
0.17606848
0.17581014
0.17558237
0.17538355
0.17521215
0.17506679
0.17494593
0.22939513
0.22810985
0.22675297
0.22532893
0.22384275
0.22230007
0.22070709
0.21907056
0.21739769
0.21569611
0.2139738
0.21223894
0.21049983
0.20876471
0.20704164
0.20533832
0.20366203
0.20201941
0.20041647
0.19885846
0.19734985
0.19589434
0.19449487
0.19315362
0.19187214
0.19065132
0.18949152
0.18839257
0.1873539
0.18637457
0.18545333
0.18458871
0.18377904
0.18302252
0.18231725
0.18166125
0.18105254
0.18048911
0.17996897
0.17949016
0.17905075
0.17864889
0.17828276
0.17795063
0.17765085
0.17738185
0.17714212
0.17693024
0.17674487
0.17658462
0.22943939
0.22824965
0.22699476
0.22567855
0.22430536
0.22287998
0.22140771
0.21989425
0.21834571
0.21676854
0.2151695
0.21355554
0.21193375
0.21031123
0.20869497
0.20709179
0.20550815
0.20395013
0.2024233
0.20093264
0.19948255
0.19807678
0.19671844
0.19541004
0.19415345
0.19295005
0.19180066
0.19070567
0.18966502
0.18867833
0.18774488
0.18686372
0.18603367
0.1852534
0.18452144
0.18383624
0.18319617
0.18259958
0.18204478
0.1815301
0.18105387
0.18061446
0.18021028
0.17983977
0.17950144
0.17919385
0.17891563
0.17866546
0.17844208
0.17824421
0.22948038
0.22837891
0.22721805
0.22600113
0.22473188
0.22341441
0.22205323
0.2206532
0.21921949
0.21775759
0.21627322
0.21477229
0.21326085
0.21174501
0.21023082
0.20872425
0.20723103
0.20575662
0.20430613
0.2028842
0.20149506
0.20014239
0.19882938
0.19755867
0.19633241
0.19515227
0.19401947
0.19293479
0.19189865
0.1909111
0.1899719
0.18908055
0.18823632
0.1874383
0.18668544
0.18597657
0.18531042
0.18468566
0.18410093
0.18355482
0.18304594
0.18257288
0.18213426
0.18172873
0.18135495
0.18101165
0.18069758
0.18041154
0.18015239
0.17991892
0.22951834
0.22849839
0.22742421
0.2262987
0.22512507
0.22390686
0.22264791
0.22135236
0.22002463
0.21866937
0.21729146
0.21589592
0.21448793
0.21307271
0.21165552
0.21024154
0.20883583
0.20744325
0.20606841
0.20471562
0.20338882
0.20209157
0.200827
0.19959783
0.19840635
0.19725443
0.19614355
0.19507483
0.19404902
0.19306656
0.19212759
0.19123202
0.1903795
0.1895695
0.18880136
0.18807424
0.18738722
0.18673928
0.18612937
0.18555635
0.18501907
0.18451637
0.18404709
0.18361005
0.18320412
0.18282816
0.18248109
0.18216182
0.18186933
0.18160251
0.22955346
0.22860876
0.22761448
0.22657312
0.22548744
0.22436049
0.22319557
0.22199623
0.22076622
0.21950951
0.21823025
0.21693275
0.21562143
0.21430077
0.2129753
0.21164952
0.21032788
0.20901467
0.20771405
0.20642991
0.20516592
0.20392542
0.20271145
0.20152669
0.20037349
0.19925384
0.1981694
0.19712149
0.19611115
0.1951391
0.19420582
0.19331152
0.19245621
0.19163969
0.19086161
0.19012147
0.18941866
0.18875245
0.18812207
0.18752664
0.18696527
0.18643702
0.18594093
0.18547604
0.18504138
0.18463599
0.18425892
0.18390924
0.18358603
0.18328829
0.22958592
0.22871066
0.22778998
0.22682604
0.22582123
0.22477818
0.22369972
0.22258888
0.22144889
0.22028314
0.21909516
0.21788866
0.21666741
0.21543527
0.21419615
0.21295396
0.21171256
0.21047577
0.20924726
0.20803056
0.20682902
0.20564575
0.20448362
0.20334524
0.20223292
0.20114871
0.20009435
0.19907133
0.19808085
0.19712388
0.19620113
0.19531308
0.19446001
0.19364201
0.19285903
0.19211084
0.19139711
0.19071739
0.19007114
0.18945775
0.18887656
0.18832685
0.18780787
0.18731884
0.18685897
0.18642746
0.18602354
0.18564639
0.18529523
0.18496919
0.2296159
0.22880464
0.22795172
0.22705898
0.22612849
0.22516252
0.22416349
0.22313402
0.22207687
0.22099495
0.2198913
0.21876908
0.21763154
0.21648201
0.21532385
0.21416046
0.21299522
0.21183146
0.21067246
0.20952138
0.20838123
0.2072549
0.20614504
0.20505415
0.20398446
0.202938
0.20191656
0.2009217
0.19995475
0.19901681
0.19810879
0.19723137
0.19638507
0.1955702
0.19478695
0.19403534
0.19331528
0.19262656
0.19196888
0.19134185
0.19074503
0.1901779
0.1896399
0.18913045
0.18864893
0.18819471
0.18776713
0.18736556
0.18698934
0.22964355
0.22889123
0.22810061
0.22727329
0.22641105
0.22551582
0.22458972
0.22363498
0.22265397
0.22164922
0.22062333
0.21957901
0.21851906
0.21744637
0.21636384
0.21527441
0.21418105
0.21308667
0.21199417
0.21090636
0.20982597
0.20875561
0.20769775
0.20665469
0.2056286
0.20462142
0.20363494
0.20267073
0.2017302
0.20081455
0.19992479
0.19906179
0.19822621
0.19741856
0.19663922
0.19588843
0.19516628
0.1944728
0.19380787
0.19317131
0.19256288
0.19198225
0.19142905
0.19090286
0.19040323
0.18992968
0.18948171
0.18905878
0.18866028
0.22966902
0.22897088
0.22823748
0.22747019
0.22667054
0.22584018
0.22498094
0.22409474
0.22318364
0.2222498
0.22129546
0.22032299
0.21933479
0.21833335
0.2173212
0.21630091
0.21527504
0.21424618
0.21321687
0.21218961
0.21116685
0.21015095
0.20914416
0.20814863
0.20716637
0.20619927
0.20524903
0.20431724
0.2034053
0.20251447
0.20164585
0.20080039
0.19997889
0.19918201
0.19841027
0.19766406
0.19694368
0.1962493
0.19558099
0.19493877
0.19432254
0.19373216
0.19316742
0.19262806
0.19211379
0.19162427
0.19115912
0.19071796
0.19030025
0.22969242
0.22904401
0.22836308
0.22765078
0.22690843
0.22613746
0.22533943
0.224516
0.22366895
0.22280014
0.22191153
0.22100515
0.2200831
0.21914754
0.21820066
0.2172447
0.21628192
0.21531458
0.21434493
0.21337518
0.21240753
0.2114441
0.21048695
0.20953804
0.20859925
0.20767234
0.20675896
0.20586063
0.20497876
0.20411461
0.20326931
0.20244389
0.20163922
0.20085606
0.20009505
0.19935672
0.19864149
0.19794968
0.19728152
0.19663716
0.19601667
0.19542004
0.19484723
0.19429811
0.19377254
0.19327029
0.19279115
0.19233483
0.19190091
0.22971387
0.22911099
0.22847805
0.22781602
0.22712603
0.22640931
0.22566719
0.22490112
0.22411263
0.22330334