/*--------------------------------*- C++ -*----------------------------------*\
| =========                 |                                                 |
| \\      /  F ield         | OpenFOAM: The Open Source CFD Toolbox           |
|  \\    /   O peration     | Version:  2312                                  |
|   \\  /    A nd           | Website:  www.openfoam.com                      |
|    \\/     M anipulation  |                                                 |
\*---------------------------------------------------------------------------*/
FoamFile
{
    version     2.0;
    format      ascii;
    arch        "LSB;label=32;scalar=64";
    class       volScalarField;
    location    "0.09";
    object      omega;
}
// * * * * * * * * * * * * * * * * * * * * * * * * * * * * * * * * * * * * * //

dimensions      [0 0 -1 0 0 0 0];

internalField   nonuniform List<scalar> 
3275
(
460.05705
476.59142
495.24347
516.31733
540.45521
567.85883
598.0479
629.85088
661.84082
692.65814
721.19942
746.9482
769.5147
788.40209
803.37796
814.22326
820.63694
823.58471
823.99588
822.51279
819.59375
815.57281
810.69694
805.15363
799.087
792.60934
785.8092
778.75717
771.51004
764.11388
756.60637
749.01851
741.37594
733.7
726.00849
718.31635
710.6361
702.97828
695.35179
687.76411
680.22154
672.72937
665.29204
657.91326
650.5961
643.34311
636.15631
629.03736
621.98754
615.00785
608.09897
601.26141
461.27766
477.77675
496.01771
516.92235
541.01271
568.39372
598.54303
630.27013
662.16316
692.88006
721.33117
747.00086
769.4993
788.3338
803.26948
814.08566
820.48113
823.41578
823.81895
822.33203
819.41229
815.3929
810.52014
804.98097
798.91913
792.44665
785.65188
778.60528
771.36353
763.97267
756.47031
748.88744
741.24968
733.57836
725.89129
718.2034
710.52721
702.87328
695.2505
687.66637
680.12719
672.63826
665.20404
657.82823
650.51392
643.26364
636.07945
628.963
621.91558
614.93819
608.03153
601.19609
463.65082
479.69549
497.26807
517.98148
542.04956
569.41779
599.49917
631.08141
662.78653
693.30816
721.58335
747.09805
769.46271
788.19312
803.04934
813.80776
820.16675
823.07554
823.46316
821.969
819.04822
815.03221
810.16587
804.63514
798.58301
792.12097
785.33701
778.30131
771.07038
763.69014
756.19812
748.62525
740.99713
733.33507
725.65688
717.97749
710.30943
702.66328
695.04793
687.4709
679.9385
672.45607
665.02805
657.65818
650.34955
643.1047
635.92572
628.81427
621.77164
614.79884
607.89659
601.0654
466.63291
481.43689
498.52158
519.27036
543.44908
570.86434
600.85915
632.23561
663.67232
693.91351
721.93489
747.22451
769.39401
787.97214
802.71145
813.38437
819.68857
822.55955
822.92496
821.42098
818.49947
814.48918
809.63298
804.11528
798.07799
791.63184
784.86425
777.84503
770.63044
763.26619
755.78973
748.23191
740.61828
732.97014
725.30529
717.63866
709.98281
702.34833
694.74413
687.17775
679.65554
672.18284
664.76412
657.40315
650.10304
642.86635
635.69518
628.5912
621.55576
614.58984
607.69421
600.86937
467.83506
481.75543
499.34285
520.56946
545.1038
572.65558
602.54396
633.66546
664.76763
694.65606
722.35621
747.35864
769.27755
787.65939
802.24686
812.80786
819.03897
821.86127
822.19916
820.68394
817.763
813.76154
808.91976
803.42013
797.40316
790.97858
784.23311
777.2361
770.04345
762.70067
755.24505
747.70736
740.11311
732.48357
724.83654
717.18696
709.54741
701.9285
694.33918
686.78701
679.27838
671.81865
664.41234
657.06324
649.77447
642.54865
635.38789
628.29389
621.26801
614.31128
607.42446
600.60809
459.7043
480.01215
499.55946
521.74929
546.82272
574.57868
604.36763
635.20212
665.93815
695.43975
722.78492
747.46715
769.10438
787.26421
801.67854
812.11069
818.2558
821.02337
821.33187
819.80615
816.88811
812.89879
808.07534
802.59802
796.60576
790.20718
783.48823
776.5177
769.35116
762.03387
754.60296
747.08911
739.51778
731.91022
724.28423
716.65478
709.03446
701.43392
693.86215
686.32674
678.83411
671.38968
663.99799
656.66286
649.38747
642.17445
635.02595
627.94371
620.92909
613.98318
607.10674
600.30034
456.47982
478.14543
499.5804
522.88102
548.56146
576.53047
606.2263
636.77117
667.12003
696.21716
723.18929
747.53258
768.8691
786.7901
801.01685
811.30809
817.3572
820.06658
820.34569
818.81138
815.89917
811.9255
807.12415
801.67302
795.70935
789.34059
782.65187
775.71143
768.57445
761.28595
753.88292
746.39592
738.85038
731.26754
723.6652
716.05836
708.45963
700.87971
693.32762
685.811
678.33633
670.90904
663.53374
656.21428
648.95389
641.75522
634.62046
627.55138
620.54939
613.61559
606.75078
599.95555
455.35529
476.64175
499.61158
524.05103
550.38075
578.5806
608.18731
638.42723
668.35382
697.00519
723.56709
747.53483
768.53484
786.18529
800.19818
810.32697
816.26315
818.90782
819.15688
817.61663
814.71481
810.76239
805.98935
800.57087
794.64232
788.30984
781.65768
774.75346
767.65196
760.39793
753.02819
745.57323
738.05843
730.50502
722.93082
715.35086
707.77779
700.22237
692.69366
685.19936
677.74599
670.33905
662.9832
655.68234
648.43973
641.25807
634.13961
627.08615
620.09914
613.1797
606.32868
599.5467
455.23485
475.83626
499.82614
525.27869
552.23681
580.66722
610.182
640.1042
669.58702
697.75983
723.87864
747.44017
768.07295
785.42266
799.19652
809.14153
814.94755
817.52252
817.74279
816.20114
813.31594
809.39189
804.65462
799.27636
793.39043
787.10155
780.49302
773.63183
766.57232
759.35898
752.02848
744.61121
737.13252
729.61365
722.07246
714.52399
706.98098
699.45423
691.95288
684.4847
677.05625
669.67312
662.34
655.06088
647.83905
640.67729
633.57788
626.54267
619.57315
612.6705
605.83559
599.06908
455.61495
475.76582
500.32475
526.57478
554.08574
582.72296
612.13633
641.73156
670.75788
698.43212
724.07845
747.20845
767.45026
784.4712
797.98171
807.72186
813.38093
815.88331
816.07842
814.54213
811.68177
807.79487
803.10232
797.7731
791.93836
785.70135
779.14437
772.33376
765.32343
758.15762
750.87283
743.49941
736.06267
728.58388
721.08094
713.56896
706.06076
698.5672
691.0975
683.65951
676.25987
668.90425
661.59741
654.34339
647.14558
640.0068
632.92939
625.91525
618.96594
612.08266
605.26636
598.51772
456.24086
476.27748
501.11078
527.92354
555.87619
584.67634
613.97338
643.23572
671.79908
698.9642
724.11847
746.79515
766.62744
783.29572
796.51892
806.0333
811.53034
813.96012
814.13656
812.61492
809.78983
805.95075
801.31345
796.04348
790.26972
784.09389
777.5973
770.84563
763.89241
756.78161
749.54962
742.22673
734.83828
727.40558
719.94658
712.47649
705.0082
697.55269
690.11926
682.71585
675.34921
668.02507
660.74831
653.52303
646.35269
639.24019
632.18794
625.19792
618.27171
611.4106
604.61556
597.88736
456.97198
477.16892
502.11778
529.28175
557.54914
586.45438
615.61464
644.54054
672.64049
699.29365
723.9451
746.15175
765.55886
781.85605
794.76892
804.0353
809.35926
811.72032
811.88791
810.39303
807.61604
803.8375
799.26774
794.06875
788.36704
782.26284
775.83648
769.15301
762.26559
755.21799
748.04652
740.78145
733.44817
726.06804
718.65912
711.23673
703.81388
696.40163
689.00944
681.64533
674.31617
667.02781
659.78519
652.59253
645.45338
638.37072
631.34702
624.38434
617.48435
610.64838
603.87748
597.17245
457.72257
478.25074
503.24109
530.58462
559.03928
587.98362
616.98242
645.56895
673.21043
699.3542
723.49816
745.22574
764.19478
780.10565
792.6879
801.67957
806.82783
809.12911
809.30138
807.84841
805.13492
801.43178
796.94371
791.829
786.21182
780.1909
773.84565
767.24057
760.42849
753.45306
746.35051
739.15117
731.88049
724.55996
717.20776
709.83933
702.46784
695.10449
687.75886
680.43912
673.15226
665.90424
658.70014
651.54427
644.44028
637.39125
630.39974
623.46788
616.59743
609.7898
603.04608
596.36716
458.43544
479.36306
504.36024
531.7523
560.27639
589.19092
618.00044
646.24448
673.43513
699.07674
722.71403
743.95832
762.48129
777.99314
790.22575
798.90669
803.89332
806.15007
806.34452
804.95173
802.31975
798.70909
794.31877
789.3033
783.78454
777.85981
771.60769
765.09218
758.36589
751.47236
744.44787
737.32282
730.12279
722.86943
715.58108
708.27337
700.95961
693.65119
686.35785
679.08791
671.84851
664.64575
657.48484
650.37021
643.30563
636.29428
629.33884
622.44153
615.60417
608.82828
602.11502
595.46535
459.06542
480.37321
505.35146
532.69521
561.18628
590.00349
618.59381
646.49138
673.23979
698.38946
721.52562
742.2863
760.35869
775.46159
787.3279
795.67031
800.51323
802.74583
802.98402
801.67281
799.14287
795.64399
791.3694
786.46979
781.06481
775.25048
769.10464
762.69091
756.06176
749.26072
742.32417
735.28266
728.16197
720.98394
713.76713
706.52737
699.27819
692.03117
684.79624
677.58192
670.3955
663.24325
656.13052
649.0619
642.04128
635.07195
628.15672
621.29791
614.49746
607.75693
601.07762
594.46055
459.56934
481.16143
506.09048
533.31767
561.69105
590.34811
618.68848
646.23416
672.54873
697.21809
719.86165
740.14197
757.76133
772.44754
783.93462
791.92632
796.64582
798.87895
799.18621
797.981
795.57608
792.21042
788.07135
783.30585
778.03146
772.34303
766.31779
760.01909
753.49937
746.80226
739.96432
733.01633
725.98431
718.89037
711.75334
704.5893
697.41202
690.23333
683.06338
675.91089
668.78335
661.68722
654.62801
647.61048
640.63866
633.71599
626.84539
620.02931
613.2698
606.56853
599.92689
593.34598
459.8976
481.60656
506.45647
533.52004
561.70879
590.14973
618.20981
645.39663
671.28464
695.48553
717.64646
737.45173
754.61751
768.87986
779.97678
787.62615
792.24938
794.51283
794.91773
793.84571
791.59102
788.38197
784.39994
779.78832
774.66272
769.11694
763.22775
757.05838
750.66133
744.08045
737.35258
730.5088
723.57547
716.57502
709.52659
702.44657
695.34904
688.24608
681.1481
674.06407
667.00171
659.96768
652.96769
646.00666
639.08881
632.21773
625.39647
618.62764
611.91338
605.2555
598.65548
592.11453
459.99352
481.57273
506.3278
533.19977
561.15296
589.32967
617.08068
643.90033
669.36735
693.11076
714.79921
734.13538
750.84757
764.67882
775.36939
782.71813
787.2835
789.61203
790.14655
789.23693
787.15964
784.13233
780.33031
775.89375
770.93639
765.5512
759.8146
753.78986
747.52966
741.07818
734.47263
727.74451
720.92056
714.02362
707.0732
700.08607
693.07663
686.05729
679.03875
672.03026
665.03978
658.07421
651.13949
644.24074
637.38235
630.56811
623.80121
617.08441
610.41999
603.8099
597.25571
590.75877
459.93983
481.206
505.5793
532.25337
559.93127
587.80345
615.21907
641.66238
666.71203
690.00718
711.23226
730.10487
746.36274
759.75442
770.0047
777.15185
781.71068
784.14372
784.84228
784.12626
782.25465
779.43562
775.83783
771.59864
766.83012
761.62452
756.05807
750.1942
744.08591
737.77783
731.30764
724.70733
718.00415
711.22138
704.379
697.49418
690.58172
683.65438
676.72321
669.79776
662.88629
655.99596
649.13294
642.30259
635.50952
628.75768
622.05047
615.39079
608.78109
602.22345
595.71957
589.27091
459.77618
480.57084
504.29688
530.57575
557.94573
585.47825
612.53532
638.59276
663.22686
686.08055
706.84918
725.26229
741.06323
754.00908
763.86353
770.89132
775.49883
778.07873
778.97724
778.48703
776.85052
774.26682
770.89843
766.87986
762.32166
757.31554
751.93769
746.25178
740.31129
734.16138
727.84034
721.38072
714.81034
708.15305
701.42932
694.6568
687.85073
681.02429
674.1889
667.35446
660.52955
653.72162
646.93714
640.18169
633.46012
626.7766
620.13472
613.53757
606.98776
600.48752
594.03871
459.52417
479.70948
502.61015
528.116
555.09198
582.24938
608.92889
634.59113
658.81013
681.22616
701.54178
719.49722
734.83398
747.31251
756.91784
763.91033
768.6229
771.39248
772.52727
772.2952
770.92351
768.60253
765.48906
761.7149
757.38916
752.60311
747.43301
741.9429
736.18682
730.21058
724.05315
717.74776
711.32289
704.80298
698.20909
691.55941
684.86967
678.15353
671.4228
664.68779
657.95744
651.23951
644.54078
637.86711
631.2236
624.61466
618.0441
611.51519
605.03074
598.59315
592.20445
459.19793
478.65396
500.60399
525.09942
551.28344
577.99985
604.28486
629.54277
653.34686
675.32546
695.18619
712.68393
727.54371
739.67966
749.15862
756.19386
761.06544
764.06625
765.47236
765.53003
764.45237
762.42115
759.5883
756.0823
752.01151
747.46658
742.52391
737.24799
731.69352
725.90707
719.92834
713.79133
707.52523
701.15519
694.70289
688.18714
681.6242
675.02823
668.41154
661.78484
655.15746
648.53755
641.93219
635.34756
628.78903
622.26128
615.76834
609.31373
602.90043
596.53104
590.20777
458.80865
477.43176
498.3397
521.67401
546.80196
572.72228
598.46906
623.31334
646.70506
668.24192
687.63664
704.67791
719.1932
731.13892
740.59263
747.73837
752.81741
756.08754
757.79763
758.17463
757.41885
755.70365
753.17646
749.96229
746.16875
741.8861
737.19082
732.14786
726.81266
721.23257
715.44814
709.49419
703.40068
697.19351
690.89509
684.52484
678.09966
671.63424
665.14141
658.63234
652.1168
645.60331
639.09934
632.61139
626.14515
619.70555
613.29691
606.92295
600.58691
594.29157
588.03932
458.36633
476.06836
495.86605
517.94401
541.84332
566.71905
591.65563
615.87519
638.75768
659.85346
678.85926
695.57424
709.87295
721.73531
731.24077
738.55149
743.87849
747.45073
749.49361
750.21676
749.80839
748.43383
746.236
743.33697
739.84255
735.84306
731.41505
726.62398
721.52594
716.16913
710.595
704.83919
698.93253
692.90172
686.7699
680.55721
674.2812
667.95715
661.59844
655.21676
648.82232
642.4241
636.02994
629.6467
623.28039
616.93627
610.61892
604.33234
598.07998
591.86484
457.88043
474.58822
493.22497
513.98807
536.54979
560.21103
584.13763
607.5521
629.81569
650.43105
669.06907
685.52223
699.67925
711.52624
721.13623
728.65142
734.25715
738.15747
740.55689
741.64904
741.61064
740.59909
738.75246
736.19047
733.01644
729.32047
725.17926
720.65875
715.81583
710.69938
705.35175
699.80947
694.10426
688.26363
682.31155
676.26889
670.15386
663.98242
657.76852
651.52438
645.26073
638.98699
632.71143
626.44129
620.18294
613.94198
607.72327
601.53109
595.36917
589.24075
457.36004
473.01507
490.4543
509.86934
531.02918
553.36415
576.13625
598.60492
620.12932
640.20205
658.45474
674.66355
688.71184
700.57843
710.32274
718.06624
723.97053
728.21689
730.99045
732.46962
732.81987
732.19071
730.71504
728.50968
725.67613
722.30313
718.46769
714.23607
709.66584
704.80676
699.70189
694.38867
688.8997
683.26338
677.50447
671.64461
665.70275
659.69551
653.63746
647.5414
641.41858
635.27891
629.1311
622.98282
616.84081
610.71101
604.59863
598.50823
592.4438
586.40888
456.81386
471.37179
487.58907
505.64094
525.36631
546.30632
567.82248
589.2326
609.9141
629.36068
647.18449
663.1326
677.07232
688.9658
698.8531
706.83318
713.04423
717.64567
720.80395
722.68252
723.43554
723.20443
722.11654
720.28517
717.81003
714.77818
711.26648
707.34142
703.061
698.47588
693.62985
688.56118
683.30332
677.88554
672.33343
666.6694
660.91316
655.082
649.19116
643.25403
637.28242
631.28675
625.27619
619.25885
613.24189
607.2316
601.23354
595.25259
589.29304
583.35869
456.25008
469.68018
484.66197
501.34911
519.63005
539.13841
559.33133
579.59608
599.34497
618.07784
635.40997
651.0571
664.86318
676.76793
686.78794
694.99788
701.51206
706.46816
710.01401
712.298
713.46269
713.64091
712.95403
711.51126
709.40991
706.73562
703.56412
699.96219
695.98806
691.69296
687.12137
682.31242
677.30045
672.11544
666.7838
661.32876
655.77074
650.12778
644.41576
638.64868
632.83893
626.99746
621.13395
615.25695
609.37404
603.49191
597.61648
591.75296
585.90597
580.07957
455.67631
467.96066
481.70337
497.03474
513.87774
531.9416
550.77107
569.82674
588.56685
606.50953
623.26784
638.55854
652.18709
664.06883
674.19473
682.61374
689.41574
694.71631
698.64439
701.3329
702.91228
703.50622
703.22941
702.18643
700.47148
698.16858
695.35208
692.08831
688.43576
684.4459
680.16383
675.62932
670.87759
665.93936
660.84181
655.60888
650.26178
644.81923
639.29778
633.71206
628.07505
622.39823
616.69181
610.9648
605.22523
599.48019
593.73597
587.99815
582.27165
576.56086
455.09945
466.23206
478.74121
492.73437
508.15803
524.78233
542.22965
560.03281
577.70232
594.78402
610.89723
625.75291
639.14631
650.95601
661.14678
669.74131
676.80455
682.42961
686.72608
689.81087
691.80161
692.81216
692.94983
692.31385
690.99473
689.07411
686.62507
683.71273
680.39545
676.72483
672.74641
668.50047
664.02284
659.34496
654.49477
649.49695
644.37337
639.14345
633.82438
628.43143
622.97817
617.47663
611.93753
606.37039
600.78366
595.18487
589.5807
583.97708
578.37929
572.79201
454.52566
464.51139
475.80087
488.48051
502.51255
517.71563
533.77921
550.30412
566.85561
583.01392
598.41227
612.75852
625.8421
637.51957
647.72248
656.44762
663.735
669.65502
674.29747
677.76263
680.15466
681.57677
682.12815
681.90194
680.98426
679.45375
677.3816
674.83175
671.86158
668.52269
664.86075
660.91647
656.72605
652.32157
647.73157
642.98144
638.09373
633.08853
627.98358
622.79481
617.53635
612.2208
606.85938
601.46211
596.0379
590.59471
585.13962
579.67893
574.21827
568.76265
453.96035
462.81377
472.90503
484.30195
496.97711
510.78743
525.47929
540.71544
556.11546
571.29814
585.91694
599.68337
612.37794
623.85122
634.00433
642.80548
650.27036
656.44671
661.40424
665.22612
668.00231
669.82466
670.78338
670.9648
670.44991
669.31368
667.62474
665.4455
662.83215
659.83553
656.50138
652.87047
648.9793
644.8604
640.54283
636.05251
631.41259
626.64382
621.76454
616.79122
611.73855
606.61968
601.44634
596.22903
590.97712
585.69901
580.40217
575.09331
569.77838
564.46274
453.40811
461.15232
470.07358
480.22384
491.58236
504.03613
517.37909
531.32904
545.55735
559.72326
573.50528
586.62455
598.85824
610.04411
620.07795
628.89269
636.48012
642.86579
648.09938
652.24659
655.38266
657.58734
658.94112
659.5227
659.40724
658.66534
657.36245
655.55874
653.30912
650.66316
647.66611
644.35869
640.77745
636.95517
632.92128
628.70217
624.32145
619.80038
615.15788
610.411
605.57492
600.6633
595.68835
590.66107
585.59126
580.48776
575.35844
570.21039
565.04992
559.88274
452.8728
459.5382
467.3236
476.26778
486.35432
497.49371
509.5192
522.19658
535.24515
548.36461
561.2617
573.67214
585.37523
596.20093
606.03057
614.79109
622.43931
628.97987
634.44289
638.87659
642.34112
644.9035
646.63385
647.6025
647.87804
647.52598
646.60797
645.18136
643.29908
641.00948
638.35665
635.38086
632.11854
628.60251
624.86238
620.92483
616.81388
612.55117
608.1561
603.64619
599.03711
594.34303
589.57662
584.74929
579.87131
574.95191
569.99938
565.02116
560.02396
555.01379
452.35753
457.98065
464.66941
472.45196
481.3147
491.18648
501.93279
513.36056
525.23246
537.28714
549.26123
560.90885
572.01625
582.41045
591.96239
600.58568
608.22764
614.86242
620.50145
625.17581
628.93041
631.81921
633.90132
635.23807
635.89077
635.91918
635.38048
634.32863
632.81399
630.88318
628.57903
625.94076
623.00436
619.80248
616.3647
612.71783
608.88613
604.89151
600.75376
596.49077
592.11866
587.65199
583.10388
578.48618
573.80956
569.08363
564.31706
559.51767
554.69249
549.84791
451.86473
456.48708
462.12266
468.79126
476.48119
485.1357
494.64654
504.85549
515.56361
526.54612
537.56975
548.40963
558.86292
568.75827
577.96059
586.37179
593.92845
600.59194
606.34784
611.21072
615.2105
618.3879
620.79065
622.47052
623.48093
623.87527
623.70559
623.02187
621.87139
620.29844
618.34423
616.04674
613.44095
610.55908
607.43047
604.08185
600.53754
596.81961
592.94809
588.94116
584.81528
580.58535
576.26487
571.86607
567.39998
562.87661
558.30498
553.69324
549.04877
544.37827
451.39624
455.06322
459.69246
465.29739
471.86772
479.35803
487.68136
496.70871
506.27462
516.18773
526.24412
536.24127
545.99034
555.32556
564.10994
572.23768
579.63366
586.25093
592.06005
597.05399
601.24819
604.67025
607.35639
609.34843
610.6914
611.43172
611.6158
611.28901
610.49502
609.27531
607.6689
605.71227
603.43915
600.8808
598.06609
595.02147
591.77109
588.33704
584.73944
580.99665
577.12534
573.14071
569.05653
564.88536
560.63856
556.32644
551.95838
547.54286
543.08755
538.59946
450.95329
453.71321
457.38556
461.97909
467.4847
473.8659
481.05297
488.94118
497.39389
506.24968
515.33237
524.46219
533.46635
542.1878
550.49146
558.2676
565.43276
571.92876
577.72027
582.78364
587.11651
590.73383
593.66036
595.92782
597.57252
598.63345
599.15083
599.16496
598.71534
597.84014
596.5758
594.95671
593.01517
590.7812
588.28273
585.54569
582.5939
579.44925
576.1318
572.65992
569.05042
565.31864
561.47858
557.54303
553.52362
549.43094
545.27464
541.06349
536.80545
532.50783
450.53666
452.43977
455.20653
458.84238
463.33927
468.66788
474.77238
481.56811
488.94289
496.76173
504.87403
513.12227
521.35083
529.41382
537.18115
544.54263
551.40981
557.71619
563.41598
568.48196
572.89391
576.65241
579.77123
582.27199
584.18212
585.53288
586.35792
586.69196
586.56993
586.02621
585.09415
583.80572
582.19128
580.27941
578.09684
575.66856
573.01783
570.16614
567.13331
563.93758
560.59573
557.12315
553.53396
549.84108
546.05634
542.19055
538.25358
534.25443
530.20133
526.10182
450.14667
451.24438
453.158
455.89074
459.43557
463.76898
468.84634
474.59946
480.93678
487.74625
494.90038
502.2628
509.69536
517.06485
524.24871
531.13921
537.64601
543.69721
549.23909
554.2349
558.66304
562.50508
565.76379
568.45098
570.5852
572.18989
573.29181
573.91981
574.10381
573.874
573.26024
572.29166
570.99628
569.40086
567.53073
565.40966
563.05998
560.50257
557.75682
554.84066
551.77069
548.56221
545.22933
541.78502
538.24121
534.60885
530.89796
527.11775
523.27662
519.38233
449.78329
450.12743
451.24084
453.12536
455.77502
459.171
463.27774
468.04052
473.385
479.2188
485.43494
491.91663
498.54285
505.1939
511.75646
518.12769
524.21809
529.9531
535.27359
540.1355
544.5086
548.37482
551.71798
554.54084
556.85343
558.67141
560.01462
560.90578
561.36951
561.43146
561.11766
560.454
559.46583
558.17771
556.61319
554.79467
552.74328
550.47897
548.02046
545.38521
542.58945
539.64826
536.57561
533.38438
530.08652
526.69301
523.21397
519.65871
516.0358
512.35312
449.44617
449.08836
449.45441
450.54546
452.35658
454.87284
458.06601
461.89235
466.29179
471.18865
476.49388
482.10845
487.92758
493.84525
499.75849
505.57116
511.19682
516.5607
521.60073
526.26773
530.52497
534.34737
537.71759
540.62251
543.06419
545.05082
546.59535
547.71435
548.42696
548.75403
548.71746
548.33959
547.64278
546.64906
545.37988
543.85592
542.09697
540.12178
537.94813
535.59277
533.07143
530.39877
527.58847
524.65323
521.60486
518.45431
515.21167
511.88631
508.48686
505.02131
449.13469
448.12581
447.79679
448.14847
449.17706
450.87083
453.20748
456.15222
459.65675
463.65942
468.08664
472.85518
477.8753
483.05431
488.30009
493.5244
498.64561
503.59083
508.29716
512.71244
516.79525
520.5145
523.84859
526.7804
529.29942
531.40686
533.1091
534.41664
535.34309
535.90439
536.11807
536.0027
535.57735
534.86126
533.87349
532.63272
531.15707
529.46394
527.56997
525.49093
523.2418
520.83671
518.28887
515.61066
512.81365
509.90859
506.90551
503.8137
500.64179
497.3978
448.84804
447.23775
446.26489
445.93037
446.23142
447.15904
448.6958
450.81412
453.47537
456.62963
460.21646
464.16647
468.40357
472.84764
477.41741
482.03322
486.6195
491.10681
495.43334
499.54582
503.39995
506.96037
510.20024
513.10063
515.64399
517.82232
519.63593
521.08945
522.19111
522.9519
523.38491
523.50476
523.32705
522.86797
522.14396
521.17146
519.96664
518.54532
516.92276
515.11364
513.13195
510.99103
508.70352
506.2813
503.73556
501.07679
498.31477
495.45865
492.51698
489.49773
448.58526
446.42161
444.85473
443.8858
443.51301
443.72964
444.52224
445.86914
447.73957
450.09331
452.88105
456.04535
459.52225
463.24323
467.13746
471.13407
475.16431
479.16341
483.07208
486.8376
490.41446
493.76465
496.85756
499.66966
502.18387
504.38233
506.25931
507.81397
509.04937
509.97172
510.58969
510.91387
510.95627
510.7299
510.24836
509.52564
508.57578
507.41274
506.05023
504.5016
502.77976
500.89702
498.86525
496.6957
494.39904
491.98533
489.46404
486.84408
484.13376
481.34095
448.34523
445.67441
443.5616
442.00836
441.01383
440.57317
440.67615
441.30592
442.43815
444.0406
446.07325
448.4889
451.23416
454.25099
457.47834
460.85398
464.31631
467.80598
471.26734
474.64955
477.90735
481.00152
483.89912
486.57334
489.00325
491.17226
493.06437
494.67415
495.99999
497.04358
497.80934
498.30389
498.53563
498.51427
498.2505
497.75566
497.0415
496.11996
495.003
493.70243
492.22985
490.59653
488.81331
486.89066
484.83855
482.66654
480.38362
477.99833
475.51873
472.9524
448.12676
444.99286
442.38023
440.29088
438.72481
437.6788
437.14521
437.11108
437.55734
438.45832
439.78171
441.48892
443.53574
445.87339
448.44974
451.21078
454.10205
457.07004
460.06348
463.03437
465.93888
468.7379
471.39739
473.88852
476.18765
478.27621
480.13594
481.75482
483.12705
484.25018
485.12464
485.75327
486.1409
486.29399
486.22021
485.92823
485.42736
484.72739
483.83835
482.77039
481.53364
480.13808
478.59348
476.90936
475.09487
473.15885
471.10975
468.95562
466.70411
464.3625
447.92862
444.37343
441.30493
438.72555
436.63608
435.03464
433.91575
433.26958
433.08128
433.33055
433.99151
435.03275
436.41788
438.10619
440.05358
442.21361
444.5387
446.98126
449.49478
452.03485
454.55992
457.03202
459.4171
461.6854
463.81148
465.77417
467.5562
469.1395
470.51458
471.67531
472.6185
473.34345
473.85166
474.14638
474.23236
474.11553
473.80274
473.3015
472.61987
471.76616
470.74892
469.57672
468.2581
466.80147
465.21511
463.50697
461.68483
459.75613
457.72804
455.60738
447.74952
443.81248
440.32973
437.30415
434.7372
432.6281
430.97316
429.76507
428.9924
428.6392
428.68484
429.10394
429.8667
430.93937
432.28486
433.86363
435.63451
437.55567
439.58551
441.68358
443.81126
445.93244
448.01402
450.02621
451.94278
453.74113
455.40234
456.90827
458.24447
459.40181
460.37397
461.1571
461.7496
462.15174
462.36545
462.39399
462.24174
461.91397
461.41663
460.7562
459.93949
458.97358
457.86565
456.62294
455.25264
453.76182
452.15741
450.44616
448.63461
447.5882
443.30628
439.44854
436.01821
433.01733
430.44607
428.30214
426.5803
425.27188
424.36446
423.84163
423.68305
423.86442
424.35792
425.13257
426.15491
427.38963
428.80033
430.35025
432.00303
433.72334
435.47751
437.234
438.9638
440.64068
442.24137
443.74558
445.13586
446.39435
447.50948
448.47225
449.27611
449.91669
450.39157
450.70003
450.84283
450.82196
450.64047
450.30224
449.81183
449.17434
448.39525
447.48032
446.43549
445.2668
443.98031
442.58205
441.07798
439.47392
447.44337
442.85113
438.65521
434.85917
431.46551
428.47518
425.88703
423.69748
421.90009
420.48527
419.44012
418.7483
418.39016
418.34285
418.58066
419.07542
419.79706
420.71418
421.79459
423.00599
424.3165
425.69519
427.11257
428.54098
429.95484
431.33094
432.64854
433.88955
435.03561
436.07302
436.99062
437.77959
438.4332
438.94667
439.31692
439.5424
439.62288
439.55928
439.35348
439.00816
438.52668
437.91291
437.17115
436.30599
435.32225
434.22491
433.019
431.7096
430.30176
447.3138
442.44335
437.94364
433.81848
430.07076
426.70202
423.71205
421.09859
418.85698
416.97993
415.45735
414.27624
413.42069
412.87204
412.60902
412.60808
412.84373
413.28904
413.91607
414.69639
415.60152
416.60344
417.67499
418.79022
419.92472
421.05585
422.16293
423.22731
424.23172
425.16036
426.00064
426.74198
427.37579
427.89529
428.29536
428.57242
428.72421
428.74971
428.64889
428.42266
428.07267
427.60122
427.01112
426.30562
425.48828
424.56293
423.53357
422.40433
421.17941
447.19832
442.07941
437.30792
432.88781
428.82229
425.11336
421.76156
418.76566
416.12244
413.82644
411.86985
410.24236
408.93119
407.9211
407.19454
406.73188
406.51164
406.51084
406.70536
407.07034
407.5806
408.21099
408.93677
409.73398
410.57969
411.45226
412.33153
413.19896
414.03767
414.83145
415.56667
416.23148
416.81584
417.31136
417.71127
418.01021
418.2042
418.29044
418.26722
418.13375
417.89011
417.53707
417.07601
416.50884
415.83787
415.06576
414.19546
413.2301
412.173
447.09577
441.75591
436.74232
432.05909
427.70963
423.69632
420.02027
416.68106
413.67661
411.00294
408.65404
406.62181
404.89599
403.46419
402.31196
401.42295
400.77909
400.36085
400.14751
400.11745
400.24852
400.51834
400.9046
401.38541
401.9395
402.54651
403.18718
403.84348
404.49876
405.13731
405.7449
406.30886
406.81812
407.26311
407.63572
407.92919
408.13807
408.25804
408.28589
408.21935
408.05702
407.79828
407.44315
406.99223
406.44665
405.80791
405.0779
404.25877
403.35289
447.00511
441.46966
436.24144
431.32465
426.72281
422.43858
418.47349
414.82777
411.50023
408.48805
405.7867
403.38983
401.28925
399.47488
397.93485
396.65555
395.62179
394.81697
394.22334
393.82218
393.59407
393.5192
393.5776
393.74942
394.01514
394.35584
394.75335
395.19043
395.65093
396.11989
396.58287
397.0268
397.43998
397.81203
398.13386
398.39765
398.59673
398.72559
398.77971
398.75553
398.65038
398.46235
398.19022
397.83342
397.39189
396.86608
396.25682
395.56529
394.79296
446.92536
441.21766
435.80025
430.6773
425.85244
421.32849
417.10731
413.18962
409.57491
406.26131
403.24544
400.52238
398.08559
395.92691
394.03654
392.40317
391.01402
389.85498
388.91082
388.16533
387.60155
387.202
386.94884
386.8242
386.81028
386.88964
387.0453
387.26095
387.52157
387.81257
388.11972
388.42989
388.73109
389.01247
389.2643
389.47799
389.64598
389.76178
389.81983
389.81552
389.74505
389.60541
389.39429
389.11003
388.75153
388.31822
387.80996
387.227
386.56991
446.85562
440.99721
435.4141
430.11044
425.08985
420.35528
415.90879
411.7515
407.88344
404.30344
401.00908
397.99656
395.2607
392.79485
390.59095
388.63954
386.92984
385.44985
384.18644
383.12558
382.25242
381.55153
381.00705
380.60288
380.32289
380.15107
380.07168
380.06942
380.13077
380.24121
380.38698
380.55517
380.73379
380.91178
381.07908
381.22657
381.3461
381.43044
381.47324
381.46902
381.41309
381.30149
381.131
380.89899
380.60344
380.24285
379.81621
379.32291
378.76268
446.7951
440.80587
435.07884
429.61809
424.4272
419.50915
414.86618
410.49966
406.41004
402.59675
399.05809
395.79119
392.79192
390.05488
387.57341
385.33956
383.34418
381.577
380.02669
378.68101
377.52693
376.55078
375.73844
375.07543
374.54714
374.1389
373.83621
373.62522
373.49297
373.4256
373.40989
373.43331
373.48405
373.55109
373.62424
373.69411
373.75217
373.79067
373.80271
373.78214
373.72355
373.62227
373.47425
373.2761
373.02499
372.71863
372.35521
371.93334
371.45202
446.74313
440.64154
434.79086
429.19503
423.85758
418.78147
413.96902
409.42183