/*--------------------------------*- C++ -*----------------------------------*\
| =========                 |                                                 |
| \\      /  F ield         | OpenFOAM: The Open Source CFD Toolbox           |
|  \\    /   O peration     | Version:  2312                                  |
|   \\  /    A nd           | Website:  www.openfoam.com                      |
|    \\/     M anipulation  |                                                 |
\*---------------------------------------------------------------------------*/
FoamFile
{
    version     2.0;
    format      ascii;
    arch        "LSB;label=32;scalar=64";
    class       surfaceScalarField;
    location    "0.09";
    object      phi;
}
// * * * * * * * * * * * * * * * * * * * * * * * * * * * * * * * * * * * * * //

dimensions      [1 0 -1 0 0 0 0];

oriented        oriented;

internalField   nonuniform List<scalar> 
6433
(
8.3110758e-07
3.3333691e-08
7.567259e-07
7.438138e-08
6.7571905e-07
8.1006527e-08
6.0223831e-07
7.34804e-08
5.41247e-07
6.0990973e-08
4.9198248e-07
4.9264193e-08
4.5214228e-07
3.9839938e-08
4.1972197e-07
3.2420116e-08
3.9306568e-07
2.6656215e-08
3.7090996e-07
2.2155755e-08
3.5216706e-07
1.8743081e-08
3.3624143e-07
1.5925922e-08
3.2264128e-07
1.3600689e-08
3.1083645e-07
1.1805539e-08
3.0048327e-07
1.0354059e-08
2.9130833e-07
9.1759749e-09
2.8310302e-07
8.2064933e-09
2.7570871e-07
7.3956352e-09
2.6900215e-07
6.7080277e-09
2.6288489e-07
6.1188451e-09
2.5727631e-07
5.610298e-09
2.5210957e-07
5.1685475e-09
2.4732914e-07
4.7823401e-09
2.4288819e-07
4.4429468e-09
2.3874693e-07
4.1433274e-09
2.3487133e-07
3.87773e-09
2.3123209e-07
3.6414149e-09
2.2780386e-07
3.4304458e-09
2.2456455e-07
3.2415315e-09
2.2149487e-07
3.0719021e-09
2.1857785e-07
2.9192125e-09
2.1579854e-07
2.7814664e-09
2.1314368e-07
2.6569545e-09
2.1060147e-07
2.5442065e-09
2.0816141e-07
2.4419511e-09
2.0581407e-07
2.349084e-09
2.0355101e-07
2.2646421e-09
2.0136461e-07
2.1877818e-09
1.9924801e-07
2.1177615e-09
1.9719499e-07
2.0539271e-09
1.9519992e-07
1.9957005e-09
1.9325768e-07
1.942569e-09
1.9136362e-07
1.8940779e-09
1.8951349e-07
1.8498249e-09
1.8770341e-07
1.80945e-09
1.8592984e-07
1.772621e-09
1.8418956e-07
1.7390398e-09
1.8247957e-07
1.7084366e-09
1.8079717e-07
1.6805653e-09
1.7913984e-07
1.6552004e-09
1.7750529e-07
1.6321342e-09
1.6111829e-09
8.2167671e-07
7.6092792e-08
7.3990156e-07
1.5615635e-07
6.5901801e-07
1.6188992e-07
5.891116e-07
1.4338669e-07
5.3173399e-07
1.1836851e-07
4.8517837e-07
9.5819779e-08
4.4724097e-07
7.7777383e-08
4.1612867e-07
6.3532563e-08
3.9037955e-07
5.2405595e-08
3.6885894e-07
4.367675e-08
3.5057217e-07
3.7030368e-08
3.3497708e-07
3.1521616e-08
3.2162009e-07
2.6958525e-08
3.0999725e-07
2.3429368e-08
2.9978365e-07
2.0568759e-08
2.9071779e-07
1.8243053e-08
2.8259916e-07
1.6326439e-08
2.7527474e-07
1.472146e-08
2.6862521e-07
1.3359029e-08
2.6255499e-07
1.2190579e-08
2.5698557e-07
1.118127e-08
2.5185174e-07
1.0303947e-08
2.4709916e-07
9.5364849e-09
2.4268197e-07
8.8617015e-09
2.385611e-07
8.2657239e-09
2.3470311e-07
7.7372057e-09
2.3107917e-07
7.2667884e-09
2.276643e-07
6.8466939e-09
2.2443673e-07
6.4704141e-09
2.213774e-07
6.1324682e-09
2.1846956e-07
5.8282142e-09
2.156984e-07
5.5536979e-09
2.1305082e-07
5.3055331e-09
2.1051514e-07
5.0808056e-09
2.0808095e-07
4.8769951e-09
2.0573891e-07
4.691912e-09
2.0348064e-07
4.5236457e-09
2.0129859e-07
4.3705224e-09
1.9918594e-07
4.2310701e-09
1.9713653e-07
4.1039898e-09
1.9514476e-07
3.9881314e-09
1.9320554e-07
3.8824739e-09
1.9131426e-07
3.7861086e-09
1.8946668e-07
3.6982263e-09
1.8765896e-07
3.6181026e-09
1.8588758e-07
3.5450789e-09
1.8414931e-07
3.4785588e-09
1.8244119e-07
3.4180056e-09
1.8076053e-07
3.3629307e-09
1.7910481e-07
3.3128886e-09
1.7747176e-07
3.2674718e-09
3.2263131e-09
7.9812809e-07
1.4245805e-07
7.0258402e-07
2.5170024e-07
6.2518516e-07
2.3928864e-07
5.6354745e-07
2.050243e-07
5.1339511e-07
1.6852079e-07
4.7199398e-07
1.372209e-07
4.37698e-07
1.1207344e-07
4.091167e-07
9.2114047e-08
3.8512028e-07
7.6402314e-08
3.6482985e-07
6.3967603e-08
3.474307e-07
5.4430067e-08
3.3248032e-07
4.6472635e-08
3.1959896e-07
3.9840778e-08
3.0833401e-07
3.4695341e-08
2.9839549e-07
3.0508423e-08
2.8954495e-07
2.7094857e-08
2.8159767e-07
2.4275078e-08
2.7441157e-07
2.1909008e-08
2.6787504e-07
1.989707e-08
2.6189812e-07
1.8169066e-08
2.5640645e-07
1.667454e-08
2.5133797e-07
1.5374043e-08
2.4664075e-07
1.423532e-08
2.4227079e-07
1.3233275e-08
2.3819048e-07
1.2347608e-08
2.3436755e-07
1.156168e-08
2.3077408e-07
1.086175e-08
2.2738584e-07
1.0236377e-08
2.2418164e-07
9.6759776e-09
2.2114293e-07
9.1724699e-09
2.1825337e-07
8.7190024e-09
2.1549847e-07
8.3097331e-09
2.1286541e-07
7.939655e-09
2.1034275e-07
7.6044553e-09
2.0792026e-07
7.3004014e-09
2.0558878e-07
7.0242485e-09
2.0334006e-07
6.7731636e-09
2.0116668e-07
6.5446631e-09
1.9906192e-07
6.3365618e-09
1.9701971e-07
6.1469297e-09
1.9503452e-07
5.9740571e-09
1.9310134e-07
5.8164244e-09
1.9121559e-07
5.6726779e-09
1.8937311e-07
5.5416089e-09
1.8757009e-07
5.4221343e-09
1.8580306e-07
5.3132734e-09
1.8406881e-07
5.2141384e-09
1.8236443e-07
5.1239287e-09
1.8068722e-07
5.0419167e-09
1.7903473e-07
4.9674398e-09
1.7740467e-07
4.8998931e-09
4.8387285e-09
7.4355738e-07
2.634934e-07
6.3787877e-07
3.5737868e-07
5.7371352e-07
3.0345376e-07
5.2692372e-07
2.5181402e-07
4.8745712e-07
2.0798737e-07
4.5317567e-07
1.7150239e-07
4.2402048e-07
1.4122876e-07
3.990078e-07
1.1712696e-07
3.7749077e-07
9.7919696e-08
3.5895371e-07
8.2505148e-08
3.4282997e-07
7.055441e-08
3.2880941e-07
6.0493903e-08
3.1661679e-07
5.2034348e-08
3.0587473e-07
4.5438477e-08
2.9633927e-07
4.0045094e-08
2.8780503e-07
3.5630423e-08
2.8011005e-07
3.1971482e-08
2.7312803e-07
2.8892544e-08
2.6675852e-07
2.6268161e-08
2.6091968e-07
2.4009535e-08
2.5554324e-07
2.2052653e-08
2.5057172e-07
2.034725e-08
2.4595673e-07
1.8852012e-08
2.4165696e-07
1.7534721e-08
2.37637e-07
1.6369229e-08
2.3386625e-07
1.5334056e-08
2.3031815e-07
1.4411417e-08
2.2696957e-07
1.3586475e-08
2.2380023e-07
1.2846775e-08
2.2079228e-07
1.2181798e-08
2.1792998e-07
1.1582613e-08
2.1519935e-07
1.1041592e-08
2.1258797e-07
1.055219e-08
2.1008474e-07
1.0108763e-08
2.0767973e-07
9.7064201e-09
2.0536403e-07
9.3409059e-09
2.0312959e-07
9.0085019e-09
2.0096917e-07
8.7059453e-09
1.988762e-07
8.4303628e-09
1.9684475e-07
8.1792147e-09
1.9486939e-07
7.9502494e-09
1.9294523e-07
7.7414641e-09
1.9106777e-07
7.5510724e-09
1.8923291e-07
7.3774771e-09
1.8743693e-07
7.2192455e-09
1.8567639e-07
7.0750827e-09
1.8394816e-07
6.9438169e-09
1.8224935e-07
6.8243895e-09
1.8057732e-07
6.7158387e-09
1.7892965e-07
6.6172891e-09
1.7730408e-07
6.5279424e-09
6.4470729e-09
6.116591e-07
5.157911e-07
5.3893079e-07
4.3010682e-07
5.0803561e-07
3.3434884e-07
4.81475e-07
2.7837461e-07
4.5563771e-07
2.3382468e-07
4.3040392e-07
1.9673626e-07
4.0702072e-07
1.6461215e-07
3.8625111e-07
1.3789688e-07
3.677762e-07
1.1639503e-07
3.5141757e-07
9.8864332e-08
3.3689549e-07
8.5077172e-08
3.2404788e-07
7.3342301e-08
3.1273111e-07
6.3352143e-08
3.026606e-07
5.5510157e-08
2.936452e-07
4.9061796e-08
2.8552056e-07
4.3756467e-08
2.7815338e-07
3.9340174e-08
2.7143726e-07
3.5610273e-08
2.6528588e-07
3.2421209e-08
2.5962776e-07
2.9669375e-08
2.5440239e-07
2.7279787e-08
2.495582e-07
2.5193229e-08
2.450513e-07
2.33607e-08
2.4084395e-07
2.1743848e-08
2.3690351e-07
2.0311435e-08
2.3320157e-07
1.9037712e-08
2.2971338e-07
1.790129e-08
2.264172e-07
1.6884275e-08
2.2329393e-07
1.5971612e-08
2.2032667e-07
1.5150555e-08
2.1750044e-07
1.4410257e-08
2.1480194e-07
1.3741441e-08
2.1221927e-07
1.3136131e-08
2.097418e-07
1.2587439e-08
2.0735996e-07
1.2089388e-08
2.0506518e-07
1.1636771e-08
2.0284967e-07
1.122503e-08
2.0070644e-07
1.0850165e-08
1.9862913e-07
1.0508647e-08
1.9661195e-07
1.0197354e-08
1.9464966e-07
9.9135163e-09
1.9273747e-07
9.6546677e-09
1.9087101e-07
9.418606e-09
1.8904628e-07
9.2033597e-09
1.8725964e-07
9.0071587e-09
1.8550773e-07
8.8284045e-09
1.8378749e-07
8.6656501e-09
1.820961e-07
8.5175868e-09
1.8043096e-07
8.3830256e-09
1.7878968e-07
8.2608842e-09
1.7717008e-07
8.1501753e-09
8.0500007e-09
3.0080789e-07
3.0483988e-07
3.7732334e-07
3.5359123e-07
3.891418e-07
3.2253032e-07
3.8467601e-07
2.8284041e-07
3.7332603e-07
2.4517474e-07
3.5931785e-07
2.1074458e-07
3.4428332e-07
1.7964692e-07
3.2962627e-07
1.5255426e-07
3.1608558e-07
1.2993617e-07
3.0367638e-07
1.1127411e-07
2.9236412e-07
9.6390117e-08
2.8212542e-07
8.3581778e-08
2.7296836e-07
7.2510196e-08
2.6471786e-07
6.3761783e-08
2.5725517e-07
5.6525726e-08
2.5047287e-07
5.0540105e-08
2.4428046e-07
4.5534013e-08
2.3860302e-07
4.1289222e-08
2.3337796e-07
3.7647842e-08
2.2855213e-07
3.4496823e-08
2.2407964e-07
3.175394e-08
2.1992066e-07
2.9353885e-08
2.1604087e-07
2.7242179e-08
2.1241038e-07
2.537601e-08
2.0900309e-07
2.3720391e-08
2.0579608e-07
2.2246353e-08
2.0276921e-07
2.0929757e-08
1.9990468e-07
1.9750347e-08
1.9718676e-07
1.8691028e-08
1.9460146e-07
1.7737298e-08
1.921363e-07
1.6876783e-08
1.8978018e-07
1.6098881e-08
1.875231e-07
1.5394458e-08
1.8535611e-07
1.4755613e-08
1.8327115e-07
1.4175479e-08
1.8126094e-07
1.3648066e-08
1.7931888e-07
1.3168125e-08
1.7743901e-07
1.273104e-08
1.7561592e-07
1.2332736e-08
1.7384465e-07
1.1969607e-08
1.7212073e-07
1.1638446e-08
1.7044004e-07
1.1336397e-08
1.6879883e-07
1.1060906e-08
1.6719367e-07
1.0809687e-08
1.6562142e-07
1.0580683e-08
1.6407919e-07
1.0372036e-08
1.6256433e-07
1.0182066e-08
1.6107442e-07
1.0009251e-08
1.5960719e-07
9.8522074e-09
1.5816061e-07
9.7096755e-09
1.5673276e-07
9.5805063e-09
9.4636531e-09
2.0646027e-07
1.9080826e-07
3.0508578e-07
2.549656e-07
3.4261236e-07
2.8500374e-07
3.5430872e-07
2.7114413e-07
3.5350878e-07
2.4597484e-07
3.4665504e-07
2.1759857e-07
3.3674673e-07
1.8955555e-07
3.2557134e-07
1.6373007e-07
3.1446402e-07
1.4104405e-07
3.0387497e-07
1.2186384e-07
2.9390028e-07
1.0636562e-07
2.84609e-07
9.2873944e-08
2.7612006e-07
8.1000257e-08
2.6837347e-07
7.1509631e-08
2.61277e-07
6.3623573e-08
2.5476268e-07
5.7055899e-08
2.4876686e-07
5.1531413e-08
2.4323305e-07
4.6824687e-08
2.3811171e-07
4.2770908e-08
2.3335919e-07
3.9251124e-08
2.2893665e-07
3.6178291e-08
2.248096e-07
3.3482774e-08
2.2094771e-07
3.1105911e-08
2.173242e-07
2.9001367e-08
2.1391531e-07
2.7131105e-08
2.1069999e-07
2.5463476e-08
2.0765951e-07
2.3971995e-08
2.0477722e-07
2.2634354e-08
2.0203825e-07
2.1431662e-08
1.9942932e-07
2.0347843e-08
1.969385e-07
1.9369146e-08
1.9455511e-07
1.8483753e-08
1.9226953e-07
1.7681467e-08
1.9007306e-07
1.6953442e-08
1.8795786e-07
1.6291982e-08
1.8591683e-07
1.5690355e-08
1.8394352e-07
1.5142656e-08
1.8203206e-07
1.4643686e-08
1.8017712e-07
1.4188847e-08
1.7837384e-07
1.3774064e-08
1.7661776e-07
1.3395711e-08
1.7490483e-07
1.3050553e-08
1.7323133e-07
1.2735696e-08
1.7159384e-07
1.2448545e-08
1.6998924e-07
1.2186762e-08
1.6841464e-07
1.1948237e-08
1.6686742e-07
1.1731061e-08
1.6534514e-07
1.15335e-08
1.6384556e-07
1.1353979e-08
1.6236661e-07
1.1191064e-08
1.6090639e-07
1.1043444e-08
1.0909926e-08
1.6959092e-07
1.1627416e-07
2.533993e-07
1.7115713e-07
3.0070233e-07
2.3770078e-07
3.2366324e-07
2.4818339e-07
3.3199894e-07
2.3763939e-07
3.3194898e-07
2.1764886e-07
3.2719334e-07
1.9431163e-07
3.198845e-07
1.7103944e-07
3.1146063e-07
1.4946859e-07
3.0285989e-07
1.304654e-07
2.9443814e-07
1.1478831e-07
2.8627887e-07
1.0103425e-07
2.7859266e-07
8.8687737e-08
2.7146784e-07
7.8635865e-08
2.6483631e-07
7.025664e-08
2.5867137e-07
6.3222487e-08
2.5293966e-07
5.7264869e-08
2.4760586e-07
5.2160325e-08
2.4263551e-07
4.7743162e-08
2.3799611e-07
4.389248e-08
2.3365725e-07
4.0519151e-08
2.2959081e-07
3.7551247e-08
2.2577133e-07
3.4927422e-08
2.2217582e-07
3.2598919e-08
2.1878346e-07
3.0525489e-08
2.1557549e-07
2.8673438e-08
2.1253502e-07
2.7014428e-08
2.0964682e-07
2.5524475e-08
2.0689716e-07
2.4183187e-08
2.0427368e-07
2.2973144e-08
2.0176518e-07
2.1879398e-08
1.9936156e-07
2.0889064e-08
1.9705367e-07
1.9990988e-08
1.948332e-07
1.9175477e-08
1.9269263e-07
1.8434071e-08
1.906251e-07
1.7759362e-08
1.8862435e-07
1.7144834e-08
1.866847e-07
1.6584741e-08
1.8480095e-07
1.6073995e-08
1.8296833e-07
1.5608077e-08
1.8118249e-07
1.5182963e-08
1.7943944e-07
1.4795056e-08
1.7773552e-07
1.4441136e-08
1.7606736e-07
1.4118308e-08
1.7443188e-07
1.3823966e-08
1.7282622e-07
1.3555755e-08
1.7124777e-07
1.331154e-08
1.6969412e-07
1.3089383e-08
1.6816303e-07
1.2887522e-08
1.6665246e-07
1.270435e-08
1.6516052e-07
1.25384e-08
1.2388331e-08
1.49967e-07
6.4012466e-08
2.1562371e-07
1.0550039e-07
2.6427974e-07
1.8904489e-07
2.9414797e-07
2.1831543e-07
3.0972959e-07
2.2205814e-07
3.1588737e-07
2.1149155e-07
3.1605975e-07
1.9413982e-07
3.1265138e-07
1.744485e-07
3.071701e-07
1.549507e-07
3.0068032e-07
1.3695614e-07
2.9396526e-07
1.2150448e-07
2.8712869e-07
1.0787205e-07
2.8037011e-07
9.5447739e-08
2.7396665e-07
8.5040936e-08
2.6789703e-07
7.632799e-08
2.6216337e-07
6.8957998e-08
2.5676475e-07
6.2665439e-08
2.5168932e-07
5.72378e-08
2.4691947e-07
5.2515125e-08
2.4243531e-07
4.8378812e-08
2.3821608e-07
4.4740605e-08
2.3424104e-07
4.1528535e-08
2.3049047e-07
3.8680259e-08
2.2694581e-07
3.6145839e-08
2.2358978e-07
3.3883773e-08
2.2040639e-07
3.1859062e-08
2.1738093e-07
3.0042081e-08
2.1449995e-07
2.8407615e-08
2.1175113e-07
2.6934119e-08
2.0912323e-07
2.5603104e-08
2.0660598e-07
2.4398641e-08
2.0419003e-07
2.3306949e-08
2.0186684e-07
2.2316061e-08
1.9962859e-07
2.1415543e-08
1.9746817e-07
2.0596266e-08
1.9537904e-07
1.9850213e-08
1.9335524e-07
1.917032e-08
1.9139131e-07
1.855034e-08
1.8948222e-07
1.7984736e-08
1.8762338e-07
1.7468578e-08
1.8581056e-07
1.6997467e-08
1.8403988e-07
1.6567471e-08
1.8230776e-07
1.6175057e-08
1.806109e-07
1.5817051e-08
1.7894629e-07
1.5490588e-08
1.7731112e-07
1.5193078e-08
1.7570283e-07
1.4922171e-08
1.7411902e-07
1.4675732e-08
1.725575e-07
1.4451816e-08
1.7101625e-07
1.424865e-08
1.6949338e-07
1.4064612e-08
1.389822e-08
1.3688053e-07
2.7543716e-08
1.8718858e-07
5.5192355e-08
2.3344776e-07
1.4278597e-07
2.668001e-07
1.8496348e-07
2.8766473e-07
2.0119402e-07
2.9906839e-07
2.0008851e-07
3.0380695e-07
1.89402e-07
3.0412171e-07
1.741346e-07
3.0165911e-07
1.5741431e-07
2.9747682e-07
1.411396e-07
2.9250526e-07
1.2647734e-07
2.871139e-07
1.1326486e-07
2.8143596e-07
1.0112731e-07
2.7584441e-07
9.0634316e-08
2.7042919e-07
8.1745172e-08
2.6520695e-07
7.4182313e-08
2.6021046e-07
6.7664126e-08
2.5545273e-07
6.1997811e-08
2.5093439e-07
5.703583e-08
2.4664934e-07
5.2666291e-08
2.4258754e-07
4.8804889e-08
2.3873656e-07
4.538202e-08
2.3508318e-07
4.2336173e-08
2.3161395e-07
3.9617593e-08
2.2831566e-07
3.7184588e-08
2.2517555e-07
3.5001679e-08
2.2218151e-07
3.3038601e-08
2.1932215e-07
3.1269411e-08
2.1658686e-07
2.9671809e-08
2.1396574e-07
2.8226556e-08
2.1144968e-07
2.6916995e-08
2.090302e-07
2.5728652e-08
2.0669953e-07
2.4648907e-08
2.0445047e-07
2.3666721e-08
2.0227641e-07
2.2772399e-08
2.0017124e-07
2.1957405e-08
1.9812936e-07
2.1214197e-08
1.9614558e-07
2.0536089e-08
1.9421515e-07
1.9917138e-08
1.9233366e-07
1.9352046e-08
1.9049705e-07
1.8836075e-08
1.887016e-07
1.8364979e-08
1.8694385e-07
1.7934942e-08
1.852206e-07
1.7542524e-08
1.8352892e-07
1.7184622e-08
1.8186608e-07
1.6858421e-08
1.8022958e-07
1.6561368e-08
1.7861708e-07
1.629114e-08
1.7702642e-07
1.6045621e-08
1.7545563e-07
1.5822874e-08
1.7390285e-07
1.562113e-08
1.5438771e-08
1.2824829e-07
2.4888972e-09
1.6602538e-07
1.7415351e-08
2.0797755e-07
1.0083418e-07
2.4225104e-07
1.5069056e-07
2.6655389e-07
1.7689187e-07
2.8209024e-07
1.8455297e-07
2.9082879e-07
1.806644e-07
2.9463748e-07
1.7032699e-07
2.9507558e-07
1.5697744e-07
2.9327639e-07
1.4294018e-07
2.9013743e-07
1.2961782e-07
2.8624182e-07
1.171622e-07
2.8178946e-07
1.0558156e-07
2.7710056e-07
9.5325281e-08
2.7240991e-07
8.6438055e-08
2.6777514e-07
7.8819437e-08
2.6324841e-07
7.2193332e-08
2.5886756e-07
6.6381235e-08
2.5465235e-07
6.1253693e-08
2.5061139e-07
5.6709984e-08
2.4674619e-07
5.267286e-08
2.4305346e-07
4.907757e-08
2.395271e-07
4.5865364e-08
2.3615943e-07
4.298811e-08
2.3294179e-07
4.0405078e-08
2.2986508e-07
3.808121e-08
2.2692018e-07
3.5986307e-08
2.240981e-07
3.4094258e-08
2.2139017e-07
3.2382457e-08
2.1878814e-07
3.0831268e-08
2.1628417e-07
2.9423595e-08
2.1387089e-07
2.8144503e-08
2.115414e-07
2.6980907e-08
2.0928928e-07
2.5921313e-08
2.0710851e-07
2.4955587e-08
2.0499352e-07
2.4074777e-08
2.0293913e-07
2.3270944e-08
2.0094052e-07
2.2537034e-08
1.9899324e-07
2.1866757e-08
1.9709314e-07
2.1254492e-08
1.952364e-07
2.0695202e-08
1.9341946e-07
2.0184362e-08
1.9163902e-07
1.9717898e-08
1.8989204e-07
1.9292133e-08
1.8817568e-07
1.8903739e-08
1.8648732e-07
1.8549699e-08
1.8482453e-07
1.8227269e-08
1.8318506e-07
1.793395e-08
1.8156681e-07
1.7667461e-08
1.7996785e-07
1.7425715e-08
1.7838638e-07
1.7206802e-08
1.7008971e-08
1.2291033e-07
-1.4368223e-08
1.5073531e-07
-1.0409466e-08
1.8744633e-07
6.4123698e-08
2.2080657e-07
1.1733107e-07
2.4693115e-07
1.507682e-07
2.6548255e-07
1.6600261e-07
2.7752213e-07
1.6862601e-07
2.8446896e-07
1.633815e-07
2.8763808e-07
1.5380982e-07
2.8816595e-07
1.4241397e-07
2.8695419e-07
1.308314e-07
2.8457584e-07
1.1954255e-07
2.8140609e-07
1.0875349e-07
2.7773631e-07
9.899744e-08
2.7382532e-07
9.0351575e-08
2.6984688e-07
8.2800564e-08
2.6585432e-07
7.6188691e-08
2.6190811e-07
7.0330351e-08
2.5804731e-07
6.511749e-08
2.5429577e-07
6.0464594e-08
2.506672e-07
5.6304561e-08
2.4716797e-07
5.2579968e-08
2.4379974e-07
4.923679e-08
2.4056105e-07
4.6230012e-08
2.3744827e-07
4.3521068e-08
2.344564e-07
4.107628e-08
2.3157962e-07
3.8866271e-08
2.2881167e-07
3.6865365e-08
2.261461e-07
3.5051138e-08
2.2357648e-07
3.3403954e-08
2.2109651e-07
3.1906593e-08
2.1870006e-07
3.0543918e-08
2.163813e-07
2.9302593e-08
2.1413465e-07
2.8170837e-08
2.1195485e-07
2.7138222e-08
2.0983694e-07
2.6195493e-08
2.0777624e-07
2.5334416e-08
2.057684e-07
2.4547644e-08
2.0380931e-07
2.382861e-08
2.0189517e-07
2.3171425e-08
2.000224e-07
2.2570801e-08
1.9818768e-07
2.2021972e-08
1.9638792e-07
2.152064e-08
1.9462023e-07
2.1062916e-08
1.9288192e-07
2.0645276e-08
1.9117051e-07
2.0264515e-08
1.8948366e-07
1.9917719e-08
1.8781922e-07
1.9602227e-08
1.8617518e-07
1.9315607e-08
1.8454967e-07
1.9055631e-08
1.8294095e-07
1.8820255e-08
1.8607606e-08
1.1991848e-07
-2.5294734e-08
1.4005598e-07
-3.0546725e-08
1.7128806e-07
3.2892331e-08
2.0252505e-07
8.609505e-08
2.2914626e-07
1.2414814e-07
2.4965657e-07
1.4549361e-07
2.6427083e-07
1.5401322e-07
2.7389309e-07
1.5376087e-07
2.795735e-07
1.4813123e-07
2.8230651e-07
1.3968294e-07
2.8298471e-07
1.3015537e-07
2.8219135e-07
1.2033826e-07
2.8031786e-07
1.1062951e-07
2.7772899e-07
1.0158905e-07
2.7468382e-07
9.3399628e-08
2.7140698e-07
8.6080457e-08
2.6800883e-07
7.9590026e-08
2.6455229e-07
7.3790189e-08
2.6109575e-07
6.8577428e-08
2.5767851e-07
6.3885305e-08
2.5432673e-07
5.9659867e-08
2.5105688e-07
5.58534e-08
2.4787874e-07
5.2418549e-08
2.4479749e-07
4.9314897e-08
2.4181493e-07
4.6507279e-08
2.3893047e-07
4.3964378e-08
2.3614193e-07
4.1658429e-08
2.3344606e-07
3.9564833e-08
2.308389e-07
3.7661865e-08
2.2831607e-07
3.5930312e-08
2.2587297e-07
3.435318e-08
2.2350492e-07
3.2915411e-08
2.2120726e-07
3.1603647e-08
2.1897543e-07
3.0406016e-08
2.1680502e-07
2.9311952e-08
2.1469177e-07
2.8312029e-08
2.1263164e-07
2.7397824e-08
2.1062076e-07
2.6561792e-08
2.0865548e-07
2.5797162e-08
2.0673236e-07
2.5097844e-08
2.0484817e-07
2.4458348e-08
2.0299984e-07
2.3873717e-08
2.0118453e-07
2.3339466e-08
1.9939955e-07
2.2851527e-08
1.9764241e-07
2.2406206e-08
1.9591075e-07
2.2000138e-08
1.9420239e-07
2.1630254e-08
1.9251529e-07
2.1293752e-08
1.9084753e-07
2.0988061e-08
1.8919735e-07
2.0710827e-08
1.8756307e-07
2.0459884e-08
2.023324e-08
1.186554e-07
-3.1938527e-08
1.329327e-07
-4.48237e-08
1.5889011e-07
6.9358212e-09
1.8729259e-07
5.7693798e-08
2.1338926e-07
9.8052904e-08
2.3492092e-07
1.2396358e-07
2.513921e-07
1.3754385e-07
2.6319665e-07
1.4195831e-07
2.7107898e-07
1.4025108e-07
2.7586419e-07
1.349001e-07
2.7834064e-07
1.2768148e-07
2.7910993e-07
1.1957172e-07
2.7856769e-07
1.111747e-07
2.7709477e-07
1.0306511e-07
2.7498653e-07
9.5511187e-08
2.7246319e-07
8.8607277e-08
2.6969871e-07
8.2358131e-08
2.6678226e-07
7.6710387e-08
2.6377727e-07
7.1586271e-08
2.6073783e-07
6.6928673e-08
2.577025e-07
6.2699208e-08
2.5469794e-07
5.8862026e-08
2.5174227e-07
5.5378313e-08
2.4884762e-07
5.2213681e-08
2.4602146e-07
4.9337587e-08
2.4326792e-07
4.6722056e-08
2.4058875e-07
4.4341741e-08
2.3798393e-07
4.2173772e-08
2.3545222e-07
4.0197668e-08
2.329915e-07
3.8395087e-08
2.3059908e-07
3.6749628e-08
2.2827186e-07
3.5246615e-08
2.2600653e-07
3.3872921e-08
2.2379967e-07
3.2616789e-08
2.2164782e-07
3.1467687e-08
2.1954754e-07
3.0416165e-08
2.1749548e-07
2.945373e-08
2.1548838e-07
2.8572741e-08
2.135231e-07
2.7766308e-08
2.1159664e-07
2.7028211e-08
2.0970612e-07
2.6352822e-08
2.0784883e-07
2.5735042e-08
2.0602219e-07
2.5170243e-08
2.0422377e-07
2.4654217e-08
2.0245128e-07
2.418313e-08
2.0070255e-07
2.3753484e-08
1.9897557e-07
2.3362082e-08
1.9726842e-07
2.3005997e-08
1.9557933e-07
2.2682541e-08
1.9390662e-07
2.2389244e-08
1.9224874e-07
2.2123833e-08
2.188421e-08
1.1871735e-07
-3.5541484e-08
1.2854518e-07
-5.4651118e-08
1.4966802e-07
-1.418593e-08
1.7489111e-07
3.2472212e-08
1.9972321e-07
7.3222574e-08
2.2148639e-07
1.022024e-07
2.3914278e-07
1.1988965e-07
2.5262725e-07
1.2847625e-07
2.6236504e-07
1.3051589e-07
2.6898581e-07
1.2828214e-07
2.7315229e-07
1.2351802e-07
2.7541445e-07
1.1731278e-07
2.7619753e-07
1.1039504e-07
2.7586382e-07
1.0340244e-07
2.747235e-07
9.6655309e-08
2.7301664e-07
9.0318118e-08
2.7092414e-07
8.4454771e-08
2.6858516e-07
7.9053627e-08
2.6607517e-07
7.4100645e-08
2.6345475e-07
6.9553562e-08
2.6077419e-07
6.5384322e-08
2.5807024e-07
6.1570592e-08
2.553694e-07
5.8083828e-08
2.5269078e-07
5.4896996e-08
2.5004776e-07
5.1985336e-08
2.4744937e-07
4.9325176e-08
2.4490147e-07
4.6894374e-08
2.4240752e-07
4.4672443e-08
2.3996918e-07
4.2640707e-08
2.3758679e-07
4.0782152e-08
2.3525972e-07
3.9081352e-08
2.3298662e-07
3.7524334e-08
2.3076566e-07
3.6098464e-08
2.2859468e-07
3.4792327e-08
2.264713e-07
3.3595609e-08
2.2439299e-07
3.249899e-08
2.223572e-07
3.1494043e-08
2.2036133e-07
3.0573139e-08
2.1840282e-07
2.9729366e-08
2.1647918e-07
2.8956451e-08
2.1458797e-07
2.8248695e-08
2.1272685e-07
2.7600917e-08
2.1089356e-07
2.7008393e-08
2.0908597e-07
2.6466818e-08
2.0730202e-07
2.5972255e-08
2.0553977e-07
2.5521105e-08
2.037974e-07
2.5110068e-08
2.0207317e-07
2.4736115e-08
2.0036543e-07
2.4396461e-08
1.9867266e-07
2.408854e-08
1.969934e-07
2.3809984e-08
2.3558602e-08
1.1980272e-07
-3.7041583e-08
1.2626056e-07
-6.1108462e-08
1.4309603e-07
-3.1020098e-08
1.6504947e-07
1.0520569e-08
1.8811754e-07
5.0156652e-08
2.0947783e-07
8.0844509e-08
2.2771927e-07
1.0165086e-07
2.423943e-07
1.1380409e-07
2.5362565e-07
1.1928765e-07
2.6182993e-07
1.2008119e-07
2.6753257e-07
1.1781892e-07
2.7121062e-07
1.1363849e-07
2.7326517e-07
1.0834447e-07
2.7406967e-07
1.0260213e-07
2.7391664e-07
9.6812719e-08
2.7305806e-07
9.1181248e-08
2.7168986e-07
8.5827696e-08
2.6995765e-07
8.0790705e-08
2.6797704e-07
7.6086246e-08
2.6581352e-07
7.1722178e-08
2.6352399e-07
6.7679031e-08
2.6115475e-07
6.3945094e-08
2.5874043e-07
6.0503465e-08
2.5630716e-07
5.7335626e-08
2.538742e-07
5.4423698e-08
2.5145559e-07
5.1749195e-08
2.4906145e-07
4.9293934e-08
2.4669886e-07
4.704045e-08
2.4437256e-07
4.4972418e-08
2.4208549e-07
4.3074619e-08
2.3983921e-07
4.1332995e-08
2.376343e-07
3.97346e-08
2.3547052e-07
3.8267574e-08
2.3334708e-07
3.692107e-08
2.3126279e-07
3.5685194e-08
2.2921615e-07
3.4550922e-08
2.2720546e-07
3.3510031e-08
2.2522889e-07
3.2555028e-08
2.2328453e-07
3.1679076e-08
2.2137045e-07
3.0875939e-08
2.194847e-07
3.0139923e-08
2.1762537e-07
2.9465824e-08
2.1579059e-07
2.8848881e-08
2.1397853e-07
2.8284734e-08
2.1218744e-07
2.7769389e-08
2.1041563e-07
2.7299175e-08
2.0866148e-07
2.6870722e-08
2.0692346e-07
2.6480926e-08
2.052001e-07
2.6126925e-08
2.0349002e-07
2.580608e-08
2.017919e-07
2.5515943e-08
2.5254244e-08
1.2167108e-07
-3.7134037e-08
1.2558751e-07
-6.5024305e-08
1.387139e-07
-4.4144971e-08
1.574775e-07
-8.2409024e-09
1.7847748e-07
2.915922e-08
1.9894914e-07
6.0375724e-08
2.1726083e-07
8.3342322e-08
2.3266992e-07
9.8398415e-08
2.4503105e-07
1.0693019e-07
2.5455097e-07
1.1056519e-07
2.6160472e-07
1.1076932e-07
2.6658701e-07
1.086606e-07
2.6985553e-07
1.0508057e-07
2.7175675e-07
1.0070574e-07
2.7259366e-07
9.5980855e-08
2.7260168e-07
9.1178458e-08
2.7198713e-07
8.6447648e-08
2.709055e-07
8.187789e-08
2.6947765e-07
7.7519794e-08
2.6780217e-07
7.3403469e-08
2.6593702e-07
6.95501e-08
2.6393465e-07
6.5953459e-08
2.618374e-07
6.2606791e-08
2.5967815e-07
5.9501e-08
2.5748195e-07
5.662607e-08
2.5526784e-07
5.3969497e-08
2.5305026e-07
5.1517739e-08
2.5083999e-07
4.9256945e-08
2.4864495e-07
4.7173683e-08
2.464708e-07
4.5254983e-08
2.4432147e-07
4.3488542e-08
2.421995e-07
4.186277e-08
2.401064e-07
4.0366862e-08
2.3804286e-07
3.8990782e-08
2.3600898e-07
3.7725255e-08
2.3400435e-07
3.656173e-08
2.3202824e-07
3.5492339e-08
2.3007965e-07
3.4509848e-08
2.2815739e-07
3.3607608e-08
2.2626016e-07
3.2779511e-08
2.2438656e-07
3.2019947e-08
2.2253517e-07
3.1323759e-08
2.2070452e-07
3.0686208e-08
2.1889316e-07
3.0102934e-08
2.1709967e-07
2.9569923e-08
2.1532264e-07
2.9083478e-08
2.1356071e-07
2.8640187e-08
2.1181257e-07
2.8236902e-08
2.1007695e-07
2.7870712e-08
2.0835264e-07
2.7538921e-08
2.066385e-07
2.7239027e-08
2.6968696e-08
1.2413232e-07
-3.632151e-08
1.261449e-07
-6.7036202e-08
1.3612552e-07
-5.4123849e-08
1.5188724e-07
-2.4000147e-08
1.7066783e-07
1.0381618e-08
1.8989872e-07
4.1148226e-08
2.0785584e-07
6.5388931e-08
2.2358863e-07
8.2669661e-08
2.3672868e-07
9.3794459e-08
2.4728872e-07
1.0000974e-07
2.5549361e-07
1.0256929e-07
2.6164164e-07
1.0251768e-07
2.6603961e-07
1.0068796e-07
2.6899473e-07
9.7756203e-08
2.7078987e-07
9.419152e-08
2.7166987e-07
9.0304468e-08
2.7182525e-07
8.6298454e-08
2.7142043e-07
8.2289064e-08
2.7058265e-07
7.8364086e-08
2.6941456e-07
7.4578195e-08
2.6800179e-07
7.0969637e-08
2.6639584e-07
6.7566264e-08
2.646444e-07
6.4365171e-08
2.6278671e-07
6.1365702e-08
2.6085332e-07
5.8566516e-08
2.5886817e-07
5.5961755e-08
2.5684993e-07
5.3543116e-08
2.5481315e-07
5.1300888e-08
2.5276896e-07
4.9225042e-08
2.5072583e-07
4.7305288e-08
2.486901e-07
4.5531454e-08
2.4666642e-07
4.389363e-08
2.4465812e-07
4.2382345e-08
2.4266747e-07
4.0988614e-08
2.4069592e-07
3.9703994e-08
2.3874428e-07
3.8520584e-08
2.3681283e-07
3.7431022e-08
2.3490149e-07
3.642847e-08
2.3300987e-07
3.5506579e-08
2.3113733e-07
3.465947e-08
2.292831e-07
3.3881699e-08
2.2744627e-07
3.3168233e-08
2.2562587e-07
3.2514417e-08
2.2382084e-07
3.1915946e-08
2.2203013e-07
3.1368836e-08
2.2025265e-07
3.0869403e-08
2.1848732e-07
3.0414234e-08
2.1673309e-07
3.0000166e-08
2.1498893e-07
2.9624266e-08
2.1325381e-07
2.9283807e-08
2.1152678e-07
2.8976252e-08
2.8699232e-08
1.2704087e-07
-3.4958594e-08
1.2763985e-07
-6.7634404e-08
1.3499517e-07
-6.147719e-08
1.4800601e-07
-3.7008142e-08
1.6453113e-07
-6.1400325e-09
1.8228403e-07
2.3399284e-08
1.9954959e-07
4.8127742e-08
2.1524945e-07
6.6974536e-08
2.2884168e-07
8.0207286e-08
2.4016938e-07
8.8687412e-08
2.4931527e-07
9.3429069e-08
2.5647699e-07
9.5361905e-08
2.6189739e-07
9.5273758e-08
2.6584174e-07
9.3818304e-08
2.6856334e-07
9.147661e-08
2.7029098e-07
8.8583717e-08
2.7122226e-07
8.5374273e-08
2.7150862e-07
8.2009989e-08
2.7128423e-07
7.8595917e-08
2.706557e-07
7.5214329e-08
2.6971183e-07
7.1921239e-08
2.6852729e-07
6.8758646e-08
2.6714802e-07
6.5752382e-08
2.6561775e-07
6.2904002e-08
2.6397214e-07
6.0220226e-08
2.6223971e-07
5.7702334e-08
2.6044328e-07
5.5347744e-08
2.5860108e-07
5.3151326e-08
2.5672746e-07
5.1106925e-08
2.548337e-07
4.9207323e-08
2.5292862e-07
4.7444834e-08
2.5101903e-07
4.5811531e-08
2.4911015e-07
4.4299555e-08
2.472059e-07
4.2901206e-08
2.4530918e-07
4.160908e-08
2.4342206e-07
4.0416108e-08
2.4154593e-07
3.9315593e-08
2.3968167e-07
3.8301228e-08
2.3782975e-07
3.7367082e-08
2.3599028e-07
3.6507608e-08
2.3416314e-07
3.5717619e-08
2.3234803e-07
3.4992281e-08
2.3054445e-07
3.4327093e-08
2.2875183e-07
3.3717862e-08
2.2696951e-07
3.316069e-08
2.2519676e-07
3.2651947e-08
2.2343283e-07
3.2188259e-08
2.2167693e-07
3.1766483e-08
2.199283e-07
3.1383694e-08
2.1818614e-07
3.1037159e-08
2.164497e-07
3.0724324e-08
1.3028884e-07
-3.3289397e-08
1.2985058e-07
-6.7195256e-08
1.3504315e-07
-6.6667542e-08
1.4558399e-07
-4.7545758e-08
1.599011e-07
-2.0453145e-08
1.7603414e-07
7.2708267e-09
1.9235254e-07
3.1814425e-08
2.077195e-07
5.1613088e-08
2.2146892e-07
6.6463763e-08
2.3330358e-07
7.6859007e-08
2.4317797e-07
8.3561254e-08
2.5119059e-07
8.7356175e-08
2.5751469e-07
8.8956833e-08
2.623649e-07
8.8975532e-08
2.6596269e-07
8.7886517e-08
2.6851362e-07
8.6040714e-08
2.7020154e-07
8.3694491e-08
2.7118463e-07
8.103525e-08
2.7158647e-07
7.8202606e-08
2.715183e-07
7.5291196e-08
2.7107126e-07
7.2377127e-08
2.7032265e-07
6.951624e-08
2.6933774e-07
6.67464e-08
2.6815853e-07
6.4092405e-08
2.6682405e-07
6.1564e-08
2.6536703e-07
5.9168713e-08
2.6381418e-07
5.6910019e-08
2.6218727e-07
5.4787709e-08
2.605038e-07
5.2799923e-08
2.5877782e-07
5.0942856e-08
2.5702062e-07
4.9211621e-08
2.5524122e-07
4.7600556e-08
2.5344675e-07
4.6103673e-08
2.5164285e-07
4.4714788e-08
2.4983392e-07
4.3427737e-08
2.4802334e-07
4.223646e-08
2.4621368e-07
4.1135084e-08
2.4440684e-07
4.011797e-08
2.4260419e-07
3.9179727e-08
2.4080667e-07
3.8315241e-08
2.3901485e-07
3.7519678e-08
2.3722906e-07
3.6788485e-08
2.3544936e-07
3.6117382e-08
2.3367569e-07
3.5502353e-08
2.319078e-07
3.4939637e-08
2.3014538e-07
3.4425712e-08
2.2838803e-07
3.3957281e-08
2.2663527e-07
3.353126e-08
2.2488661e-07
3.3144763e-08
2.2314152e-07
3.2795079e-08
3.2479659e-08
1.3379812e-07
-3.1477258e-08
1.3261074e-07
-6.6006874e-08
1.360409e-07
-7.0095225e-08
1.4439867e-07
-5.589989e-08
1.5661245e-07
-3.2662373e-08
1.7106027e-07
-7.1717316e-09
1.8624836e-07
1.6632203e-08
2.0103851e-07
3.6829313e-08
2.146864e-07
5.2822716e-08
2.2678569e-07
6.4766964e-08
2.3718048e-07
7.3174084e-08
2.4587621e-07
7.8668407e-08
2.5297514e-07
8.1866184e-08
2.586374e-07
8.3321844e-08
2.6304515e-07
8.3487622e-08
2.6637884e-07
8.2716136e-08
2.6880416e-07