/*--------------------------------*- C++ -*----------------------------------*\
| =========                 |                                                 |
| \\      /  F ield         | OpenFOAM: The Open Source CFD Toolbox           |
|  \\    /   O peration     | Version:  2312                                  |
|   \\  /    A nd           | Website:  www.openfoam.com                      |
|    \\/     M anipulation  |                                                 |
\*---------------------------------------------------------------------------*/
FoamFile
{
    version     2.0;
    format      ascii;
    arch        "LSB;label=32;scalar=64";
    class       volScalarField;
    location    "0.09";
    object      Qdot;
}
// * * * * * * * * * * * * * * * * * * * * * * * * * * * * * * * * * * * * * //

dimensions      [1 -1 -3 0 0 0 0];

internalField   nonuniform List<scalar> 
3275
(
74795381
5.0922921e+08
8.1453423e+08
8.8511141e+08
8.5361411e+08
7.9472864e+08
7.3332909e+08
6.7234613e+08
6.1030764e+08
5.4504993e+08
4.7654891e+08
4.1963378e+08
3.6063927e+08
3.0695001e+08
2.5989041e+08
2.1950012e+08
1.8529657e+08
1.565525e+08
1.32497e+08
1.1240356e+08
95625580
81603235
69862433
60009322
51718204
44720973
38797431
33766854
29480843
25817400
22676040
19973822
17642112
15623964
13871996
12346672
11014904
9848921.9
8825348.5
7924448.4
7129512.9
6426355.5
5802898.4
5248830.4
4755326.9
4314815
3920775.5
3567587.7
3250392.1
2964976.8
2707683.5
2475327
1.9430322e+08
8.2047096e+08
1.0620253e+09
1.0426625e+09
9.5013643e+08
8.5435781e+08
7.6966761e+08
6.9355457e+08
6.2187904e+08
5.5057688e+08
4.7852019e+08
4.1988802e+08
3.5992593e+08
3.0583534e+08
2.5868217e+08
2.1835071e+08
1.8427008e+08
1.5566673e+08
1.3174745e+08
1.1177631e+08
95103822
81170424
69503645
59711676
51470864
44514959
38625370
33622717
29359717
25715279
22589661
19900519
17579704
15570663
13826333
12307433
10981088
9819696.2
8800021.3
7902442
7110343.6
6409617.1
5788248.8
5235980.7
4744031.9
4304865.6
3911994.6
3559823.8
3243515.2
2958875.4
2702261.4
2470501.9
7.6981835e+08
1.6678511e+09
1.6298572e+09
1.3717206e+09
1.1412713e+09
9.7011352e+08
8.3816063e+08
7.3306461e+08
6.4300262e+08
5.6033776e+08
4.8169971e+08
4.199085e+08
3.5824557e+08
3.0347091e+08
2.5619749e+08
2.1602009e+08
1.8220437e+08
1.5389202e+08
1.3024971e+08
1.1052507e+08
94064120
80308542
68789458
59119330
50978683
44105024
38282981
33335874
29118641
25512006
22417699
19754567
17455428
15464508
13735374
12229261
10913708
9761454.6
8749541.1
7858573.9
7072125.1
6376240
5759031.9
5210348.6
4721496.7
4285012.4
3894470.2
3544326.4
3229786.1
2946692.4
2691433.2
2460863.7
3.1155728e+09
3.4695123e+09
2.5884918e+09
1.8592422e+09
1.4053066e+09
1.1295171e+09
9.2948927e+08
7.8448298e+08
6.6947795e+08
5.7176653e+08
4.8462195e+08
4.1877245e+08
3.5513072e+08
2.9961213e+08
2.5231628e+08
2.124549e+08
1.7908043e+08
1.5122625e+08
1.2800931e+08
1.0865827e+08
92515491
79026098
67727437
58238792
50247158
43495754
37774071
32909471
28760214
25209725
22161924
19537433
17270499
15306507
13599961
12112858
10813353
9674691.7
8674324.6
7793196.1
7015155.7
6326477.2
5715463.1
5172118.1
4687878.9
4255390.3
3868318.2
3521195.2
3209290.8
2928502.3
2675263.3
2446468.4
1.1992105e+10
6.4466039e+09
3.6993167e+09
2.4029416e+09
1.7058983e+09
1.2881402e+09
1.0254664e+09
8.3768109e+08
6.9513477e+08
5.8127489e+08
4.8530356e+08
4.1523975e+08
3.4996802e+08
2.939417e+08
2.4688621e+08
2.0759025e+08
1.7487784e+08
1.4767042e+08
1.2503663e+08
1.061896e+08
90471900
77336001
66328931
57079766
49284446
42693943
37104264
32348154
28288267
24811597
21824949
19251277
17026709
15098149
13421336
11959261
10680893
9560137.4
8574986.8
7706828.2
6939875.3
6260702.5
5657860.8
5121560.9
4643410.9
4216198.7
3833710
3490578.1
3182156.9
2904415.3
2653847.4
2427398.9
1.8636675e+10
7.8033465e+09
4.3173683e+09
2.7692823e+09
1.9303758e+09
1.4161785e+09
1.0904004e+09
8.7693715e+08
7.1199685e+08
5.8481125e+08
4.8192422e+08
4.0845735e+08
3.4260084e+08
2.8660386e+08
2.4017925e+08
2.017321e+08
1.6989164e+08
1.4348981e+08
1.215616e+08
1.033142e+08
88097067
75374727
64707360
55736429
48168796
41764707
36327870
31697338
27740891
24349669
21433823
18919003
16743513
14856017
13213672
11780624
10526780
9426807.9
8459326.1
7606233.5
6852165.1
6184042.7
5590704.7
5062600.4
4591536.6
4170466.6
3793315.3
3454832.3
3150470
2876279.7
2628825.8
2405113.8
1.3083837e+09
5.0411924e+09
3.9391062e+09
2.7498474e+09
1.978485e+09
1.4707369e+09
1.1182059e+09
8.8770548e+08
7.1494818e+08
5.79831e+08
4.7340551e+08
3.9790159e+08
3.3289058e+08
2.7765598e+08
2.3233105e+08
1.9503835e+08
1.6427607e+08
1.3882406e+08
1.1770571e+08
1.0013551e+08
85477931
73214831
62923062
54258896
46941846
40742687
35473767
30981158
27138314
23840946
21002884
18552741
16431208
14588874
12984455
11583360
10356524
9279451.4
8331445.7
7494967.4
6755113.6
6099187.5
5516343.1
4997291.6
4534058.1
4119778.1
3748529.1
3415189
3115318
2845059
2601053.4
2380372.5
18316430
1.5812789e+09
2.616367e+09
2.3318293e+09
1.8266881e+09
1.4129625e+09
1.098549e+09
8.6622657e+08
6.972469e+08
5.6380943e+08
4.5816747e+08
3.8215977e+08
3.1973405e+08
2.662876e+08
2.2270007e+08
1.8699552e+08
1.5761752e+08
1.3333842e+08
1.1319694e+08
96431577
82432709
70706849
60852669
52544951
45518577
39556903
34482476
30149590
26438313
23249664
20501739
18126575
16067623
14277697
12717312
11353338
10157893
9107452
8182108.3
7364972.3
6641675.6
5999962.7
5429353.1
4920861.7
4466766.3
4060413.8
3696058.9
3368728.3
3074107.7
2808445.9
2568474.4
2351340.8
235723.61
2.8013481e+08
1.234401e+09
1.6126638e+09
1.4945676e+09
1.2442316e+09
1.0087759e+09
8.1223037e+08
6.5535729e+08
5.335687e+08
4.3525659e+08
3.6062486e+08
3.0242389e+08
2.5228845e+08
2.1117444e+08
1.7754729e+08
1.4988898e+08
1.2702099e+08
1.0803089e+08
92201519
78961911
67851659
58496957
50595087
43899170
38207252
33353661
29202126
25640260
22575122
19929645
17639750
15652010
13921758
12411546
11089894
9930264.2
8910226.7
8010771.9
7215746.2
6511387.7
5885941.8
5329342.9
4832951.2
4389331.8
3992072.4
3635629
3315198.3
3026608.8
2766230.4
2530896.9
2317843.3
5285.6207
35772730
4.3052121e+08
9.0365446e+08
1.0590919e+09
9.9658554e+08
8.5953547e+08
7.1994693e+08
5.9391173e+08
4.8719625e+08
4.0294661e+08
3.3427698e+08
2.8079013e+08
2.3556199e+08
1.9773039e+08
1.6669305e+08
1.4109994e+08
1.1988482e+08
1.0222087e+08
87457316
75075652
64657429
55862316
48414173
42087244
36696352
32089160
28140002
24744934
21817754
19286784
17092262
15184235
13520834
12066874
10792711
9673299.6
8687430.7
7817092.8
7046953
6363925.5
5756814.6
5216018.6
4733283
4301495
3914511.2
3567013.8
3254389.5
2972627.2
2718232.6
2488154.9
2279727.1
244.41603
4057328.9
1.1944105e+08
4.1689762e+08
6.4811065e+08
7.1610622e+08
6.7839409e+08
5.9851051e+08
5.1313355e+08
4.2998673e+08
3.6091659e+08
3.0332417e+08
2.554165e+08
2.1593078e+08
1.8246657e+08
1.5450582e+08
1.3130723e+08
1.1197465e+08
95802148
82226663
70795566
61140953
52961708
46012156
40090384
35029954
30693302
26966446
23754718
20979296
18574396
16484977
14664879
13075290
11683500
10461871
9386995.2
8438996.9
7600959.8
6858451.3
6199128.1
5612409.1
5089202.6
4621678.9
4203079.7
3827558.8
3490047.9
3186143.5
2912012.5
2664310.6
2440114.7
2236866.6
22.012587
475382.56
28508745
1.6330749e+08
3.4523373e+08
4.6100001e+08
4.915224e+08
4.6698914e+08
4.1973545e+08
3.6510384e+08
3.1246366e+08
2.670149e+08
2.2778292e+08
1.9373807e+08
1.6557639e+08
1.4114497e+08
1.2062337e+08
1.0337236e+08
88835573
76555395
66156486
57328832
49815519
43404690
37920627
33217313
29173198
25686919
22673794
20062943
17794912
15819732
14095320
12586150
11262173
10097914
9071726.8
8165176.1
7362528.3
6650324
6017023.9
5452712.9
4948852.9
4498075.3
4094007.7
3731127
3404636.9
3110363.3
2844666.5
2604366.8
2386680.7
2189169.2
3.3944149
63154.017
6285390.6
56351742
1.6260819e+08
2.6709404e+08
3.2673146e+08
3.4053052e+08
3.2502606e+08
2.9549787e+08
2.6141662e+08
2.278032e+08
1.9770635e+08
1.704674e+08
1.4719038e+08
1.2686795e+08
1.0922066e+08
94199998
81409811
70509089
61207588
53258320
46452194
40613623
35594830
31271483
27538984
24309303
21508304
19073480
16952062
15099434
13477819
12055168
10804252
9701886.3
8728294.7
7866575.4
7102253.3
6422906.9
5817855.2
5277895.3
4795081.6
4362540.2
3974312.6
3625223.4
3310768.8
3027021.7
2770551.6
2538356
2327802.6
2136581.2
0.7873259
9954.9132
1357592.6
17778148
69087447
1.4053615e+08
1.9980611e+08
2.3147682e+08
2.3801926e+08
2.2799402e+08
2.0987517e+08
1.8846615e+08
1.6677044e+08
1.4655328e+08
1.2812707e+08
1.1182678e+08
97327814
84619232
73641435
64173386
56012741
48977654
42908529
37667249
33134890
29209502
25803976
22844046
20266466
18017391
16050969
14328138
12815588
11484892
10311755
9275384.9
8357963.3
7544193
6820920.6
6176816
5602102.2
5088327.8
4628173.5
4215289
3844154.6
3509964.1
3208524.8
2936172.4
2689699.4
2466292.7
2263481.5
2079093.7
0.24699135
1886.3152
300358.12
5308412
27054513
67957855
1.1303549e+08
1.4695922e+08
1.6444407e+08
1.6771011e+08
1.6155473e+08
1.5039455e+08
1.3682078e+08
1.2263234e+08
1.0918741e+08
96548744
85144967
74826488
65672325
57652587
50649763
44545680
39229482
34600225
30567731
27052418
23984716
21304207
18958633
16902909
15098203
13511096
12112839
10878702
9787399.2
8820597.9
7962494.1
7199447.9
6519673
5912970.8
5370504
4884603.3
4448602.9
4056699.6
3703833.6
3385585.5
3098089.5
2837958.3
2602219
2388258.6
2193776.9
2016748.2
0.096744074
427.19187
70184.406
1546151.8
9975970.2
30608489
59605480
87461606
1.0730112e+08
1.1738395e+08
1.1929888e+08
1.1560846e+08
1.0869022e+08
99999896
90735094
81690656
72992154
65007509
57663999
51066272
45208404
40030600
35467400
31453095
27924998
24825099
22100860
19705401
17597263
15740015
14101785
12654777
11374800
10240835
9234626.7
8340325.3
7544168.8
6834201.5
6200030.5
5632613.5
5124075.8
4667551.7
4257047.8
3887325.8
3553800.9
3252455
2979761.5
2732620.8
2508305
2304409.7
2118813.1
1949642.7
0.044657176
113.90041
17646.938
450313.22
3533938.4
13020558
29554777
49038748
66280052
78224961
84364411
85655381
83483654
79174797
73606629
67492090
61370398
55369377
49771874
44543920
39786924
35507769
31680570
28271329
25242429
22555813
20174895
18065605
16196794
14540351
13071139
11766833
10607705
9576382.7
8657605.1
7837986.7
7105798.7
6450769.1
5863902.7
5337321.2
4864121.7
4438252
4054401.7
3707907.5
3394669.6
3111080.2
2853960.8
2620507.6
2408244.6
2214982.8
2038784.6
1877936.7
0.023311538
35.096439
4819.3471
133673.69
1224422.9
5302975.9
13909220
26057242
38885856
49707399
57148808
61071874
62026303
60780151
58101563
54502754
50437548
46281229
42136106
38209097
34487397
31056561
27931103
25103879
22558847
20275527
18231646
16404815
14773401
13317054
12016972
10856021
9818734.6
8891250.9
8061204.9
7317607.5
6650718
6051917.7
5513590.2
5029009.7
4592239.2
4198038.1
3841779.8
3519377.8
3227220.9
2962115.8
2721236.1
2502078.4
2302423.2
2120300.8
1953962.1
1801855.8
0.013367246
12.267158
1433.3249
41001.834
421306.42
2094409.2
6272190.5
13206404
21755879
30185220
37116859
41903129
44511016
45253327
44566133
42893630
40555425
37846918
35022755
32159836
29404991
26756462
24282195
22001258
19914804
18016940
16297581
14744540
13344630
12084486
10951079
9932054.9
9015914.6
8192087.1
7450945.2
6783780.9
6182757.5
5640848.8
5151773.4
4709927
4310316.8
3948498.9
3620520.2
3322865.2
3052407.7
2806366.8
2582268.4
2377909.6
2191328.7
2020777.1
1864695.5
1721695.2
0.0082453795
4.7822823
463.54916
13112.994
145758.47
811436.31
2735001.3
6426918.7
11659625
17565352
23145584
27679961
30844232
32631755
33219799
32858417
31818200
30302642
28500883
26584309
24610134
22678998
20794953
19013263
17350927
15813266
14399915
13107140
11928902
10857865
9886065.1
9005404.7
8207959.9
7486162.7
6832906.8
6241602.8
5706196.2
5221162.4
4781486.5
4382634.8
4020520.6
3691468.5
3392178.5
3119690.7
2871352.9
2644789
2437871.6
2248695.2
2075553.4
1916917.5
1771417.8
0.0053900679
2.0489454
162.42255
4395.9173
51190.203
311479.83
1163148.8
3023119.1
6014063.3
9825668.6
13883248
17618147
20641334
22779723
24031181
24498369
24331351
23695864
22722018
21529321
20233139
18875951
17521710
16186472
14906036
13696838
12565552
11515025
10544908
9652807.7
8834998
8087022.1
7404067
6781214
6213609.3
5696577.1
5225688.8
4796801.4
4406075
4049975.9
3725270
3429009
3158514.3
2911357.7
2685342.5
2478483.8
2288990.1
2115245.5
1955793.1
1809320.2
1674646.9
0.0036910747
0.95265416
61.369706
1549.0856
18377.644
119451.76
486192.02
1383225.9
2999864.7
5301028.3
8027133
10817466
13345156
15392341
16862209
17754688
18130736
18080456
17705170
17089083
16306642
15435398
14501082
13558106
12615214
11697609
10819921
9989759.5
9210914
8484783.5
7810982.1
7188013.9
6613657.1
6085241.1
5599853.7
5154492.6
4746168.7
4371975.7
4029135.9
3715027.9
3427201.1
3163381.2
2921468.9
2699535
2495812.7
2308688.2
2136690.6
1978481.2
1832843.3
1698672.5
1574971.9
0.0026271605
0.47553631
24.875712
574.56909
6779.463
46074.792
201094.75
619253.94
1453825.3
2767825.4
4484117.7
6415865.1
8340848
10068376
11473475
12500617
13149634
13456195
13474215
13265478
12885820
12382037
11788635
11158282
10504011
9841688.7
9185790.7
8551120.2
7944009.8
7368525.8
6826689.9
6319267.1
5846078.3
5406270.2
4998532.7
4621271.2
4272727
3951065.4
3654440.6
3381040.7
3129117.5
2897005.7
2683134.2
2486032.1
2304330.2
2136760
1982150.6
1839424.4
1707591.8
1585746.1
1473061.9
0.001929628
0.25253543
10.760355
224.33715
2580.1173
17976.715
82791.913
272718.37
687588.15
1403399.6
2426066.6
3681674.2
5044304.8
6378001.6
7570175.2
8547592.7
9277099.9
9757654.6
10009656
10065217
9962014.8
9736188.3
9410797
9021468
8596127.8
8145680.6
7682146.3
7216191.1
6759363.4
6317423.3
5893866.2
5491045.3
5110277.7
4752087.9
4416415.3
4102793.1
3810470.7
3538505.6
3285841.4
3051361.5
2833928.4
2632412.5
2445711.7
2272765.9
2112565
1964155.2
1826640.5
1699184.3
1581007.9
1471388.9
0.0014558165
0.14158016
4.9417548
92.135687
1015.9967
7129.8395
34115.517
118758.84
318758.11
693455.17
1274670.3
2047975.4
2955544.2
3915431.1
4844531.8
5675480.5
6364268.7
6890197.7
7251477.3
7459397.7
7532888.5
7494225.6
7364534.6
7163686.3
6911919.3
6629445.5
6318175.9
5998576.6
5669526
5342941.9
5022839.4
4712581.8
4414463.9
4129961.9
3859915.4
3604706
3364364.6
3138656.1
2927163.8
2729345.3
2544575.7
2372180.9
2211463.2
2061720
1922257.5
1792400.9
1671500.8
1558938.1
1454126.4
1356515.4
0.0011233172
0.083252832
2.3978814
39.749697
414.78103
2886.5898
14141.701
51396.073
145507.95
335195.94
652324.15
1106794.7
1680353.9
2331723.3
3008563.2
3659896.9
4244768.4
4736022.8
5120179.8
5395046.4
5566500.1
5645278.3
5643846.4
5577410.7
5458756.7
5299782.4
5112632.4
4903868.6
4683669.5
4454131.2
4222078.8
3991696.8
3765778.7
3546362.5
3334856.3
3132225.8
2939065.2
2755661.5
2582089.2
2418257.2
2263951.6
2118871
1982653.2
1854896.7
1735177.6
1623061.7
1518114.5
1419908.3
1328027.3
1242074.1
0.00088373932
0.051059652
1.2237608
17.982632
175.7693
1197.0513
5924.2778
22214.268
65706.521
159134.5
326235.14
582625.33
928791.08
1348803.3
1814610.2
2293083.2
2752725.7
3168206.9
3522336.9
3806007.5
4016905.6
4157699.9
4234201
4254461.1
4227428.4
4162200.7
4065047.7
3943060.1
3805982.3
3656241
3497828.1
3334469
3170004.9
3006706.7
2846247.2
2689943.1
2538753.5
2393308.6
2254033.4
2121168.2
1994810.6
1874948.4
1761485.3
1654263.3
1553079.7
1457701.2
1367874.4
1283334.9
1203813.9
1129046.6
0.00070705763
0.032507977
0.65414005
8.5135131
77.358411
509.84785
2518.3634
9633.3763
29485.798
74511.406
160007.73
299602
500219
759116.89
1064179.8
1396873.5
1736285.1
2062770
2360391.9
2618009.3
2829279.5
2991981.5
3107063
3177816.2
3208932.9
3205703.9
3173655.4
3117183.3
3041866.3
2953346.7
2852091.3
2744995
2631333.4
2515144.1
2398086.5
2281646.3
2166980.3
2054889.2
1946026.4
1840851.7
1739679.3
1642706.6
1550035.4
1461694.2
1377653.5
1297839.7
1222146.7
1150444.3
1082586.5
1018419.7
0.00057425335
0.021396121
0.36482579
4.208814
35.36132
223.49273
1090.115
4209.425
13207.828
34554.705
77254.767
150975.64
263170.56
416499.69
607693.18
828158.19
1065844.4
1307533.7
1540848
1755598.3
1944414.4
2102792.4
2228777.8
2322501.8
2385608.9
2420695.5
2430832.7
2419374.4
2390234.3
2345982.5
2288976.6
2224076.5
2151947.1
2074406.8
1993209.5
1910174.8
1826533.9
1743077.8
1660602.9
1579685
1500769.6
1424190.5
1350184.7
1278912.8
1210472.2
1144909.9
1082232.9
1022416.8
965413.48
911159.81
0.00047200202
0.01450843
0.21155363
2.1678877
16.781937
100.97712
481.92052
1860.5465
5930.6897
15938.265
36861.191
74809.071
135639.56
223287.39
338503.63
478472.93
637344.29
807352.42
980114.81
1147752.8
1303659.2
1442882.8
1562201.1
1659984.5
1735923.5
1790702.6
1825690.9
1842718.8
1843898.4
1831542.1
1807296
1773489.7
1732605.8
1684887.9
1633191.3
1577313.4
1519344.9
1459832.1
1399710.1
1339564.1
1279900.1
1221126
1163555.7
1107434.2
1052942.7
1000211.9
949330.11
900351
853300.59
808185.59
0.00039256175
0.010102982
0.12714102
1.1608268
8.2631345
47.069454
218.10751
834.66922
2680.1222
7341.8403
17449.443
36579.697
68700.218
117269.47
184315.2
269834.45
371696.53
486014.41
607809.9
731744.24
852757.2
966515.65
1069659
1159870
1235813.7
1296995.6
1343591.3
1376280
1396097
1404299.3
1402124.1
1391239.6
1372729.3
1347568.1
1317781.1
1283531.8
1246442.5
1206322.2
1164641.3
1121837.8
1078432.7
1034859.2
991456.42
948514.16
906258.34
864871.27
824493.02
785230.21
747160.69
710341.58
0.00032955022
0.0072072443
0.078963005
0.64474595
4.2172244
22.648541
101.2463
381.17681
1223.3614
3390.8145
8227.3969
17715.938
34307.764
60509.568
98338.127
148825.69
211737.49
285567.69
367778.16
455184.72
544373.9
632071.69
715412.2
792095.95
860447.83
919398.76
968420.33
1007436.6
1036724.3
1056821.9
1068421.2
1072391.4
1069568.9
1060875.5
1047030.4
1028745.5
1007295.9
982881.42
956006.12
927265.83
897227.05
866312.73
834836.06
803106.55
771359.02
739801.38
708599.49
677890.78
647784.94
618371.88
0.00027906636
0.005253727
0.050547409
0.37065326
2.228427
11.251033
48.274529
177.64697
565.87252
1575.9401
3878.5763
8529.8837
16950.877
30769.977
51547.786
80459.578
118032.41
164011.22
217376.92
276492.43
339324.3
403682.65
467438.25
528682.68
585832.86
637677.32
683378.96
722447.45
754693.12
780168.82
799117.63
811937.77
819097.68
821118.94
818569.99
812001.16
801877.35
789005.49
773463.37
756005.08
736618.44
715961
694254.82
671833.79
648900.32
625673.81
602321.61
578994.8
555817.25
532896.57
0.00023824325
0.0039049314
0.033269881
0.22008945
1.2176256
5.7693314
23.665732
84.663061
266.00275
739.58234
1834.8541
4098.0809
8315.6317
15470.858
26625.323
42746.24
64525.196
92237.919
125679.11
164180.13
206695.16
251928.27
298472.3
344935.53
390041.16
432697.03
472028.93
507392.74
538364.87
564718.51
586394.74
603477.19
616149.06
624668.44
629347.54
630515.83
628564.01
623881.92
616626.55
607465.36
596300.89
583832.34
569869.74
554973.14
539234.34
522898.55
506104.82
489009.3
471733.83
454392.06
0.00020480003
0.0029557391
0.022465851
0.13471674
0.68704773
3.0525238
11.93586
41.327085
127.3856
351.54027
874.06588
1971.6811
4064.8687
7717.0918
13593.397
22379.358
34676.511
50899.523
71200.286
95434.729
123174.98
153758.88
186362.54
220080.67
254001.84
287270.34
319130.86
348955.16
376255.55
400681.51
422011.54
440139.14
455054.32
466824.34
475576.78
481482.74
484755.91
485588.36
484241.13
480964.27
475836.22
469355.94
461382.52
452465.11
442401.93
431617.19
420156.15
408193.65
395829.19
383176.71
0.00017711175
0.0022724755
0.01553346
0.084839933
0.39977098
1.6654084
6.1950556
20.687477
62.274259
169.69959
420.6073
953.23705
1986.8653
3832.0834
6882.0525
11580.392
18368.884
27625.233
39604.552
54397.358
71911.592
91879.629
113886.07
137408.91
161866.07
186660.27
211217.49
235016.45
257608.23
278626.88
297792.44
314907.8
329851.57
342571.26
353069.53
361395.48
367635.78
371896.49
374316.86
375014.04
374159.84
371928.66
368350.69
363786.38
358107.77
351713.54
344441.25
336596.97
328209.59
319403.21
0.00015401909
0.0017738791
0.010976506
0.054873614
0.23953412
0.93620033
3.3090114
10.628755
31.129226
83.390852
205.04181
464.58783
974.3896
1900.8219
3466.6198
5941.3481
9618.8952
14784.822
21679.58
30464.904
41199.932
53830.764
68193.901
84031.449
101014.28
118768.93
136904.43
155036.2
172805.34
189892.6
206027.06
220990.25
234615.95
246788.27
257437.57
266534.23
274082.68
280113.91
284683.19
287856.74
289725.08
290360.46
289877.05
288402.07
285929.05
282718.69
278672.21
274069.49
268793.87
263059.08
0.00013475438
0.0014028452
0.0079145036
0.036388318
0.14757969
0.54175988
1.8184936
5.6077497
15.931503
41.796674
101.51722
228.93797
480.98871
944.97706
1743.1662
3032.0255
4994.4125
7824.674
11708.64
16801.891
23210.197
30975.553
40069.705
50395.446
61794.667
74061.241
86956.496
100225.2
113610.38
126865.88
139766.06
152112.52
163738.02
174507.8
184319.7
193102.46
200812.51
207430.47
212958.25
217414.19
220832.61
223254.29
224736.38
225339.86
225110.3
224155.74
222456.49
220194.81
217304.87
213976.01
0.00011837196
0.0011233172
0.0058127731
0.024699356
0.093364568
0.32240205
1.0277803
3.0390115
8.3556987
21.401674
51.158521
114.36757
239.70294
472.34759
877.88731
1544.1157
2579.4459
4107.2273
6256.2174
9148.442
12886.301
17541.007
23144.198
29683.708
37103.716
45308.825
54171.099
63538.892
73246.309
83122.348
92998.993
102717.84
112135.08
121124.87
129580.99
137417.84
144570.02
150990.87
156651
161536.22
165645.93
168990.15
171589.86
173472.77
174669.27
175222.73
175157.86
174549.66
173386.77
171788.55
0.00010437953
0.00090984597
0.0043442049
0.017135586
0.060565694
0.19709498
0.59704921
1.6916599
4.4938818
11.209452
26.289154
58.054737
120.92946
238.10378
444.20143
787.27185
1329.3398
2144.8787
3316.9436
4931.2051
7068.6117
9797.6857
13167.588
17202.954
21901.032
27231.307
33137.418
39540.904
46346.169
53446.037
60727.329
68076.036
75381.769
82541.338
89461.395
96060.087
102268.19
108029.38
113299.85
118047.61
122251.7
125900.95
128993.19
131533.54
133532.85
135008.33
135978.11
136470.8
136500.95
136120.73
9.2480588e-05
0.00074450286
0.0032981519
0.012133044
0.040231832
0.12364153
0.35623206
0.96703449
2.4792972
6.011204
13.796515
30.005127
61.911185
121.37703
226.49758
403.11212
685.78779
1117.8657
1750.266
2638.9599
3841.2818
5411.4947
7396.1481
9829.8619
12732.08
16105.093
19933.48
24184.891
28811.966
33755.064
38945.482
44308.819
49768.24
55247.413
60673.014
65976.707
71096.554
75978.087
80574.85
84848.506
88768.678
92312.615
95464.728
98215.83
100562.4
102506.09
104052.41
105211.55
105994.49
106421.11
8.2178037e-05
0.00061512801
0.0025416507
0.0087568383
0.027329813
0.079500975
0.21813134
0.56748598
1.4033237
3.3026564
7.4030732
15.816458
32.233702
62.727548
116.70754
207.91112
355.24699
583.26611
922.04587
1406.3411
2073.9735
2963.5686
4111.8694
5550.9162
7305.4518
9390.8459
11811.72
14561.373
17622.004
20965.627
24555.532
28348.106
32294.841
36344.353
40444.293
44543.056
48591.216
52542.643
56355.406
59992.357
63421.471
66615.903
69553.964
72218.917
74598.665
76685.422
78475.235
79967.772
81165.547
82075.39
7.3103248e-05
0.00051254099
0.0019859724
0.0064341998
0.018961817
0.052337694
0.1369565
0.34168623
0.81484127
1.859789
4.0652942
8.514843
17.098065
32.937729
60.924044
108.31563
185.32902
305.60612
486.43477
748.6095
1115.8613
1613.8485
2268.7742
3105.7511
4147.076
5410.6158
6908.4638
8645.9794
10621.282
12825.21
15241.709
17848.574
20618.457
23520.034
26519.237
29580.477
32667.778
35745.789
38780.635
41740.604
44596.699
47323.033
49896.953
52299.187
54513.824
56528.229
58332.88
59921.212
61289.409
62437.003
6.5323937e-05
0.00043076078
0.0015710219
0.004806208
0.013422166
0.035237931
0.088092042
0.21095897
0.4852545
1.0735894
2.2860353
4.6867141
9.2542245
17.606677
32.293845
57.144986
97.64213
161.26909
257.77156
399.25912
600.08938
876.4984
1245.9757
1726.4203
2335.1413
3087.7943
3997.3687
5073.31
6320.8502
7740.5924
9328.3689
11075.36
12968.445
14990.733
17122.223
19340.547
21621.726
23940.916
26273.099
28593.703
30879.107
33107.117
35257.3
37311.176
39252.402
41066.849
42742.627
44270.064
45641.7
46852.762
5.8567929e-05
0.00036450775
0.001258607
0.0036480251
0.0096816543
0.024237757
0.057995999
0.13346161
0.29626498
0.63530839
1.3169114
2.6396076
5.1171272
9.5966278
17.416395
30.601436
52.086862
85.948449
137.60992
213.98957
323.5478
476.20348
683.10019
956.22195
1307.8779
1750.0881
2293.9246
2948.8706
3722.2439
4618.7303
5640.0602
6784.8423
8048.5562
9423.6926
10900.017
12464.932
14103.904
15800.93
17539.012
19300.619
21068.122
22824.155
24552
26235.838
27860.973
29413.996
30882.903
32257.184
33527.911
34688.193
5.2683181e-05
0.00031087656
0.0010186237
0.002809447
0.0071083568
0.017013427
0.039041193
0.086454984
0.18535458
0.38532881
0.7773176
1.5220951
2.893529
5.340804
9.5730585
16.667548
28.198776
46.381034
74.210909
115.59158
175.41722
259.59617
374.99507
529.29362
730.74927
987.882
1309.0949
1702.2645
2174.3313
2730.9201
3376.0161
4111.7202
4938.0942
5853.1022
6852.6437
7930.6709
9079.3746
10289.424
11550.244
12850.309
14177.447
15519.129
16862.741
18195.847
19506.397
20782.934
22014.717
23191.875
24305.534
25348.255
4.742621e-05
0.00026690463
0.00083310685
0.0021941552
0.005308775
0.012176822
0.02685
0.05730273
0.11876724
0.2394752
0.4701367
0.89896195
1.674424
3.0382252
5.3706791
9.2500437
15.525686
25.402712
40.532828
63.102991
95.91095
142.41528
206.74772
293.67777
408.52349
557.008
745.06555
978.60662
1263.2617
1604.1181
2005.4688
2470.5886
3001.5527
3599.1071
4262.5952
4989.942
5777.693
6621.1016
7514.2561
8450.238
9421.3019
10419.065
11434.703
12459.14
13483.222
14497.896
15494.356
16464.171
17399.442
18293.191
4.2918931e-05
0.00023037855
0.00068807162
0.0017355039
0.0040267624
0.0088771531
0.018848534
0.038829961
0.077893971
0.15244425
0.29133822
0.54391263
0.99214086
1.7682294
3.0790759
5.2387348
8.7094454
14.150731
22.474791
34.904588
53.029551
78.852338
114.81946
163.82869
229.20749
314.65888
424.17374
561.91095
732.05186
938.63858
1185.4041
1475.6052
1811.8687
2196.0591
2629.1753
3111.2806
3641.4677
4217.8591
4837.6399
5497.1204
6191.8218
6916.5812
7665.6695
8432.9168
9211.8416
9995.7688
10777.963
11551.736
12310.587
13048.544
3.8805885e-05
0.00020010431
0.00057365891
0.0013896542
0.0031033496
0.0065872209
0.013495084
0.026882051
0.05226003
0.099358848
0.18494044
0.3371641
0.60216363
1.0535606
1.8057456
3.0317135
4.985968
8.0326808
12.678562
19.609197
29.726449
44.18392
64.416474
92.159549
129.45429
178.63479
242.29541
323.23705
424.39283
548.73765
699.18509
878.47717
1089.0732
1333.0437
1611.9754
1926.8918
2278.1927
2665.6159
3088.2196
3544.3887
4031.8593
4547.7628
5088.6841
5650.7323
6229.619
6820.741
7419.2669
8020.2199
8618.5765
3.5213778e-05
0.00017468697
0.0004826775
0.0011263466
0.0024247649
0.0049698445
0.009846997
0.018998195
0.035844557
0.066276317
0.12023328
0.2141295
0.37445338
0.64299879
1.08416
1.7947816
2.9170036
4.6543153
7.2908197
11.213303
16.935175
25.120823
36.608509
52.429355
73.819988
102.22627
139.29607
186.8596
246.89618
321.48834
412.76486
522.83467
653.7148
807.25612
985.07034
1188.4621
1418.3692
1675.314
1959.3669
2270.1245
2606.7019
2967.7382
3351.4157
3755.4906
4177.3331
4613.9755
5062.1676
5518.4489
5979.3109
3.1978147e-05
0.00015341172
0.00040950454
0.00092332943
0.0019218173
0.0038109895
0.0073169445
0.013699715
0.02512182
0.0452252
0.080034846
0.13931547
0.23861049
0.40213377
0.66684295
1.0879518
1.7461653
2.7568617
4.2813326
6.5399771
9.8272026
14.527312
21.130593
30.248291
42.625092
59.147595
80.847169
108.89601
144.59521
189.3542
244.66227
312.05214
393.05736
489.16487
601.76503
732.10137
881.2222
1049.9364
1238.7751
1447.9613
1677.3872
1926.6018
2194.807
2480.8636
2783.3051
3100.3606
3429.9842
3769.9018
4117.7336
2.9159632e-05
0.00013539733
0.00034996824
0.00076447506
0.0015429423
0.0029682509
0.0055337679
0.010072394
0.017980841
0.031558724
0.054531574
0.092850222
0.15582758
0.2578037
0.42043272
0.67583556
1.0706921
1.6715601
2.5714171
3.8975325
5.8205971
8.564796
12.418546
17.745196
24.993025
34.703576
47.517452
64.17657
85.522031
112.48684
146.08328
187.38476
237.50246
297.55753
368.64951
451.82257
548.03066
658.10316
782.71231
922.34406
1077.273
1247.5428
1432.9523
1633.048
1847.1232
2074.223
2313.1568
2562.5224
2820.7885
2.6637815e-05
0.0001202503
0.00030171319
0.00064020916
0.001254907
0.0023479002
0.0042593697
0.0075480876
0.013137636
0.022509956
0.038026597
0.063385982
0.10430752
0.16947075
0.27185836
0.43055596
0.67313862
1.0387514
1.5819689
2.3775007
3.5257393
5.1590929
7.4489282
10.612858
14.922
20.707741
28.367404
38.368277
51.249373
67.620283
88.156784
113.59288
144.70914
182.3175
227.2428
280.30167
342.27938
413.90555
495.82971
588.59744
692.62828
808.19601
935.41216
1074.2133
1224.3523
1385.3947
1556.7192
1737.5284
1926.901
2.4409279e-05
0.00010729815
0.00026225627
0.00054175319
0.0010336503
0.0018843639
0.0033327708
0.0057635318
0.0097965673
0.016410214
0.027133227
0.044322924
0.071573227
0.11426802
0.18037743
0.28150981
0.43432603
0.66235604
0.99830443
1.486881
2.1881896
3.1816904
4.5706377
6.4869132
9.096059
12.602279
17.253068
23.343141
31.217269
41.271599
53.953111
69.756857
89.220887
112.9186
141.44868
175.42265
215.45053
262.12477
316.0032
377.59146
447.32559
525.55532
612.52883
708.37936
813.11423
926.60669
1048.5912
1178.6652
1316.3222
2.244717e-05
9.6169612e-05
0.00022947381
0.00046279983
0.00086195262
0.0015345678
0.0026510233
0.0044825792
0.00745288
0.012224555
0.019810538
0.031750554
0.050359146
0.079059004
0.12287125
0.18903789
0.2878751
0.43387471
0.64708992
0.95487783
1.3939901
2.0130411
2.8753697
4.0621941
5.6760224
7.8441922
10.722352
14.497704
19.391752
25.662314
33.604498
43.550448
55.867602
70.95531
89.239732
111.167
137.19472
167.78197
203.37803
244.41027
291.27135
344.30651
403.80089
469.96787
542.93837
622.75178
709.34904
802.57025
902.17452
2.0684549e-05
8.6826391e-05
0.00020240933
0.00039941168
0.00072799
0.0012685543
0.002144509
0.0035511109
0.0057862097
0.0093065359
0.014801334
0.02330343
0.036341394
0.056154689
0.085986251
0.13048231
0.19620406
0.29231168
0.43142975
0.63071911
0.91319806
1.3093046
1.8587376
2.6125297
3.6353433
5.0079137