/*--------------------------------*- C++ -*----------------------------------*\
| =========                 |                                                 |
| \\      /  F ield         | OpenFOAM: The Open Source CFD Toolbox           |
|  \\    /   O peration     | Version:  2312                                  |
|   \\  /    A nd           | Website:  www.openfoam.com                      |
|    \\/     M anipulation  |                                                 |
\*---------------------------------------------------------------------------*/
FoamFile
{
    version     2.0;
    format      ascii;
    arch        "LSB;label=32;scalar=64";
    class       volScalarField;
    location    "0.09";
    object      T;
}
// * * * * * * * * * * * * * * * * * * * * * * * * * * * * * * * * * * * * * //

dimensions      [0 0 0 1 0 0 0];

internalField   nonuniform List<scalar> 
3275
(
998.59909
988.00983
970.31788
948.37082
924.40721
900.52152
877.15366
854.68212
833.23492
812.91557
793.71511
778.67341
763.13657
748.82993
735.79187
723.8989
713.01861
703.02145
693.79557
685.2472
677.29806
669.88104
662.93802
656.41984
650.28405
644.4939
639.01731
633.82618
628.89577
624.20418
619.73198
615.46179
611.37807
607.46682
603.71542
600.11244
596.64747
593.31104
590.09449
586.98986
583.98986
581.08772
578.27723
575.55261
572.90848
570.33987
567.84209
565.41078
563.04185
560.73144
558.47594
556.27193
997.9203
984.49486
965.91766
943.88166
920.31377
897.15749
874.38671
852.42357
831.37388
811.3775
792.44506
777.57592
762.21399
748.04741
735.12098
723.3184
712.51199
702.57577
693.4006
684.89479
676.98166
669.59534
662.67871
656.18336
650.06746
644.29473
638.83349
633.65596
628.73765
624.05689
619.59441
615.33298
611.25718
607.35313
603.60828
600.01128
596.5518
593.22041
590.00851
586.90817
583.91213
581.01368
578.20661
575.48517
572.84402
570.27818
567.783
565.35413
562.98748
560.67922
558.42574
556.22364
995.65353
976.40406
956.3988
934.51933
911.95099
890.42814
868.91128
847.93323
827.67051
808.31656
789.91658
775.38821
760.37836
746.4888
733.78393
722.161
711.50154
701.6866
692.61237
684.19132
676.34992
669.0248
662.16078
655.71095
649.63472
643.89675
638.46615
633.31576
628.42162
623.76246
619.31938
615.07544
611.01547
607.12579
603.39403
599.809
596.36047
593.03916
589.83653
586.74475
583.75664
580.86554
578.06531
575.35023
572.71501
570.15472
567.66473
565.24072
562.87864
560.57467
558.32523
556.12695
989.42926
960.60738
940.56835
919.79168
899.15015
880.46586
860.81052
841.28034
822.18112
803.77705
786.16271
772.13165
757.65267
744.1699
731.79242
720.43564
709.99421
700.35938
691.43522
683.14026
675.40567
668.17172
661.38612
655.0042
648.98716
643.30109
637.91625
632.80641
627.94837
623.32151
618.90744
614.68966
610.65336
606.78518
603.07301
599.50587
596.07376
592.76751
589.57877
586.49982
583.52357
580.64348
577.85347
575.14792
572.52159
569.9696
567.48738
565.07065
562.71541
560.41787
558.17449
555.98191
969.44666
933.22277
914.76052
899.12213
882.88595
866.48496
850.00088
832.57123
814.98572
797.82111
781.23093
767.83622
754.06821
741.11264
729.16293
718.15503
707.99992
698.60192
689.87533
681.74658
674.15292
667.0394
660.35746
654.06539
648.1267
642.50937
637.18516
632.12908
627.31894
622.73494
618.35936
614.17632
610.17146
606.33184
602.6457
599.10235
595.69203
592.40582
589.23554
586.17364
583.21317
580.34772
577.57132
574.87844
572.26393
569.72299
567.2511
564.84407
562.49793
560.20894
557.97361
555.78863
890.50313
884.56572
881.21583
874.16795
864.27639
851.50768
837.06009
822.47684
806.70006
790.95321
775.53617
762.84785
749.91734
737.56207
726.10378
715.49797
705.67354
696.54957
688.05197
680.11616
672.68632
665.71297
659.15181
652.96452
647.1173
641.58027
636.32695
631.33375
626.57966
622.04583
617.71537
613.57302
609.60502
605.79889
602.14327
598.62783
595.2431
591.98042
588.83181
585.78993
582.848
579.99974
577.23932
574.56133
571.96071
569.43275
566.97301
564.57737
562.24192
559.963
557.73714
555.56108
736.57078
823.30555
843.53701
846.98404
843.03245
834.75066
823.33203
811.10617
797.62955
783.41703
769.28655
757.33749
745.3397
733.63929
722.71877
712.55385
703.09269
694.27024
686.02502
678.30219
671.05345
664.23523
657.80792
651.73684
645.99116
640.54334
635.36882
630.44557
625.75386
621.27591
616.99569
612.8987
608.97179
605.20301
601.58145
598.09715
594.74098
591.50455
588.38014
585.36062
582.43939
579.61034
576.86779
574.20643
571.62133
569.10787
566.66172
564.27882
561.95533
559.68765
557.47238
555.30631
600.48014
750.41956
798.22135
814.96327
818.5206
815.27299
807.88889
798.06033
786.95308
774.70833
762.07504
750.92377
740.00047
729.06545
718.76501
709.10928
700.06856
691.59586
683.644
676.16921
669.13174
662.49478
656.22405
650.28912
644.66249
639.31939
634.23743
629.39642
624.7781
620.36591
616.14487
612.10132
608.22285
604.49811
600.91672
597.46917
594.14671
590.94129
587.84546
584.85235
581.95559
579.14924
576.42779
573.7861
571.21935
568.72305
566.29297
563.92513
561.61578
559.36141
557.15867
555.00442
507.24594
677.81661
749.1767
779.44167
791.35142
793.64804
790.37492
783.7142
774.79542
764.75585
753.94037
743.6217
733.83461
723.82781
714.22686
705.14779
696.58448
688.50992
680.89285
673.70178
666.90645
660.47762
654.38697
648.6088
643.11946
637.89723
632.92223
628.17632
623.64293
619.30691
615.15444
611.17287
607.35059
603.67697
600.14223
596.73736
593.45407
590.28469
587.22209
584.2597
581.39139
578.61146
575.91457
573.29577
570.7504
568.27407
565.8627
563.5124
561.21954
558.98067
556.79253
554.65204
447.39227
612.68039
699.44562
741.83544
762.04507
770.18618
771.16786
767.83405
761.58644
753.48811
744.7358
735.61241
726.83592
717.91224
709.093
700.65619
692.62612
684.99764
677.75676
670.88533
664.36346
658.17015
652.28365
646.68351
641.35027
636.26565
631.41257
626.77516
622.33876
618.08979
614.01576
610.1051
606.34717
602.73212
599.25086
595.89495
592.6566
589.52857
586.50413
583.57702
580.7414
577.99182
575.32317
572.73069
570.20988
567.75653
565.36668
563.03657
560.76268
558.54164
556.37031
554.24567
408.79709
558.07179
651.69967
703.53453
731.33614
745.21453
750.59327
750.60282
747.17455
741.30541
734.39507
726.8859
719.07654
711.25021
703.35804
695.62506
688.18192
681.04624
674.22242
667.70643
661.48947
655.55937
649.90149
644.50107
639.34326
634.4135
629.69779
625.18278
620.8559
616.70532
612.72001
608.88964
605.2046
601.65594
598.23532
594.93496
591.74763
588.66657
585.68548
582.79847
580.00001
577.28495
574.64843
572.08589
569.59304
567.16585
564.8005
562.49338
560.24109
558.04038
555.88819
553.78162
383.24158
513.98151
607.80472
665.8488
700.01114
719.2058
728.87065
732.31909
731.64759
728.24622
723.13746
717.20611
710.72722
703.83396
697.0101
690.049
683.2434
676.64534
670.27833
664.153
658.2722
652.63302
647.22842
642.04972
637.08701
632.32977
627.76731
623.38902
619.18461
615.14418
611.25828
607.51794
603.91471
600.44061
597.08813
593.85024
590.7203
587.69212
584.75984
581.918
579.16142
576.48527
573.88497
571.35621
568.89492
566.49725
564.15956
561.87841
559.65051
557.47276
555.3422
553.25604
365.7567
478.95385
568.72578
629.85345
668.83354
692.66149
706.33093
713.13984
715.26399
714.22098
711.13707
706.72416
701.60089
695.86671
689.98325
683.9292
677.80552
671.78719
665.91506
660.21459
654.70062
649.3798
644.25311
639.31824
634.57052
630.00373
625.61071
621.38381
617.3152
613.39703
609.62159
605.98139
602.46923
599.07819
595.80169
592.63347
589.5676
586.59846
583.72073
580.92938
578.21965
575.58703
573.02727
570.53633
568.11037
565.74578
563.43909
561.18703
558.98648
556.83448
554.72818
552.66492
353.38045
451.19428
534.6866
596.30498
638.47703
666.07577
683.31988
693.29015
698.14877
699.43717
698.32929
695.60329
691.78354
687.29817
682.36289
677.20646
671.86649
666.46693
661.12553
655.8826
650.76514
645.78956
640.96509
636.29607
631.78328
627.42501
623.21785
619.15727
615.23806
611.45457
607.80096
604.27133
600.8598
597.56063
594.36823
591.2772
588.28235
585.37871
582.56151
579.82623
577.16853
574.5843
572.06961
569.62073
567.2341
564.90631
562.63413
560.41447
558.24439
556.12107
554.04181
552.00408
344.32511
429.07381
505.42819
565.63301
609.47869
639.90175
660.18053
673.01919
680.45979
684.02187
684.85307
683.79816
681.41245
678.08842
674.22544
669.91954
665.39534
660.68294
655.90527
651.15055
646.4579
641.85352
637.35501
632.9735
628.71543
624.58376
620.57897
616.6998
612.94379
609.30765
605.78749
602.37911
599.07807
595.87987
592.77997
589.77391
586.85729
584.02583
581.27541
578.602
576.00176
573.47099
571.00612
568.60375
566.2606
563.97355
561.73957
559.5558
557.41946
555.32792
553.27862
551.26918
337.49025
411.2754
480.44528
537.9879
582.21792
614.52487
637.23435
652.5756
662.38331
668.09543
670.8247
671.40247
670.44774
668.3721
665.51484
662.16046
658.39359
654.41788
650.25268
646.01431
641.77294
637.56444
633.41475
629.34187
625.35797
621.47079
617.68481
614.00218
610.4233
606.94731
603.57243
600.2962
597.11573
594.02781
591.02906
588.11598
585.28505
582.53273
579.85554
577.25005
574.71292
572.24088
569.83078
567.47957
565.18428
562.94206
560.75015
558.6059
556.50675
554.45024
552.43398
550.45573
332.1833
396.78674
459.15123
513.31454
556.91979
590.24672
614.76552
632.19609
644.10634
651.80334
656.33598
658.51585
658.95494
658.12105
656.34333
653.87621
650.95447
647.65564
644.15778
640.47232
636.70644
632.91692
629.13768
625.3937
621.70285
618.07769
614.52677
611.05571
607.66787
604.36492
601.14723
598.01421
594.96456
591.99645
589.10769
586.29584
583.55826
580.89223
578.29496
575.76364
573.29545
570.88764
568.53746
566.24224
563.99935
561.80625
559.66046
557.55955
555.50119
553.4831
551.50309
549.5591
327.95807
384.84568
440.97237
491.42694
533.67589
567.27989
593.00981
612.0955
625.80903
635.29131
641.50111
645.20907
647.01673
647.38676
646.68547
645.1639
643.02922
640.48472
637.59684
634.51855
631.25697
627.90751
624.51882
621.12287
617.74317
614.39702
611.09702
607.85232
604.6693
601.55223
598.5037
595.52502
592.61656
589.77791
587.00816
584.30593
581.66956
579.09716
576.58668
574.13596
571.74277
569.40485
567.11992
564.88571
562.69996
560.56044
558.46496
556.41137
554.39755
552.42145
550.48106
548.5745
324.52095
374.88389
425.39196
472.06946
512.47387
545.75258
572.14894
592.45911
607.65799
618.70052
626.43492
631.57243
634.68844
636.2388
636.58166
636.00074
634.70247
632.86157
630.65089
628.12727
625.42037
622.53501
619.555
616.52486
613.47336
610.42243
607.38866
604.38472
601.42006
598.50156
595.63406
592.82084
590.06397
587.36453
584.72288
582.13882
579.61166
577.14039
574.72374
572.36023
570.04825
567.78606
565.57189
563.40387
561.28014
559.19882
557.15803
555.15588
553.19051
551.2601
549.36284
547.49701
321.67382
366.47955
411.96955
454.96078
493.22837
525.71978
552.31025
573.43793
589.80092
602.16313
611.24943
617.69724
622.04225
624.72206
626.08834
626.42155
625.95414
624.85969
623.28297
621.37053
619.17248
616.79586
614.24506
611.59687
608.88935
606.14889
603.39588
600.64654
597.91335
595.20582
592.53107
589.89433
587.29941
584.74892
582.24455
579.78726
577.3774
575.01488
572.69922
570.42967
568.20525
566.0248
563.88702
561.79054
559.73389
557.71554
555.73394
553.78752
551.87466
549.99379
548.14332
319.27929
359.31673
400.34184
439.82381
475.8084
507.17795
533.57062
555.147
572.36289
585.79856
596.05071
603.67327
609.15155
612.89514
615.24282
616.4734
616.8159
616.46134
615.55626
614.21935
612.57537
610.66996
608.58459
606.33805
603.98875
601.57283
599.11413
596.63247
594.1433
591.65874
589.18814
586.73871
584.31598
581.92411
579.56616
577.24426
574.95985
572.71376
570.50635
568.33761
566.20722
564.11462
562.05904
560.03956
558.05516
556.1047
554.18695
552.30066
550.44451
548.61716
546.81731
317.23961
353.15613
390.21345
426.40526
460.05966
490.08013
515.96322
537.66634
555.44447
569.71076
580.93614
589.58644
596.08902
600.81843
604.09492
606.18903
607.32709
607.69677
607.45493
606.72704
605.60961
604.2093
602.55853
600.74226
598.77104
596.69234
594.54024
592.33841
590.10508
587.85495
585.59949
583.34786
581.10733
578.88361
576.68111
574.50319
572.35236
570.2304
568.13854
566.07753
564.04772
562.04918
560.08167
558.1448
556.23795
554.36039
552.51128
550.68966
548.89453
547.12481
545.37945
315.48347
347.81433
381.3443
414.48342
445.82597
474.35148
499.48578
521.04395
539.12158
553.98652
565.99223
575.51678
582.92582
588.55401
592.69725
595.61207
597.5175
598.59837
599.00925
598.87928
598.3186
597.40826
596.20357
594.80286
593.2277
591.50744
589.67262
587.76166
585.79507
583.79013
581.76024
579.71647
577.66781
575.62151
573.58332
571.55783
569.54864
567.55849
565.58947
563.64312
561.7205
559.82228
557.94881
556.1002
554.27629
552.47677
550.70117
548.94887
547.21918
545.51129
543.8244
313.95767
343.14901
373.53891
403.86562
432.96069
459.90697
484.11297
505.30174
523.44716
538.69548
551.29456
561.53881
569.73188
576.16488
581.10471
584.78921
587.42612
589.19411
590.2451
590.70733
590.68786
590.282
589.543
588.54761
587.36115
586.0066
584.51128
582.90105
581.21098
579.46118
577.66661
575.84018
573.99261
572.13263
570.26735
568.40254
566.54289
564.69211
562.85318
561.0284
559.21954
557.42793
555.6545
553.89986
552.16435
550.44806
548.75093
547.0727
545.41297
543.77123
312.62173
339.04844
366.63761
394.38542
421.32775
446.66001
469.80891
490.44638
508.4588
523.89474
536.91042
547.72302
556.57566
563.71436
569.37381
573.76968
577.09502
579.51934
581.18939
582.23091
582.75091
582.83689
582.56746
582.00037
581.19293
580.20597
579.03792
577.75719
576.35193
574.86641
573.316
571.71569
570.07783
568.41264
566.72848
565.0323
563.32988
561.62587
559.92412
558.22773
556.53918
554.86044
553.19303
551.5381
549.89646
548.26866
546.65502
545.05564
543.47048
541.89935
311.44425
335.42388
360.50938
385.89952
410.80237
434.52401
456.53089
476.47493
494.18447
509.63323
522.9009
534.13569
543.5235
551.26539
557.56215
562.60479
566.56899
569.61255
571.87469
573.47671
574.52305
575.10201
575.28966
575.15153
574.74277
574.10717
573.28997
572.31354
571.21757
570.00574
568.70723
567.34091
565.9207
564.45819
562.96287
561.44289
559.90506
558.35497
556.79732
555.23598
553.67415
552.11447
550.55902
549.0095
547.46722
545.93315
544.40804
542.89235
541.38639
539.89032
310.40048
332.20407
355.04616
378.28482
401.27118
423.414
444.23065
463.37523
480.64217
495.95093
509.31996
520.83803
530.63872
538.87973
545.72765
551.3473
555.89507
559.51494
562.33665
564.47524
566.03138
567.09201
567.73253
568.01793
568.00304
567.74007
567.26142
566.59838
565.79981
564.87458
563.84059
562.71513
561.51963
560.26703
558.96769
557.63095
556.26471
554.87535
553.46841
552.04857
550.61972
549.18513
547.74749
546.30901
544.8715
543.43641
542.00485
540.57769
539.15558
537.73902
309.47064
329.33118
350.15829
371.4356
392.63195
413.24797
432.85602
451.12693
467.84007
482.87851
496.21376
507.88543
517.98078
526.61719
533.92778
540.05078
545.122
549.27008
552.61363
555.25988
557.30435
558.83107
559.91369
560.61643
560.99513
561.09543
560.96312
560.62641
560.11995
559.47978
558.70387
557.83912
556.8744
555.83823
554.74125
553.59416
552.40603
551.18376
549.93383
548.66163
547.37176
546.0681
544.75394
543.43202
542.10462
540.77364
539.44062
538.1068
536.77318
535.44058
308.63873
326.75784
345.77095
365.26097
384.79305
403.94792
422.35247
439.7029
455.77731
470.43724
483.62022
495.32666
505.60448
514.53468
522.21883
528.76889
534.29967
538.92341
542.74635
545.86665
548.37338
550.34634
551.8564
552.96606
553.7301
554.19557
554.40496
554.39143
554.19214
553.82949
553.31967
552.70361
551.98349
551.17237
550.28312
549.33129
548.32735
547.27797
546.19086
545.07208
543.92686
542.75972
541.57449
540.37445
539.16235
537.94053
536.71094
535.4752
534.23464
532.99044
307.89163
324.44485
341.82131
359.68269
377.67262
395.44052
412.66456
429.07063
444.44503
458.63944
471.56871
483.2034
493.55919
502.68549
510.65498
517.55463
523.47838
528.52166
532.77749
536.33392
539.27255
541.66782
543.58682
545.08956
546.22921
547.0525
547.60096
547.91024
548.01053
547.93401
547.6984
547.32834
546.84941
546.26108
545.59429
544.84223
544.02836
543.15678
542.23782
541.27776
540.28246
539.25709
538.20596
537.13288
536.04107
534.93327
533.81186
532.67881
531.53582
530.38438
307.21846
322.35952
338.2563
354.6332
371.19772
387.65747
403.73716
419.19368
433.82752
447.48916
460.08019
471.5498
481.88823
491.11843
499.28757
506.45953
512.7082
518.11227
522.75112
526.70205
530.03831
532.82808
535.13385
537.0123
538.51439
539.68555
540.56627
541.19208
541.59418
541.80186
541.83617
541.72468
541.48237
541.12115
540.6687
540.12447
539.51063
538.82008
538.07419
537.27758
536.43698
535.55821
534.64598
533.70465
532.73782
531.7487
530.74001
529.71413
528.67306
527.61863
306.61016
320.47436
335.03079
350.05402
365.30347
380.53561
395.51641
410.03302
423.90345
436.98311
449.16769
460.39241
470.6284
479.87719
488.16429
495.53286
502.03816
507.74268
512.7122
517.01288
520.70908
523.86202
526.52886
528.7623
530.61038
532.11654
533.31989
534.25528
534.95373
535.4433
535.74776
535.89061
535.88923
535.76287
535.52413
535.18416
534.76514
534.26834
533.70087
533.07165
532.38987
531.66212
530.89311
530.08794
529.25048
528.38439
527.49274
526.57826
525.64329
524.68997
306.05907
318.76606
332.10622
345.89437
359.93217
374.01687
387.95038
401.54817
414.64713
427.11159
438.83688
449.75032
459.80967
468.99986
477.32848
484.82092
491.51554
497.45966
502.70589
507.30922
511.32484
514.80651
517.80552
520.36999
522.54448
524.36987
525.8834
527.11869
528.10607
528.87278
529.44305
529.83917
530.08004
530.18327
530.16348
530.0354
529.8089
529.50152
529.11362
528.66137
528.14174
527.56911
526.94693
526.282
525.57782
524.8388
524.06818
523.26908
522.44415
521.59582
305.55869
317.21475
329.44943
342.11
355.03251
368.04808
380.98957
393.69816
406.02965
417.85954
429.0868
439.63558
449.45519
458.5184
466.8186
474.36626
481.18508
487.30858
492.77692
497.63426
501.92657
505.69994
508.9994
511.86801
514.3464
516.47239
518.28089
519.80384
521.07038
522.1069
522.93719
523.58292
524.06327
524.39562
524.59523
524.67608
524.65057
524.53157
524.3233
524.0444
523.69035
523.28108
522.80803
522.28727
521.71964
521.11138
520.46535
519.78532
519.07405
518.33436
305.10347
315.80336
327.03177
338.66223
350.55882
362.58075
374.58722
386.44232
398.01986
409.20761
419.91069
430.05369
439.58147
448.45858
456.66768
464.20716
471.08836
477.33266
482.96887
488.0309
492.55573
496.58178
500.14758
503.29089
506.048
508.45327
510.53888
512.33471
513.86829
515.16488
516.24747
517.13701
517.85247
518.411
518.82802
519.11753
519.29242
519.36209
519.33896
519.23247
519.04524
518.79515
518.47537
518.10602
517.67667
517.20282
516.68432
516.12669
515.53235
514.90462
304.68861
314.51714
324.82836
335.51712
346.47041
357.57071
368.69949
379.74089
390.58537
401.1331
411.29687
421.00425
430.19873
438.83997
446.90305
454.37704
461.26311
467.57235
473.32351
478.54111
483.25362
487.49195
491.2882
494.67462
497.68293
500.34372
502.68615
504.73764
506.52384
508.0685
509.39354
510.51906
511.46341
512.24339
512.87423
513.36977
513.74258
514.00354
514.16379
514.23045
514.21393
514.12259
513.95763
513.7355
513.44866
513.11561
512.72608
512.29413
511.81939
511.30664
304.30996
313.34329
322.81748
332.64481
342.73103
352.97783
363.28547
373.55543
383.69318
393.61086
403.22963
412.48165
421.31137
429.6762
437.54635
444.90413
451.74271
458.06464
463.88009
469.20522
474.0607
478.47033
482.4599
486.0562
489.28626
492.17671
494.75342
497.04113
499.06328
500.84188
502.39745
503.74906
504.91423
505.90913
506.74859
507.44618
508.01423
508.46388
508.80552
509.04796
509.20046
509.26867
509.26149
509.18678
509.04374
508.84749
508.59093
508.29035
507.93651
507.54167
303.9639
312.27061
320.98011
330.01894
339.30827
348.76569
358.30721
367.84918
377.31041
386.61416
395.69007
404.47583
412.91848
420.97521
428.61359
435.81137
442.55578
448.84256
454.67475
460.06133
465.016
469.55604
473.70126
477.47315
480.89404
483.98657
486.77313
489.27559
491.51497
493.51131
495.28352
496.84935
498.22536
499.42688
500.46812
501.3622
502.12116
502.75599
503.2768
503.69271
504.01227
504.24269
504.39153
504.46545
504.46834
504.40936
504.28678
504.11379
503.88448
503.61259
303.64728
311.2893
319.29952
327.61619
336.17318
344.90126
353.72961
362.58728
371.40472
380.1153
388.65687
396.97308
405.01456
412.73973
420.11531
427.11636
433.72597
439.93476
445.73998
451.14464
456.15646
460.78686
465.0502
468.9629
472.5428
475.80851
478.77896
481.47299
483.90907
486.10509
488.07815
489.84452
491.41954
492.8176
494.05211
495.13556
496.07953
496.8947
497.59092
498.17721
498.6619
499.05251
499.35621
499.57943
499.72759
499.80684
499.82002
499.77521
499.67118
499.51877
303.3573
310.39073
317.76093
325.41585
333.29984
341.3546
349.52034
357.73685
365.94469
374.08626
382.10708
389.95677
397.59011
404.9678
412.05698
418.83151
425.27194
431.36519
437.10415
442.48695
447.51629
452.19859
456.5433
460.56222
464.26892
467.67816
470.80541
473.66649
476.27722
478.65321
480.80963
482.76113
484.52165
486.10447
487.52207
488.78618
489.90775
490.89701
491.76344
492.51583
493.16227
493.71025
494.16671
494.53802
494.82991
495.04786
495.19638
495.28074
495.30317
495.27086
303.09152
309.56727
316.35125
323.39949
330.66499
338.09857
345.64963
353.26709
360.90013
368.49917
376.01667
383.40804
390.63242
397.65337
404.43939
410.96431
417.20735
423.1531
428.79125
434.11619
439.12652
443.82447
448.21528
452.30662
456.10815
459.631
462.88733
465.88997
468.65212
471.18704
473.50789
475.62755
477.5585
479.31273
480.90167
482.33617
483.62644
484.78211
485.81219
486.72507
487.5286
488.23002
488.83609
489.35305
489.78662
490.14213
490.42438
490.63801
490.78682
490.87556
302.84776
308.81216
315.05888
321.55068
328.2478
335.1086
342.09023
349.14925
356.24228
363.32666
370.36114
377.30648
384.12615
390.7869
397.2592
403.51764
409.54114
415.31298
420.82075
426.05611
431.01448
435.69466
440.09836
444.22973
448.09493
451.70177
455.05932
458.17757
461.06711
463.73891
466.20407
468.47365
470.55857
472.46944
474.21653
475.8097
477.25834
478.57135
479.75714
480.82364
481.77831
482.62808
483.37947
484.0385
484.61079
485.10154
485.51555
485.85729
486.13086
486.3404
302.62408
308.11938
313.87347
319.85474
326.02951
332.36244
338.81714
345.35665
351.9439
358.54224
365.11594
371.63067
378.05405
384.35606
390.50949
396.49029
402.27776
407.85474
413.2076
418.32617
423.20353
427.8358
432.22182
436.36278
440.26185
443.92391
447.35521
450.56307
453.55565
456.34166
458.93017
461.33042
463.55171
465.60323
467.49402
469.23284
470.82816
472.28809
473.62038
474.83236
475.93099
476.92286
477.81412
478.61056
479.31757
479.94019
480.48312
480.95073
481.3471
481.67625
302.41874
307.48353
312.78578
318.29857
323.99328
329.83993
335.80754
341.86459
347.97938
354.12044
360.25686
366.35873
372.39749
378.34629
384.1804
389.87743
395.41762
400.78397
405.96236
410.94151
415.71291
420.27073
424.61152
428.73409
432.63914
436.32901
439.80746
443.07943
446.15078
449.02812
451.71855
454.22954
456.56877
458.74399
460.76294
462.63326
464.36242
465.95766
467.42598
468.77408
470.00835
471.13488
472.15946
473.08753
473.92422
474.67435
475.34242
475.93268
476.4491
476.89562
302.2302
306.89982
311.78752
316.87037
322.12399
327.52285
333.0406
338.65029
344.32479
350.03704
355.76036
361.4687
367.13699
372.74141
378.25966
383.67122
388.95756
394.10232
399.0914
403.91302
408.55773
413.01831
417.28968
421.36873
425.25418
428.94629
432.44668
435.75817
438.8846
441.8306
444.60147
447.20295
449.64117
451.92243
454.0532
456.03995
457.88911
459.60701
461.19983
462.67357
464.03402
465.28672
466.43698
467.48986
468.45016
469.32241
470.11089
470.81964
471.45248
472.01325
302.05709
306.36395
310.87128
315.55955
320.40796
325.39472
330.49734
335.6928
340.95784
346.26918
351.60374
356.9389
362.25272
367.52415
372.73323
377.86135
382.89141
387.80794
392.59728
397.24762
401.74903
406.09346
410.27469
414.28823
418.1312
421.8022
425.3011
428.62893
431.78773
434.7804
437.61055
440.28235
442.80043
445.16974
447.39545
449.48288
451.43743
453.26448
454.96936
456.55733
458.0335
459.40285
460.67015
461.84003
462.91687
463.9049
464.8081
465.63027
466.37503
467.04607
301.89817
305.87206
310.03043
314.35662
318.83287
323.44059
328.16051
332.97294
337.85791
342.79537
347.76538
352.74828
357.72488
362.67664
367.58581
372.43564
377.21049
381.896
386.47918
390.94852
395.29403
399.50723
403.58119
407.51046
411.29101
414.92011
418.39627
421.71902
424.8889
427.90728
430.7763
433.4987
436.07773
438.51704
440.8206
442.99261
445.03742
446.95949
448.76328
450.45327
452.0339
453.50949
454.88431
456.16244
457.34788
458.44443
459.45577
460.3854
461.23669
462.01315
301.75232
305.4207
309.25902
313.25306
317.38768
321.64696
326.01442
330.47315
335.00598
339.59564
344.22487
348.87658
353.53401
358.18084
362.80135
367.38053
371.90423
376.35923
380.7334
385.01574
389.19646
393.26701
397.22009
401.04967
404.7509
408.3201
411.75469
415.05305
418.21447
421.23907
424.12768
426.88178
429.50341
431.99502
434.35945
436.59986
438.71959
440.72218
442.61124
444.3905
446.06365
447.6344
449.10642
450.4833
451.76855
452.96557
454.07764
455.10794
456.05956
456.93576
301.61854
305.00675
308.55169
312.24122
316.06242
320.00168
324.04486
328.17743
332.38461
336.65146
340.96306
345.30456
349.66128
354.01889
358.36347
362.68165
366.96067
371.18848
375.35387
379.4465
383.45698
387.37691
391.19891
394.91664
398.52476
402.01892
405.39576
408.65276
411.78825
414.80129
417.69167
420.45979
423.10657
425.63345
428.04225
430.33512
432.51449
434.58302
436.54351
438.39892
440.15224
441.80655
443.3649
444.83038
446.20598
447.49469
448.69939
449.82288
450.86791
301.49595
304.62744
307.90365
311.31424
314.84817
318.4938
322.23899
326.07125
329.97782
333.9458
337.96221
342.01412
346.08873
350.17343
354.2559
358.32424
362.36699
366.37325
370.33274
374.23583
378.07367
381.83818
385.52208
389.11895
392.62322
396.03012
399.33574
402.53692
405.63125
408.617
411.49308
414.25898
416.91474
419.46087
421.89827
424.22824
426.45236
428.57246
430.59059
432.50896
434.32991
436.05586
437.68931
439.23277
440.68878
442.05985
443.34848
444.55716
445.68859
301.38373
304.28029
307.31064
310.46599
313.73694
317.1135
320.58527
324.14149
327.77115
331.46305
335.20591
338.98845
342.79946
346.62786
350.46276
354.29356
358.11
361.90223
365.66088
369.3771
373.04259
376.64969
380.1914
383.66138
387.05397
390.36423
393.5879
396.72138
399.76174
402.70664
405.5543
408.30352
410.95358
413.50421
415.95556
418.30814
420.56278
422.72058
424.78289
426.75123
428.62732
430.41296
432.11008
433.72069
435.24681
436.69053
438.05393
439.33913
440.54858
301.28119
303.96306
306.76882
309.69101
312.72158
315.85202
319.07338
322.37639
325.75152
329.18906
332.67919
336.21204
339.77776
343.36658
346.9689
350.57528
354.17652
357.76376
361.32847
364.86253
368.35828
371.80852
375.20658
378.54632
381.82218
385.02915
388.1628
391.21929
394.1953
397.08807
399.89534
402.61534
405.24675
407.78869
410.24065
412.60249
414.87439
417.05681
419.15045
421.15624
423.07528
424.90884
426.65831
428.32517
429.91099
431.41742
432.84612
434.19885
435.47771
301.18767
303.67381
306.27484
308.98444
311.79578
314.70157
317.69412
320.76543
323.90726
327.11115
330.36853
333.67076
337.00918
340.37515
343.76015
347.15578
350.55382
353.94627
357.32541
360.6838
364.01439
367.31047
370.56576
373.77439
376.93098
380.03056
383.0687
386.04138
388.94511
391.77683
394.53393
397.21423
399.81595
402.33771
404.7785
407.13764
409.41474
411.60971
413.72272
415.75413
417.70454
419.57468
421.36545
423.07788
424.71308
426.27227
427.75673
429.16785
430.50736
301.10264
303.41079
305.8257
308.34204
310.95398
313.6553
316.4394
319.29936
322.22802
325.21804
328.26189
331.352
334.48071
337.64041
340.82349
344.02245
347.22994
350.43874
353.64185
356.83249
360.00417
363.15067
366.2661
369.34494
372.382
375.37248
378.31197
381.19647
384.02235
386.7864
389.48577
392.118
394.68098
397.17297
399.59253
401.93854
404.21019
406.40692
408.52842
410.57459
412.54556
414.44162
416.26322
418.01095
419.68552
421.28775
422.81855
424.27894
425.67034
301.02559
303.17251
305.41884
307.7601
310.19135
312.70727
315.30217
317.97009
320.70479
323.49986
326.3487
329.24462
332.18088
335.15068
338.14726
341.1639
344.19399
347.231
350.2686
353.30059
356.321
359.3241
362.30439
365.25667
368.17601
371.0578
373.89776
376.69192
379.43664
382.12863
384.76492
387.34285
389.8601
392.31463
394.70471
397.02891
399.28602
401.47514
403.59555
405.64677
407.62854
409.54074
411.38344
413.15686
414.86132
416.49728
418.06532
419.56611
421.00078
300.95613
302.95768
305.05205
307.23548
309.50378
311.8524
314.27644
316.77074
319.32986
321.94817
324.61988
327.33908
330.09975
332.89587
335.72137
338.57021
341.43643
344.31412
347.19751
350.08094
352.95893
355.82618
358.67758
361.50823
364.31349
367.08897
369.83052
372.53428
375.19665
377.81434
380.38431
382.9038
385.37035
387.78172
390.13598
392.43143
394.66662
396.84031
398.9515
400.9994
402.9834
404.90305
406.7581
408.54842
410.27402
411.93505
413.53174
415.0645
416.53416
300.89391
302.76524
304.72352
306.76557
308.88785
311.08647
313.35721
315.69557
318.0968
320.55596
323.06792
325.62742
328.22912
330.86761
333.53743
336.23315
338.94935
341.68067
344.42184
347.16767
349.91311
352.65325
355.38335
358.09883
360.79529
363.46856
366.11468
368.7299
371.31073
373.85388
376.35632
378.81526
381.22814
383.59261
385.9066
388.16822
390.37582
392.52795
394.62336
396.66101
398.64002
400.55967
402.41944
404.21891
405.95781
407.63602
409.2535
410.81039
412.30726
300.83865
302.59435
304.43177
306.34827
308.34084
310.40614
312.54052
314.74005
317.00056
319.31769
321.68686
324.10341
326.56253
329.05934
331.58893
334.14636
336.72671
339.32507
341.93661
344.55656
347.18024
349.8031
352.42072
355.0288
357.62321
360.19999
362.75534
365.28566
367.78756
370.25783
372.69347
375.09167
377.44985
379.7656
382.03675
384.26129
386.43743
388.56357
390.63827
392.66029
394.62855
396.54212
398.40024
400.20226
401.94771
403.63619
405.26745
406.8414
408.3584
300.79015
302.44437
304.17574
305.98205
307.86074
309.80893
311.82344
313.90084
316.03742
318.22931
320.47243