/*--------------------------------*- C++ -*----------------------------------*\
| =========                 |                                                 |
| \\      /  F ield         | OpenFOAM: The Open Source CFD Toolbox           |
|  \\    /   O peration     | Version:  2312                                  |
|   \\  /    A nd           | Website:  www.openfoam.com                      |
|    \\/     M anipulation  |                                                 |
\*---------------------------------------------------------------------------*/
FoamFile
{
    version     2.0;
    format      ascii;
    arch        "LSB;label=32;scalar=64";
    class       volVectorField;
    location    "0.09";
    object      U;
}
// * * * * * * * * * * * * * * * * * * * * * * * * * * * * * * * * * * * * * //

dimensions      [0 1 -1 0 0 0 0];

internalField   nonuniform List<vector> 
3275
(
(54.963028 0.36550556 0)
(48.116957 0.86635173 0)
(39.999197 0.90535277 0)
(33.077051 0.77310168 0)
(27.622004 0.60100945 0)
(23.476576 0.45610554 0)
(20.30136 0.34824924 0)
(17.82362 0.26880767 0)
(15.863828 0.21051348 0)
(14.27896 0.16731165 0)
(13.002085 0.13580753 0)
(11.983373 0.11175406 0)
(11.1243 0.092373693 0)
(10.386652 0.077824788 0)
(9.7630696 0.066435671 0)
(9.226917 0.057447317 0)
(8.7612067 0.050237676 0)
(8.352575 0.044350635 0)
(7.9909326 0.039469488 0)
(7.6684365 0.035373638 0)
(7.3789168 0.031905729 0)
(7.1174005 0.028946185 0)
(6.8798443 0.026400892 0)
(6.6629629 0.024197798 0)
(6.4640287 0.02227995 0)
(6.2807696 0.020601736 0)
(6.1112745 0.019126275 0)
(5.9539249 0.017823483 0)
(5.8073413 0.016668627 0)
(5.6703401 0.015641221 0)
(5.5419004 0.014724184 0)
(5.4211365 0.013903183 0)
(5.3072766 0.013166116 0)
(5.1996448 0.012502708 0)
(5.0976467 0.011904187 0)
(5.0007573 0.011363031 0)
(4.9085113 0.010872754 0)
(4.8204949 0.010427744 0)
(4.7363387 0.010023123 0)
(4.655712 0.0096546385 0)
(4.5783179 0.0093185748 0)
(4.5038892 0.009011678 0)
(4.4321845 0.0087310997 0)
(4.3629856 0.0084743626 0)
(4.2960947 0.008239261 0)
(4.2313322 0.0080237436 0)
(4.1685342 0.0078260437 0)
(4.1075516 0.0076445246 0)
(4.0482479 0.0074777187 0)
(3.9904981 0.0073242839 0)
(3.9341878 0.0071829908 0)
(3.8792119 0.0070527757 0)
(54.202375 1.2081549 0)
(46.351047 2.6468394 0)
(38.294948 2.6760507 0)
(31.828695 2.2522569 0)
(26.777735 1.7479285 0)
(22.917039 1.3318937 0)
(19.925147 1.0212651 0)
(17.564154 0.79141359 0)
(15.680116 0.62178768 0)
(14.145799 0.49548086 0)
(12.903092 0.40302775 0)
(11.907441 0.33217732 0)
(11.06514 0.27494465 0)
(10.339944 0.2319037 0)
(9.7254112 0.19814155 0)
(9.1960889 0.17145764 0)
(8.7356168 0.15002842 0)
(8.3310757 0.13251235 0)
(7.9726747 0.11797644 0)
(7.6527813 0.10576991 0)
(7.3653761 0.095428021 0)
(7.1055963 0.086597111 0)
(6.8694803 0.078998429 0)
(6.6538041 0.072418393 0)
(6.4558866 0.066688022 0)
(6.2734919 0.061671887 0)
(6.1047366 0.057260416 0)
(5.9480246 0.053364182 0)
(5.8019936 0.049909632 0)
(5.665474 0.046835827 0)
(5.5374563 0.044091942 0)
(5.4170639 0.041635314 0)
(5.3035326 0.039429923 0)
(5.1961926 0.037445183 0)
(5.0944547 0.035654982 0)
(4.9977982 0.03403692 0)
(4.9057614 0.032571688 0)
(4.8179335 0.031242567 0)
(4.7339477 0.030035022 0)
(4.6534755 0.028936367 0)
(4.5762218 0.027935494 0)
(4.5019211 0.027022646 0)
(4.4303335 0.026189229 0)
(4.3612418 0.025427669 0)
(4.2944494 0.024731249 0)
(4.2297775 0.024093915 0)
(4.1670631 0.023510248 0)
(4.1061576 0.022975414 0)
(4.0469253 0.022485044 0)
(3.9892417 0.022035193 0)
(3.9329929 0.021622284 0)
(3.8780741 0.021243123 0)
(52.000119 2.6170045 0)
(42.533952 4.576678 0)
(34.935403 4.2963865 0)
(29.445084 3.5242288 0)
(25.176474 2.734803 0)
(21.850797 2.1038017 0)
(19.202706 1.6268177 0)
(17.062431 1.2704588 0)
(15.322781 1.0046721 0)
(13.885558 0.80479163 0)
(12.708876 0.65734301 0)
(11.758009 0.54351021 0)
(10.948439 0.45108481 0)
(10.247621 0.38131941 0)
(9.6508521 0.32637919 0)
(9.1349731 0.28283237 0)
(8.6848314 0.24777752 0)
(8.2883699 0.21906604 0)
(7.9363801 0.19519886 0)
(7.6216405 0.17512726 0)
(7.3384264 0.15810061 0)
(7.0820917 0.14354603 0)
(6.8488349 0.13101067 0)
(6.6355529 0.12014689 0)
(6.4396565 0.11067915 0)
(6.2589806 0.10238625 0)
(6.0916975 0.095088929 0)
(5.9362543 0.088640727 0)
(5.7913235 0.08292102 0)
(5.6557632 0.077829768 0)
(5.5285861 0.07328346 0)
(5.4089341 0.069211935 0)
(5.2960576 0.065555911 0)
(5.1892994 0.062265015 0)
(5.0880802 0.059296216 0)
(4.9918881 0.05661258 0)
(4.9002685 0.054182249 0)
(4.8128165 0.051977626 0)
(4.7291706 0.049974706 0)
(4.6490065 0.048152526 0)
(4.5720331 0.046492713 0)
(4.4979878 0.044979113 0)
(4.4266336 0.043597481 0)
(4.3577559 0.042335225 0)
(4.2911599 0.041181173 0)
(4.2266686 0.040125307 0)
(4.1641208 0.039158648 0)
(4.1033693 0.038273172 0)
(4.0442794 0.037461657 0)
(3.9867279 0.036717581 0)
(3.9306017 0.036035043 0)
(3.875797 0.035408742 0)
(46.366881 5.3547727 0)
(36.179631 6.592643 0)
(30.088401 5.5607074 0)
(26.162421 4.4415391 0)
(22.985119 3.4746696 0)
(20.375109 2.7181541 0)
(18.189111 2.1292477 0)
(16.350572 1.6820113 0)
(14.810902 1.3431492 0)
(13.509807 1.0843595 0)
(12.426658 0.89112821 0)
(11.539775 0.7403012 0)
(10.777334 0.61689295 0)
(10.111807 0.5231852 0)
(9.5408729 0.4489809 0)
(9.0446289 0.3899116 0)
(8.6096246 0.34219069 0)
(8.2250338 0.30298663 0)
(7.8824846 0.270314 0)
(7.5753488 0.24277759 0)
(7.2983285 0.2193752 0)
(7.0470921 0.19933863 0)
(6.8180721 0.18205786 0)
(6.6083415 0.16706331 0)
(6.4154458 0.1539817 0)
(6.2373242 0.1425126 0)
(6.0722302 0.13241204 0)
(5.9186751 0.12348022 0)
(5.7753824 0.11555231 0)
(5.641251 0.10849139 0)
(5.5153268 0.10218299 0)
(5.3967785 0.096530822 0)
(5.2848788 0.091453409 0)
(5.1789885 0.086881453 0)
(5.0785437 0.082755702 0)
(4.9830449 0.079025243 0)
(4.8920481 0.07564613 0)
(4.8051577 0.072580263 0)
(4.7220195 0.069794474 0)
(4.6423159 0.067259776 0)
(4.5657612 0.064950747 0)
(4.4920977 0.062845015 0)
(4.4210925 0.060922831 0)
(4.3525345 0.059166715 0)
(4.2862321 0.057561139 0)
(4.222011 0.056092212 0)
(4.1597124 0.054747481 0)
(4.099191 0.053515806 0)
(4.0403142 0.052387155 0)
(3.9829602 0.051352483 0)
(3.9270175 0.05040361 0)
(3.8723835 0.049533162 0)
(33.597074 6.7229885 0)
(26.999148 7.7743118 0)
(24.198532 6.1237507 0)
(22.346373 4.889011 0)
(20.427052 3.9140956 0)
(18.618142 3.1385299 0)
(16.957113 2.5067814 0)
(15.471521 2.0101214 0)
(14.170421 1.6253164 0)
(13.034518 1.3255962 0)
(12.066533 1.098122 0)
(11.259379 0.91796683 0)
(10.556281 0.76899714 0)
(9.9355403 0.65493681 0)
(9.3976112 0.56398957 0)
(8.9265928 0.49117764 0)
(8.5111237 0.43207189 0)
(8.1419088 0.38331838 0)
(7.8116267 0.34254899 0)
(7.5143979 0.3080893 0)
(7.2454659 0.27873064 0)
(7.0009005 0.25354105 0)
(6.7774339 0.23177589 0)
(6.5723651 0.21285975 0)
(6.3834137 0.19633347 0)
(6.2086535 0.18182623 0)
(6.0464432 0.16903594 0)
(5.8953776 0.15771455 0)
(5.7542464 0.14765691 0)
(5.622002 0.13869223 0)
(5.4977333 0.13067743 0)
(5.3806444 0.12349193 0)
(5.2700368 0.11703356 0)
(5.1652952 0.11121527 0)
(5.0658756 0.10596254 0)
(4.971295 0.10121124 0)
(4.8811237 0.09690596 0)
(4.7949776 0.092998619 0)
(4.7125125 0.089447308 0)
(4.6334196 0.08621537 0)
(4.5574204 0.083270626 0)
(4.4842634 0.080584731 0)
(4.4137213 0.078132639 0)
(4.3455877 0.075892157 0)
(4.2796751 0.073843551 0)
(4.2158128 0.071969177 0)
(4.1538451 0.070253224 0)
(4.0936294 0.068681521 0)
(4.0350356 0.067241314 0)
(3.9779441 0.065921099 0)
(3.9222452 0.064710472 0)
(3.8678381 0.063600045 0)
(10.762854 7.3423598 0)
(17.395591 6.9011739 0)
(18.584707 5.7531024 0)
(18.684881 4.841232 0)
(17.896237 4.0397388 0)
(16.826463 3.3408534 0)
(15.666561 2.7346008 0)
(14.530398 2.2340155 0)
(13.47348 1.8316823 0)
(12.510423 1.5112293 0)
(11.665092 1.2635499 0)
(10.944118 1.0640265 0)
(10.305995 0.89683436 0)
(9.7348171 0.7675205 0)
(9.2337246 0.6636199 0)
(8.7910531 0.57987108 0)
(8.3976632 0.51149715 0)
(8.0459084 0.45482691 0)
(7.7296126 0.40724525 0)
(7.4437178 0.36688938 0)
(7.1840665 0.33240613 0)
(6.9471751 0.30274496 0)
(6.7301108 0.27705981 0)
(6.5304268 0.25469386 0)
(6.346039 0.23512066 0)
(6.1751736 0.2179132 0)
(6.0163093 0.20272232 0)
(5.8681354 0.18926035 0)
(5.7295177 0.17728866 0)
(5.5994695 0.16660806 0)
(5.4771293 0.15705126 0)
(5.3617416 0.14847699 0)
(5.2526412 0.14076528 0)
(5.1492404 0.13381376 0)
(5.0510181 0.12753462 0)
(4.9575107 0.12185221 0)
(4.8683043 0.11670105 0)
(4.7830286 0.11202425 0)
(4.7013512 0.10777218 0)
(4.622973 0.10390137 0)
(4.5476241 0.10037362 0)
(4.4750604 0.097155246 0)
(4.4050609 0.094216459 0)
(4.3374246 0.091530829 0)
(4.2719689 0.089074837 0)
(4.2085272 0.086827454 0)
(4.1469474 0.084769828 0)
(4.0870903 0.082885047 0)
(4.0288285 0.081157885 0)
(3.9720449 0.079574598 0)
(3.9166322 0.078122762 0)
(3.8624914 0.076791149 0)
(4.1242398 3.0934739 0)
(11.525428 4.5591852 0)
(14.166463 4.8278941 0)
(15.469896 4.473353 0)
(15.547055 3.9441469 0)
(15.099614 3.3817708 0)
(14.38853 2.845494 0)
(13.576605 2.3741907 0)
(12.75434 1.976447 0)
(11.962381 1.6504657 0)
(11.240688 1.3937379 0)
(10.607844 1.1830921 0)
(10.037035 1.0039549 0)
(9.5178369 0.86360091 0)
(9.0557242 0.75001599 0)
(8.6432554 0.65775467 0)
(8.2735338 0.58194616 0)
(7.9405902 0.51877689 0)
(7.6394276 0.46549981 0)
(7.365841 0.42014108 0)
(7.1162994 0.38125631 0)
(6.8877904 0.34771535 0)
(6.6777354 0.31859971 0)
(6.483959 0.29319243 0)
(6.3045869 0.27091607 0)
(6.138009 0.25129985 0)
(5.982833 0.23395723 0)
(5.8378509 0.21856853 0)
(5.7020103 0.20486764 0)
(5.5743912 0.19263177 0)
(5.4541859 0.18167331 0)
(5.3406831 0.1718334 0)
(5.2332539 0.16297687 0)
(5.1313407 0.15498811 0)
(5.0344477 0.14776778 0)
(4.9421321 0.14123015 0)
(4.853998 0.13530092 0)
(4.7696902 0.1299154 0)
(4.688889 0.12501712 0)
(4.6113061 0.12055653 0)
(4.5366812 0.11649006 0)
(4.4647783 0.11277923 0)
(4.3953831 0.10938998 0)
(4.3283011 0.10629205 0)
(4.2633546 0.10345851 0)
(4.2003819 0.10086525 0)
(4.1392348 0.098490656 0)
(4.0797777 0.096315314 0)
(4.0218863 0.09432174 0)
(3.9654465 0.092494144 0)
(3.9103531 0.090818244 0)
(3.8565097 0.089281127 0)
(2.4419411 1.2046879 0)
(7.9179606 2.6559209 0)
(10.723211 3.7407355 0)
(12.618536 3.8986229 0)
(13.315055 3.6760434 0)
(13.382507 3.2919059 0)
(13.074813 2.8599603 0)
(12.570506 2.444249 0)
(11.979594 2.0718361 0)
(11.362571 1.7541103 0)
(10.770427 1.4977271 0)
(10.231494 1.2831475 0)
(9.7333435 1.0977252 0)
(9.2711143 0.94968941 0)
(8.8522403 0.82906167 0)
(8.4735053 0.73018175 0)
(8.1304149 0.64830367 0)
(7.8187653 0.57964006 0)
(7.5348205 0.52141932 0)
(7.2752981 0.4716269 0)
(7.0373517 0.42877527 0)
(6.8184873 0.3916893 0)
(6.6165199 0.35940306 0)
(6.4295763 0.33115744 0)
(6.2560178 0.30633737 0)
(6.0944188 0.28443832 0)
(5.9435331 0.26504388 0)
(5.8022691 0.24780802 0)
(5.6696681 0.23244157 0)
(5.5448858 0.21870147 0)
(5.4271764 0.20638238 0)
(5.3158793 0.19530993 0)
(5.2104074 0.18533529 0)
(5.110238 0.1763309 0)
(5.0149041 0.16818689 0)
(4.9239876 0.16080823 0)
(4.8371131 0.15411241 0)
(4.7539426 0.14802751 0)
(4.6741715 0.14249058 0)
(4.5975243 0.13744634 0)
(4.5237514 0.1328461 0)
(4.4526264 0.12864683 0)
(4.3839431 0.12481037 0)
(4.317514 0.12130278 0)
(4.2531678 0.11809382 0)
(4.1907479 0.1151564 0)
(4.1301111 0.11246623 0)
(4.0711259 0.11000146 0)
(4.0136717 0.1077424 0)
(3.9576375 0.10567125 0)
(3.9029212 0.10377192 0)
(3.8494289 0.10202983 0)
(1.918782 0.57942621 0)
(5.6343555 1.4659388 0)
(8.1417118 2.7466458 0)
(10.206753 3.2406851 0)
(11.2827 3.2928897 0)
(11.737973 3.097143 0)
(11.768667 2.7877862 0)
(11.541202 2.4465511 0)
(11.168766 2.1167975 0)
(10.723116 1.8208728 0)
(10.261964 1.573471 0)
(9.820231 1.3619695 0)
(9.3981013 1.1763159 0)
(8.996499 1.0243 0)
(8.6244007 0.89939947 0)
(8.2824183 0.79601828 0)
(7.9685867 0.70962307 0)
(7.6804991 0.63662352 0)
(7.4157189 0.57433848 0)
(7.1719301 0.52078709 0)
(6.9470112 0.47449031 0)
(6.7390234 0.43426593 0)
(6.5462062 0.39912845 0)
(6.3670152 0.36829691 0)
(6.2000694 0.34113382 0)
(6.0441461 0.31711237 0)
(5.8981606 0.29579503 0)
(5.7611507 0.27681613 0)
(5.632262 0.25986853 0)
(5.510735 0.24469294 0)
(5.3958933 0.23106942 0)
(5.2871332 0.21881051 0)
(5.1839149 0.20775572 0)
(5.0857552 0.19776702 0)
(4.9922198 0.18872527 0)
(4.9029182 0.18052712 0)
(4.8174986 0.17308267 0)
(4.7356428 0.16631336 0)
(4.6570631 0.16015032 0)
(4.5814986 0.15453296 0)
(4.5087121 0.14940784 0)
(4.4384881 0.14472761 0)
(4.3706298 0.14045028 0)
(4.3049576 0.13653843 0)
(4.2413075 0.13295865 0)
(4.1795291 0.12968102 0)
(4.1194845 0.12667868 0)
(4.0610472 0.12392743 0)
(4.0041006 0.12140545 0)
(3.9485376 0.11909301 0)
(3.8942595 0.11697224 0)
(3.8411753 0.11502693 0)
(1.6667098 0.27297584 0)
(4.1631949 0.7401799 0)
(6.2493409 1.9252317 0)
(8.2344397 2.5872164 0)
(9.4940262 2.8485537 0)
(10.211622 2.8258836 0)
(10.507314 2.6431525 0)
(10.515924 2.3875392 0)
(10.341264 2.1128009 0)
(10.057189 1.850242 0)
(9.7238442 1.6202229 0)
(9.3800232 1.4181988 0)
(9.035321 1.2380253 0)
(8.6964289 1.0861927 0)
(8.3737722 0.95980816 0)
(8.0709814 0.85418776 0)
(7.788618 0.76498184 0)
(7.5260807 0.68893827 0)
(7.2822251 0.62358354 0)
(7.055714 0.56704667 0)
(6.8451724 0.51790999 0)
(6.6492397 0.47502424 0)
(6.4666021 0.43741424 0)
(6.2960639 0.40429917 0)
(6.1365199 0.3750359 0)
(5.9869659 0.34908819 0)
(5.8464918 0.32600717 0)
(5.714276 0.30541509 0)
(5.5895784 0.28699277 0)
(5.4717324 0.27046931 0)
(5.3601379 0.25561377 0)
(5.2542545 0.24222851 0)
(5.1535946 0.23014362 0)
(5.0577185 0.2192125 0)
(4.9662288 0.20930814 0)
(4.8787659 0.2003201 0)
(4.795004 0.19215202 0)
(4.7146473 0.1847195 0)
(4.6374271 0.17794839 0)
(4.5630987 0.17177332 0)
(4.4914393 0.16613649 0)
(4.4222451 0.16098666 0)
(4.3553302 0.15627825 0)
(4.2905241 0.15197061 0)
(4.2276708 0.14802739 0)
(4.1666269 0.144416 0)
(4.1072608 0.14110714 0)
(4.0494512 0.13807439 0)
(3.9930866 0.13529391 0)
(3.938064 0.1327441 0)
(3.8842885 0.13040539 0)
(3.8316724 0.12826002 0)
(1.5160506 0.078213112 0)
(3.2145272 0.28903228 0)
(4.8845575 1.278755 0)
(6.6618466 1.9880626 0)
(7.9623963 2.3862281 0)
(8.8322956 2.5063244 0)
(9.3195772 2.4427531 0)
(9.5186858 2.2762017 0)
(9.515227 2.0638447 0)
(9.3781586 1.843111 0)
(9.165401 1.6381575 0)
(8.9172136 1.4513818 0)
(8.6496153 1.2814868 0)
(8.3739654 1.1342649 0)
(8.1023463 1.0093355 0)
(7.8405424 0.9037235 0)
(7.5913721 0.81351365 0)
(7.3560342 0.73582452 0)
(7.1346281 0.66849194 0)
(6.9267757 0.60983018 0)
(6.7318486 0.55853538 0)
(6.5490716 0.5135316 0)
(6.3775905 0.47388489 0)
(6.216571 0.43883767 0)
(6.0651961 0.40775905 0)
(5.9226918 0.38011717 0)
(5.7883335 0.35546253 0)
(5.6614498 0.33341366 0)
(5.541423 0.31364589 0)
(5.4276869 0.29588186 0)
(5.3197241 0.27988379 0)
(5.2170624 0.26544709 0)
(5.1192717 0.25239508 0)
(5.0259599 0.24057467 0)
(4.9367698 0.2298527 0)
(4.8513758 0.22011303 0)
(4.7694809 0.21125395 0)
(4.690814 0.20318617 0)
(4.6151274 0.195831 0)
(4.5421946 0.18911892 0)
(4.4718082 0.18298831 0)
(4.4037782 0.17738444 0)
(4.3379303 0.17225851 0)
(4.2741043 0.16756694 0)
(4.212153 0.16327071 0)
(4.1519411 0.15933476 0)
(4.0933437 0.15572751 0)
(4.0362458 0.1524205 0)
(3.9805411 0.14938798 0)
(3.9261315 0.14660659 0)
(3.8729263 0.14405515 0)
(3.8208418 0.14171442 0)
(1.4184978 -0.042636497 0)
(2.5982959 0.0091742432 0)
(3.9087281 0.78633902 0)
(5.4311684 1.4670138 0)
(6.6793682 1.9375232 0)
(7.6136634 2.1639741 0)
(8.2254812 2.2038639 0)
(8.5688945 2.1230384 0)
(8.7069946 1.9758433 0)
(8.6986318 1.802058 0)
(8.596121 1.6280159 0)
(8.4385495 1.4617114 0)
(8.245936 1.30613 0)
(8.0327506 1.1675874 0)
(7.8125299 1.0472971 0)
(7.5927587 0.94382909 0)
(7.3779995 0.85443901 0)
(7.1711216 0.77657467 0)
(6.9734107 0.70843131 0)
(6.7853983 0.64857664 0)
(6.6071804 0.59587144 0)
(6.438558 0.54935248 0)
(6.2791385 0.50815772 0)
(6.1284527 0.47157611 0)
(5.9859794 0.43900752 0)
(5.8511821 0.40993889 0)
(5.7235291 0.38393142 0)
(5.6025066 0.36060885 0)
(5.4876258 0.33964812 0)
(5.378427 0.32077107 0)
(5.2744809 0.3037376 0)
(5.1753888 0.2883398 0)
(5.0807816 0.27439715 0)
(4.9903191 0.26175243 0)
(4.9036873 0.25026831 0)
(4.8205975 0.23982446 0)
(4.7407843 0.23031518 0)
(4.6640032 0.2216473 0)
(4.5900296 0.21373851 0)
(4.5186568 0.20651584 0)
(4.4496947 0.19991448 0)
(4.382968 0.19387669 0)
(4.3183153 0.18835091 0)
(4.2555878 0.18329099 0)
(4.1946483 0.1786555 0)
(4.1353699 0.17440717 0)
(4.0776356 0.1705124 0)
(4.021337 0.16694083 0)
(3.9663738 0.16366496 0)
(3.9126533 0.16065982 0)
(3.8600895 0.15790273 0)
(3.808603 0.15537305 0)
(1.3510542 -0.11319917 0)
(2.1912273 -0.16221412 0)
(3.2117075 0.42048608 0)
(4.4802829 1.030896 0)
(5.6229115 1.5231012 0)
(6.5570921 1.8197186 0)
(7.2366625 1.9428028 0)
(7.6809667 1.9391494 0)
(7.9301966 1.8557305 0)
(8.0300827 1.7308605 0)
(8.0251215 1.5915396 0)
(7.9510234 1.4498875 0)
(7.8294437 1.3121585 0)
(7.6767388 1.185709 0)
(7.5071379 1.0730579 0)
(7.3295682 0.97394123 0)
(7.1499135 0.88710427 0)
(6.9723394 0.81055507 0)
(6.7992521 0.7428166 0)
(6.632028 0.68275369 0)
(6.4714435 0.62943828 0)
(6.3178492 0.58205718 0)
(6.1713044 0.5398496 0)
(6.0317011 0.50217368 0)
(5.8988138 0.46847842 0)
(5.7723463 0.4382842 0)
(5.651964 0.41117455 0)
(5.5373151 0.3867877 0)
(5.4280448 0.36480968 0)
(5.3238043 0.34496756 0)
(5.2242567 0.32702376 0)
(5.1290808 0.31077103 0)
(5.0379724 0.29602818 0)
(4.9506458 0.2826365 0)
(4.8668339 0.27045657 0)
(4.7862873 0.25936571 0)
(4.7087741 0.2492556 0)
(4.634079 0.24003046 0)
(4.5620021 0.2316053 0)
(4.4923583 0.22390458 0)
(4.4249758 0.21686097 0)
(4.3596958 0.21041432 0)
(4.2963709 0.20451079 0)
(4.2348645 0.19910205 0)
(4.1750503 0.19414465 0)
(4.1168109 0.18959941 0)
(4.0600376 0.18543094 0)
(4.0046295 0.18160721 0)
(3.950493 0.17809914 0)
(3.8975409 0.17488032 0)
(3.8456927 0.17192668 0)
(3.7948735 0.16921632 0)
(1.3020914 -0.15252942 0)
(1.9168768 -0.26559474 0)
(2.7116751 0.15367021 0)
(3.7512249 0.67609643 0)
(4.7642205 1.1542931 0)
(5.6550563 1.4891125 0)
(6.3574493 1.6737336 0)
(6.8643808 1.7353688 0)
(7.195437 1.710835 0)
(7.3824758 1.6341956 0)
(7.4608251 1.5314767 0)
(7.4613983 1.4172367 0)
(7.4054806 1.3002265 0)
(7.3099766 1.1886454 0)
(7.1892741 1.0861453 0)
(7.0532262 0.99365919 0)
(6.9087474 0.91105758 0)
(6.7609026 0.83723853 0)
(6.6130249 0.77112755 0)
(6.4672755 0.71187161 0)
(6.325052 0.65878306 0)
(6.1872119 0.61123134 0)
(6.0542448 0.56858449 0)
(5.9263897 0.53029093 0)
(5.8037111 0.49586637 0)
(5.6861506 0.46487889 0)
(5.5735708 0.43694589 0)
(5.4657837 0.41172948 0)
(5.362571 0.38893247 0)
(5.2636977 0.3682934 0)
(5.1689226 0.34958233 0)
(5.0780046 0.3325968 0)
(4.9907075 0.31715842 0)
(4.9068031 0.30310975 0)
(4.826073 0.29031167 0)
(4.7483099 0.27864098 0)
(4.6733174 0.26798843 0)
(4.6009111 0.25825688 0)
(4.5309178 0.24935982 0)
(4.4631751 0.24122005 0)
(4.3975313 0.2337685 0)
(4.333845 0.22694328 0)
(4.2719839 0.22068881 0)
(4.2118248 0.21495509 0)
(4.153253 0.209697 0)
(4.0961615 0.20487382 0)
(4.0404507 0.20044866 0)
(3.9860277 0.19638805 0)
(3.9328059 0.19266159 0)
(3.8807047 0.18924158 0)
(3.8296492 0.18610273 0)
(3.7795696 0.183222 0)
(1.2656465 -0.17258593 0)
(1.7282528 -0.32617896 0)
(2.350245 -0.038016934 0)
(3.194259 0.39360033 0)
(4.0727123 0.83533597 0)
(4.8943962 1.1825829 0)
(5.5863892 1.4080772 0)
(6.1240731 1.5215276 0)
(6.5103056 1.5485504 0)
(6.7639067 1.5172211 0)
(6.9107337 1.45116 0)
(6.9760039 1.3657645 0)
(6.9792081 1.2713646 0)
(6.9366015 1.1767414 0)
(6.8621977 1.0865024 0)
(6.7662601 1.0026808 0)
(6.6563563 0.92601481 0)
(6.538202 0.85625381 0)
(6.4157809 0.79293182 0)
(6.2919134 0.73549732 0)
(6.1685596 0.68349157 0)
(6.047033 0.63648594 0)
(5.9282181 0.5940017 0)
(5.8126792 0.55559644 0)
(5.700757 0.52086882 0)
(5.5926238 0.4894479 0)
(5.4883351 0.46099606 0)
(5.3878654 0.43520842 0)
(5.2911329 0.41181223 0)
(5.1980179 0.39056382 0)
(5.1083761 0.37124612 0)
(5.0220487 0.35366578 0)
(4.9388692 0.33765075 0)
(4.8586692 0.32304787 0)
(4.781281 0.30972073 0)
(4.7065409 0.29754774 0)
(4.6342902 0.28642036 0)
(4.5643768 0.27624161 0)
(4.4966555 0.26692463 0)
(4.4309883 0.25839157 0)
(4.3672447 0.25057251 0)
(4.3053017 0.24340453 0)
(4.2450433 0.23683094 0)
(4.1863607 0.23080058 0)
(4.1291515 0.22526717 0)
(4.0733198 0.22018877 0)
(4.0187758 0.21552734 0)
(3.9654353 0.21124828 0)
(3.9132194 0.20732008 0)
(3.8620545 0.20371397 0)
(3.8118716 0.20040366 0)
(3.7626066 0.19736505 0)
(1.2381701 -0.18043193 0)
(1.5959818 -0.35933954 0)
(2.0864721 -0.17365606 0)
(2.7688998 0.17248683 0)
(3.519209 0.56565864 0)
(4.2590466 0.90616236 0)
(4.9178612 1.1543814 0)
(5.4611577 1.3060139 0)
(5.8795012 1.3758791 0)
(6.1805314 1.3852363 0)
(6.3811555 1.3542585 0)
(6.5005752 1.2978814 0)
(6.5554936 1.2270315 0)
(6.560693 1.1507525 0)
(6.5292369 1.0744254 0)
(6.4713308 1.0009299 0)
(6.3948156 0.93175996 0)
(6.3057978 0.867378 0)
(6.2087218 0.80792046 0)
(6.1068646 0.75327174 0)
(6.0026571 0.70319954 0)
(5.8978203 0.65746724 0)
(5.7935882 0.61576445 0)
(5.6908209 0.57777401 0)
(5.5901156 0.54319195 0)
(5.4918615 0.51172022 0)
(5.3962995 0.48307628 0)
(5.3035617 0.45699688 0)
(5.2137008 0.4332411 0)
(5.126711 0.41158929 0)
(5.0425451 0.39184241 0)
(4.9611272 0.37382059 0)
(4.8823618 0.35736178 0)
(4.8061412 0.34232013 0)
(4.73235 0.32856455 0)
(4.6608694 0.31597717 0)
(4.5915797 0.30445203 0)
(4.5243625 0.29389379 0)
(4.4591018 0.28421659 0)
(4.3956853 0.27534302 0)
(4.3340047 0.26720322 0)
(4.2739565 0.25973407 0)
(4.2154418 0.25287844 0)
(4.1583669 0.24658458 0)
(4.1026428 0.24080553 0)
(4.0481853 0.23549861 0)
(3.994915 0.23062498 0)
(3.942757 0.2261492 0)
(3.8916408 0.22203896 0)
(3.8414999 0.21826465 0)
(3.792272 0.21479916 0)
(3.7438992 0.21161756 0)
(1.217209 -0.18052243 0)
(1.5013165 -0.3746069 0)
(1.8917961 -0.26781252 0)
(2.4432861 0.0019649527 0)
(3.0776398 0.34181226 0)
(3.7320824 0.66244499 0)
(4.3435699 0.9185007 0)
(4.8737528 1.0955774 0)
(5.305154 1.1990679 0)
(5.6365897 1.2433751 0)
(5.8771052 1.2446046 0)
(6.0400678 1.2162531 0)
(6.1388293 1.1690253 0)
(6.1861334 1.1118155 0)
(6.1936906 1.050497 0)
(6.1711568 0.98860674 0)
(6.1263299 0.92822768 0)
(6.0654306 0.87045544 0)
(5.9931842 0.81591734 0)
(5.9131806 0.76493732 0)
(5.8281649 0.71760615 0)
(5.7401999 0.67386618 0)
(5.6508239 0.63356838 0)
(5.5611589 0.5965301 0)
(5.4720318 0.562557 0)
(5.3840303 0.53143411 0)
(5.2975682 0.50294274 0)
(5.2129278 0.47686898 0)
(5.1302908 0.45301062 0)
(5.0497625 0.43117791 0)
(4.9713914 0.4111949 0)
(4.8951835 0.39289945 0)
(4.8211145 0.37614313 0)
(4.7491375 0.3607905 0)
(4.6791902 0.34671838 0)
(4.6111998 0.33381487 0)
(4.5450863 0.32197846 0)
(4.480766 0.31111708 0)
(4.4181531 0.30114721 0)
(4.3571618 0.29199306 0)
(4.297707 0.28358584 0)
(4.2397055 0.27586306 0)
(4.1830766 0.2687679 0)
(4.1277421 0.26224866 0)
(4.0736271 0.25625824 0)
(4.02066 0.25075366 0)
(3.9687723 0.24569569 0)
(3.9178989 0.24104846 0)
(3.867978 0.23677908 0)
(3.8189511 0.23285743 0)
(3.7707629 0.22925579 0)
(3.7233617 0.22594858 0)
(1.2009719 -0.17583731 0)
(1.4320799 -0.37809456 0)
(1.7462825 -0.33138405 0)
(2.1928824 -0.12765313 0)
(2.7257063 0.15890316 0)
(3.2971002 0.45154881 0)
(3.8537973 0.70396681 0)
(4.3578121 0.89531017 0)
(4.787251 1.0234092 0)
(5.1345486 1.0963569 0)
(5.4022928 1.1259957 0)
(5.5985628 1.1237158 0)
(5.733194 1.0993599 0)
(5.8165516 1.0613214 0)
(5.8587177 1.0155927 0)
(5.8684478 0.96615446 0)
(5.8531585 0.91557432 0)
(5.8189588 0.86543964 0)
(5.7706546 0.81680932 0)
(5.7120236 0.77035439 0)
(5.6460144 0.72649637 0)
(5.57491 0.68542949 0)
(5.5004975 0.64714946 0)
(5.4241305 0.61160108 0)
(5.3468337 0.57870681 0)
(5.2693701 0.54834277 0)
(5.1923101 0.52036138 0)
(5.116075 0.49460459 0)
(5.0409684 0.47091507 0)
(4.9672013 0.44913828 0)
(4.8949143 0.42912609 0)
(4.8241937 0.41073811 0)
(4.7550846 0.39384307 0)
(4.687601 0.37831893 0)
(4.6217335 0.36405305 0)
(4.5574551 0.35094173 0)
(4.4947264 0.33888984 0)
(4.4334988 0.32781021 0)
(4.3737173 0.31762309 0)
(4.3153234 0.30825552 0)
(4.2582557 0.29964083 0)
(4.2024523 0.29171805 0)
(4.1478508 0.28443147 0)
(4.0943898 0.27773009 0)
(4.0420089 0.27156726 0)
(3.9906493 0.26590022 0)
(3.9402543 0.26068979 0)
(3.890769 0.25590001 0)
(3.8421409 0.25149781 0)
(3.7943197 0.24745277 0)
(3.7472576 0.24373686 0)
(3.7009095 0.24032412 0)
(1.1881602 -0.16838092 0)
(1.3802663 -0.37382653 0)
(1.6359696 -0.37245841 0)
(1.999057 -0.22461461 0)
(2.444907 0.011555151 0)
(2.9390426 0.27196037 0)
(3.4383656 0.51244609 0)
(3.9078834 0.70876335 0)
(4.3241042 0.85316064 0)
(4.6753249 0.94833317 0)
(4.9591812 1.0020169 0)
(5.179241 1.023137 0)
(5.3419619 1.0202074 0)
(5.4552222 1.0008254 0)
(5.5272959 0.9707939 0)
(5.5658178 0.93426213 0)
(5.5775652 0.89415823 0)
(5.5682921 0.85246277 0)
(5.5427258 0.81056564 0)
(5.5046832 0.76944051 0)
(5.4572303 0.72975945 0)
(5.4027856 0.69197829 0)
(5.3432792 0.65629336 0)
(5.2802639 0.62276007 0)
(5.2149325 0.59141208 0)
(5.1481956 0.56222004 0)
(5.0807608 0.53511292 0)
(5.0131744 0.50999367 0)
(4.9458517 0.48675514 0)
(4.8791025 0.46528261 0)
(4.8131541 0.44545991 0)
(4.7481695 0.4271721 0)
(4.6842611 0.41030835 0)
(4.6215022 0.39476295 0)
(4.5599353 0.38043627 0)
(4.4995792 0.36723504 0)
(4.4404345 0.35507239 0)
(4.382488 0.34386775 0)
(4.3257161 0.33354653 0)
(4.2700875 0.32403987 0)
(4.2155653 0.31528428 0)
(4.1621091 0.30722128 0)
(4.1096756 0.29979704 0)
(4.0582203 0.29296199 0)
(4.007698 0.28667055 0)
(3.9580634 0.28088072 0)
(3.9092717 0.27555382 0)
(3.8612789 0.2706542 0)
(3.814042 0.26614899 0)
(3.7675194 0.26200778 0)
(3.7216709 0.25820244 0)
(3.6764589 0.25470706 0)
(1.1778467 -0.15947718 0)
(1.3405689 -0.36450927 0)
(1.5510632 -0.39701108 0)
(1.8477872 -0.29571988 0)
(2.2202178 -0.10550363 0)
(2.6446029 0.12120711 0)
(3.087317 0.34420352 0)
(3.5177473 0.53814985 0)
(3.9128106 0.69155617 0)
(4.2585531 0.80279982 0)
(4.5491016 0.87591998 0)
(4.7843983 0.9172847 0)
(4.9678713 0.93379675 0)
(5.1049894 0.93202056 0)
(5.2021579 0.91731902 0)
(5.265762 0.89379675 0)
(5.3017492 0.86454308 0)
(5.3153532 0.83182582 0)
(5.3110382 0.79730257 0)
(5.2925448 0.76217753 0)
(5.2629481 0.72733608 0)
(5.2247413 0.69342614 0)
(5.1799251 0.66085154 0)
(5.1301743 0.62982511 0)
(5.0768207 0.60047735 0)
(5.0208964 0.57286601 0)
(4.9632239 0.54699799 0)
(4.904458 0.52284084 0)
(4.8451138 0.50034193 0)
(4.7855901 0.47943012 0)
(4.7261944 0.46002465 0)
(4.6671613 0.44203921 0)
(4.6086671 0.4253864 0)
(4.5508417 0.40997945 0)
(4.4937779 0.39573417 0)
(4.4375392 0.38256976 0)
(4.3821657 0.37040949 0)
(4.3276791 0.359181 0)
(4.274087 0.34881631 0)
(4.2213855 0.33925187 0)
(4.1695624 0.3304285 0)
(4.1185988 0.32229112 0)
(4.068471 0.31478864 0)
(4.0191518 0.30787366 0)
(3.9706115 0.30150229 0)
(3.9228184 0.29563385 0)
(3.8757403 0.29023068 0)
(3.8293443 0.28525787 0)
(3.7835973 0.28068309 0)
(3.7384667 0.27647627 0)
(3.6939205 0.27260949 0)
(1.1693713 -0.1499819 0)
(1.3094275 -0.3519933 0)
(1.4846716 -0.40945415 0)
(1.7285955 -0.34647025 0)
(2.0396283 -0.19712375 0)
(2.4023437 -0.0036470975 0)
(2.7913493 0.19852261 0)
(3.1809183 0.38458719 0)
(3.5496684 0.54088453 0)
(3.8828666 0.66256892 0)
(4.1724076 0.75054489 0)
(4.4155014 0.80873526 0)
(4.6130205 0.8423177 0)
(4.768229 0.85666631 0)
(4.8857327 0.85651453 0)
(4.9706016 0.84574461 0)
(5.0278305 0.82744087 0)
(5.0620222 0.80400158 0)
(5.0772493 0.77728058 0)
(5.077038 0.74867055 0)
(5.0643904 0.71921931 0)
(5.0417874 0.68973219 0)
(5.0112611 0.660756 0)
(4.974552 0.63267404 0)
(4.9330681 0.60574865 0)
(4.8879352 0.58011226 0)
(4.8400705 0.555842 0)
(4.79022 0.53296989 0)
(4.7389842 0.51150108 0)
(4.6868394 0.49141072 0)
(4.634165 0.47265618 0)
(4.5812608 0.4551823 0)
(4.5283624 0.43892769 0)
(4.4756528 0.42382682 0)
(4.4232728 0.40981307 0)
(4.3713284 0.39682007 0)
(4.3198982 0.38478296 0)
(4.269038 0.37363915 0)
(4.2187857 0.36332862 0)
(4.1691649 0.3537944 0)
(4.1201876 0.34498263 0)
(4.0718567 0.33684264 0)
(4.0241681 0.3293269 0)
(3.9771121 0.32239093 0)
(3.9306744 0.31599319 0)
(3.8848377 0.31009489 0)
(3.8395823 0.30465988 0)
(3.7948865 0.29965448 0)
(3.7507278 0.29504728 0)
(3.7070825 0.29080896 0)
(3.6639273 0.28691209 0)
(1.1622666 -0.14043027 0)
(1.2844279 -0.33755244 0)
(1.431926 -0.41306195 0)
(1.6337058 -0.38125089 0)
(1.8936562 -0.26759995 0)
(2.202636 -0.10566852 0)
(2.5420594 0.074054392 0)
(2.8910106 0.248345 0)
(3.2305307 0.40261029 0)
(3.5461712 0.5297895 0)
(3.8286494 0.62827854 0)
(4.0732761 0.69980732 0)
(4.2788892 0.74784402 0)
(4.4468472 0.77651685 0)
(4.5801089 0.7898058 0)
(4.6824295 0.7912084 0)
(4.757805 0.78366726 0)
(4.8101263 0.76958723 0)
(4.8429892 0.7509058 0)
(4.8596113 0.72915183 0)
(4.86282 0.70550796 0)
(4.8550127 0.68089688 0)
(4.8381986 0.65597662 0)
(4.8141509 0.63125721 0)
(4.7843118 0.60712811 0)
(4.7498442 0.5838294 0)
(4.7117384 0.56149982 0)
(4.6708165 0.54022802 0)
(4.6277495 0.52007687 0)
(4.5830781 0.50106883 0)
(4.5372434 0.48320136 0)
(4.490603 0.46645229 0)
(4.4434461 0.45078838 0)
(4.3960044 0.43616718 0)
(4.3484631 0.42254152 0)
(4.3009687 0.40986112 0)
(4.2536358 0.39807458 0)
(4.2065532 0.38713054 0)
(4.1597882 0.37697822 0)
(4.113391 0.36756836 0)
(4.0673976 0.35885351 0)
(4.0218324 0.35078832 0)
(3.9767107 0.34332967 0)
(3.93204 0.33643671 0)
(3.8878219 0.33007093 0)
(3.8440534 0.324196 0)
(3.8007273 0.31877784 0)
(3.7578336 0.31378441 0)
(3.7153601 0.30918568 0)
(3.6732927 0.30495346 0)
(3.6316167 0.30106124 0)
(1.1562028 -0.13114119 0)
(1.2639178 -0.32206567 0)
(1.3893564 -0.4102717 0)
(1.557365 -0.40354166 0)
(1.7749232 -0.32061975 0)
(2.0375181 -0.18783825 0)
(2.3320492 -0.030921184 0)
(2.6419867 0.12906661 0)
(2.9510881 0.27751253 0)
(3.2458912 0.40600125 0)
(3.5167528 0.51104206 0)
(3.7578126 0.59250662 0)
(3.9663952 0.65228362 0)
(4.1422965 0.69327779 0)
(4.2870211 0.71863873 0)
(4.4030863 0.73136522 0)
(4.4934994 0.73414044 0)
(4.5614036 0.72927039 0)
(4.6098539 0.71868863 0)
(4.641696 0.70397891 0)
(4.6595146 0.68641661 0)
(4.665542 0.66700384 0)
(4.6617214 0.64651968 0)
(4.6498039 0.62556285 0)
(4.6312454 0.60458107 0)
(4.6072144 0.58394117 0)
(4.5787272 0.56386273 0)
(4.546664 0.54449012 0)
(4.5117535 0.52593603 0)
(4.4745868 0.50826716 0)
(4.435656 0.49152154 0)
(4.3953679 0.47571134 0)