/*--------------------------------*- C++ -*----------------------------------*\
| =========                 |                                                 |
| \\      /  F ield         | OpenFOAM: The Open Source CFD Toolbox           |
|  \\    /   O peration     | Version:  2312                                  |
|   \\  /    A nd           | Website:  www.openfoam.com                      |
|    \\/     M anipulation  |                                                 |
\*---------------------------------------------------------------------------*/
FoamFile
{
    version     2.0;
    format      ascii;
    arch        "LSB;label=32;scalar=64";
    class       volScalarField;
    location    "0.06";
    object      alphat;
}
// * * * * * * * * * * * * * * * * * * * * * * * * * * * * * * * * * * * * * //

dimensions      [1 -1 -1 0 0 0 0];

internalField   nonuniform List<scalar> 
3250
(
0.035813351
0.036080896
0.036355482
0.036636849
0.036924899
0.037219596
0.037520904
0.037828793
0.038143232
0.038464187
0.038791614
0.039125463
0.039465669
0.039812157
0.04016484
0.040523617
0.040888374
0.041258987
0.041635318
0.04201722
0.04240453
0.042797077
0.043194675
0.043597125
0.044004219
0.044415736
0.044831447
0.045251112
0.04567448
0.046101298
0.046531313
0.046964275
0.047399938
0.047838065
0.04827843
0.048720819
0.049165034
0.049610895
0.05005824
0.050506931
0.050956859
0.051407946
0.051860152
0.05231347
0.035523294
0.03579115
0.03606608
0.036347888
0.036636496
0.036931832
0.037233852
0.037542525
0.037857817
0.038179697
0.038508121
0.03884304
0.03918439
0.039532099
0.039886079
0.040246233
0.040612449
0.040984604
0.041362564
0.04174618
0.042135295
0.042529736
0.042929319
0.043333847
0.043743112
0.044156892
0.044574955
0.04499706
0.045422967
0.045852426
0.046285188
0.046721002
0.047159625
0.047600819
0.048044356
0.04849002
0.048937611
0.049386942
0.049837846
0.050290178
0.050743813
0.051198651
0.051654627
0.05211177
0.034939943
0.035208722
0.035484604
0.035767452
0.036057215
0.036353849
0.036657322
0.036967607
0.037284678
0.037608503
0.03793904
0.038276241
0.038620044
0.038970378
0.039327159
0.03969029
0.040059664
0.040435161
0.040816648
0.04120398
0.041597002
0.041995543
0.042399421
0.042808441
0.043222396
0.043641067
0.044064224
0.04449163
0.044923042
0.045358212
0.045796888
0.046238823
0.04668377
0.047131489
0.047581749
0.048034329
0.048489022
0.048945633
0.049403988
0.04986393
0.050325323
0.050788052
0.051252029
0.051717264
0.034204737
0.034473145
0.034748774
0.0350315
0.035321281
0.035618102
0.035921954
0.036232822
0.036550688
0.036875527
0.037207303
0.037545973
0.037891481
0.038243761
0.038602735
0.038968314
0.039340395
0.039718864
0.040103596
0.040494451
0.040891277
0.04129391
0.041702172
0.042115873
0.042534809
0.042958766
0.043387518
0.043820831
0.044258465
0.044700173
0.045145705
0.045594814
0.04604725
0.046502773
0.046961145
0.04742214
0.047885542
0.048351147
0.048818768
0.049288233
0.049759391
0.050232107
0.050706271
0.051181865
0.033395448
0.033662113
0.033936031
0.034217154
0.034505483
0.034801027
0.035103794
0.035413784
0.035730992
0.036055404
0.036386996
0.036725734
0.037071573
0.037424458
0.037784321
0.038151083
0.038524652
0.038904925
0.039291786
0.039685104
0.040084738
0.040490533
0.040902318
0.041319911
0.041743117
0.042171728
0.042605527
0.043044286
0.043487769
0.043935734
0.044387936
0.044844127
0.04530406
0.045767491
0.046234179
0.046703893
0.047176408
0.047651509
0.048128996
0.048608683
0.049090398
0.049573986
0.050059312
0.050546327
0.032564868
0.032828535
0.033099505
0.03337778
0.033663388
0.03395636
0.034256721
0.034564489
0.034879675
0.035202279
0.035532293
0.035869696
0.036214457
0.036566537
0.03692588
0.037292423
0.037666089
0.038046788
0.038434417
0.038828861
0.039229992
0.039637665
0.040051724
0.040471999
0.040898306
0.041330449
0.041768221
0.042211403
0.04265977
0.043113086
0.043571114
0.044033609
0.044500328
0.044971026
0.045445464
0.045923403
0.046404613
0.046888871
0.047375965
0.047865692
0.048357864
0.048852306
0.049348856
0.049847437
0.031746149
0.032005938
0.032273059
0.032547558
0.032829488
0.033118899
0.033415835
0.033720333
0.034032419
0.03435211
0.034679413
0.035014326
0.035356834
0.035706913
0.036064525
0.036429624
0.036802149
0.037182027
0.037569172
0.037963484
0.038364852
0.038773147
0.039188229
0.039609942
0.040038118
0.040472574
0.040913118
0.041359544
0.041811637
0.042269174
0.042731926
0.043199657
0.043672128
0.0441491
0.044630332
0.045115587
0.045604629
0.046097231
0.04659317
0.047092231
0.047594212
0.048098919
0.048606168
0.049115852
0.030959846
0.031215103
0.031477714
0.031747755
0.032025302
0.032310424
0.032603182
0.03290363
0.03321181
0.033527756
0.033851493
0.034183034
0.034522383
0.034869533
0.035224465
0.035587148
0.035957541
0.036335588
0.036721221
0.037114358
0.037514903
0.037922747
0.038337767
0.038759822
0.039188763
0.039624423
0.040066623
0.040515175
0.040969878
0.04143052
0.041896884
0.042368745
0.042845872
0.043328032
0.043814988
0.044306504
0.044802345
0.045302279
0.045806078
0.046313518
0.046824386
0.04733847
0.047855573
0.04837556
0.030218058
0.030468304
0.030725926
0.030991022
0.031263684
0.031543998
0.031832039
0.032127876
0.032431569
0.032743168
0.033062714
0.033390238
0.033725761
0.034069294
0.034420834
0.03478037
0.035147878
0.035523319
0.035906644
0.036297789
0.036696676
0.037103213
0.037517293
0.037938797
0.038367589
0.038803521
0.039246432
0.039696146
0.04015248
0.040615235
0.041084208
0.041559183
0.042039942
0.042526257
0.043017899
0.043514637
0.044016236
0.044522464
0.04503309
0.045547885
0.046066626
0.046589093
0.047115074
0.047644412
0.029058515
0.029289021
0.029526691
0.029771643
0.030023991
0.030283846
0.030551314
0.030826493
0.031109473
0.031400338
0.031699164
0.032006016
0.032320953
0.032644022
0.032975261
0.033314698
0.033662349
0.03401822
0.034382302
0.034754576
0.035135011
0.035523559
0.03592016
0.03632474
0.03673721
0.037157467
0.037585393
0.038020858
0.038463715
0.038913806
0.039370962
0.039835001
0.040305729
0.040782946
0.041266442
0.041756001
0.0422514
0.042752412
0.043258808
0.043770358
0.044286828
0.044807989
0.045333611
0.045863467
0.046397336
0.046935042
0.028429767
0.028654911
0.028887203
0.029126774
0.02937375
0.029628253
0.029890399
0.0301603
0.03043806
0.030723778
0.031017544
0.03131944
0.031629539
0.031947906
0.032274596
0.032609652
0.032953108
0.033304985
0.033665295
0.034034035
0.034411188
0.034796726
0.035190605
0.035592769
0.036003146
0.036421648
0.036848177
0.037282615
0.037724835
0.038174694
0.038632036
0.039096694
0.039568489
0.04004723
0.040532721
0.041024754
0.041523114
0.042027583
0.042537935
0.043053943
0.043575376
0.044102003
0.044633592
0.045169911
0.045710733
0.04625587
0.027851218
0.028071095
0.028298097
0.028532362
0.028774028
0.029023226
0.029280086
0.029544731
0.029817279
0.030097841
0.030386522
0.030683419
0.030988622
0.03130221
0.031624254
0.031954814
0.03229394
0.032641671
0.032998033
0.033363039
0.033736692
0.034118978
0.03450987
0.034909329
0.035317298
0.035733708
0.036158474
0.036591495
0.03703266
0.037481839
0.037938893
0.038403666
0.038875994
0.039355698
0.039842591
0.040336476
0.040837147
0.041344392
0.041857993
0.042377724
0.042903359
0.043434667
0.043971415
0.04451337
0.045060302
0.045612011
0.027319454
0.027534277
0.027756192
0.027985346
0.028221885
0.028465953
0.028717688
0.028977226
0.029244697
0.029520226
0.029803932
0.030095925
0.030396309
0.03070518
0.031022622
0.031348712
0.031683515
0.032027086
0.032379467
0.032740687
0.033110764
0.033489701
0.033877486
0.034274096
0.03467949
0.035093614
0.035516397
0.035947756
0.036387592
0.036835791
0.037292225
0.037756754
0.038229224
0.03870947
0.039197313
0.039692568
0.040195036
0.040704512
0.041220785
0.041743634
0.042272836
0.042808162
0.04334938
0.043896256
0.044448559
0.045006083
0.026830465
0.02704051
0.027257611
0.02748192
0.027713593
0.027952781
0.028199635
0.028454301
0.02871692
0.02898763
0.029266561
0.029553839
0.02984958
0.030153894
0.03046688
0.03078863
0.031119223
0.031458729
0.031807205
0.032164696
0.032531234
0.032906838
0.033291511
0.033685243
0.034088011
0.034499772
0.034920473
0.035350044
0.035788398
0.036235435
0.036691042
0.037155089
0.037627435
0.038107924
0.03859639
0.039092654
0.039596528
0.040107813
0.040626303
0.041151785
0.041684038
0.042222836
0.042767949
0.043319143
0.043876189
0.044438874
0.026380275
0.026585833
0.026798422
0.027018186
0.027245287
0.027479885
0.027722142
0.027972213
0.028230252
0.028496405
0.028770817
0.029053624
0.029344956
0.029644936
0.029953676
0.030271282
0.030597846
0.030933454
0.031278175
0.031632069
0.031995183
0.032367549
0.032749186
0.033140098
0.033540272
0.033949685
0.034368292
0.034796039
0.035232851
0.035678642
0.036133309
0.036596734
0.037068787
0.037549323
0.038038184
0.038535201
0.039040193
0.03955297
0.040073329
0.040601064
0.041135958
0.041677787
0.042226324
0.042781337
0.043342597
0.04390989
0.025965217
0.026166619
0.02637499
0.026590508
0.026813334
0.02704364
0.027281593
0.02752736
0.027781103
0.028042981
0.028313148
0.028591752
0.028878935
0.029174831
0.029479566
0.029793257
0.030116012
0.030447926
0.030789084
0.031139559
0.031499411
0.031868685
0.032247414
0.032635614
0.033033288
0.033440422
0.033856986
0.034282937
0.034718214
0.035162741
0.035616425
0.036079162
0.036550829
0.037031291
0.037520401
0.038017995
0.038523901
0.039037935
0.039559901
0.040089596
0.040626808
0.041171318
0.041722898
0.042281321
0.042846358
0.043417794
0.025582139
0.025779662
0.025984109
0.026195662
0.026414497
0.026640791
0.026874723
0.027116466
0.027366193
0.027624071
0.027890266
0.028164934
0.02844823
0.028740298
0.029041275
0.029351292
0.029670466
0.029998906
0.030336711
0.030683963
0.031040737
0.031407089
0.031783065
0.032168693
0.032563989
0.03296895
0.033383559
0.033807782
0.034241571
0.034684861
0.035137568
0.035599598
0.036070838
0.036551162
0.037040429
0.037538484
0.038045162
0.038560284
0.03908366
0.039615092
0.040154371
0.040701281
0.041255598
0.041817095
0.042385546
0.042960739
0.025228333
0.025422236
0.025623015
0.025830852
0.026045951
0.026268494
0.026498663
0.026736643
0.026982614
0.027236751
0.027499229
0.027770215
0.028049873
0.028338357
0.028635817
0.028942392
0.029258211
0.029583396
0.029918054
0.030262282
0.030616165
0.030979771
0.031353158
0.031736365
0.032129418
0.032532327
0.032945085
0.03336767
0.033800043
0.034242147
0.034693911
0.035155247
0.035626052
0.036106207
0.036595579
0.037094021
0.037601372
0.038117459
0.038642097
0.039175093
0.03971624
0.040265326
0.04082213
0.041386426
0.04195799
0.042536611
0.024717762
0.024901538
0.025091993
0.025289305
0.02549366
0.025705253
0.025924275
0.026150917
0.026385369
0.026627818
0.02687845
0.027137446
0.027404983
0.027681233
0.027966361
0.028260524
0.028563874
0.02887655
0.029198684
0.029530394
0.029871787
0.030222959
0.03058399
0.030954947
0.031335882
0.031726829
0.03212781
0.032538827
0.032959868
0.033390904
0.033831886
0.034282753
0.034743425
0.035213805
0.035693783
0.036183232
0.036682011
0.037189964
0.037706924
0.03823271
0.038767132
0.039309988
0.039861067
0.040420151
0.040987015
0.041561437
0.042143209
0.024419085
0.02459964
0.024786853
0.0249809
0.025181973
0.025390262
0.025605972
0.025829297
0.026060432
0.026299573
0.026546912
0.026802637
0.027066935
0.027339985
0.027621962
0.027913032
0.028213356
0.028523082
0.028842352
0.029171295
0.029510029
0.029858657
0.030217272
0.030585949
0.03096475
0.03135372
0.031752891
0.032162273
0.032581863
0.033011641
0.033451568
0.033901588
0.03436163
0.034831604
0.035311407
0.035800916
0.036299997
0.036808499
0.03732626
0.037853102
0.038388838
0.038933268
0.039486186
0.040047373
0.040616607
0.041193668
0.04177835
0.024143289
0.024320821
0.024504978
0.024695942
0.024893912
0.025099087
0.025311672
0.025531867
0.025759876
0.025995899
0.026240135
0.026492781
0.026754029
0.027024067
0.027303078
0.027591238
0.027888714
0.028195666
0.028512243
0.028838584
0.029174816
0.029521053
0.029877395
0.030243928
0.030620723
0.031007836
0.031405303
0.031813148
0.032231374
0.032659968
0.0330989
0.033548122
0.034007568
0.034477156
0.034956788
0.035446347
0.035945703
0.036454711
0.036973211
0.037501029
0.038037981
0.038583871
0.039138491
0.039701627
0.040273058
0.040852565
0.041439943
0.023888769
0.024063454
0.024244716
0.024432761
0.024627794
0.024830023
0.025039649
0.025256887
0.025481942
0.02571502
0.025956326
0.026206065
0.026464434
0.026731631
0.027007844
0.027293258
0.027588049
0.027892384
0.028206422
0.028530309
0.028864183
0.029208164
0.029562364
0.029926876
0.030301781
0.030687141
0.031083003
0.031489397
0.031906336
0.032333813
0.032771805
0.033220272
0.033679153
0.034148373
0.034627837
0.035117436
0.035617043
0.036126516
0.036645699
0.037174422
0.037712503
0.038259747
0.038815949
0.039380895
0.039954366
0.040536143
0.041126025
0.023488546
0.023654106
0.023826043
0.024004548
0.024189821
0.024382069
0.024581503
0.02478833
0.025002768
0.025225026
0.025455318
0.025693853
0.025940842
0.02619649
0.026461
0.026734569
0.027017387
0.02730964
0.027611502
0.02792314
0.028244709
0.028576353
0.028918203
0.029270378
0.029632979
0.030006096
0.030389798
0.030784142
0.031189164
0.031604883
0.032031301
0.032468401
0.032916149
0.033374491
0.033843355
0.034322654
0.034812281
0.035312113
0.035822013
0.036341828
0.036871389
0.037410516
0.037959017
0.038516687
0.039083315
0.03965868
0.040242567
0.040834777
0.023274869
0.023437835
0.023607168
0.023783055
0.023965696
0.024155303
0.024352086
0.024556263
0.024768044
0.024987653
0.025215305
0.025451216
0.025695601
0.025948673
0.026210639
0.026481704
0.026762066
0.027051916
0.027351437
0.027660802
0.027980175
0.028309708
0.028649539
0.028999795
0.029360586
0.029732007
0.030114138
0.03050704
0.030910758
0.031325318
0.031750728
0.032186978
0.032634038
0.03309186
0.033560379
0.034039509
0.03452915
0.035029182
0.035539471
0.036059864
0.036590198
0.037130294
0.037679959
0.038238992
0.038807179
0.039384304
0.03997015
0.04056452
0.023078112
0.023238637
0.023405506
0.023578908
0.023759053
0.023946152
0.024140422
0.024342081
0.024551347
0.024768446
0.024993597
0.025227022
0.025468941
0.025719572
0.025979129
0.026247822
0.026525856
0.026813429
0.027110731
0.027417942
0.027735233
0.028062764
0.02840068
0.028749114
0.029108186
0.029477996
0.029858632
0.030250163
0.030652639
0.031066093
0.031490539
0.031925974
0.032372371
0.03282969
0.033297868
0.033776826
0.034266464
0.034766669
0.035277307
0.035798229
0.036329273
0.036870262
0.037421003
0.037981296
0.038550929
0.039129682
0.039717344
0.040313719
0.022897063
0.023055288
0.023219817
0.023390862
0.023568638
0.023753359
0.023945246
0.02414452
0.024351405
0.024566123
0.024788905
0.025019974
0.025259556
0.025507874
0.025765148
0.026031594
0.026307422
0.026592836
0.026888034
0.027193201
0.027508517
0.027834147
0.028170244
0.028516948
0.028874384
0.029242662
0.029621875
0.030012098
0.030413388
0.030825784
0.031249307
0.031683957
0.032129714
0.032586542
0.033054382
0.033533159
0.034022778
0.034523127
0.035034075
0.035555476
0.036087169
0.036628977
0.037180711
0.037742167
0.038313135
0.038893395
0.039482734
0.040080962
0.02258074
0.022730636
0.022886635
0.023048935
0.023217743
0.023393272
0.023575741
0.023765371
0.023962386
0.024167012
0.024379478
0.024600016
0.024828855
0.025066224
0.025312352
0.025567463
0.025831779
0.026105516
0.026388885
0.026682087
0.026985317
0.027298758
0.027622582
0.027956951
0.02830201
0.028657891
0.02902471
0.029402566
0.02979154
0.030191697
0.03060308
0.031025715
0.031459608
0.031904744
0.032361091
0.032828595
0.033307183
0.033796764
0.034297228
0.034808448
0.035330279
0.035862561
0.036405119
0.036957763
0.037520291
0.038092489
0.038674137
0.039265022
0.039864955
0.022429891
0.022577679
0.02273157
0.022891758
0.023058446
0.023231849
0.023412186
0.02359968
0.023794557
0.023997047
0.024207383
0.024425798
0.024652526
0.024887801
0.025131856
0.02538492
0.025647219
0.025918976
0.026200406
0.026491717
0.026793109
0.027104771
0.027426883
0.02775961
0.028103105
0.028457506
0.028822935
0.029199497
0.029587279
0.029986351
0.030396762
0.030818544
0.031251705
0.031696238
0.032152113
0.03261928
0.03309767
0.033587194
0.034087747
0.034599201
0.035121415
0.03565423
0.036197471
0.036750948
0.03731446
0.03788779
0.038470716
0.039063019
0.039664508
0.022291346
0.022437158
0.022589061
0.022747252
0.022911937
0.02308333
0.023261652
0.023447126
0.023639983
0.023840455
0.024048778
0.024265185
0.024489919
0.024723214
0.024965309
0.025216436
0.025476828
0.025746711
0.026026306
0.026315826
0.026615476
0.026925452
0.027245938
0.027577107
0.027919116
0.02827211
0.028636215
0.029011544
0.029398188
0.029796222
0.030205701
0.030626661
0.031059116
0.031503062
0.031958473
0.032425303
0.032903486
0.033392937
0.033893551
0.034405204
0.034927756
0.035461049
0.036004909
0.036559148
0.037123562
0.037697934
0.038282036
0.038875639
0.039478531
0.022164163
0.022308114
0.022458143
0.022614452
0.022777247
0.022946743
0.023123162
0.023306731
0.023497682
0.023696249
0.023902669
0.024117183
0.024340034
0.02457146
0.024811703
0.025061002
0.025319591
0.025587703
0.025865562
0.026153387
0.026451388
0.026759767
0.027078713
0.027408403
0.027749002
0.028100658
0.028463504
0.028837657
0.029223215
0.029620257
0.030028843
0.030449013
0.030880786
0.031324162
0.031779117
0.032245611
0.032723579
0.03321294
0.03371359
0.034225408
0.034748256
0.035281976
0.035826396
0.036381327
0.036946567
0.037521898
0.038107087
0.038701894
0.039306056
0.022047459
0.022189657
0.022337922
0.022492458
0.022653471
0.02282118
0.022995806
0.02317758
0.023366733
0.023563505
0.023768134
0.023980864
0.024201937
0.0244316
0.024670097
0.02491767
0.025174558
0.025440996
0.025717216
0.02600344
0.026299882
0.02660675
0.026924238
0.027252527
0.027591788
0.027942175
0.028303825
0.028676859
0.029061382
0.029457476
0.029865206
0.030284617
0.030715732
0.031158553
0.031613063
0.032079221
0.032556969
0.033046224
0.033546888
0.03405884
0.034581944
0.035116043
0.035660967
0.036216527
0.036782522
0.037358735
0.037944936
0.038540893
0.039146402
0.039761193
0.02194041
0.022080959
0.022227565
0.022380432
0.02253977
0.022705796
0.022878736
0.02305882
0.023246282
0.023441364
0.023644306
0.023855354
0.024074756
0.024302759
0.024539611
0.024785557
0.025040842
0.025305703
0.025580376
0.025865088
0.026160059
0.026465499
0.026781608
0.027108572
0.027446566
0.027795749
0.028156263
0.028528235
0.028911772
0.029306962
0.029713875
0.030132557
0.030563038
0.031005322
0.031459396
0.031925222
0.032402742
0.03289188
0.033392537
0.033904595
0.034427918
0.034962352
0.035507727
0.036063856
0.036630539
0.037207561
0.037794697
0.038391721
0.038998427
0.039614668
0.021842252
0.021981251
0.022126298
0.022277599
0.022435362
0.022599808
0.022771163
0.022949659
0.023135532
0.023329025
0.023530382
0.02373985
0.023957679
0.024184121
0.024419426
0.024663842
0.024917617
0.025180993
0.025454209
0.025737497
0.02603108
0.026335173
0.026649979
0.026975692
0.027312488
0.027660531
0.028019969
0.028390932
0.028773532
0.029167861
0.029573993
0.029991979
0.030421849
0.030863615
0.031317263
0.031782759
0.03226005
0.03274906
0.033249691
0.033761828
0.034285337
0.034820065
0.035365842
0.035922484
0.036489791
0.03706755
0.037655542
0.038253542
0.038861349
0.039478804
0.021752277
0.021889822
0.022033407
0.022183238
0.022339525
0.022502489
0.022672357
0.022849362
0.023033744
0.023225746
0.023425614
0.023633599
0.023849953
0.024074928
0.024308779
0.024551757
0.024804113
0.025066093
0.025337939
0.025619886
0.025912162
0.026214986
0.026528565
0.026853096
0.027188761
0.027535728
0.027894148
0.028264155
0.028645866
0.029039377
0.029444764
0.029862083
0.030291369
0.030732634
0.031185868
0.031651041
0.0321281
0.032616972
0.033117562
0.033629756
0.034153421
0.034688404
0.035234538
0.035791639
0.036359509
0.036937937
0.037526705
0.03812559
0.038734389
0.039352926
0.02166983
0.021806014
0.02194823
0.022096685
0.02225159
0.022413164
0.022581639
0.022757248
0.022940233
0.023130837
0.023329311
0.023535905
0.023750874
0.023974474
0.024206962
0.024448591
0.024699615
0.024960285
0.025230843
0.025511531
0.025802579
0.026104209
0.026416633
0.026740051
0.02707465
0.0274206
0.027778058
0.028147162
0.028528031
0.028920765
0.029325444
0.029742128
0.030170854
0.030611637
0.03106447
0.031529326
0.032006154
0.032494881
0.032995417
0.033507646
0.034031439
0.034566643
0.035113092
0.035670603
0.036238979
0.036818011
0.03740748
0.038007165
0.038616858
0.039236374
0.021594309
0.021729221
0.021870159
0.022017328
0.022170938
0.022331214
0.022498385
0.022672688
0.022854365
0.023043662
0.023240829
0.023446122
0.023659795
0.023882108
0.024113318
0.024353684
0.02460346
0.0248629
0.025132252
0.025411758
0.025701653
0.026002162
0.0263135
0.026635872
0.026969467
0.027314461
0.027671012
0.028039262
0.028419335
0.028811333
0.029215341
0.02963142
0.030059611
0.030499932
0.030952378
0.031416924
0.031893521
0.0323821
0.032882569
0.033394817
0.033918712
0.034454106
0.035000831
0.035558707
0.036127536
0.03670711
0.037297212
0.037897619
0.03850812
0.039128526
0.021525158
0.021658886
0.021798631
0.021944599
0.022097002
0.022256064
0.022422017
0.0225951
0.022775554
0.022963629
0.023159576
0.023363652
0.023576114
0.023797223
0.024027239
0.024266422
0.024515031
0.024773321
0.025041543
0.025319942
0.025608756
0.025908213
0.026218534
0.026539923
0.026872576
0.027216669
0.027572366
0.027939813
0.028319134
0.028710438
0.029113809
0.029529314
0.029956995
0.030396874
0.030848947
0.031313192
0.031789562
0.032277989
0.032778382
0.033290632
0.033814608
0.034350163
0.03489713
0.035455328
0.036024561
0.036604622
0.037195292
0.037796349
0.03840758
0.039028796
0.021461869
0.021594496
0.021733131
0.02187798
0.022029256
0.022187186
0.022352003
0.022523946
0.02270326
0.022890195
0.023085003
0.023287943
0.023499275
0.02371926
0.023948161
0.02418624
0.024433758
0.024690973
0.024958138
0.025235502
0.025523305
0.025821778
0.026131145
0.026451614
0.026783382
0.027126631
0.027481526
0.027848216
0.02822683
0.028617477
0.029020248
0.029435209
0.029862406
0.030301862
0.030753578
0.031217532
0.031693678
0.032181951
0.032682261
0.0331945
0.033718538
0.034254228
0.034801404
0.035359886
0.035929478
0.036509973
0.037101153
0.037702794
0.038314685
0.038936635
0.021403973
0.02153558
0.021673184
0.021816991
0.021967217
0.022124092
0.02228785
0.022458732
0.022636984
0.022822856
0.023016604
0.023218486
0.023428763
0.023647701
0.023875562
0.024112611
0.024359112
0.024615324
0.024881503
0.0251579
0.025444758
0.025742313
0.026050787
0.026370395
0.026701335
0.027043792
0.027397935
0.027763915
0.028141864
0.028531895
0.028934098
0.029348545
0.029775283
0.030214338
0.030665711
0.031129384
0.031605312
0.032093431
0.032593652
0.033105868
0.033629951
0.034165754
0.03471311
0.035271841
0.035841751
0.036422632
0.037014268
0.037616433
0.038228917
0.038851533
0.021351044
0.021481709
0.021618356
0.021761192
0.021910442
0.022066335
0.022229108
0.022399003
0.022576266
0.02276115
0.02295391
0.023154807
0.023364105
0.023582067
0.02380896
0.024045051
0.024290604
0.024545882
0.024811142
0.025086638
0.025372616
0.025669312
0.025976954
0.026295757
0.026625924
0.026967641
0.02732108
0.027686395
0.02806372
0.02845317
0.02885484
0.029268802
0.029695106
0.03013378
0.030584827
0.031048229
0.031523945
0.032011911
0.03251204
0.033024224
0.033548337
0.034084231
0.034631743
0.03519069
0.03576088
0.036342104
0.036934145
0.037536779
0.038149796
0.038773011
0.021302695
0.021432491
0.021568246
0.02171018
0.021858521
0.022013502
0.022175359
0.022344337
0.022520682
0.022704648
0.022896491
0.023096474
0.02330486
0.023521916
0.02374791
0.02398311
0.024227782
0.024482191
0.024746597
0.025021255
0.025306412
0.02560231
0.025909176
0.026227229
0.026556674
0.0268977
0.027250482
0.027615174
0.027991915
0.028380822
0.028781991
0.029195496
0.029621391
0.030059704
0.030510441
0.030973585
0.031449095
0.03193691
0.032436943
0.032949088
0.033473218
0.034009186
0.034556829
0.035115965
0.0356864
0.036267926
0.036860326
0.037463377
0.03807687
0.038700624
0.021258582
0.021387568
0.021522489
0.021663582
0.021811079
0.021965212
0.022126221
0.022294348
0.022469842
0.022652957
0.02284395
0.023043084
0.023250626
0.023466842
0.023692001
0.023926374
0.024170229
0.024423831
0.024687443
0.024961322
0.025245718
0.025540873
0.025847018
0.026164373
0.026493146
0.026833528
0.027185696
0.027549808
0.027926003
0.028314401
0.028715101
0.029128178
0.029553687
0.029991659
0.030442102
0.030904999
0.031380312
0.031867979
0.032367915
0.032880015
0.033404151
0.033940177
0.03448793
0.035047228
0.035617877
0.036199669
0.036792385
0.037395805
0.038009721
0.038633956
0.020867946
0.020979197
0.021095934
0.021218412
0.021346607
0.021480745
0.021621056
0.02176777
0.021921118
0.022081341
0.02224868
0.022423386
0.022605713
0.022795919
0.022994268
0.023201027
0.023416465
0.023640853
0.02387446
0.024117557
0.024370412
0.024633288
0.024906445
0.025190135
0.0254846
0.025790075
0.026106782
0.026434931
0.026774714
0.027126311
0.027489882
0.027865569
0.028253492
0.028653753
0.029066429
0.029491576
0.029929228
0.030379392
0.030842055
0.031317178
0.031804701
0.032304539
0.032816588
0.033340721
0.033876792
0.034424637
0.034984074
0.035554908
0.036136931
0.036729925
0.037333669
0.037947958
0.038572619
0.020728279
0.020833575
0.020944125
0.02106015
0.021181841
0.021309292
0.021442702
0.021582287
0.021728275
0.021880898
0.022040393
0.022207005
0.022380983
0.022562582
0.022752061
0.022949685
0.023155721
0.02337044
0.023594113
0.023827012
0.024069409
0.024321573
0.024583769
0.024856258
0.025139293
0.02543312
0.025737975
0.026054081
0.02638165
0.026720878
0.027071945
0.027435013
0.027810226
0.028197707
0.028597558
0.02900986
0.029434668
0.029872019
0.03032192
0.030784361
0.031259303
0.031746686
0.032246428
0.032758423
0.033282545
0.033818648
0.034366568
0.034926122
0.035497116
0.03607934
0.036672575
0.037276601
0.037891215
0.038516251
0.020697695
0.020802324
0.020912222
0.021027579
0.021148568
0.021275335
0.021408069
0.021546984
0.021692302
0.021844255
0.02200308
0.022169021
0.022342328
0.022523255
0.022712064
0.022909019
0.023114389
0.023328445
0.023551459
0.023783705
0.024025456
0.024276981
0.024538549
0.02481042
0.025092851
0.025386089
0.02569037
0.02600592
0.026332953
0.026671667
0.027022242
0.027384844
0.027759618
0.028146687
0.028546157
0.028958109
0.029382601
0.029819669
0.030269324
0.030731555
0.031206324
0.031693573
0.032193219
0.032705157
0.033229262
0.033765387
0.034313368
0.034873022
0.035444152
0.036026548
0.036619991
0.037224259
0.037839154
0.038464514
0.020669904
0.020773938
0.020883234
0.020997975
0.021118332
0.021244471
0.021376584
0.021514881
0.021659583
0.021810919
0.021969127
0.02213445
0.022307139
0.022487449
0.022675641
0.022871981
0.023076737
0.023290182
0.02351259
0.023744235
0.02398539
0.024236328
0.024497317
0.02476862
0.025050493
0.025343187
0.025646939
0.025961976
0.026288514
0.026626752
0.026976873
0.027339044
0.02771341
0.028100099
0.028499215
0.028910841
0.029335038
0.029771843
0.030221266
0.030683299
0.031157904
0.031645024
0.032144576
0.032656456
0.033180538
0.033716677
0.034264705
0.034824442
0.035395688
0.035978231
0.036571851
0.037176326
0.037791457
0.038417093
0.020644696
0.020748189
0.020856934
0.02097111
0.021090893
0.02121646
0.021348004
0.021485733
0.021629868
0.021780639
0.02193828
0.022103037
0.022275158
0.022454901
0.022642527
0.022838301
0.023042494
0.023255379
0.02347723
0.023708322
0.023948931
0.024199329
0.024459785
0.024730565
0.025011926
0.025304119
0.025607384
0.025921949
0.026248031
0.02658583
0.026935532
0.027297304
0.027671294
0.02805763
0.028456418
0.028867743
0.029291666
0.029728225
0.030177432
0.030639278
0.031113729
0.031600725
0.032100186
0.032612007
0.033136063
0.033672207
0.034220273
0.034780077
0.03535142
0.035934088
0.036527858
0.037132504
0.037747831
0.038373693
0.020621873
0.020724871
0.020833112
0.020946775
0.021066037
0.021191082
0.021322105
0.021459315
0.021602932
0.021753184
0.021910306
0.022074544
0.022246146
0.02242537
0.022612477
0.022807734
0.023011411
0.023223782
0.023445123
0.023675709
0.023915816
0.024165719
0.024425687
0.024695988
0.024976879
0.025268612
0.025571429
0.02588556
0.026211223
0.026548619
0.026897935
0.02725934
0.027632983
0.028018994
0.028417479
0.028828525
0.029252193
0.029688523
0.030137529
0.030599201
0.031073505
0.031560384
0.032059756
0.032571519
0.033095545
0.033631688
0.034179782
0.034739641
0.035311066
0.035893838
0.036487732
0.03709252
0.037708
0.038334038
0.020601251
0.020703799
0.02081158
0.020924776
0.021043565
0.021168135
0.021298684
0.02143542
0.021578564
0.021728342
0.021884991
0.022048754
0.022219882
0.022398632
0.022585265
0.022780049
0.022983255
0.023195157
0.023416031
0.023646155
0.023885804
0.024135254
0.024394776
0.024664637
0.024945098
0.025236411
0.025538818
0.025852552
0.02617783
0.026514856
0.026863818
0.027224886
0.02759821
0.027983921
0.028382127
0.028792915
0.029216349
0.029652467
0.030101285
0.030562794
0.031036961
0.031523728
0.032023016
0.03253472
0.033058714
0.033594851
0.034142964
0.034702868
0.035274359
0.035857219
0.036451216
0.037056116
0.037671712
0.038297873
0.020582662
0.0206848
0.020792164
0.020904935
0.021023296
0.021147435
0.021277552
0.021413858
0.021556571
0.021705918
0.021862135
0.022025467
0.022196163
0.022374481
0.022560683
0.022755037
0.022957813
0.023169288
0.023389737
0.023619439
0.02385867
0.024107707
0.024366822
0.024636283
0.024916351
0.02520728
0.025509313
0.025822683
0.02614761
0.026484298
0.026832936
0.027193695
0.027566727
0.027952162
0.028350112
0.028760663
0.029183879
0.029619801
0.030068445
0.030529803
0.031003841
0.031490504
0.03198971
0.032501356
0.033025316
0.033561443
0.03410957
0.034669508
0.035241054
0.035823986
0.036418068
0.037023056
0.037638732
0.038264958
0.020565951
0.020667716
0.020774701
0.020887089
0.021005062
0.021128811
0.021258538
0.021394453
0.021536775
0.021685731
0.021841557
0.022004497
0.022174802
0.022352728
0.022538538
0.022732501
0.022934887
0.023145974
0.023366037
0.023595356
0.023834207
0.024082869
0.024341614
0.024610711
0.024890421
0.025181
0.025482693
0.025795732
0.026120339