/*--------------------------------*- C++ -*----------------------------------*\
| =========                 |                                                 |
| \\      /  F ield         | OpenFOAM: The Open Source CFD Toolbox           |
|  \\    /   O peration     | Version:  2312                                  |
|   \\  /    A nd           | Website:  www.openfoam.com                      |
|    \\/     M anipulation  |                                                 |
\*---------------------------------------------------------------------------*/
FoamFile
{
    version     2.0;
    format      ascii;
    arch        "LSB;label=32;scalar=64";
    class       volScalarField;
    location    "0.06";
    object      CH4;
}
// * * * * * * * * * * * * * * * * * * * * * * * * * * * * * * * * * * * * * //

dimensions      [0 0 0 0 0 0 0];

internalField   nonuniform List<scalar> 
3250
(
0.0085176854
0.0083406765
0.0081628125
0.0079838785
0.0078043062
0.0076245483
0.007444988
0.0072659493
0.0070877152
0.0069105395
0.0067346528
0.0065602649
0.0063875656
0.0062167249
0.0060478938
0.0058812052
0.0057167765
0.0055547122
0.0053951065
0.0052380467
0.0050836153
0.0049318914
0.0047829522
0.0046368724
0.0044937234
0.0043535728
0.0042164819
0.0040825051
0.0039516875
0.0038240642
0.003699659
0.003578484
0.003460539
0.0033458115
0.0032342771
0.0031258987
0.0030206273
0.0029184012
0.0028191456
0.0027227711
0.0026291715
0.0025382233
0.0024497912
0.0023637493
0.009193548
0.0089932073
0.0087921005
0.0085902871
0.0083882631
0.0081865014
0.0079853977
0.0077852874
0.0075864648
0.0073891942
0.0071937155
0.0070002468
0.0068089848
0.0066201056
0.0064337647
0.0062500987
0.0060692275
0.0058912561
0.0057162784
0.0055443795
0.0053756378
0.0052101271
0.0050479173
0.0048890745
0.0047336605
0.0045817318
0.0044333382
0.0042885214
0.0041473141
0.0040097382
0.0038758044
0.0037455117
0.003618847
0.003495785
0.0033762883
0.0032603074
0.0031477807
0.0030386335
0.0029327769
0.002830104
0.002730486
0.0026337698
0.0025398049
0.0024485895
0.010400316
0.010158984
0.0099174201
0.0096758402
0.0094347601
0.0091946614
0.0089559555
0.0087189988
0.008484108
0.0082515696
0.0080216439
0.0077945678
0.0075705545
0.0073497944
0.0071324557
0.0069186851
0.0067086104
0.006502342
0.0062999764
0.0061015983
0.0059072829
0.0057170974
0.0055311027
0.0053493527
0.005171895
0.0049987696
0.0048300084
0.0046656339
0.0045056583
0.0043500829
0.004198897
0.0040520783
0.0039095922
0.0037713922
0.0036374199
0.0035076049
0.0033818654
0.0032601067
0.0031422207
0.0030280825
0.0029175467
0.0028104471
0.0027066222
0.0026060551
0.011981291
0.011688458
0.01139598
0.01110423
0.010813745
0.010525022
0.010238498
0.0099545624
0.0096735683
0.0093958373
0.0091216636
0.008851315
0.0085850334
0.0083230352
0.0080655112
0.0078126283
0.0075645308
0.0073213428
0.0070831703
0.0068501036
0.0066222196
0.0063995833
0.0061822488
0.0059702604
0.0057636521
0.0055624479
0.0053666608
0.0051762927
0.0049913339
0.0048117622
0.0046375429
0.004468629
0.0043049612
0.0041464678
0.0039930654
0.0038446593
0.003701143
0.0035623984
0.0034282944
0.0032986849
0.0031734055
0.0030522737
0.0029351122
0.0028218805
0.01378901
0.013440234
0.013092294
0.012745705
0.012401035
0.012058809
0.011719506
0.01138356
0.011051374
0.010723317
0.010399729
0.010080923
0.0097671813
0.009458757
0.0091558756
0.0088587348
0.0085675058
0.0082823357
0.0080033493
0.0077306512
0.0074643275
0.0072044481
0.0069510674
0.0067042253
0.0064639478
0.0062302468
0.006003121
0.0057825546
0.0055685184
0.005360969
0.0051598494
0.0049650889
0.0047766039
0.0045942982
0.0044180635
0.00424778
0.0040833163
0.00392453
0.0037712666
0.0036233578
0.0034806192
0.0033428507
0.0032098575
0.0030815676
0.01570332
0.015298458
0.01489474
0.014492798
0.014093242
0.013696642
0.013303525
0.012914385
0.012529682
0.012149843
0.011775265
0.011406314
0.011043322
0.01068659
0.010336387
0.0099929502
0.0096564876
0.0093271779
0.0090051735
0.0086906015
0.0083835661
0.0080841497
0.0077924148
0.0075084045
0.0072321435
0.006963639
0.0067028808
0.0064498418
0.0062044783
0.0059667306
0.0057365235
0.0055137667
0.0052983559
0.0050901732
0.0048890878
0.0046949571
0.0045076271
0.0043269322
0.0041526958
0.0039847284
0.0038228265
0.0036667728
0.0035163542
0.0033714638
0.017638095
0.017179441
0.016722067
0.016266701
0.015814002
0.015364591
0.014919055
0.014477951
0.014041803
0.013611103
0.013186307
0.012767841
0.012356093
0.011951418
0.011554132
0.011164522
0.010782835
0.010409291
0.010044074
0.0096873421
0.0093392234
0.0089998201
0.0086692095
0.008347445
0.0080345571
0.0077305546
0.0074354253
0.0071491368
0.0068716372
0.0066028561
0.0063427054
0.0060910801
0.0058478597
0.0056129086
0.0053860776
0.0051672048
0.0049561161
0.004752626
0.0045565379
0.0043676432
0.0041857205
0.0040105365
0.0038418608
0.0036795507
0.019539073
0.019029871
0.018521977
0.018016175
0.017513175
0.017013653
0.016518261
0.01602762
0.015542319
0.015062914
0.014589926
0.014123839
0.013665101
0.01321412
0.012771267
0.012336876
0.01191124
0.011494621
0.011087241
0.01068929
0.010300927
0.0099222774
0.0095534387
0.0091944796
0.0088454419
0.0085063415
0.0081771697
0.0078578941
0.0075484601
0.0072487916
0.0069587925
0.0066783479
0.0064073252
0.0061455756
0.0058929351
0.0056492259
0.0054142572
0.0051878265
0.0049697197
0.0047597112
0.0045575637
0.0043630287
0.0041758594
0.0039958789
0.021376761
0.02082027
0.020265116
0.019712049
0.019161821
0.018615166
0.0180728
0.017535408
0.017003645
0.016478129
0.015959442
0.015448128
0.014944691
0.014449595
0.013963262
0.013486074
0.013018373
0.01256046
0.012112598
0.011675012
0.011247891
0.010831388
0.010425623
0.010030683
0.0096466252
0.0092734756
0.0089112331
0.0085598694
0.0082193307
0.0078895395
0.0075703954
0.007261777
0.0069635436
0.0066755361
0.0063975791
0.0061294817
0.0058710394
0.0056220348
0.0053822387
0.0051514103
0.0049292974
0.0047156378
0.0045101688
0.0043126821
0.024338142
0.023738437
0.023137745
0.022537241
0.021937854
0.021340446
0.020745845
0.020154858
0.019568264
0.018986813
0.018411219
0.017842161
0.01728028
0.016726175
0.016180405
0.015643485
0.01511589
0.014598046
0.014090342
0.013593119
0.01310668
0.012631283
0.01216715
0.01171446
0.011273358
0.010843951
0.010426312
0.01002048
0.0096264634
0.0092442409
0.0088737619
0.0085149496
0.008167702
0.007831894
0.0075073788
0.0071939897
0.0068915418
0.0065998337
0.0063186486
0.0060477562
0.0057869138
0.0055358667
0.0052943488
0.0050620842
0.004838795
0.0046242449
0.026102341
0.025461311
0.024819231
0.024177145
0.023536011
0.022896751
0.022260258
0.021627402
0.020999021
0.020375924
0.019758883
0.019148631
0.018545864
0.017951234
0.017365352
0.016788783
0.016222045
0.015665615
0.01511992
0.014585343
0.014062222
0.013550852
0.013051481
0.012564319
0.012089533
0.011627251
0.011177562
0.01074052
0.010316144
0.0099044185
0.0095052996
0.0091187121
0.008744554
0.0083826976
0.0080329917
0.0076952634
0.0073693196
0.0070549495
0.0067519258
0.0064600062
0.0061789353
0.005908445
0.005648256
0.0053980788
0.0051576203
0.0049266199
0.027784052
0.027103886
0.026422478
0.025740889
0.025060116
0.02438113
0.023704881
0.023032292
0.022364256
0.021701635
0.021045253
0.020395897
0.019754311
0.019121199
0.018497219
0.017882981
0.01727905
0.016685943
0.016104129
0.015534028
0.014976014
0.014430412
0.013897502
0.013377519
0.012870653
0.012377051
0.011896821
0.01143003
0.010976707
0.010536846
0.010110408
0.00969732
0.0092974813
0.0089107622
0.0085370079
0.0081760399
0.0078276581
0.0074916427
0.0071677563
0.0068557456
0.0065553427
0.0062662669
0.0059882251
0.0057209142
0.0054640261
0.0052172785
0.029386797
0.028669306
0.027950383
0.02723112
0.02651256
0.025795719
0.025081596
0.024371163
0.023665363
0.022965106
0.022271265
0.021584676
0.020906131
0.020236379
0.019576123
0.018926017
0.018286669
0.017658635
0.017042423
0.016438488
0.015847237
0.015269027
0.014704166
0.014152913
0.01361548
0.013092036
0.012582702
0.012087561
0.011606652
0.011139978
0.010687504
0.010249162
0.0098248497
0.009414438
0.0090177681
0.0086346563
0.0082648957
0.007908258
0.0075644963
0.007233346
0.0069145274
0.0066077468
0.0063126976
0.0060290624
0.0057565183
0.0054947638
0.030913959
0.030160784
0.029406002
0.028650744
0.027896092
0.027143108
0.026392832
0.025646284
0.02490445
0.024168288
0.023438715
0.022716612
0.022002815
0.021298118
0.020603266
0.019918955
0.019245832
0.018584492
0.017935477
0.017299279
0.016676335
0.016067033
0.015471706
0.014890638
0.014324063
0.013772168
0.013235091
0.012712927
0.012205726
0.011713499
0.011236217
0.010773815
0.010326191
0.0098932159
0.0094747265
0.0090705345
0.0086804263
0.0083041654
0.0079414952
0.0075921405
0.0072558094
0.0069321953
0.0066209781
0.0063218258
0.0060344002
0.0057583832
0.032368323
0.031581023
0.030791964
0.030002309
0.029213179
0.028425675
0.027640881
0.026859855
0.026083627
0.025313196
0.024549522
0.023793529
0.023046095
0.022308054
0.021580192
0.020863245
0.020157897
0.01946478
0.018784471
0.018117494
0.017464317
0.016825356
0.016200969
0.015591466
0.014997099
0.014418075
0.013854547
0.013306622
0.012774362
0.012257785
0.011756867
0.011271547
0.010801725
0.010347267
0.0099080108
0.009483761
0.009074298
0.0086793773
0.0082987326
0.007932078
0.0075791098
0.0072395087
0.0069129405
0.0065990587
0.0062975098
0.0060079606
0.033752059
0.032932164
0.032110375
0.031287887
0.030465857
0.02964542
0.028827698
0.028013786
0.027204754
0.026401641
0.025605446
0.024817134
0.024037621
0.023267782
0.02250844
0.021760369
0.02102429
0.020300868
0.019590716
0.018894387
0.01821238
0.017545137
0.016893043
0.016256428
0.015635567
0.015030682
0.014441943
0.013869469
0.013313333
0.01277356
0.012250133
0.011742991
0.011252038
0.010777138
0.010318125
0.0098747998
0.0094469363
0.009034282
0.0086365612
0.0082534775
0.0078847156
0.0075299432
0.0071888125
0.0068609624
0.0065460241
0.0062436507
0.035066908
0.034215927
0.033362947
0.032509181
0.031655812
0.030804011
0.029954931
0.029109704
0.028269436
0.027435201
0.026608039
0.025788948
0.024978886
0.024178763
0.023389438
0.022611722
0.02184637
0.021094082
0.0203555
0.01963121
0.018921739
0.018227555
0.017549066
0.016886627
0.01624053
0.015611015
0.014998268
0.01440242
0.013823554
0.013261702
0.012716853
0.01218895
0.011677897
0.011183558
0.010705763
0.01024431
0.0097989662
0.0093694705
0.0089555389
0.0085568644
0.0081731204
0.007803962
0.0074490279
0.0071079424
0.006780322
0.0064658067
0.036314386
0.035433814
0.034551179
0.033667683
0.032784532
0.031902924
0.031024045
0.03014906
0.029279107
0.028415295
0.0275587
0.026710355
0.025871252
0.025042337
0.024224506
0.023418602
0.022625413
0.021845672
0.021080051
0.020329167
0.019593571
0.01887376
0.018170165
0.01748316
0.016813059
0.016160118
0.015524537
0.014906461
0.014305981
0.013723138
0.013157926
0.012610292
0.012080141
0.011567336
0.011071706
0.010593042
0.010131106
0.0096856318
0.0092563247
0.0088428684
0.0084449248
0.008062137
0.0076941306
0.0073405156
0.0070008938
0.0066748935
0.038400898
0.037495818
0.03658726
0.035676518
0.034764834
0.033853444
0.032943574
0.03203644
0.031133237
0.030235134
0.029343274
0.028458763
0.027582669
0.026716017
0.025859786
0.025014905
0.02418225
0.023362641
0.02255684
0.021765551
0.020989417
0.020229017
0.019484871
0.018757435
0.018047102
0.017354206
0.01667902
0.016021757
0.015382574
0.014761573
0.014158803
0.013574263
0.013007903
0.012459629
0.011929306
0.011416759
0.010921775
0.010444112
0.0099834941
0.0095396204
0.0091121644
0.0087007774
0.0083050906
0.0079247167
0.0075592523
0.0072082848
0.0068714315
0.039544374
0.038612896
0.037677833
0.036740489
0.035802132
0.034864022
0.033927414
0.032993546
0.032063644
0.031138905
0.030220501
0.02930957
0.02840721
0.027514478
0.026632384
0.025761889
0.024903899
0.024059264
0.023228776
0.022413168
0.021613107
0.020829202
0.020061993
0.019311959
0.018579515
0.017865012
0.017168738
0.016490922
0.015831733
0.015191282
0.014569625
0.013966768
0.013382664
0.012817221
0.012270303
0.011741734
0.011231297
0.010738745
0.010263795
0.0098061395
0.0093654414
0.0089413423
0.0085334622
0.0081414015
0.0077647435
0.0074030621
0.0070559643
0.040623787
0.039667329
0.038707212
0.037744737
0.03678119
0.03581785
0.034855993
0.033896883
0.03294177
0.031991878
0.031048407
0.030112521
0.02918535
0.028267979
0.027361448
0.026466746
0.025584809
0.024716517
0.023862689
0.023024084
0.022201397
0.021395259
0.020606235
0.019834824
0.019081461
0.018346514
0.017630288
0.016933026
0.016254906
0.015596052
0.014956526
0.01433634
0.01373545
0.013153768
0.012591156
0.012047436
0.01152239
0.011015764
0.010527271
0.010056593
0.0096033867
0.0091672833
0.008747892
0.0083448015
0.0079575826
0.0075857962
0.0072290395
0.041641021
0.040660971
0.039677222
0.038691055
0.037703762
0.036716641
0.035730987
0.034748087
0.033769212
0.032795612
0.031828512
0.030869102
0.029918537
0.028977933
0.028048355
0.027130821
0.026226294
0.025335681
0.024459829
0.02359952
0.022755476
0.021928349
0.021118728
0.020327132
0.019554015
0.018799762
0.018064693
0.017349063
0.016653065
0.015976829
0.015320427
0.014683875
0.014067134
0.013470117
0.012892687
0.012334664
0.011795828
0.01127592
0.010774646
0.010291684
0.0098266796
0.0093792563
0.0089490128
0.0085355266
0.0081383566
0.0077570513
0.007391199
0.043595098
0.042598023
0.041595828
0.040589845
0.039581379
0.038571739
0.037562241
0.036554196
0.035548912
0.03454768
0.033551772
0.032562436
0.031580888
0.030608307
0.029645832
0.028694558
0.027755526
0.026829727
0.025918093
0.025021494
0.024140739
0.023276571
0.022429667
0.021600634
0.020790014
0.019998276
0.019225822
0.018472989
0.017740043
0.017027188
0.016334564
0.015662251
0.015010269
0.014378584
0.013767111
0.013175713
0.01260421
0.012052377
0.011519953
0.011006639
0.010512105
0.010035989
0.009577907
0.0091374467
0.0087141759
0.0083076416
0.0079173811
0.0075429743
0.044514953
0.043497117
0.042474088
0.041447202
0.040417778
0.039387138
0.038356613
0.037327532
0.036301219
0.035278983
0.034262117
0.03325189
0.032249541
0.031256271
0.030273244
0.029301577
0.028342338
0.02739654
0.02646514
0.025549031
0.024649046
0.02376595
0.02290044
0.022053145
0.021224623
0.020415363
0.019625782
0.018856229
0.018106985
0.017378264
0.016670215
0.015982925
0.015316419
0.014670669
0.01404559
0.013441047
0.012856858
0.012292797
0.011748598
0.011223958
0.010718539
0.010231974
0.0097638691
0.0093138041
0.0088813361
0.0084660015
0.0080673266
0.0076848841
0.045378017
0.044340643
0.043298034
0.042251518
0.041202418
0.040152069
0.039101814
0.038052995
0.037006952
0.035965011
0.034928483
0.033898657
0.03287679
0.031864108
0.030861795
0.029870991
0.028892785
0.027928214
0.026978257
0.026043831
0.025125788
0.024224915
0.02334193
0.02247748
0.021632141
0.020806418
0.020000743
0.01921548
0.018450921
0.01770729
0.016984744
0.016283379
0.015603226
0.014944258
0.014306393
0.013689498
0.01309339
0.01251784
0.011962579
0.011427299
0.010911657
0.01041528
0.0099377647
0.0094786826
0.0090375813
0.0086139869
0.0082074151
0.0078174324
0.046186722
0.045130994
0.044070011
0.043005082
0.041937534
0.04086871
0.039799963
0.038732647
0.037668115
0.036607711
0.035552761
0.03450457
0.033464417
0.032433544
0.031413157
0.030404417
0.029408434
0.028426266
0.027458912
0.026507311
0.025572336
0.024654793
0.023755418
0.022874877
0.022013762
0.021172594
0.020351821
0.019551817
0.018772887
0.018015266
0.017279118
0.016564545
0.015871585
0.015200213
0.014550352
0.013921868
0.013314576
0.012728248
0.01216261
0.01161735
0.011092121
0.010586542
0.010100203
0.0096326669
0.0091834722
0.0087521347
0.0083381596
0.0079411081
0.048009794
0.0469435
0.0458706
0.044792404
0.043710225
0.042625399
0.041539274
0.040453214
0.039368584
0.038286749
0.037209064
0.036136873
0.035071496
0.034014228
0.03296633
0.031929027
0.030903498
0.029890874
0.028892232
0.027908591
0.026940908
0.025990077
0.025056921
0.024142196
0.023246582
0.022370689
0.021515052
0.020680133
0.019866318
0.019073924
0.018303192
0.017554298
0.016827349
0.016122388
0.015439395
0.014778292
0.014138948
0.013521179
0.012924753
0.012349394
0.011794786
0.011260578
0.010746381
0.010251779
0.0097763279
0.0093195559
0.0088809684
0.0084600589
0.008056383
0.048733251
0.047650905
0.046561922
0.04546761
0.044369288
0.043268294
0.042165987
0.041063735
0.039962914
0.0388649
0.037771061
0.036682751
0.035601308
0.03452804
0.033464227
0.03241111
0.031369885
0.030341701
0.029327655
0.028328783
0.027346061
0.0263804
0.025432642
0.024503556
0.023593842
0.022704124
0.02183495
0.020986794
0.020160056
0.019355061
0.018572062
0.017811241
0.01707271
0.016356518
0.015662648
0.014991027
0.014341521
0.013713948
0.013108074
0.01252362
0.011960268
0.011417659
0.010895402
0.010393074
0.0099102216
0.009446365
0.0090009979
0.008573599
0.0081637112
0.049408823
0.048311437
0.047207401
0.046098013
0.044984595
0.043868489
0.042751058
0.041633679
0.040517734
0.039404608
0.03829568
0.037192318
0.036095871
0.035007663
0.033928988
0.032861101
0.031805218
0.030762503
0.029734069
0.028720971
0.027724201
0.026744686
0.025783285
0.024840783
0.023917894
0.023015256
0.022133432
0.021272907
0.020434091
0.019617321
0.018822856
0.018050886
0.01730153
0.016574841
0.015870807
0.015189354
0.014530352
0.013893616
0.013278913
0.012685961
0.012114438
0.011563982
0.011034196
0.010524651
0.010034888
0.0095644169
0.0091127208
0.0086792575
0.0082635344
0.050039003
0.048927547
0.047809437
0.04668596
0.04555844
0.044428221
0.04329667
0.04216517
0.041035109
0.039907882
0.038784876
0.037667471
0.036557026
0.03545488
0.034362339
0.033280675
0.032211117
0.031154845
0.030112988
0.029086616
0.028076737
0.027084295
0.026110162
0.025155139
0.024219955
0.023305259
0.022411626
0.021539555
0.020689465
0.019861702
0.019056533
0.018274156
0.017514695
0.016778207
0.016064684
0.015374053
0.014706187
0.014060899
0.013437955
0.012837072
0.012257924
0.011700145
0.011163334
0.010647057
0.010150848
0.0096742116
0.0092166212
0.0087775139
0.008356321
0.050626237
0.049501633
0.048370376
0.047233745
0.046093063
0.044949676
0.043804954
0.042660284
0.041517063
0.040376689
0.03924056
0.038110065
0.036986574
0.035871438
0.034765975
0.033671471
0.032589167
0.03152026
0.030465892
0.029427148
0.028405051
0.027400558
0.026414557
0.025447862
0.024501214
0.023575276
0.022670634
0.021787797
0.020927195
0.020089181
0.019274032
0.018481951
0.017713067
0.016967442
0.016245071
0.015545883
0.014869751
0.01421649
0.013585863
0.012977586
0.01239133
0.011826725
0.011283367
0.010760817
0.010258603
0.0097762282
0.009313162
0.0088688482
0.0084427664
0.0080343772
0.051172899
0.050036021
0.048892496
0.047743596
0.046590641
0.045434979
0.044277983
0.043121043
0.041965561
0.040812942
0.039664591
0.038521906
0.037386268
0.036259036
0.035141542
0.034035082
0.032940912
0.03186024
0.030794223
0.029743959
0.028710485
0.027694771
0.026697718
0.025720153
0.024762829
0.023826421
0.022911526
0.022018662
0.021148269
0.020300707
0.019476262
0.018675142
0.017897481
0.017143346
0.016412733
0.015705575
0.015021745
0.014361058
0.013723277
0.013108114
0.012515239
0.01194428
0.011394826
0.010866436
0.010358635
0.0098709213
0.0094027649
0.0089536132
0.0085229221
0.0081102869
0.051681285
0.050532961
0.049378001
0.048217667
0.047053278
0.045886184
0.04471776
0.043549398
0.042382504
0.04121849
0.040058768
0.038904742
0.037757803
0.036619319
0.035490633
0.034373053
0.033267845
0.03217623
0.031099377
0.030038398
0.02899434
0.027968188
0.026960853
0.025973176
0.02500592
0.02405977
0.023135336
0.022233143
0.02135364
0.020497195
0.019664101
0.01885457
0.018068743
0.01730669
0.016568409
0.015853836
0.015162845
0.014495249
0.013850812
0.013229244
0.012630213
0.012053342
0.01149822
0.0109644
0.010451403
0.0099587253
0.009485835
0.0090321801
0.0085972081
0.0081804875
0.052153603
0.050994616
0.049829007
0.048658029
0.047483
0.046305269
0.045126213
0.043947228
0.042769723
0.041595115
0.040424822
0.039260255
0.038102812
0.036953871
0.035814785
0.03468687
0.033571405
0.032469621
0.031382699
0.030311761
0.029257869
0.028222016
0.027205126
0.026208051
0.025231564
0.024276362
0.023343061
0.022432197
0.021544227
0.020679526
0.019838392
0.019021045
0.018227628
0.017458215
0.016712809
0.015991344
0.015293697
0.014619681
0.013969058
0.013341539
0.012736787
0.012154425
0.011594036
0.011055171
0.010537348
0.010040057
0.0095627668
0.0091049204
0.008665957
0.0082454155
0.052591969
0.05142306
0.050247545
0.049066668
0.047881745
0.046694127
0.045505191
0.044316335
0.043128973
0.041944524
0.040764413
0.039590057
0.038422861
0.037264211
0.036115468
0.034977959
0.033852971
0.032741747
0.031645477
0.030565295
0.029502272
0.028457413
0.027431653
0.026425853
0.025440796
0.024477188
0.023535655
0.022616742
0.02172091
0.020848544
0.019999946
0.019175341
0.018374878
0.017598632
0.016846609
0.016118747
0.01541492
0.014734945
0.014078581
0.013445537
0.012835475
0.012248015
0.011682738
0.011139191
0.010616888
0.010115317
0.0096339397
0.0091721973
0.00872952
0.0083054286
0.052998404
0.051820273
0.050635554
0.04944548
0.048251368
0.047054567
0.045856458
0.044658439
0.043461928
0.042268348
0.041079127
0.039895689
0.038719446
0.037551791
0.036394091
0.035247683
0.034113864
0.032993885
0.031888945
0.03080019
0.029728699
0.028675488
0.027641501
0.026627609
0.025634604
0.024663201
0.023714033
0.022787653
0.02188453
0.021005054
0.020149534
0.019318197
0.018511199
0.017728616
0.016970458
0.016236662
0.015527106
0.014841604
0.014179915
0.013541748
0.012926764
0.012334578
0.011764769
0.01121688
0.010690423
0.010184882
0.0096997151
0.0092343572
0.0087882315
0.0083608495
0.053374831
0.052188143
0.050994881
0.049796273
0.048593633
0.047388314
0.046181696
0.04497518
0.043770186
0.04256814
0.041370476
0.040178621
0.038993994
0.037817993
0.036651995
0.035497343
0.034355341
0.03322725
0.032114279
0.03101758
0.029938244
0.028877295
0.027835687
0.026814298
0.025813929
0.024835304
0.023879063
0.022945765
0.022035888
0.021149825
0.020287891
0.019450319
0.018637266
0.017848813
0.01708497
0.016345678
0.015630814
0.014940192
0.014273573
0.013630661
0.013011116
0.012414553
0.011840546
0.011288637
0.010758333
0.010249114
0.0097604359
0.0092917274
0.0088424058
0.0084119773
0.05372308
0.052528463
0.051327283
0.050120763
0.048910218
0.047697004
0.046482502
0.045268115
0.044055263
0.042845378
0.041639896
0.040440249
0.03924786
0.038064134
0.036890455
0.035728171
0.034578596
0.033442998
0.032322594
0.031218544
0.030131949
0.029063839
0.028015177
0.02698685
0.025979667
0.024994358
0.024031572
0.023091873
0.022175744
0.021283586
0.020415716
0.019572374
0.018753718
0.017959833
0.01719073
0.016446353
0.015726577
0.015031219
0.014360037
0.013712735
0.013088971
0.012488358
0.011910468
0.011354839
0.010820976
0.010308355
0.0098164265
0.0093446169
0.0088923376
0.0084590914
0.054044883
0.052842937
0.051634426
0.050420578
0.049202714
0.047982191
0.046760391
0.04553872
0.044318599
0.043101463
0.041888749
0.040681895
0.039482329
0.038291461
0.037110679
0.035941341
0.034784765
0.033642226
0.032514951
0.031404106
0.0303108
0.029236071
0.028180889
0.027146149
0.026132667
0.02514118
0.024172343
0.023226726
0.02230482
0.021407027
0.020533672
0.019684995
0.018861161
0.018062255
0.017288292
0.016539214
0.015814899
0.015115164
0.014439765
0.013788407
0.013160744
0.012556389
0.011974911
0.011415844
0.010878691
0.010362925
0.0098679931
0.0093933168
0.0089383035
0.0085024541
0.054341884
0.05313318
0.051917889
0.050697261
0.049472626
0.048245344
0.047016797
0.045788393
0.044561555
0.043337718
0.042118324
0.040904813
0.039698617
0.038501153
0.037313813
0.036137959
0.034974919
0.033825973
0.032692353
0.031575234
0.030475731
0.029394891
0.02833369
0.027293029
0.026273731
0.025276541
0.024302117
0.023351038
0.022423797
0.021520803
0.020642383
0.019788783
0.018960168
0.018156628
0.017378177
0.01662476
0.015896257
0.015192481
0.01451319
0.013858088
0.013226827
0.012619018
0.012034227
0.011471988
0.010931799
0.01041313
0.0099154242
0.009438101
0.0089805634
0.0085423113
0.05461565
0.053400725
0.052179164
0.050952267
0.049721376
0.04848785
0.047253075
0.046018455
0.044785416
0.043555396
0.042329838
0.041110186
0.039897876
0.038694327
0.037500937
0.036319076
0.035150073
0.033995218
0.032855747
0.031732844
0.030627627
0.029541152
0.0284744
0.027428279
0.02640362
0.02540117
0.024421596
0.02346548
0.022533321
0.021625531
0.020742442
0.019884302
0.01905128
0.018243467
0.01746088
0.016703464
0.015971098
0.015263597
0.01458072
0.013922166
0.013287589
0.012676596
0.012088753
0.011523589
0.0109806
0.010459254
0.0099589915
0.0094792271
0.0090193615
0.008578894
0.054867694
0.053647023
0.05241966
0.051186973
0.049950306
0.048711021
0.047470501
0.046230152
0.044991398
0.04375568
0.042524443
0.041299132
0.040081188
0.038872035
0.037673073
0.036485678
0.035311185
0.034150887
0.033006029
0.031877798
0.03076732
0.029675656
0.028603793
0.027552645
0.026523048
0.025515756
0.02453144
0.023570686
0.022633998
0.021721794
0.020834406
0.019972087
0.019135007
0.01832326
0.017536865
0.016775767
0.016039846
0.015328918
0.014642738
0.013981008
0.013343379
0.012729455
0.012138802
0.011570945
0.01102538
0.010501569
0.0099989505
0.0095169373
0.0090549267
0.0086124187
0.058728282
0.057527914
0.056317813
0.055099578
0.053873446
0.052640703
0.05140267
0.050160681
0.048916092
0.047670282
0.046424658
0.045180645
0.043939683
0.04270322
0.041472704
0.040249578
0.039035269
0.037831184
0.036638699
0.035459156
0.034293854
0.033144042
0.032010912
0.030895596
0.02979916
0.028722598
0.027666829
0.026632692
0.025620948
0.024632271
0.023667254
0.022726403
0.021810139
0.020918799
0.020052638
0.019211829
0.018396466
0.01760657
0.016842089
0.0161029
0.015388821
0.014699606
0.014034957
0.013394522
0.012777906
0.01218467
0.011614338
0.011066403
0.010540326
0.010035541
0.0095514588
0.0090874741
0.008643088
0.060150939
0.058956317
0.057750962
0.056535919
0.055312428
0.054081243
0.052843535
0.051600579
0.050353692
0.049104224
0.047853551
0.046603079
0.045354233
0.044108454
0.042867191
0.041631894
0.040404008
0.039184965
0.037976174
0.036779016
0.035594837
0.03442494
0.033270579
0.032132951
0.031013195
0.029912379
0.028831503
0.02777149
0.026733187
0.025717356
0.024724677
0.023755747
0.022811074
0.021891084
0.020996117
0.02012643
0.019282198
0.018463517
0.017670409
0.016902821
0.016160634
0.015443664
0.014751665
0.014084336
0.013441327
0.01282224
0.012226634
0.011654032
0.011103922
0.010575764
0.010068989
0.009583005
0.0091172051
0.0086710919
0.060364592
0.059165246
0.05795527
0.05673562
0.055507409
0.054271594
0.053029322
0.051781842
0.050530458
0.049276512
0.048021377
0.046766458
0.045513178
0.044262981
0.043017315
0.041777634
0.040545385
0.039322001
0.038108896
0.036907454
0.035719026
0.034544918
0.033386388
0.032244638
0.031120811
0.030015982
0.028931152
0.027867252
0.02682513
0.025805554
0.024809208
0.023836691
0.022888518
0.021965114
0.021066824
0.020193906
0.019346538
0.018524817
0.017728766
0.016958334
0.0162134
0.015493781
0.014799232
0.01412945
0.013484083
0.012862732
0.012264956
0.011690273
0.011138171
0.010608105
0.010099506
0.0096117763
0.0091443085
0.0086966078
0.060559883
0.059356257
0.058142036
0.056918147
0.055685661
0.054445617
0.053199164
0.051947539
0.050692034
0.049433985
0.048174764
0.046915772
0.045658433
0.044404191
0.043154496
0.041910803
0.04067456
0.039447205
0.038230153
0.037024792
0.035832475
0.034654514
0.03349217
0.032346651
0.031219101
0.030110599
0.029022154
0.027954697
0.026909083
0.025886082
0.024886382
0.023910586
0.02295921
0.022032685
0.021131356
0.020255484
0.019405248
0.018580747
0.017782006
0.017008972
0.016261528
0.015539488
0.014842606
0.014170582
0.01352306
0.01289964
0.012299879
0.011723294
0.01116937
0.01063756
0.010127289
0.0096379604
0.0091689615
0.0087198013
0.060738043
0.059530513
0.058312406
0.057084639
0.055848267
0.054604369
0.053354098
0.052098683
0.050839411
0.049577612
0.048314655
0.047051942
0.045790895
0.044532958
0.043279582
0.042032225
0.040792335
0.039561353
0.038340696
0.037131757
0.035935891
0.034754413
0.033588587
0.032439626
0.031308677
0.030196824
0.029105078
0.028034376
0.026985574
0.025959447
0.024956686
0.023977897
0.023023599
0.022094225
0.021190123
0.020311555
0.019458702
0.018631666
0.017830469
0.017055063
0.016305328
0.015581079
0.01488207
0.014207999
0.013558511
0.012933204
0.012331633
0.011753313
0.011197727
0.010664324
0.010152527
0.0096617338
0.0091913299
0.0087408267
0.060900207
0.059689115
0.058467461
0.057236157
0.055996254
0.054748848
0.053495097
0.052236227
0.050973519
0.0497083
0.048441939
0.047175832
0.045911405
0.0446501
0.043393371
0.042142674
0.040899462
0.039665175
0.038441235
0.037229036
0.036029937
0.034845254
0.033676258
0.032524162
0.031390118
0.030275213
0.029180461
0.028106803
0.027055098
0.026026124
0.025020576
0.024039062
0.023082104
0.022150136
0.021243509
0.020362487
0.019507252
0.018677907
0.017874476
0.01709691
0.016345089
0.01561883
0.014917886
0.014241953
0.013590676
0.012963651
0.012360433
0.011780534
0.011223434
0.010688581
0.010175393
0.0096832622
0.0092115697
0.0087598279
0.061047435
0.059833097
0.058608215
0.057373694
0.056130586
0.054879993
0.053623079
0.052361066
0.051095233
0.049826905
0.048557447
0.047288255
0.046020755
0.044756389
0.043496611
0.042242879
0.040996646
0.039759357
0.038532433
0.037317272
0.036115235
0.034927642
0.033755764
0.03260082
0.031463964
0.030346286
0.029248805
0.028172461
0.02711812
0.026086561
0.025078482
0.024094493
0.023135118
0.022200795
0.021291875
0.020408625
0.019551227
0.018719786
0.017914326
0.017134799
0.016381085
0.015653001
0.0149503
0.014272677
0.013619776
0.012991193
0.012386479
0.011805147
0.011246674
0.010710503
0.01019605
0.0097027015
0.0092298278
0.0087769386
0.061180719
0.059963431
0.058735618
0.057498179
0.056252167
0.054998688
0.053738906
0.052474044
0.051205377
0.049934228
0.048661962
0.047389974
0.046119687
0.044852546
0.043590004
0.042333521
0.041084552
0.039844541
0.038614914
0.037397069
0.03619237
0.035002139
0.033827652
0.032670128
0.031530725
0.030410535
0.029310581
0.028231805
0.027175076
0.026141176
0.025130804
0.024144574
0.023183011
0.022246555
0.021335559
0.020450291
0.019590936
0.018757596