/*--------------------------------*- C++ -*----------------------------------*\
| =========                 |                                                 |
| \\      /  F ield         | OpenFOAM: The Open Source CFD Toolbox           |
|  \\    /   O peration     | Version:  2312                                  |
|   \\  /    A nd           | Website:  www.openfoam.com                      |
|    \\/     M anipulation  |                                                 |
\*---------------------------------------------------------------------------*/
FoamFile
{
    version     2.0;
    format      ascii;
    arch        "LSB;label=32;scalar=64";
    class       volScalarField;
    location    "0.06";
    object      CO2;
}
// * * * * * * * * * * * * * * * * * * * * * * * * * * * * * * * * * * * * * //

dimensions      [0 0 0 0 0 0 0];

internalField   nonuniform List<scalar> 
3250
(
0.0067346778
0.0066903122
0.0066428326
0.0065924442
0.0065392895
0.0064834927
0.0064251725
0.0063644478
0.0063014409
0.0062362767
0.0061690817
0.0060999806
0.006029095
0.0059565404
0.0058824264
0.0058068562
0.0057299288
0.0056517406
0.0055723881
0.0054919705
0.0054105915
0.0053283609
0.0052453943
0.0051618136
0.0050777447
0.0049933165
0.0049086581
0.0048238966
0.0047391548
0.0046545485
0.0045701855
0.0044861632
0.0044025684
0.004319476
0.0042369491
0.0041550388
0.0040737844
0.003993214
0.0039133442
0.0038341804
0.0037557167
0.0036779344
0.0036008007
0.0035242678
0.0072558154
0.0072007172
0.0071423966
0.0070810662
0.007016886
0.0069499985
0.0068805404
0.006808649
0.0067344638
0.0066581266
0.00657978
0.0064995648
0.0064176177
0.0063340699
0.0062490458
0.0061626636
0.0060750363
0.005986274
0.005896486
0.0058057828
0.0057142785
0.0056220916
0.0055293453
0.0054361674
0.0053426888
0.0052490421
0.0051553592
0.0050617691
0.0049683959
0.0048753565
0.0047827589
0.0046907008
0.004599269
0.0045085382
0.0044185711
0.0043294184
0.0042411187
0.0041536994
0.0040671763
0.0039815544
0.0038968273
0.0038129772
0.0037299739
0.0036477758
0.0081856585
0.0081125017
0.0080358842
0.0079560291
0.0078731223
0.0077873368
0.0076988414
0.0076078049
0.0075143981
0.0074187934
0.0073211629
0.0072216766
0.0071205001
0.0070177928
0.0069137073
0.0068083896
0.0067019797
0.0065946134
0.0064864243
0.0063775454
0.0062681108
0.0061582569
0.0060481223
0.0059378478
0.0058275753
0.005717446
0.005607599
0.0054981691
0.0053892846
0.0052810661
0.0051736242
0.0050670591
0.004961459
0.0048568999
0.0047534455
0.004651147
0.0045500434
0.0044501617
0.0043515173
0.004254114
0.0041579443
0.0040629902
0.0039692246
0.0038766082
0.009400197
0.0093053438
0.0092066257
0.0091042818
0.0089985309
0.0088895843
0.008777651
0.0086629413
0.0085456667
0.0084260401
0.0083042733
0.0081805759
0.0080551526
0.007928202
0.0077999157
0.0076704779
0.0075400665
0.0074088536
0.0072770071
0.0071446925
0.0070120733
0.0068793126
0.0067465728
0.0066140152
0.0064817997
0.0063500828
0.0062190166
0.0060887469
0.0059594116
0.0058311392
0.0057040475
0.0055782424
0.0054538175
0.0053308535
0.0052094179
0.0050895653
0.0049713375
0.0048547638
0.0047398612
0.004626635
0.0045150788
0.0044051755
0.0042969004
0.0041902169
0.010782903
0.01066582
0.010544298
0.010418597
0.010288973
0.010155678
0.010018965
0.0098790893
0.0097363086
0.0095908815
0.0094430659
0.0092931171
0.0091412861
0.0089878177
0.0088329498
0.008676913
0.0085199303
0.0083622181
0.008203987
0.0080454425
0.0078867857
0.0077282142
0.0075699217
0.0074120979
0.0072549274
0.0070985893
0.0069432552
0.0067890885
0.0066362424
0.0064848594
0.0063350694
0.0061869898
0.0060407243
0.0058963625
0.0057539804
0.0056136398
0.0054753892
0.0053392637
0.0052052854
0.0050734639
0.004943797
0.0048162713
0.0046908658
0.0045675485
0.012238778
0.012100954
0.011957983
0.011810146
0.011657733
0.011501036
0.011340352
0.01117598
0.011008225
0.010837392
0.010663786
0.010487712
0.010309467
0.010129348
0.0099476424
0.0097646298
0.0095805836
0.0093957689
0.0092104437
0.0090248589
0.0088392588
0.0086538811
0.008468957
0.0082847102
0.008101357
0.0079191048
0.0077381512
0.007558683
0.0073808751
0.0072048894
0.0070308741
0.0068589629
0.0066892748
0.0065219137
0.0063569684
0.0061945127
0.0060346058
0.0058772925
0.0057226041
0.005570558
0.0054211593
0.0052744014
0.0051302696
0.004988738
0.013699829
0.01354369
0.01338161
0.013213893
0.013040858
0.012862833
0.012680153
0.012493158
0.012302196
0.012107616
0.01190977
0.011709008
0.011505677
0.011300121
0.011092679
0.010883681
0.01067345
0.010462302
0.010250543
0.010038473
0.0098263816
0.0096145498
0.0094032496
0.0091927434
0.0089832831
0.008775109
0.0085684496
0.0083635201
0.0081605217
0.0079596409
0.0077610486
0.0075648999
0.0073713336
0.007180472
0.0069924212
0.0068072709
0.006625095
0.0064459519
0.0062698853
0.006096924
0.0059270835
0.0057603668
0.0055967679
0.0054362689
0.015123446
0.014951552
0.014772888
0.014587783
0.014396579
0.014199632
0.01399731
0.013789988
0.013578052
0.013361891
0.013141899
0.012918467
0.01269199
0.012462857
0.012231453
0.011998157
0.011763343
0.011527373
0.011290603
0.011053379
0.010816038
0.010578904
0.010342292
0.010106504
0.0098718311
0.0096385482
0.0094069178
0.0091771867
0.0089495857
0.0087243293
0.0085016146
0.0082816213
0.0080645113
0.0078504288
0.0076395002
0.0074318342
0.0072275226
0.0070266403
0.0068292458
0.0066353823
0.0064450782
0.0062583483
0.006075197
0.0058956164
0.016486814
0.016301431
0.016108458
0.015908236
0.015701129
0.015487518
0.015267797
0.015042373
0.014811664
0.014576093
0.014336089
0.014092086
0.013844516
0.013593811
0.013340401
0.013084708
0.012827151
0.01256814
0.012308075
0.012047349
0.011786342
0.011525422
0.011264946
0.011005256
0.010746681
0.010489534
0.010234112
0.0099806934
0.009729542
0.0094809013
0.0092349967
0.0089920345
0.0087522019
0.0085156666
0.0082825774
0.0080530641
0.0078272379
0.0076051921
0.0073870022
0.0071727271
0.0069624097
0.0067560783
0.006553749
0.0063554246
0.018148217
0.017968894
0.017780544
0.017583473
0.017378016
0.017164532
0.016943401
0.016715024
0.016479817
0.016238213
0.015990655
0.015737598
0.015479502
0.015216834
0.014950063
0.01467966
0.014406091
0.014129823
0.013851313
0.013571016
0.013289375
0.013006823
0.012723784
0.012440667
0.012157869
0.011875772
0.011594743
0.01131513
0.011037265
0.010761461
0.010488013
0.010217195
0.0099492607
0.009684444
0.0094229582
0.0091649954
0.0089107276
0.0086603065
0.0084138636
0.0081715113
0.0079333431
0.0076994342
0.007469843
0.0072446118
0.0070237687
0.0068073278
0.019389083
0.019200945
0.019003016
0.018795609
0.018579069
0.018353764
0.01812009
0.01787846
0.01762931
0.017373093
0.017110274
0.016841334
0.01656676
0.016287051
0.016002706
0.01571423
0.015422126
0.015126896
0.014829039
0.014529045
0.014227398
0.013924572
0.013621029
0.013317217
0.013013573
0.012710516
0.012408448
0.012107753
0.011808799
0.011511931
0.011217474
0.010925732
0.01063699
0.010351507
0.010069523
0.0097912538
0.0095168956
0.0092466214
0.0089805834
0.0087189131
0.0084617218
0.0082091014
0.0079611254
0.0077178502
0.0074793162
0.0072455484
0.020559004
0.020362946
0.0201564
0.019939675
0.019713119
0.019477107
0.019232043
0.018978353
0.018716488
0.018446915
0.018170121
0.017886607
0.017596887
0.017301484
0.017000927
0.016695751
0.016386493
0.016073688
0.01575787
0.015439565
0.015119293
0.014797567
0.014474884
0.014151731
0.013828581
0.013505888
0.013184089
0.012863605
0.012544833
0.012228152
0.011913918
0.011602464
0.011294102
0.010989119
0.010687779
0.010390324
0.010096972
0.0098079168
0.0095233309
0.0092433645
0.0089681463
0.0086977844
0.0084323673
0.0081719646
0.0079166286
0.007666395
0.02166195
0.021458664
0.021244245
0.021018995
0.020783263
0.020537429
0.0202819
0.020017112
0.019743527
0.019461626
0.019171914
0.018874911
0.018571152
0.018261183
0.017945561
0.017624849
0.017299612
0.016970418
0.016637833
0.016302416
0.015964724
0.015625301
0.015284682
0.014943389
0.014601928
0.014260788
0.013920442
0.01358134
0.013243914
0.012908573
0.012575701
0.012245663
0.011918795
0.011595412
0.011275803
0.010960232
0.010648938
0.010342138
0.010040023
0.0097427601
0.0094504958
0.0091633533
0.0088814352
0.0086048239
0.008333583
0.0080677577
0.022701838
0.022491898
0.022270221
0.022037107
0.021792901
0.021537984
0.021272768
0.020997694
0.020713234
0.020419881
0.020118154
0.01980859
0.019491742
0.019168181
0.018838486
0.018503245
0.018163054
0.017818506
0.0174702
0.017118728
0.016764676
0.016408624
0.016051139
0.015692776
0.015334075
0.01497556
0.014617732
0.014261077
0.013906056
0.013553107
0.013202645
0.012855061
0.012510719
0.012169958
0.011833092
0.011500406
0.011172162
0.010848595
0.010529916
0.01021631
0.0099079373
0.009604937
0.0093074246
0.0090154949
0.0087292215
0.008448659
0.023682093
0.023466006
0.023237619
0.022997224
0.022745167
0.022481826
0.022207614
0.021922978
0.021628395
0.02132437
0.021011433
0.020690136
0.020361052
0.020024769
0.019681889
0.019333026
0.018978798
0.01861983
0.018256746
0.01789017
0.017520718
0.017149003
0.016775622
0.016401164
0.016026199
0.015651284
0.015276952
0.014903718
0.014532074
0.014162488
0.013795402
0.013431233
0.013070372
0.012713183
0.012360001
0.012011136
0.011666868
0.011327453
0.010993118
0.010664065
0.010340471
0.010022487
0.0097102419
0.0094038416
0.0091033694
0.0088088885
0.024605606
0.024383843
0.02414925
0.02390212
0.02364279
0.023371637
0.023089071
0.022795544
0.022491536
0.022177561
0.02185416
0.021521899
0.021181366
0.020833168
0.020477927
0.020116279
0.019748867
0.019376341
0.018999354
0.018618557
0.018234596
0.017848113
0.017459738
0.017070089
0.016679769
0.016289362
0.015899435
0.015510531
0.015123171
0.014737852
0.014355043
0.013975188
0.013598703
0.013225974
0.012857361
0.012493193
0.012133772
0.011779371
0.011430235
0.011086581
0.0107486
0.010416459
0.010090295
0.0097702277
0.0094563477
0.0091487264
0.025474849
0.025247853
0.025007536
0.02475419
0.024488141
0.024209757
0.023919449
0.023617667
0.023304898
0.02298166
0.022648504
0.022306007
0.021954773
0.021595424
0.021228602
0.020854964
0.020475175
0.020089911
0.019699849
0.019305667
0.018908041
0.01850764
0.018105125
0.017701142
0.017296324
0.016891287
0.016486625
0.016082911
0.015680695
0.0152805
0.014882823
0.014488132
0.014096868
0.013709441
0.013326232
0.012947592
0.01257384
0.012205269
0.01184214
0.011484686
0.01113311
0.010787592
0.010448283
0.010115309
0.0097887708
0.0094687474
0.02629202
0.026060201
0.025814636
0.025555579
0.025283343
0.024998289
0.024700826
0.024391402
0.024070507
0.023738664
0.023396433
0.0230444
0.022683182
0.022313417
0.021935764
0.021550899
0.021159509
0.020762292
0.02035995
0.019953187
0.019542706
0.019129203
0.018713366
0.018295872
0.017877383
0.01745854
0.017039969
0.016622271
0.016206021
0.01579177
0.015380042
0.014971329
0.014566095
0.014164774
0.013767768
0.013375447
0.01298815
0.012606187
0.012229835
0.011859342
0.011494925
0.011136774
0.010785052
0.010439895
0.010101412
0.0097696881
0.027280806
0.027059068
0.026822925
0.026572583
0.026308302
0.026030389
0.025739203
0.025435146
0.025118668
0.024790257
0.024450443
0.024099789
0.023738894
0.023368383
0.02298891
0.022601148
0.022205792
0.021803549
0.021395138
0.020981284
0.020562717
0.020140163
0.019714346
0.019285981
0.018855771
0.018424406
0.017992557
0.017560874
0.017129987
0.016700498
0.016272984
0.015847993
0.015426041
0.015007617
0.014593176
0.01418314
0.013777899
0.013377811
0.012983203
0.012594365
0.012211562
0.011835023
0.011464951
0.011101517
0.010744868
0.010395119
0.010052363
0.028003416
0.027778155
0.027538072
0.027283377
0.027014327
0.026731222
0.026434413
0.026124298
0.025801325
0.025465982
0.025118801
0.024760352
0.024391239
0.024012099
0.023623597
0.023226422
0.022821285
0.02240891
0.021990038
0.021565415
0.021135794
0.020701924
0.020264556
0.019824429
0.019382274
0.018938806
0.018494723
0.018050702
0.017607398
0.01716544
0.016725429
0.016287938
0.015853506
0.015422645
0.01499583
0.014573505
0.014156079
0.013743926
0.01333739
0.012936777
0.012542365
0.012154396
0.011773084
0.01139861
0.011031129
0.010670765
0.010317617
0.028679854
0.028451356
0.028207678
0.027949022
0.027675628
0.027387783
0.027085831
0.026770164
0.026441225
0.026099502
0.02574553
0.025379881
0.025003166
0.024616031
0.024219151
0.02381323
0.023398991
0.022977179
0.02254855
0.022113873
0.021673921
0.021229467
0.020781285
0.020330138
0.019876782
0.019421959
0.01896639
0.018510779
0.018055806
0.017602124
0.017150358
0.016701105
0.016254928
0.015812359
0.015373894
0.014939995
0.014511092
0.014087576
0.013669805
0.013258101
0.012852755
0.012454021
0.012062123
0.011677255
0.011299576
0.01092922
0.01056629
0.029312199
0.029080724
0.028833788
0.02857154
0.028294197
0.028002035
0.027695387
0.02737464
0.027040233
0.026692651
0.026332429
0.025960143
0.025576409
0.02518188
0.024777242
0.024363209
0.023940519
0.023509932
0.023072222
0.022628176
0.022178588
0.021724253
0.021265965
0.020804512
0.020340675
0.019875216
0.019408884
0.018942406
0.018476485
0.0180118
0.017548998
0.017088697
0.016631484
0.016177911
0.015728493
0.015283714
0.014844018
0.014409815
0.013981477
0.013559341
0.013143711
0.012734852
0.012333
0.011938355
0.011551088
0.011171337
0.010799213
0.030120615
0.029902418
0.029668342
0.029418479
0.02915298
0.028872053
0.028575964
0.028265036
0.027939648
0.027600235
0.02724728
0.026881317
0.026502922
0.026112718
0.025711363
0.025299551
0.024878007
0.024447482
0.024008751
0.023562603
0.023109842
0.022651281
0.022187736
0.021720022
0.021248949
0.020775318
0.020299917
0.019823517
0.019346867
0.018870695
0.018395699
0.017922552
0.017451892
0.016984327
0.016520429
0.016060733
0.015605739
0.01515591
0.014711671
0.01427341
0.013841477
0.013416187
0.012997819
0.012586617
0.012182791
0.01178652
0.011397948
0.01101719
0.030673055
0.030452796
0.030216362
0.029963853
0.029695411
0.029411233
0.029111573
0.028796746
0.028467123
0.028123133
0.027765255
0.027394023
0.027010014
0.026613852
0.026206203
0.025787767
0.025359279
0.024921502
0.024475222
0.024021244
0.023560389
0.023093487
0.022621372
0.022144879
0.021664839
0.021182074
0.020697393
0.02021159
0.019725434
0.019239676
0.018755037
0.018272208
0.017791851
0.017314591
0.01684102
0.016371692
0.015907125
0.015447797
0.014994148
0.014546582
0.014105461
0.013671112
0.013243825
0.012823854
0.012411417
0.012006701
0.011609856
0.011221003
0.031187682
0.030965501
0.030726914
0.030472006
0.030200898
0.02991377
0.029610866
0.029292488
0.028959002
0.028610829
0.028248445
0.027872381
0.027483215
0.027081575
0.026668128
0.026243583
0.025808683
0.025364199
0.024910932
0.024449699
0.023981336
0.023506689
0.02302661
0.022541953
0.022053567
0.021562294
0.021068965
0.020574392
0.020079367
0.01958466
0.019091013
0.018599138
0.018109715
0.01762339
0.017140771
0.016662431
0.016188904
0.015720684
0.015258226
0.014801946
0.014352221
0.013909388
0.013473747
0.013045563
0.012625061
0.012212436
0.011807843
0.011411407
0.031666594
0.03144262
0.031202085
0.030945008
0.030671484
0.030381681
0.030075827
0.029754217
0.029417208
0.029065213
0.028698706
0.028318214
0.027924316
0.02751764
0.027098857
0.026668682
0.026227865
0.025777187
0.025317458
0.02484951
0.02437419
0.023892361
0.02340489
0.022912649
0.022416505
0.021917319
0.02141594
0.020913199
0.02040991
0.01990686
0.019404811
0.018904495
0.018406609
0.017911818
0.017420748
0.016933987
0.016452087
0.015975555
0.01550486
0.015040433
0.01458266
0.014131892
0.013688438
0.01325257
0.012824525
0.012404501
0.011992661
0.011589134
0.032320452
0.032111694
0.031886203
0.031643927
0.031384889
0.031109177
0.030816944
0.030508408
0.030183856
0.029843632
0.029488147
0.029117868
0.02873332
0.02833508
0.027923777
0.027500087
0.027064728
0.026618455
0.02616206
0.025696361
0.025222201
0.024740442
0.024251959
0.023757635
0.023258357
0.02275501
0.022248471
0.021739607
0.021229269
0.020718287
0.020207468
0.019697593
0.019189409
0.018683634
0.018180948
0.017681993
0.017187376
0.016697659
0.016213367
0.015734982
0.015262945
0.014797657
0.014339476
0.013888722
0.013445677
0.013010583
0.012583647
0.012165037
0.011754886
0.032735095
0.032525164
0.032298296
0.032054444
0.03179363
0.031515931
0.031221489
0.030910514
0.030583279
0.030240124
0.02988145
0.029507721
0.029119457
0.028717235
0.028301684
0.027873481
0.027433349
0.02698205
0.026520382
0.026049171
0.025569271
0.025081556
0.024586914
0.024086241
0.02358044
0.02307041
0.022557046
0.022041231
0.021523833
0.021005699
0.020487655
0.019970496
0.01945499
0.018941867
0.018431826
0.017925525
0.017423584
0.016926581
0.016435053
0.015949496
0.015470361
0.014998061
0.014532964
0.014075399
0.013625655
0.013183984
0.012750598
0.012325672
0.011909343
0.033120047
0.032908997
0.03268086
0.032435571
0.03217314
0.031893634
0.031597182
0.031283985
0.030954305
0.030608474
0.030246887
0.029870001
0.029478333
0.02907246
0.028653008
0.028220658
0.027776136
0.027320207
0.026853676
0.02637738
0.025892179
0.025398959
0.02489862
0.02439207
0.023880226
0.023364003
0.02284431
0.022322045
0.021798093
0.021273317
0.020748559
0.02022463
0.019702313
0.019182356
0.018665472
0.018152333
0.017643574
0.017139785
0.016641518
0.016149278
0.015663531
0.015184696
0.014713153
0.014249239
0.013793252
0.013345448
0.01290605
0.012475237
0.012053155
0.033477172
0.033265075
0.033035766
0.032789161
0.032525254
0.0322441
0.031945818
0.031630594
0.031298684
0.03095041
0.030586159
0.030206385
0.0298116
0.029402377
0.028979345
0.028543185
0.028094623
0.027634432
0.027163421
0.026682434
0.02619234
0.025694035
0.025188429
0.024676444
0.024159008
0.023637048
0.02311149
0.022583246
0.022053214
0.021522275
0.020991284
0.020461068
0.019932424
0.019406116
0.01888287
0.018363373
0.017848272
0.017338172
0.016833634
0.016335176
0.015843273
0.015358356
0.014880811
0.014410986
0.013949184
0.013495669
0.01305067
0.012614374
0.012186939
0.033808252
0.033595181
0.033364792
0.033116978
0.032851722
0.032569063
0.032269109
0.031952037
0.03161809
0.031267584
0.030900898
0.03051848
0.030120839
0.029708546
0.029282228
0.028842566
0.02839029
0.027926176
0.027451038
0.026965726
0.026471119
0.02596812
0.025457648
0.024940638
0.024418029
0.023890761
0.023359772
0.022825989
0.022290323
0.021753669
0.021216896
0.020680846
0.020146331
0.019614126
0.019084972
0.018559569
0.018038576
0.017522609
0.017012242
0.016508003
0.016010377
0.015519802
0.015036676
0.014561352
0.01409414
0.013635311
0.013185098
0.012743691
0.01231124
0.011887881
0.034114984
0.033901011
0.033669622
0.033420697
0.033154204
0.032870169
0.032568689
0.032249927
0.031914121
0.031561574
0.031192661
0.030807823
0.030407565
0.029992456
0.029563122
0.029120243
0.028664553
0.028196829
0.027717891
0.027228594
0.026729825
0.026222493
0.025707529
0.025185877
0.024658486
0.024126309
0.023590295
0.023051384
0.0225105
0.021968552
0.021426421
0.020884962
0.020345001
0.019807326
0.01927269
0.018741805
0.018215342
0.017693929
0.017178149
0.016668541
0.016165597
0.015669767
0.015181455
0.01470102
0.01422878
0.013765011
0.013309949
0.012863788
0.012426683
0.011998745
0.034398976
0.034184164
0.033951851
0.033701902
0.033434274
0.033148979
0.032846102
0.032525797
0.03218829
0.031833877
0.031462926
0.031075873
0.030673217
0.030255526
0.029823423
0.02937759
0.028918761
0.028447717
0.02796528
0.027472313
0.026969707
0.02645838
0.02593927
0.025413331
0.024881523
0.024344808
0.023804148
0.023260493
0.022714781
0.022167931
0.021620838
0.02107437
0.020529362
0.019986617
0.019446899
0.01891093
0.018379394
0.017852928
0.017332126
0.016817535
0.016309657
0.015808949
0.015315822
0.014830642
0.014353734
0.013885377
0.013425812
0.012975236
0.012533806
0.012101639
0.034661744
0.034446151
0.034212981
0.033962088
0.033693415
0.033406965
0.03310281
0.032781093
0.03244203
0.032085911
0.031713095
0.031324012
0.03091916
0.030499101
0.030064457
0.029615911
0.029154198
0.0286801
0.028194444
0.027698096
0.027191955
0.026676945
0.026154011
0.025624116
0.025088229
0.024547324
0.02400237
0.02345433
0.022904153
0.022352768
0.021801084
0.021249977
0.020700298
0.020152857
0.019608431
0.019067753
0.018531516
0.018000366
0.017474908
0.016955697
0.016443244
0.015938012
0.01544042
0.014950839
0.0144696
0.013996987
0.013533244
0.013078574
0.012633136
0.012197052
0.034904716
0.034688392
0.034454424
0.034202657
0.033933024
0.033645515
0.033340189
0.033017179
0.032676694
0.032319013
0.03194449
0.031553549
0.031146683
0.030724452
0.030287478
0.029836441
0.029372077
0.028895171
0.028406554
0.027907095
0.027397698
0.026879294
0.026352835
0.025819292
0.025279641
0.024734866
0.024185948
0.023633857
0.023079553
0.022523977
0.021968046
0.021412651
0.020858648
0.020306863
0.019758079
0.019213041
0.018672451
0.018136965
0.017607194
0.017083704
0.016567012
0.016057589
0.015555859
0.0150622
0.014576947
0.01410039
0.013632776
0.013174312
0.012725161
0.012285448
0.03512923
0.034912218
0.034677505
0.03442493
0.034154412
0.033865929
0.033559531
0.033235339
0.032893552
0.032534442
0.032158356
0.031765713
0.031357003
0.030932781
0.030493668
0.030040344
0.029573545
0.029094059
0.028602719
0.028100398
0.027588003
0.027066473
0.026536766
0.025999859
0.025456738
0.024908394
0.024355816
0.023799986
0.023241871
0.022682424
0.02212257
0.02156321
0.021005211
0.020449408
0.019896594
0.019347524
0.018802906
0.018263408
0.017729647
0.017202197
0.016681581
0.016168278
0.015662717
0.015165283
0.014676315
0.014196106
0.013724908
0.013262931
0.012810342
0.012367271
0.035336541
0.035118876
0.034883465
0.034630139
0.034358806
0.034069431
0.03376205
0.033436776
0.033093798
0.03273338
0.032355864
0.031961662
0.031551262
0.031125215
0.03068414
0.030228717
0.029759683
0.029277827
0.028783983
0.028279029
0.027763877
0.02723947
0.026706772
0.026166766
0.025620447
0.025068812
0.024512859
0.023953579
0.023391948
0.022828926
0.022265451
0.02170243
0.021140741
0.020581226
0.020024688
0.01947189
0.018923551
0.018380343
0.017842893
0.01731178
0.016787537
0.016270645
0.015761542
0.015260616
0.014768211
0.014284624
0.013810111
0.013344886
0.012889118
0.012442938
0.035527819
0.035309529
0.035073462
0.03481944
0.034547358
0.034257164
0.033948884
0.033622619
0.033278551
0.032916937
0.032538111
0.032142483
0.031730534
0.031302814
0.030859941
0.030402593
0.029931507
0.029447474
0.02895133
0.028443956
0.027926268
0.027399213
0.026863762
0.026320904
0.025771639
0.025216973
0.02465791
0.02409545
0.023530576
0.022964259
0.022397442
0.021831043
0.021265947
0.020703006
0.020143031
0.019586792
0.019035015
0.018488381
0.017947523
0.017413028
0.016885433
0.016365226
0.01585285
0.015348697
0.014853116
0.014366408
0.013888832
0.013420605
0.012961898
0.012512847
0.035704156
0.035485262
0.035248576
0.034993911
0.03472114
0.034430197
0.034121094
0.033793925
0.03344886
0.033086152
0.032706128
0.032309194
0.031895827
0.031466575
0.031022052
0.030562939
0.03008997
0.029603938
0.029105682
0.028596085
0.028076067
0.027546579
0.027008596
0.026463113
0.025911137
0.02535368
0.024791754
0.024226364
0.023658504
0.023089148
0.022519252
0.021949738
0.021381502
0.020815402
0.020252256
0.019692842
0.019137894
0.018588099
0.018044096
0.017506479
0.01697579
0.016452524
0.015937126
0.015429995
0.014931482
0.014441893
0.01396149
0.013490491
0.013029072
0.012577369
0.035866561
0.035647079
0.035409813
0.035154559
0.034881158
0.034589531
0.034279677
0.03395168
0.033605704
0.033241996
0.032860877
0.032462747
0.032048082
0.031617426
0.031171393
0.030710661
0.030235967
0.029748101
0.029247907
0.028736269
0.028214111
0.027682386
0.027142077
0.026594181
0.026039713
0.025479688
0.024915127
0.024347042
0.023776431
0.02320428
0.022631547
0.022059165
0.021488036
0.020919025
0.020352957
0.019790618
0.019232747
0.018680038
0.018133137
0.017592641
0.0170591
0.016533012
0.016014829
0.015504951
0.015003735
0.01451149
0.014028479
0.013554925
0.013091005
0.012636856
0.036015956
0.035795905
0.035558111
0.035302322
0.03502835
0.034736099
0.03442556
0.034096807
0.03375
0.033385377
0.033003256
0.032604034
0.032188181
0.031756241
0.031308825
0.03084661
0.030370333
0.029880788
0.029378816
0.028865306
0.028341183
0.027807406
0.02726496
0.026714848
0.026158089
0.025595706
0.025028723
0.024458159
0.02388502
0.023310296
0.022734954
0.022159934
0.021586142
0.021014452
0.020445695
0.019880662
0.0193201
0.018764708
0.018215137
0.017671992
0.017135824
0.016607138
0.016086388
0.015573981
0.015070275
0.014575583
0.014090171
0.013614264
0.01314804
0.012691637
0.036153153
0.035932592
0.035694344
0.035438078
0.03516359
0.034870773
0.03455961
0.034230169
0.033882602
0.033517144
0.033134109
0.032733887
0.032316949
0.031883833
0.031435151
0.030971579
0.030493854
0.030002769
0.029499169
0.028983942
0.028458018
0.027922359
0.027377953
0.026825808
0.026266946
0.025702397
0.02513319
0.024560349
0.023984888
0.023407801
0.022830061
0.022252615
0.021676376
0.021102223
0.020530993
0.019963484
0.019400447
0.018842588
0.018290562
0.017744978
0.017206394
0.016675318
0.016152208
0.015637474
0.015131478
0.014634535
0.014146914
0.013668842
0.013200499
0.012742024
0.036836768
0.036668122
0.036482359
0.036278826
0.036057958
0.035819335
0.03556265
0.035287698
0.034994367
0.034682636
0.034352568
0.034004309
0.033638089
0.033254218
0.032853084
0.032435154
0.032000964
0.031551125
0.031086312
0.030607261
0.030114767
0.029609676
0.029092878
0.028565304
0.02802792
0.027481717
0.026927708
0.026366919
0.025800383
0.025229136
0.024654207
0.024076614
0.023497359
0.022917419
0.022337746
0.02175926
0.021182845
0.020609345
0.020039562
0.019474252
0.018914126
0.018359845
0.017812021
0.017271217
0.016737945
0.016212667
0.015695795
0.015187695
0.014688685
0.014199035
0.013718975
0.013248685
0.012788306
0.037105001
0.03695247
0.036783513
0.036597468
0.036393904
0.036172803
0.035933863
0.035676806
0.035401437
0.035107641
0.034795394
0.034464754
0.034115865
0.03374895
0.033364317
0.032962351
0.032543515
0.032108345
0.031657449
0.031191501
0.030711239
0.030217457
0.029711002
0.029192766
0.028663683
0.028124721
0.027576873
0.027021157
0.026458603
0.025890248
0.025317132
0.02474029
0.024160744
0.0235795
0.022997543
0.022415829
0.021835283
0.021256795
0.020681212
0.020109342
0.019541948
0.018979743
0.018423393
0.017873515
0.017330675
0.016795388
0.016268121
0.015749288
0.015239258
0.01473835
0.01424684
0.013764956
0.013292881
0.012830755
0.037211088
0.037058356
0.036889131
0.036702871
0.036499185
0.036277873
0.036038652
0.035781265
0.035505519
0.035211302
0.034898587
0.034567428
0.034217964
0.033850417
0.03346509
0.033062365
0.032642702
0.032206638
0.031754777
0.031287795
0.030806427
0.030311469
0.029803768
0.029284219
0.028753756
0.028213351
0.027664
0.027106724
0.026542555
0.025972536
0.025397711
0.024819118
0.024237784
0.023654721
0.023070918
0.022487335
0.021904903
0.021324516
0.020747026
0.020173246
0.019603943
0.019039833
0.018481589
0.017929829
0.017385124
0.016847992
0.016318902
0.015798273
0.015286475
0.01478383
0.014290616
0.013807062
0.013333353
0.012869629
0.037308143
0.037155142
0.036985672
0.036799212
0.036595369
0.036373854
0.036134381
0.035876695
0.035600609
0.035306012
0.034992871
0.034661241
0.034311255
0.033943132
0.033557173
0.033153757
0.032733343
0.032296463
0.031843724
0.031375798
0.030893422
0.030397391
0.029888554
0.029367807
0.028836086
0.028294364
0.027743641
0.027184939
0.026619296
0.026047758
0.02547137
0.024891178
0.024308211
0.023723486
0.023137995
0.022552704
0.021968549
0.021386425
0.020807193
0.020231666
0.019660617
0.019094767
0.018534789
0.017981309
0.017434898
0.016896078
0.016365322
0.01584305
0.015329636
0.014825404
0.014330631
0.013845552
0.013370349
0.012905165
0.037396737
0.03724346
0.037073758
0.036887105
0.036683092
0.036461382
0.036221676
0.03596372
0.035687327
0.035392385
0.035078859
0.0347468
0.03439634
0.034027695
0.033641162
0.033237118
0.032816019
0.032378399
0.03192486
0.031456075
0.030972781
0.030475774
0.029965902
0.029444063
0.028911196
0.028368274
0.0278163
0.0272563
0.026689313
0.026116389
0.025538578
0.024956926
0.02437247
0.023786228
0.023199198
0.02261235
0.022026621
0.021442914
0.02086209
0.02028497
0.019712328
0.019144888
0.01858333
0.018028278
0.01748031
0.016939951
0.016407673
0.015883902
0.015369013
0.014863331
0.014367138
0.013880667
0.013404104
0.012937588
0.037477426
0.037323885
0.037153963
0.036967123
0.036762938
0.036541042
0.036301122
0.036042921
0.03576625
0.035470995
0.03515712
0.034824674
0.034473784
0.034104665
0.03371761
0.033312996
0.032891277
0.032452983
0.031998718
0.031529153
0.031045025
0.030547131
0.030036318
0.029513487
0.028979577
0.028435564
0.027882452
0.02732127
0.026753061
0.026178876
0.025599769
0.025016789
0.024430977
0.023843355
0.023254923
0.022666656
0.022079495
0.021494346
0.020912074
0.020333502
0.019759408
0.019190522
0.018627523
0.018071041
0.017521655
0.016979892
0.016446229
0.015921093
0.01540486
0.014897858
0.014400371
0.013912634
0.013434833
0.012967109
0.037550735
0.03739695
0.037226822
0.037039804
0.036835451
0.036613379
0.036373261
0.036114837
0.035837915
0.035542377
0.035228187
0.03489539
0.034544111
0.034174563
0.033787036
0.033381906
0.032959624
0.03252072
0.032065796
0.031595525
0.031110641
0.030611941
0.030100275
0.029576543
0.029041687
0.028496683
0.02794254
0.027380285
0.026810965
0.026235635
0.025655351
0.025071166
0.024484122
0.023895246
0.023305542
0.022715985
0.022127523
0.021541063
0.020957475
0.020377584
0.019802172
0.01923197
0.018667662
0.01810988
0.017559205
0.017016167
0.016481245
0.015954868
0.015437414
0.014929213
0.014430551
0.013941665
0.013462742
0.012993923
0.037617161
0.037463153
0.037292834
0.037105647
0.036901135
0.036678898
0.0364386
0.036179974
0.035902823
0.035607031
0.035292556
0.034959441
0.034607812
0.034237875
0.033849922
0.033444325
0.033021535
0.032582079
0.03212656
0.031655648
0.03117008
0.030670652
0.030158214
0.029633667
0.029097954
0.028552054
0.027996975
0.027433749
0.026863424
0.026287057
0.025705706
0.025120429
0.024532269
0.023942257
0.023351399
0.022760675
0.022171033
0.021583385
0.020998604
0.020417518
0.019840911
0.019269517
0.018704022
0.018145061
0.017593218
0.017049024
0.016512961
0.015985458
0.015466898
0.014957611
0.014457884
0.013967957
0.01348802
0.013018214
0.037677169
0.037522959