/*--------------------------------*- C++ -*----------------------------------*\
| =========                 |                                                 |
| \\      /  F ield         | OpenFOAM: The Open Source CFD Toolbox           |
|  \\    /   O peration     | Version:  2312                                  |
|   \\  /    A nd           | Website:  www.openfoam.com                      |
|    \\/     M anipulation  |                                                 |
\*---------------------------------------------------------------------------*/
FoamFile
{
    version     2.0;
    format      ascii;
    arch        "LSB;label=32;scalar=64";
    class       volScalarField;
    location    "0.06";
    object      f_Bilger;
}
// * * * * * * * * * * * * * * * * * * * * * * * * * * * * * * * * * * * * * //

dimensions      [0 0 0 0 0 0 0];

internalField   nonuniform List<scalar> 
3250
(
0.010973065
0.010779764
0.010584474
0.01038709
0.010188086
0.0099879518
0.0097871055
0.0095859104
0.0093846914
0.0091837466
0.0089833518
0.0087837619
0.0085852109
0.0083879109
0.0081920526
0.0079978068
0.0078053269
0.0076147524
0.0074262129
0.0072398318
0.0070557292
0.0068740246
0.006694837
0.0065182856
0.0063444878
0.0061735579
0.0060056046
0.0058407283
0.0056790188
0.0055205536
0.0053653956
0.0052135924
0.0050651754
0.0049201596
0.0047785433
0.0046403087
0.0045054212
0.0043738299
0.0042454671
0.0041202467
0.0039980625
0.0038787869
0.0037622761
0.0036483894
0.01183882
0.011618265
0.011395786
0.011171539
0.01094607
0.010719892
0.010493444
0.010267109
0.010041228
0.0098161168
0.0095920662
0.0093693454
0.0091482008
0.0089288561
0.0087115123
0.0084963492
0.0082835275
0.0080731927
0.0078654785
0.00766051
0.0074584075
0.0072592879
0.007063266
0.0068704545
0.0066809628
0.0064948957
0.0063123511
0.0061334178
0.0059581734
0.0057866827
0.0056189956
0.0054551467
0.0052951544
0.0051390207
0.0049867313
0.0048382552
0.0046935454
0.0045525377
0.0044151501
0.0042812792
0.0041507968
0.0040235471
0.0038993727
0.0037782511
0.013384488
0.013116375
0.012846785
0.01257603
0.012304684
0.012033283
0.011762295
0.011492134
0.011223178
0.010955775
0.010690247
0.010426893
0.010165987
0.0099077762
0.0096524855
0.0094003145
0.009151442
0.008906028
0.0086642176
0.008426144
0.0081919313
0.0079616965
0.0077355508
0.0075135996
0.0072959421
0.0070826698
0.0068738653
0.0066696
0.0064699332
0.0062749097
0.0060845595
0.0058988964
0.0057179182
0.005541606
0.0053699246
0.0052028228
0.005040233
0.0048820711
0.0047282355
0.0045786044
0.0044330324
0.0042913502
0.0041533898
0.0040191149
0.015408143
0.015080643
0.014752105
0.014422995
0.014093923
0.013765458
0.013438108
0.013112338
0.012788577
0.012467223
0.012148648
0.011833194
0.011521179
0.011212892
0.010908592
0.010608515
0.01031287
0.010021842
0.0097355998
0.0094542936
0.00917806
0.0089070232
0.0086412968
0.0083809837
0.0081261762
0.0078769551
0.0076333892
0.0073955334
0.0071634281
0.0069370978
0.006716551
0.0065017792
0.006292757
0.0060894422
0.0058917763
0.0056996844
0.0055130756
0.0053318429
0.0051558624
0.0049849914
0.0048190654
0.0046578987
0.0045013082
0.0043492347
0.017719856
0.017328332
0.01693604
0.016543589
0.016151635
0.015760794
0.015371632
0.014984678
0.014600425
0.014219338
0.013841851
0.013468369
0.013099265
0.012734883
0.012375535
0.012021503
0.011673038
0.011330367
0.010993691
0.010663191
0.010339025
0.010021335
0.009710247
0.0094058689
0.0091082944
0.0088176008
0.0085338491
0.0082570832
0.0079873296
0.0077245968
0.0074688752
0.0072201367
0.0069783356
0.0067434084
0.0065152744
0.0062938365
0.0060789814
0.0058705796
0.0056684855
0.0054725356
0.0052825465
0.0050983159
0.0049196439
0.0047464418
0.020164848
0.019709698
0.019253825
0.01879796
0.018342819
0.017889073
0.01743736
0.01698828
0.016542405
0.016100273
0.015662393
0.01522924
0.014801256
0.014378849
0.013962394
0.013552231
0.013148665
0.012751973
0.012362402
0.011980169
0.011605469
0.011238469
0.010879317
0.010528138
0.010185035
0.0098500903
0.0095233664
0.009204904
0.0088947232
0.0085928233
0.0082991829
0.0080137605
0.0077364952
0.0074673068
0.007206097
0.0069527503
0.0067071341
0.0064690999
0.0062384828
0.0060151007
0.0057987534
0.0055892233
0.0053862942
0.0051898451
0.022632207
0.022116605
0.021600122
0.021083592
0.020567792
0.020053462
0.019541311
0.019032019
0.018526238
0.018024587
0.01752765
0.017035981
0.016550094
0.01607047
0.01559755
0.015131738
0.014673402
0.014222874
0.013780453
0.013346405
0.012920963
0.012504332
0.012096688
0.011698181
0.011308934
0.010929041
0.010558575
0.010197581
0.0098460804
0.0095040715
0.009171528
0.0088484016
0.008534622
0.0082300984
0.0079347203
0.0076483583
0.0073708656
0.0071020783
0.0068418158
0.006589881
0.0063460594
0.0061101202
0.0058818325
0.0056610432
0.025052137
0.024480255
0.023907213
0.023333913
0.02276119
0.022189852
0.021620683
0.021054443
0.020491861
0.019933636
0.019380433
0.018832878
0.018291562
0.017757036
0.017229812
0.01671036
0.016199113
0.015696461
0.015202758
0.01471832
0.014243428
0.013778326
0.013323226
0.012878308
0.012443719
0.012019574
0.011605962
0.011202939
0.010810536
0.010428753
0.010057568
0.0096969294
0.0093467649
0.0090069778
0.0086774503
0.0083580442
0.0080486023
0.0077489493
0.007458893
0.007178224
0.0069067161
0.0066441277
0.0063902146
0.0061447938
0.027386821
0.026762746
0.026137231
0.025511156
0.024885407
0.02426086
0.023638374
0.023018783
0.022402894
0.021791481
0.021185283
0.020585
0.019991296
0.01940479
0.018826062
0.018255648
0.017694043
0.017141697
0.01659902
0.016066378
0.0155441
0.015032473
0.014531747
0.014042134
0.01356381
0.013096917
0.01264156
0.012197814
0.01176572
0.01134529
0.010936506
0.010539321
0.010153662
0.0097794322
0.0094165097
0.0090647512
0.0087239927
0.0083940509
0.0080747243
0.0077657939
0.007467024
0.0071781633
0.006898956
0.0066291921
0.030953915
0.030288815
0.029619451
0.028947091
0.028272789
0.027597536
0.026922301
0.026248037
0.025575677
0.024906127
0.024240265
0.023578935
0.022922945
0.022273066
0.021630028
0.020994517
0.020367176
0.019748606
0.019139359
0.018539943
0.017950821
0.017372412
0.016805089
0.016249183
0.015704982
0.015172733
0.014652642
0.014144876
0.013649564
0.013166798
0.012696636
0.0122391
0.011794181
0.011361839
0.010942005
0.010534582
0.010139449
0.0097564575
0.0093854406
0.0090262085
0.0086785525
0.0083422457
0.0080170438
0.0077026868
0.0073989079
0.0071054736
0.033170481
0.03246085
0.031746601
0.031028888
0.030308795
0.029587378
0.028865676
0.028144711
0.02742548
0.026708956
0.025996082
0.025287767
0.024584884
0.023888267
0.02319871
0.022516959
0.02184372
0.021179649
0.020525357
0.019881406
0.019248309
0.018626534
0.018016499
0.017418577
0.016833092
0.016260326
0.015700516
0.015153854
0.014620493
0.014100546
0.013594085
0.013101146
0.012621731
0.012155807
0.011703309
0.011264145
0.010838192
0.010425301
0.010025303
0.009638001
0.0092631817
0.0089006105
0.0085500349
0.0082111865
0.0078837876
0.0075675847
0.0352787
0.034527045
0.033770325
0.033009709
0.032246322
0.031481275
0.030715665
0.029950569
0.029187046
0.028426129
0.027668819
0.026916086
0.026168862
0.025428041
0.024694474
0.023968967
0.02325228
0.022545125
0.021848165
0.021162014
0.020487234
0.019824337
0.019173785
0.01853599
0.017911314
0.01730007
0.016702526
0.0161189
0.015549368
0.014994062
0.014453071
0.013926446
0.013414198
0.012916302
0.012432701
0.011963303
0.011507987
0.011066605
0.010638982
0.010224919
0.0098241966
0.0094365722
0.0090617855
0.0086995592
0.0083496046
0.008011651
0.037283537
0.036491922
0.035694814
0.034893415
0.034088895
0.033282411
0.03247511
0.031668123
0.030862563
0.030059515
0.029260037
0.028465153
0.027675851
0.026893079
0.026117744
0.025350705
0.024592775
0.023844718
0.023107247
0.022381023
0.021666656
0.020964699
0.020275657
0.019599978
0.01893806
0.018290248
0.017656838
0.017038075
0.016434157
0.015845235
0.015271414
0.014712759
0.014169292
0.013640996
0.013127818
0.012629672
0.012146437
0.011677964
0.011224075
0.010784568
0.010359216
0.009947769
0.0095499595
0.0091655
0.0087940908
0.008435446
0.039189806
0.038360079
0.037524465
0.036684202
0.0358405
0.03499456
0.034147574
0.033300722
0.032455163
0.031612034
0.030772443
0.029937465
0.02910814
0.028285468
0.027470406
0.026663865
0.025866707
0.025079746
0.024303742
0.023539401
0.022787376
0.022048265
0.021322607
0.02061089
0.019913545
0.019230948
0.018563422
0.017911237
0.017274612
0.016653718
0.016048677
0.015459565
0.014886416
0.014329221
0.013787933
0.013262467
0.012752705
0.012258497
0.011779662
0.011315992
0.010867255
0.010433194
0.010013532
0.0096079707
0.0092162
0.0088379202
0.041001538
0.040135445
0.039263105
0.03838579
0.037504747
0.036621217
0.035736432
0.034851616
0.033967972
0.033086683
0.032208904
0.031335758
0.030468334
0.02960768
0.028754801
0.027910657
0.027076157
0.026252162
0.025439476
0.02463885
0.023850977
0.023076496
0.022315984
0.021569964
0.020838898
0.020123192
0.019423198
0.018739208
0.018071464
0.017420154
0.016785417
0.016167341
0.015565971
0.014981305
0.014413302
0.01386188
0.013326922
0.012808277
0.01230576
0.011819159
0.011348236
0.010892725
0.010452342
0.010026776
0.0096157063
0.0092188206
0.042721958
0.041821198
0.040913866
0.040001263
0.039084668
0.038165356
0.037244597
0.036323653
0.035403769
0.03448617
0.033572056
0.032662593
0.031758917
0.03086212
0.029973254
0.029093325
0.028223288
0.027364045
0.026516446
0.025681284
0.024859292
0.024051145
0.023257459
0.022478789
0.021715629
0.020968416
0.020237525
0.019523273
0.018825924
0.018145683
0.017482704
0.016837088
0.016208891
0.015598117
0.015004732
0.014428657
0.013869774
0.013327931
0.012802942
0.01229459
0.011802628
0.011326786
0.010866766
0.01042225
0.009992903
0.0095784032
0.044353706
0.043419954
0.042479344
0.041533196
0.040582813
0.0396295
0.03867456
0.037719292
0.036764977
0.03581288
0.03486424
0.033920268
0.03298214
0.032050994
0.031127924
0.030213978
0.029310156
0.028417402
0.027536607
0.026668604
0.025814165
0.024974003
0.024148768
0.023339047
0.022545367
0.02176819
0.021007919
0.020264894
0.019539398
0.018831655
0.018141833
0.017470048
0.016816363
0.016180792
0.015563304
0.014963825
0.014382237
0.013818387
0.013272086
0.012743112
0.012231213
0.011736108
0.011257492
0.010795036
0.010348393
0.0099172306
0.045899099
0.044934002
0.043961823
0.042983863
0.042001441
0.04101589
0.040028543
0.03904073
0.038053768
0.037068957
0.036087575
0.035110872
0.034140064
0.033176329
0.032220803
0.031274576
0.030338687
0.029414123
0.028501813
0.027602628
0.026717378
0.025846812
0.024991613
0.024152401
0.023329732
0.022524097
0.021735921
0.020965569
0.020213343
0.019479485
0.018764178
0.01806755
0.017389674
0.016730572
0.016090218
0.01546854
0.014865423
0.014280713
0.013714216
0.013165706
0.012634925
0.012121586
0.011625373
0.011145947
0.010682948
0.010236036
0.048346117
0.047360184
0.046365521
0.045363493
0.044355439
0.043342709
0.04232666
0.041308655
0.040290051
0.039272199
0.038256434
0.037244066
0.036236383
0.035234637
0.034240047
0.033253786
0.032276983
0.031310717
0.030356012
0.029413837
0.028485098
0.027570643
0.026671253
0.025787645
0.02492047
0.024070312
0.023237689
0.022423051
0.021626784
0.020849211
0.02009059
0.019351119
0.018630939
0.017930132
0.017248728
0.016586707
0.015944
0.015320492
0.014716028
0.014130413
0.013563416
0.013014773
0.012484188
0.011971338
0.011475873
0.010997422
0.010535636
0.049753045
0.04873943
0.047716823
0.046686606
0.045650141
0.044608798
0.04356396
0.042517012
0.041469342
0.040422327
0.039377332
0.038335702
0.037298757
0.036267786
0.035244041
0.034228734
0.03322303
0.032228044
0.031244839
0.030274417
0.029317723
0.028375636
0.027448972
0.026538479
0.025644838
0.02476866
0.023910489
0.0230708
0.02225
0.02144843
0.020666367
0.019904022
0.019161547
0.018439037
0.017736528
0.017054005
0.016391402
0.015748606
0.015125462
0.014521772
0.013937301
0.013371779
0.012824903
0.012296342
0.011785735
0.011292701
0.010816881
0.051079077
0.050039302
0.04899033
0.047933539
0.046870299
0.045801998
0.044730036
0.043655822
0.042580766
0.041506273
0.040433734
0.039364525
0.038299998
0.037241472
0.036190236
0.035147533
0.034114565
0.033092482
0.032082379
0.031085295
0.030102208
0.02913403
0.028181608
0.02724572
0.026327076
0.025426315
0.024544004
0.023680643
0.022836659
0.022012412
0.021208194
0.020424232
0.01966069
0.018917671
0.018195221
0.017493328
0.016811931
0.01615092
0.015510136
0.01488938
0.014288415
0.013706964
0.013144718
0.012601338
0.012076452
0.011569671
0.011080627
0.052326852
0.051262403
0.050188613
0.049106818
0.048018394
0.046924738
0.045827268
0.044727412
0.043626602
0.042526264
0.041427818
0.040332665
0.039242186
0.038157731
0.037080619
0.036012127
0.034953488
0.033905885
0.032870446
0.031848244
0.030840286
0.029847517
0.028870814
0.027910984
0.026968764
0.026044819
0.025139742
0.024254051
0.023388197
0.022542557
0.021717439
0.020913084
0.020129667
0.019367302
0.01862604
0.017905878
0.017206756
0.016528566
0.015871149
0.015234306
0.014617794
0.014021332
0.013444605
0.012887264
0.012348932
0.011829207
0.011327716
0.05457568
0.053499046
0.052411502
0.05131441
0.050209131
0.049097054
0.047979588
0.046858168
0.045734236
0.044609244
0.043484639
0.042361865
0.041242347
0.040127492
0.039018679
0.037917255
0.036824528
0.03574176
0.034670166
0.033610904
0.032565078
0.031533726
0.030517821
0.029518271
0.028535908
0.027571498
0.026625728
0.025699215
0.024792501
0.023906052
0.023040265
0.022195464
0.021371902
0.020569768
0.019789182
0.019030205
0.018292838
0.017577026
0.016882661
0.016209587
0.015557599
0.014926454
0.014315866
0.013725514
0.013155042
0.012604063
0.012072167
0.011558974
0.055696957
0.054598809
0.053489569
0.052370608
0.051243299
0.050109036
0.048969243
0.047825365
0.04667886
0.045531195
0.044383839
0.043238252
0.042095887
0.040958171
0.039826512
0.038702281
0.037586814
0.036481404
0.035387291
0.034305666
0.033237659
0.032184338
0.031146703
0.030125689
0.029122156
0.028136893
0.027170612
0.026223952
0.025297474
0.024391665
0.023506937
0.022643629
0.021802008
0.020982274
0.020184556
0.019408922
0.018655379
0.017923876
0.017214305
0.016526511
0.01586029
0.015215392
0.01459153
0.013988376
0.013405568
0.01284271
0.012299384
0.011775205
0.056747653
0.055629267
0.054499662
0.053360197
0.05221224
0.051057193
0.049896488
0.048731577
0.047563934
0.04639504
0.045226379
0.044059432
0.04289567
0.041736545
0.040583486
0.03943789
0.038301119
0.037174491
0.036059275
0.034956687
0.033867885
0.032793963
0.03173595
0.030694804
0.029671412
0.028666584
0.027681056
0.026715488
0.025770461
0.02484648
0.023943972
0.023063291
0.022204717
0.021368459
0.020554657
0.019763386
0.018994657
0.018248422
0.017524578
0.016822968
0.016143387
0.015485584
0.014849266
0.0142341
0.013639719
0.013065717
0.01251167
0.011977187
0.057730969
0.056593577
0.055444889
0.05428622
0.053118935
0.051944437
0.050764165
0.04957958
0.048392165
0.047203414
0.046014827
0.044827903
0.043644128
0.042464977
0.041291899
0.040126315
0.03896961
0.037823126
0.036688158
0.035565947
0.034457676
0.033364466
0.032287368
0.031227366
0.03018537
0.029162212
0.028158651
0.027175365
0.026212954
0.02527194
0.024352767
0.023455801
0.022581334
0.021729587
0.020900707
0.020094776
0.019311811
0.018551768
0.017814544
0.017099984
0.016407881
0.015737983
0.015089992
0.014463572
0.013858346
0.013273905
0.012709813
0.012165676
0.059792446
0.058650036
0.057494918
0.056328381
0.055151748
0.053966387
0.052773704
0.051575141
0.050372169
0.049166279
0.047958976
0.046751774
0.045546184
0.044343712
0.04314585
0.041954067
0.040769804
0.039594469
0.038429427
0.037275995
0.036135439
0.035008964
0.033897715
0.032802768
0.031725129
0.030665728
0.029625421
0.028604985
0.027605118
0.026626438
0.025669481
0.024734708
0.023822498
0.022933154
0.022066906
0.02122391
0.020404256
0.019607963
0.018834992
0.018085244
0.017358561
0.016654739
0.01597352
0.015314606
0.014677653
0.014062281
0.013468069
0.012894575
0.0123414
0.06066709
0.059508199
0.058336495
0.057153268
0.055959843
0.054757591
0.05354792
0.052332277
0.051112137
0.049889
0.04866438
0.047439802
0.046216792
0.044996869
0.043781543
0.0425723
0.041370602
0.040177876
0.038995507
0.037824835
0.036667147
0.035523671
0.034395574
0.033283952
0.032189834
0.031114171
0.030057839
0.029021633
0.028006268
0.027012381
0.026040522
0.025091166
0.024164703
0.02326145
0.022381645
0.021525452
0.020692965
0.019884212
0.019099155
0.018337696
0.017599681
0.016884902
0.016193102
0.015523978
0.014877182
0.014252327
0.013648984
0.013066699
0.01250506
0.061483024
0.060308684
0.059121464
0.057922637
0.056713528
0.055495505
0.054269979
0.053038398
0.051802243
0.050563019
0.049322249
0.048081468
0.046842214
0.04560602
0.044374409
0.043148886
0.041930929
0.040721984
0.039523455
0.038336702
0.037163033
0.036003697
0.03485988
0.0337327
0.032623204
0.031532364
0.030461073
0.029410146
0.028380315
0.027372229
0.026386457
0.025423484
0.024483714
0.023567473
0.022675007
0.021806489
0.02096202
0.020141631
0.019345288
0.018572895
0.017824298
0.017099289
0.016397609
0.015718953
0.015062969
0.014429264
0.013817401
0.013226906
0.012657337
0.062243421
0.06105463
0.059852908
0.058639512
0.057415763
0.056183026
0.054942713
0.053696273
0.05244519
0.051190975
0.049935157
0.04867928
0.047424891
0.046173539
0.044926758
0.043686068
0.042452964
0.041228907
0.040015322
0.038813586
0.037625025
0.036450907
0.035292439
0.034150756
0.033026925
0.031921936
0.030836699
0.029772046
0.028728724
0.027707398
0.02670865
0.025732977
0.024780795
0.023852439
0.022948165
0.022068152
0.021212506
0.020381263
0.019574393
0.018791801
0.018033335
0.017298785
0.016587892
0.015900348
0.015235799
0.014593846
0.013974046
0.013375908
0.012798921
0.062951376
0.061749082
0.060533819
0.059306829
0.058069426
0.056822974
0.055568881
0.054308599
0.053043613
0.051775437
0.050505609
0.049235678
0.047967203
0.046701741
0.045440841
0.044186034
0.042938831
0.041700709
0.040473108
0.039257424
0.038054999
0.03686712
0.035695009
0.034539822
0.033402642
0.032284475
0.031186249
0.03010881
0.029052922
0.028019263
0.027008426
0.026020922
0.025057176
0.024117533
0.023202256
0.022311532
0.021445473
0.020604118
0.019787439
0.018995346
0.018227684
0.017484247
0.016764772
0.016068949
0.015396423
0.014746793
0.014119615
0.013514405
0.012930697
0.012367998
0.063609883
0.062394986
0.061167092
0.059927427
0.058677301
0.057418073
0.05615115
0.054877982
0.053600057
0.052318893
0.051036032
0.04975303
0.048471454
0.04719287
0.045918838
0.044650904
0.04339059
0.042139388
0.040898753
0.039670096
0.038454776
0.037254096
0.036069296
0.034901546
0.033751947
0.03262152
0.031511209
0.030421874
0.029354292
0.028309155
0.027287068
0.026288553
0.025314045
0.024363897
0.02343838
0.022537688
0.021661936
0.020811169
0.019985362
0.019184425
0.018408206
0.017656497
0.016929035
0.01622551
0.015545562
0.014888792
0.014254755
0.013642972
0.013052956
0.012484335
0.064221824
0.062995176
0.061755509
0.060504038
0.059242065
0.057970946
0.056692086
0.055406934
0.054116978
0.05282374
0.051528764
0.050233614
0.048939863
0.047649086
0.046362854
0.045082723
0.043810226
0.042546871
0.041294125
0.040053414
0.038826112
0.037613537
0.036416944
0.03523752
0.034076377
0.032934555
0.03181301
0.030712617
0.029634164
0.028578357
0.027545812
0.02653706
0.025552546
0.024592631
0.023657593
0.022747632
0.021862869
0.021003351
0.020169057
0.019359898
0.018575723
0.017816325
0.017081439
0.016370752
0.015683907
0.015020499
0.014380086
0.013762189
0.013166313
0.012592063
0.064789961
0.063552364
0.062301736
0.061039277
0.059766283
0.058484107
0.05719415
0.05589786
0.054596727
0.053292273
0.051986046
0.050679616
0.049374561
0.048072464
0.046774906
0.045483451
0.044199646
0.042925008
0.04166102
0.040409119
0.039170693
0.037947075
0.036739533
0.035549268
0.034377408
0.033225005
0.032093028
0.030982365
0.029893818
0.028828101
0.027785842
0.026767582
0.025773775
0.024804789
0.023860908
0.022942338
0.022049205
0.021181559
0.020339382
0.019522587
0.018731023
0.017964483
0.017222702
0.016505366
0.015812114
0.015142542
0.014496205
0.013872623
0.013271293
0.012691794
0.065316928
0.064069143
0.062808318
0.061535642
0.060252405
0.058959955
0.057659691
0.056353061
0.055041552
0.053726688
0.052410022
0.051093125
0.049777583
0.048464987
0.047156922
0.045854965
0.044560672
0.04327557
0.042001154
0.040738875
0.039490132
0.03825627
0.037038573
0.035838252
0.034656451
0.033494232
0.032352577
0.031232387
0.030134474
0.029059563
0.028008292
0.026981211
0.02597878
0.025001377
0.024049292
0.023122734
0.022221834
0.021346647
0.020497156
0.019673276
0.018874857
0.018101691
0.017353513
0.016630008
0.015930812
0.01525552
0.014603685
0.013974823
0.013368425
0.012784053
0.065805236
0.064547978
0.063277678
0.061995509
0.06070276
0.059400774
0.058090947
0.056774723
0.055453591
0.054129075
0.05280273
0.051476132
0.050150871
0.048828543
0.047510742
0.046199053
0.044895041
0.043600244
0.042316166
0.041044269
0.039785966
0.038542613
0.037315504
0.036105866
0.034914851
0.033743534
0.032592911
0.031463891
0.030357297
0.029273865
0.028214241
0.027178983
0.02616856
0.025183355
0.024223665
0.023289703
0.022381605
0.021499428
0.020643158
0.019812711
0.019007938
0.01822863
0.017474523
0.0167453
0.016040596
0.015360003
0.01470307
0.014069311
0.013458211
0.012869324
0.066257264
0.064991211
0.063712113
0.062421137
0.061119564
0.059808734
0.05849004
0.057164925
0.055834876
0.054501419
0.05316611
0.051830527
0.050496265
0.049164927
0.047838113
0.046517414
0.045204405
0.043900632
0.04260761
0.04132681
0.040059657
0.038807517
0.037571696
0.036353431
0.035153887
0.033974149
0.032815222
0.031678026
0.030563395
0.029472073
0.028404715
0.027361886
0.026344063
0.025351634
0.024384902
0.023444085
0.022529321
0.021640673
0.020778126
0.019941598
0.019130942
0.018345949
0.017586352
0.016851835
0.01614203
0.015456527
0.014794874
0.01415658
0.013541124
0.012948058
0.066675269
0.065401059
0.064113803
0.062814661
0.061504911
0.060185888
0.058858983
0.057525636
0.056187333
0.054845601
0.053501996
0.052158101
0.050815514
0.049475842
0.048140691
0.046811659
0.045490329
0.044178255
0.042876962
0.041587929
0.040312591
0.039052326
0.037808448
0.036582205
0.035374772
0.034187245
0.033020639
0.031875882
0.030753818
0.029655198
0.028580687
0.027530856
0.026506188
0.025507077
0.024533831
0.023586674
0.022665746
0.021771111
0.020902759
0.020060607
0.01924451
0.018454258
0.017689585
0.016950171
0.016235648
0.015545605
0.014879585
0.014237095
0.01361761
0.013020678
0.067061382
0.065779621
0.064484808
0.063178105
0.061860784
0.060534179
0.059199677
0.057858717
0.056512782
0.0551634
0.053812128
0.05246055
0.051110269
0.049762896
0.048420042
0.047083312
0.045754295
0.044434553
0.043125618
0.04182898
0.040546082
0.039278309
0.038026988
0.036793376
0.035578655
0.034383933
0.033210231
0.03205849
0.030929558
0.029824197
0.028743076
0.027686776
0.026655784
0.025650501
0.024671238
0.023718222
0.022791599
0.021891434
0.021017718
0.020170372
0.019349248
0.018554138
0.017784774
0.017040836
0.016321955
0.015627716
0.014957661
0.014311293
0.013688085
0.013087583
0.067417614
0.066128878
0.064827074
0.063513375
0.062189055
0.060855442
0.05951392
0.058165926
0.056812942
0.055456495
0.054098143
0.052739474
0.051382091
0.050027609
0.048677647
0.047333812
0.045997701
0.044670883
0.043354897
0.042051241
0.040761366
0.039486668
0.038228479
0.036988066
0.035766621
0.034565259
0.033385011
0.032226823
0.031091554
0.029979972
0.028892753
0.027830483
0.026793655
0.025782676
0.02479786
0.023839439
0.02290756
0.022002292
0.021123628
0.020271488
0.019445726
0.018646132
0.017872441
0.017124328
0.016401425
0.015703313
0.015029534
0.014379588
0.013752943
0.013149146
0.067745866
0.066450701
0.065142433
0.063822272
0.062491487
0.061151404
0.059803404
0.058448919
0.057089433
0.055726469
0.054361589
0.05299638
0.05163245
0.050271416
0.0489149
0.047564517
0.046221867
0.044888527
0.043566043
0.042255919
0.040959615
0.039678533
0.038414015
0.037167334
0.035939692
0.03473221
0.033545929
0.032381801
0.031240691
0.030123375
0.029030536
0.027962764
0.026920558
0.025904329
0.024914396
0.023950993
0.023014271
0.0221043
0.021221075
0.020364517
0.019534481
0.018730756
0.017953076
0.017201116
0.016474505
0.015772825
0.015095612
0.014442366
0.013812553
0.013205719
0.068047949
0.06674685
0.065432615
0.064106489
0.062769742
0.061423694
0.060069722
0.058709257
0.05734378
0.055974814
0.054603922
0.053232691
0.051862731
0.050495664
0.049133116
0.047776704
0.046428036
0.045088693
0.043760227
0.04244415
0.041141928
0.039854971
0.038584627
0.037332178
0.036098832
0.034885718
0.033693883
0.032524287
0.031377803
0.03025521
0.029157197
0.028084361
0.027037206
0.026016145
0.025021502
0.024053514
0.023112334
0.022198035
0.021310613
0.020449989
0.019616019
0.018808493
0.018027141
0.017271641
0.016541617
0.015836651
0.015156277
0.014499993
0.013867262
0.013257631
0.072157792
0.070895945
0.069618121
0.068325663
0.067018994
0.065699244
0.064367621
0.063025383
0.061673844
0.060314376
0.058948408
0.057577419
0.056202933
0.05482651
0.053449742
0.052074238
0.050701625
0.04933353
0.047971577
0.046617376
0.045272515
0.043938552
0.042617004
0.041309342
0.040016985
0.038741287
0.037483536
0.036244948
0.035026657
0.033829718
0.032655098
0.031503673
0.030376229
0.029273462
0.028195972
0.027144268
0.026118766
0.025119795
0.024147593
0.023202317
0.022284041
0.021392761
0.020528401
0.019690816
0.018879796
0.01809507
0.017336316
0.016603156
0.015895168
0.015211888
0.014552809
0.013917394
0.013305191
0.07367824
0.072428016
0.071161067
0.069878195
0.068580478
0.067268675
0.065943846
0.064607166
0.063259879
0.061903292
0.060538774
0.05916775
0.057791699
0.056412142
0.055030642
0.053648789
0.052268197
0.050890492
0.049517306
0.048150267
0.046790988
0.045441063
0.044102053
0.042775484
0.041462831
0.040165518
0.038884906
0.037622291
0.036378891
0.035155851
0.033954229
0.032774997
0.031619038
0.030487144
0.029380014
0.028298254
0.027242375
0.026212799
0.025209855
0.024233787
0.023284753
0.022362827
0.021468008
0.02060022
0.019759318
0.018945092
0.018157271
0.01739553
0.016659491
0.015948731
0.015262782
0.014601136
0.013963255
0.013348689
0.073930575
0.072675554
0.071403886
0.070116329
0.068813854
0.067497346
0.066167853
0.06482653
0.063474609
0.062113391
0.060744241
0.059368581
0.057987887
0.056603682
0.055217527
0.053831013
0.052445757
0.051063386
0.049685535
0.048313834
0.046949903
0.045595338
0.044251705
0.042920535
0.041603309
0.040301456
0.039016343
0.03774927
0.036501464
0.035274072
0.034068159
0.032884703
0.031724591
0.03058862
0.029477493
0.028391821
0.027332118
0.026298809
0.025292228
0.024312618
0.023360141
0.022434872
0.021536811
0.020665883
0.019821943
0.019004781
0.018214124
0.017449648
0.016710972
0.015997671
0.015309276
0.014645276
0.014005131
0.013388393
0.074161257
0.072901859
0.071625856
0.070333988
0.069027183
0.067706375
0.066372611
0.065027035
0.06367087
0.062305411
0.06093202
0.059552116
0.058167173
0.056778714
0.0553883
0.053997522
0.052607998
0.051221359
0.04983924
0.048463277
0.04709509
0.045736282
0.044388422
0.043053044
0.041731636
0.040425631
0.039136402
0.037865254
0.036613417
0.035382046
0.03417221
0.03298489
0.031820981
0.030681282
0.029566501
0.028477252
0.027414052
0.026377331
0.025367423
0.024384576
0.023428951
0.022500626
0.021599601
0.020725803
0.019879085
0.019059238
0.018265989
0.017499011
0.016757924
0.016042299
0.015351665
0.014685509
0.014043288
0.013424559
0.074371725
0.073108322
0.071828349
0.070532534
0.069221783
0.067897051
0.066559385
0.065209922
0.063849878
0.062480545
0.061103279
0.059719497
0.058330674
0.05693833
0.055544026
0.054149356
0.052755936
0.051365399
0.049979385
0.048599531
0.04722746
0.045864778
0.044513059
0.043173842
0.041848617
0.040538824
0.039245838
0.03797097
0.036715456
0.035480454
0.034267037
0.033076193
0.031908818
0.030765717
0.029647602
0.028555088
0.027488699
0.026448864
0.025435921
0.024450119
0.023491622
0.022560508
0.02165678
0.020780363
0.019931111
0.019108815
0.018313201
0.017543941
0.016800653
0.016082907
0.015390228
0.0147221
0.014077979
0.013457422
0.074563316
0.073296254
0.072012655
0.070713235
0.069398892
0.068070586
0.066729363
0.065376356
0.064012776
0.06263991
0.061259112
0.059871797
0.058479437
0.057083553
0.055685706
0.054287488
0.052890519
0.051496433
0.050106872
0.048723473
0.047347865
0.045981655
0.044626423
0.043283709
0.041955009
0.040641765
0.039345359
0.038067104
0.036808242
0.035569933
0.034353256
0.033159203
0.031988673
0.030842476
0.029721324
0.028625839
0.027556545
0.026513875
0.025498169
0.024509678
0.023548566
0.022614915
0.021708725
0.020829924
0.019978366
0.01915384
0.018356074
0.017584737
0.016839446
0.016119768
0.015425225
0.014755299
0.014109438
0.013487201
0.074737282
0.073466884
0.072179981
0.07087728
0.069559672
0.068228117
0.06688366
0.06552743
0.064160634
0.062784556
0.061400546
0.060010019
0.058614445
0.057215343
0.055814275
0.054412834
0.053012641
0.05161533
0.050222545
0.048835926
0.047457105
0.046087691
0.044729266
0.043383376
0.04205152
0.040735142
0.039435629
0.038154298
0.036892395
0.035651083
0.034431446
0.033234478
0.032061083
0.030912072
0.029788164
0.02868998
0.027618049
0.026572804
0.025554589
0.024563656
0.023600171
0.022664215
0.02175579
0.020874825
0.020021173
0.019194623
0.018394903
0.017621679
0.016874569
0.016153137
0.015456901
0.014785337
0.014137886
0.013514104
0.074894793
0.073621365
0.072331461
0.071025782
0.069705212
0.068370711
0.067023322
0.065664169
0.064294457
0.062915466
0.061528545
0.060135106
0.058736618
0.0573346
0.055930613
0.054526252
0.053123136
0.051722903
0.050327197
0.048937662
0.047555929
0.046183613
0.044822297
0.04347353
0.042138814
0.040819598
0.039517271
0.038233154
0.036968495
0.035724464
0.034502146
0.033302538
0.032126548
0.03097499
0.029848585
0.028747957
0.027673638
0.026626063
0.025605576
0.024612431
0.023646796
0.022708754
0.021798306
0.020915381
0.020059833
0.019231451
0.018429962
0.017655031
0.016906275
0.016183254
0.015485484
0.014812434
0.014163533
0.013538323
0.075036948
0.073760775
0.072468156
0.071159782
0.069836534
0.06849937
0.06714933
0.065787535
0.064415187