/*--------------------------------*- C++ -*----------------------------------*\
| =========                 |                                                 |
| \\      /  F ield         | OpenFOAM: The Open Source CFD Toolbox           |
|  \\    /   O peration     | Version:  2312                                  |
|   \\  /    A nd           | Website:  www.openfoam.com                      |
|    \\/     M anipulation  |                                                 |
\*---------------------------------------------------------------------------*/
FoamFile
{
    version     2.0;
    format      ascii;
    arch        "LSB;label=32;scalar=64";
    class       volScalarField;
    location    "0.06";
    object      k;
}
// * * * * * * * * * * * * * * * * * * * * * * * * * * * * * * * * * * * * * //

dimensions      [0 2 -2 0 0 0 0];

internalField   nonuniform List<scalar> 
3250
(
11.20893
11.193118
11.17691
11.160324
11.143367
11.126053
11.108397
11.090421
11.072151
11.053618
11.034855
11.015897
10.996773
10.977511
10.958133
10.938656
10.919093
10.899457
10.879758
10.860006
10.840215
10.820401
10.800582
10.780778
10.761013
10.74131
10.721694
10.70219
10.68282
10.663607
10.644571
10.625735
10.60712
10.588746
10.570635
10.55281
10.535294
10.518113
10.501292
10.48486
10.468844
10.453273
10.438173
10.423567
11.242236
11.224703
11.206804
11.188564
11.169993
11.151095
11.131883
11.112379
11.092609
11.072607
11.052405
11.032038
11.011536
10.99093
10.970241
10.949489
10.92869
10.907857
10.887003
10.86614
10.845282
10.824446
10.80365
10.782914
10.76226
10.741711
10.72129
10.701019
10.680922
10.661021
10.641337
10.621892
10.602705
10.583796
10.565187
10.5469
10.528957
10.511382
10.494201
10.477441
10.461129
10.445295
10.429961
10.41514
11.247411
11.228128
11.208501
11.188561
11.168326
11.147808
11.127023
11.105996
11.084755
11.063331
11.041758
11.020069
10.998295
10.976464
10.954602
10.93273
10.910866
10.889024
10.867221
10.845469
10.823786
10.802186
10.780689
10.759313
10.738078
10.717006
10.696119
10.675436
10.65498
10.634769
10.614824
10.595163
10.575806
10.556771
10.538077
10.519745
10.501797
10.484255
10.467143
10.450486
10.43431
10.418641
10.403501
10.388897
11.253496
11.231967
11.210132
11.188013
11.165628
11.142999
11.120151
11.097113
11.073915
11.05059
11.027172
11.003694
10.980191
10.956691
10.933221
10.909806
10.886467
10.863222
10.840091
10.81709
10.794236
10.771546
10.74904
10.726737
10.704654
10.682813
10.661232
10.639931
10.618928
10.598241
10.577888
10.557886
10.538252
10.519003
10.500156
10.48173
10.463743
10.446218
10.429174
10.412634
10.396623
10.381162
10.366271
10.351956
11.256711
11.232919
11.208815
11.184431
11.159799
11.134948
11.10991
11.084716
11.059403
11.034006
11.008562
10.983106
10.957675
10.932301
10.907015
10.881844
10.856815
10.831952
10.807276
10.782809
10.758571
10.734581
10.710861
10.687429
10.664305
10.641509
10.619058
10.596971
10.575266
10.553958
10.533065
10.512601
10.492582
10.473024
10.453942
10.435352
10.417272
10.39972
10.382713
10.366273
10.350419
10.335172
10.320547
10.306549
11.252121
11.226309
11.200176
11.17376
11.147095
11.120217
11.093163
11.065972
11.038682
11.011333
10.983966
10.956619
10.929331
10.90214
10.875079
10.848182
10.82148
10.795001
10.768773
10.742821
10.71717
10.691843
10.666863
10.642251
10.618029
10.594217
10.570834
10.547898
10.525427
10.503437
10.481943
10.460961
10.440505
10.42059
10.401229
10.382439
10.364234
10.34663
10.329643
10.313291
10.297591
10.282561
10.268214
10.254554
11.237523
11.209985
11.182115
11.153952
11.125535
11.096906
11.068105
11.039173
11.010155
10.981093
10.952029
10.923006
10.894067
10.865251
10.836597
10.808143
10.779925
10.751975
10.724325
10.697007
10.670048
10.643476
10.617317
10.591596
10.566336
10.541559
10.517287
10.493537
10.47033
10.447681
10.425607
10.404123
10.383244
10.362985
10.343358
10.324378
10.306059
10.288416
10.271463
10.255215
10.239688
10.224896
10.21085
10.197555
11.21458
11.18544
11.15597
11.126209
11.0962
11.065984
11.035606
11.00511
10.974541
10.943945
10.913365
10.882847
10.852436
10.822173
10.792101
10.76226
10.732691
10.703429
10.674511
10.645972
10.617842
10.590155
10.562937
10.536218
10.510024
10.484378
10.459303
10.43482
10.41095
10.387711
10.36512
10.343193
10.321944
10.30139
10.281542
10.262416
10.244025
10.226381
10.209499
10.193391
10.178071
10.163552
10.149845
10.136952
11.187241
11.156435
11.125317
11.093928
11.062311
11.03051
10.99857
10.966537
10.934455
10.902372
10.870333
10.838384
10.806571
10.774939
10.743531
10.712391
10.681559
10.651077
10.620982
10.591312
10.562102
10.533386
10.505195
10.477561
10.45051
10.424069
10.398264
10.373117
10.348649
10.324881
10.30183
10.279513
10.257947
10.237146
10.217124
10.197895
10.179471
10.161866
10.145091
10.129159
10.114082
10.09987
10.086533
10.074075
11.223959
11.191981
11.159646
11.126995
11.094068
11.060908
11.027556
10.994056
10.960455
10.926796
10.893127
10.859494
10.825944
10.792522
10.759275
10.72625
10.693491
10.661042
10.628948
10.597249
10.565987
10.5352
10.504926
10.4752
10.446057
10.417529
10.389645
10.362435
10.335923
10.310135
10.285094
10.26082
10.237332
10.214648
10.192785
10.171759
10.151582
10.132269
10.113832
10.096283
10.079633
10.063893
10.049074
10.035185
10.022234
10.010226
11.203349
11.169229
11.134807
11.100118
11.065203
11.030101
10.994856
10.95951
10.924108
10.888695
10.853318
10.818023
10.782857
10.747867
10.713099
10.678601
10.644418
10.610595
10.577178
10.544209
10.51173
10.479782
10.448404
10.417634
10.387506
10.358055
10.329311
10.301306
10.274065
10.247616
10.221981
10.197183
10.173241
10.150175
10.128001
10.106734
10.086389
10.066979
10.048516
10.031011
10.014474
9.9989155
9.9843442
9.9707684
9.9581949
9.9466278
11.187343
11.150931
11.114274
11.077406
11.040364
11.003189
10.965923
10.928607
10.891287
10.854007
10.816814
10.779753
10.742871
10.706217
10.669837
10.633778
10.598088
10.562812
10.527996
10.493685
10.459921
10.426747
10.394203
10.362327
10.331157
10.300727
10.27107
10.242218
10.214199
10.18704
10.160765
10.135398
10.110958
10.087466
10.064938
10.043391
10.022837
10.003291
9.984763
9.9672642
9.950804
9.9353909
9.9210327
9.9077362
9.8955069
9.8843491
11.176167
11.137384
11.098414
11.05929
11.020048
10.980728
10.941371
10.902017
10.86271
10.823496
10.78442
10.745528
10.706867
10.668485
10.63043
10.59275
10.555492
10.518703
10.48243
10.446719
10.411613
10.377156
10.343389
10.310352
10.278084
10.246621
10.215997
10.186244
10.157392
10.129468
10.1025
10.076509
10.051518
10.027547
10.004612
9.9827304
9.9619154
9.9421798
9.9235348
9.9059904
9.889555
9.8742363
9.8600406
9.8469736
9.8350397
9.8242428
11.16933
11.12816
11.086863
11.045469
11.004014
10.962535
10.921071
10.879664
10.838356
10.797192
10.756216
10.715474
10.675015
10.634886
10.595135
10.555811
10.516961
10.478634
10.440877
10.403737
10.367259
10.331487
10.296465
10.262234
10.228832
10.196298
10.164667
10.133973
10.104246
10.075515
10.047808
10.021148
9.9955582
9.9710584
9.9476668
9.9253993
9.9042704
9.8842924
9.8654763
9.8478314
9.8313656
9.8160856
9.8019966
9.7891031
9.7774085
9.7669165
11.166061
11.122527
11.078932
11.035298
10.991659
10.94805
10.90451
10.861078
10.817795
10.774706
10.731854
10.689286
10.647049
10.605191
10.563761
10.522806
10.482376
10.44252
10.403286
10.364721
10.326872
10.289785
10.253503
10.21807
10.183525
10.149907
10.117254
10.0856
10.054977
10.025415
9.9969415
9.9695827
9.9433613
9.9182982
9.894412
9.8717191
9.850234
9.8299693
9.8109356
9.793142
9.7765959
9.7613031
9.7472681
9.7344942
9.7229842
9.7127413
11.165554
11.119724
11.073883
11.028065
10.982297
10.936614
10.891053
10.84565
10.800447
10.755486
10.71081
10.666466
10.6225
10.578959
10.535893
10.49335
10.451379
10.410031
10.369353
10.329395
10.290203
10.251825
10.214305
10.177687
10.142013
10.107323
10.073654
10.041044
10.009525
9.9791276
9.9498816
9.9218131
9.894946
9.8693018
9.8448998
9.8217569
9.799888
9.7793056
9.7600206
9.7420416
9.7253758
9.7100285
9.6960034
9.6833031
9.6719296
9.6618856
11.167148
11.119082
11.071066
11.02313
10.975302
10.927614
10.880099
10.832794
10.785739
10.738973
10.692541
10.646486
10.600854
10.555694
10.511053
10.466981
10.423527
10.380741
10.338671
10.297368
10.25688
10.217253
10.178535
10.140769
10.103999
10.068266
10.033608
10.000064
9.9676662
9.9364485
9.9064401
9.8776683
9.8501579
9.8239313
9.7990083
9.7754064
9.7531407
9.7322242
9.7126676
9.6944797
9.6776673
9.6622353
9.6481871
9.6355244
9.6242488
9.6143625
11.170329
11.120093
11.069973
11.019987
10.970169
10.920547
10.871151
10.822017
10.773182
10.724684
10.676567
10.628873
10.581648
10.534938
10.488792
10.443257
10.398385
10.354224
10.310825
10.268236
10.226508
10.185687
10.145821
10.106955
10.069134
10.032399
9.9967906
9.9623465
9.9291022
9.897091
9.8663436
9.8368882
9.8087503
9.781953
9.7565168
9.7324596
9.7097971
9.6885423
9.6687063
9.6502978
9.6333235
9.6177881
9.6036944
9.5910438
9.5798373
9.5700767
11.227243
11.174733
11.122388
11.070225
11.018261
10.966522
10.915035
10.863829
10.812936
10.762393
10.712236
10.662506
10.613245
10.564497
10.516308
10.468725
10.421798
10.375575
10.330106
10.285441
10.24163
10.198722
10.156765
10.115808
10.075896
10.037074
9.999386
9.9628714
9.9275696
9.893517
9.8607477
9.8292931
9.7991822
9.7704413
9.7430941
9.7171617
9.6926625
9.6696124
9.648025
9.6279114
9.6092803
9.5921383
9.57649
9.5623378
9.5496828
9.5385255
9.5288674
11.234724
11.180098
11.125709
11.071566
11.017687
10.964091
10.910805
10.857856
10.805272
10.753089
10.70134
10.650065
10.599305
10.549102
10.499502
10.450551
10.402297
10.35479
10.308077
10.26221
10.217238
10.17321
10.130177
10.088185
10.047282
10.007512
9.9689202
9.9315471
9.8954325
9.8606135
9.827125
9.7949991
9.7642655
9.734951
9.70708
9.6806741
9.655752
9.63233
9.610422
9.5900391
9.5711901
9.5538816
9.538118
9.5239015
9.5112328
9.5001119
9.4905401
11.24293
11.18625
11.129875
11.073813
11.018078
10.962688
10.907665
10.853035
10.798824
10.745063
10.691786
10.63903
10.586835
10.535241
10.484293
10.434037
10.384519
10.335788
10.287893
10.240883
10.194809
10.149721
10.105666
10.062694
10.020853
9.9801862
9.9407396
9.9025548
9.8656719
9.8301288
9.7959607
9.7632005
9.7318784
9.7020218
9.6736553
9.6468011
9.6214783
9.5977034
9.5754904
9.5548505
9.5357927
9.5183235
9.5024469
9.488165
9.4754782
9.4643861
9.4548897
11.251741
11.193065
11.134761
11.076837
11.019305
10.96218
10.905478
10.849226
10.793445
10.738167
10.683421
10.629244
10.575672
10.522746
10.470509
10.419005
10.368281
10.318384
10.269363
10.221267
10.174146
10.128049
10.083027
10.039126
9.9963954
9.9548803
9.9146255
9.8756736
9.8380651
9.8018383
9.7670291
9.7336707
9.7017936
9.6714259
9.6425925
9.6153158
9.5896153
9.5655075
9.5430067
9.5221242
9.5028688
9.4852469
9.4692624
9.4549172
9.4422111
9.4311436
9.4217154
11.322137
11.26107
11.200449
11.140273
11.080543
11.02127
10.962464
10.904141
10.846322
10.789029
10.732288
10.67613
10.620586
10.565693
10.51149
10.458018
10.405321
10.353444
10.302434
10.252339
10.203208
10.155091
10.108036
10.062093
10.017311
9.9737373
9.9314181
9.8903982
9.8507206
9.8124262
9.7755536
9.7401391
9.7062164
9.6738163
9.642967
9.613694
9.5860197
9.5599638
9.5355431
9.5127718
9.4916612
9.4722201
9.4544546
9.4383685
9.4239633
9.4112386
9.4001935
9.3908284
11.333855
11.270828
11.208322
11.146329
11.084851
11.023892
10.963461
10.903573
10.844241
10.785489
10.727339
10.66982
10.612963
10.556801
10.501373
10.446717
10.392877
10.339897
10.287823
10.236703
10.186584
10.137517
10.089549
10.042731
9.9971111
9.9527366
9.9096541
9.8679086
9.8275434
9.7885996
9.7511162
9.7151296
9.6806739
9.6477801
9.6164768
9.5867895
9.5587408
9.5323507
9.5076358
9.4846104
9.4632857
9.4436704
9.4257704
9.4095892
9.3951279
9.3823859
9.371362
9.3620562
11.345863
11.28094
11.216608
11.152857
11.089687
11.027098
10.965098
10.903696
10.842906
10.782748
10.723243
10.664415
10.606294
10.548914
10.492309
10.436518
10.381583
10.327547
10.274455
10.222354
10.171292
10.121318
10.072481
10.024829
9.9784105
9.9332741
9.8894661
9.8470314
9.8060136
9.7664539
9.7283916
9.6918633
9.6569032
9.6235428
9.5918105
9.5617321
9.5333305
9.5066253
9.4816335
9.4583691
9.4368432
9.4170644
9.3990383
9.3827681
9.3682546
9.3554966
9.3444926
9.3352426
11.358088
11.291333
11.225236
11.159787
11.094982
11.030821
10.967306
10.904447
10.842253
10.78074
10.719929
10.659842
10.600508
10.541957
10.484223
10.427344
10.371359
10.316312
10.262246
10.209207
10.157244
10.106404
10.056735
10.008288
9.9611092
9.9152472
9.8707485
9.8276583
9.7860201
9.7458754
9.7072635
9.6702213
9.6347832
9.6009806
9.5688423
9.538394
9.5096586
9.4826559
9.4574027
9.4339129
9.4121976
9.3922649
9.3741203
9.3577665
9.3432039
9.3304308
9.3194454
9.3102474
11.439746
11.370468
11.301938
11.234135
11.167048
11.100668
11.034991
10.970019
10.905756
10.84221
10.779396
10.71733
10.656035
10.595535
10.535861
10.477045
10.419122
10.362132
10.306116
10.251118
10.197182
10.144357
10.09269
10.042229
9.9930219
9.9451178
9.8985642
9.8534076
9.8096931
9.7674645
9.7267634
9.687629
9.6500986
9.6142065
9.5799843
9.5474609
9.516662
9.4876104
9.460326
9.4348254
9.4111225
9.389228
9.36915
9.3508934
9.3344606
9.3198515
9.3070638
9.2960949
9.2869446
11.453978
11.382918
11.312678
11.243235
11.174571
11.106676
11.039543
10.97317
10.907558
10.842715
10.77865
10.715381
10.652926
10.591309
10.530559
10.470705
10.411783
10.35383
10.296888
10.240998
10.186206
10.132557
10.0801
10.028881
9.9789502
9.9303542
9.8831411
9.8373573
9.7930482
9.7502573
9.7090264
9.669395
9.6314002
9.5950765
9.5604555
9.5275661
9.4964342
9.4670825
9.4395306
9.4137954
9.3898903
9.3678259
9.3476099
9.3292471
9.3127394
9.2980858
9.2852834
9.2743287
9.2652205
11.468131
11.395363
11.323483
11.252465
11.182288
11.11294
11.044409
10.976692
10.909787
10.8437
10.778438
10.714016
10.65045
10.587764
10.525983
10.465137
10.405259
10.346387
10.288559
10.231818
10.176207
10.121772
10.06856
10.016619
9.9659968
9.916741
9.8688991
9.8225176
9.7776419
9.7343154
9.6925801
9.6524755
9.6140386
9.5773042
9.5423039
9.5090664
9.4776178
9.4479806
9.4201746
9.3942161
9.3701187
9.3478926
9.3275454
9.3090813
9.2925019
9.2778057
9.2649886
9.2540455
9.2449721
11.482137
11.407734
11.334284
11.261758
11.190133
11.119392
11.049524
10.980521
10.912379
10.845102
10.778695
10.71317
10.648544
10.584835
10.52207
10.460276
10.399486
10.339735
10.281062
10.223508
10.167116
10.111931
10.058
10.00537
9.9540891
9.9042044
9.8557634
9.8088126
9.7633971
9.7195607
9.677345
9.6367898
9.5979323
9.5608069
9.5254455
9.4918768
9.4601267
9.4302178
9.4021696
9.3759985
9.3517178
9.3293375
9.3088649
9.290304
9.2736558
9.2589185
9.2460872
9.2351547
9.2261103
11.495931
11.419966
11.345016
11.271049
11.19804
11.125971
11.054825
10.984594
10.915272
10.846859
10.779359
10.712783
10.647143
10.58246
10.518756
10.456058
10.394398
10.33381
10.274331
10.216002
10.158866
10.102967
10.048351
9.9950655
9.9431571
9.8926737
9.8436624
9.7961696
9.7502405
9.7059187
9.663246
9.622262
9.583004
9.5455066
9.5098014
9.4759174
9.4438803
9.4137125
9.3854336
9.3590598
9.3346041
9.3120765
9.2914838
9.2728299
9.2561155
9.2413386
9.2284941
9.2175754
9.208579
9.201492
11.509454
11.431999
11.355619
11.280279
11.205952
11.132616
11.060254
10.988853
10.918406
10.848911
10.78037
10.712792
10.646188
10.580577
10.515979
10.452422
10.389933
10.328548
10.268303
10.209238
10.151394
10.094816
10.039548
9.9856385
9.9331337
9.882081
9.8325275
9.7845194
9.7381018
9.6933185
9.6502111
9.6088195
9.5691807
9.5313293
9.4952972
9.4611131
9.4288026
9.3983883
9.3698895
9.3433223
9.3186994
9.2960308
9.2753229
9.2565795
9.2398011
9.2249854
9.2121277
9.2012219
9.1922632
9.1852533
11.52265
11.443779
11.366039
11.289394
11.213814
11.139274
11.065754
10.993241
10.921725
10.851201
10.781672
10.713141
10.645622
10.579129
10.513682
10.449307
10.386033
10.323891
10.262918
10.203153
10.144637
10.087413
10.031527
9.9770254
9.9239542
9.872361
9.8222926
9.7737952
9.7269139
9.6816923
9.6381721
9.5963931
9.5563925
9.5182048
9.4818619
9.4473923
9.4148218
9.3841728
9.3554644
9.3287126
9.3039301
9.2811264
9.260308
9.2414782
9.2246375
9.2097835
9.1969115
9.1860154
9.1770906
9.1701367
11.535473
11.455258
11.376228
11.298345
11.221575
11.145893
11.071276
10.997708
10.925177
10.853679
10.783211
10.713778
10.64539
10.57806
10.511809
10.44666
10.382639
10.31978
10.258118
10.197689
10.138536
10.080701
10.024228
9.969165
9.915557
9.8634513
9.8128948
9.7639335
9.7166124
9.6709752
9.6270635
9.5849171
9.5445731
9.5060662
9.4694281
9.4346874
9.4018697
9.3709973
9.3420894
9.3151616
9.2902266
9.2672936
9.2463689
9.2274557
9.2105542
9.195662
9.1827742
9.1718844
9.1629872
9.1560801
11.547881
11.466393
11.386143
11.307087
11.229192
11.152429
11.076773
11.002206
10.928716
10.856295
10.784939
10.714652
10.645442
10.577321
10.510308
10.444426
10.3797
10.316162
10.253847
10.192791
10.133035
10.074621
10.017594
9.9619991
9.9078831
9.8552926
9.8042741
9.7548737
9.7071363
9.6611055
9.6168231
9.5743286
9.5336593
9.4948498
9.4579318
9.4229338
9.3898814
9.3587968
9.329699
9.3026036
9.277523
9.2544663
9.2334395
9.2144457
9.1974849
9.1825544
9.1696491
9.1587623
9.1498877
9.1430213
11.559839
11.47715
11.395747
11.315585
11.236626
11.158841
11.082204
11.006695
10.932299
10.859005
10.786811
10.715717
10.645731
10.576863
10.509131
10.442557
10.377165
10.312986
10.250054
10.188406
10.12808
10.06912
10.011569
9.9554727
9.9008769
9.8478283
9.7963735
9.7465582
9.6984274
9.6520246
9.6073917
9.5645681
9.523591
9.4844951
9.447312
9.4120703
9.3787954
9.3475095
9.3182313
9.2909764
9.265757
9.242582
9.2214574
9.2023857
9.185367
9.1703982
9.157474
9.1465872
9.1377308
9.1309002
11.57132
11.487499
11.40501
11.323804
11.243844
11.165097
11.087535
11.011137
10.935886
10.861772
10.788787
10.716933
10.646215
10.576644
10.508234
10.441007
10.374988
10.310205
10.246692
10.184485
10.123623
10.064148
10.006103
9.949534
9.8944859
9.8410055
9.7891391
9.7389325
9.6904307
9.643677
9.5987132
9.5555789
9.5143113
9.4749449
9.4375113
9.402039
9.3685535
9.3370768
9.3076275
9.2802211
9.2548696
9.2315818
9.2103633
9.1912166
9.1741414
9.1591345
9.1461901
9.1353007
9.126459
9.1196596
11.5823
11.497416
11.413906
11.331719
11.250817
11.171165
11.092734
11.0155
10.939446
10.864559
10.790831
10.718263
10.646857
10.576623
10.507576
10.439736
10.373126
10.307775
10.243716
10.180984
10.119618
10.059658
10.001149
9.9441344
9.8886608
9.8347741
9.7825204
9.7319456
9.6830944
9.6360103
9.5907349
9.5473079
9.5057663
9.4661448
9.4284749
9.392785
9.3591005
9.3274434
9.2978322
9.2702821
9.2448051
9.2214097
9.2001014
9.1808825
9.1637523
9.1487075
9.135742
9.124848
9.1160176
9.1092454
11.592764
11.506884
11.422416
11.339309
11.257523
11.177021
11.097774
11.019756
10.942948
10.867336
10.792912
10.719672
10.647621
10.576766
10.507121
10.438705
10.371541
10.305658
10.241086
10.17786
10.11602
10.055606
9.9966609
9.9392289
9.8833557
9.8290874
9.77647
9.7255492
9.6763698
9.6289752
9.5834069
9.5397046
9.4979054
9.4580438
9.4201514
9.3842565
9.3503844
9.318557
9.2887927
9.2611067
9.2355107
9.2120131
9.190619
9.1713307
9.1541472
9.139065
9.1260776
9.1151769
9.1063551
9.0996063
11.602701
11.51589
11.430526
11.346557
11.263943
11.182646
11.102635
11.023883
10.946369
10.870078
10.795
10.721133
10.648477
10.57704
10.506835
10.43788
10.370198
10.303815
10.238763
10.175076
10.112793
10.051953
9.9925987
9.9347754
9.8785278
9.8239018
9.7709436
9.7196986
9.6702114
9.6225255
9.5766825
9.5327219
9.4906809
9.4505938
9.4124923
9.3764046
9.342356
9.3103683
9.2804597
9.2526453
9.2269367
9.203342
9.1818663
9.1625115
9.1452764
9.1301573
9.1171475
9.1062386
9.0974226
9.0906937
11.612106
11.524427
11.438225
11.353451
11.270063
11.188023
11.107298
11.027859
10.949686
10.872761
10.797074
10.722619
10.649398
10.577418
10.50669
10.437232
10.369065
10.302215
10.236715
10.172596
10.109898
10.04866
9.9889242
9.930735
9.8741374
9.8191771
9.7659
9.7143516
9.6645766
9.6166181
9.5705179
9.5263155
9.4840479
9.4437496
9.405452
9.3691835
9.3349692
9.3028307
9.2727864
9.2448511
9.2190361
9.1953496
9.1737963
9.1543779
9.1370931
9.1219378
9.1089052
9.0979866
9.089174
9.0824618
11.620982
11.532493
11.445508
11.359983
11.275873
11.19314
11.111749
11.031671
10.952883
10.875367
10.799111
10.724109
10.650362
10.577875
10.50666
10.436732
10.368113
10.300829
10.234909
10.170389
10.107304
10.045694
9.9856026
9.9270721
9.8701479
9.8148757
9.7613011
9.7094696
9.6594257
9.6112128
9.5648724
9.520444
9.4779646
9.4374688
9.3989878
9.36255
9.3281805
9.2959008
9.265729
9.23768
9.2117649
9.1879916
9.1663648
9.1468859
9.1295533
9.1143626
9.101307
9.0903775
9.0815661
9.0748674
11.907071
11.812748
11.720187
11.629342
11.540088
11.452373
11.366147
11.281366
11.197988
11.115978
11.035306
10.955946
10.87788
10.801095
10.725585
10.651348
10.57839
10.506721
10.436356
10.367317
10.299628
10.23332
10.168425
10.10498
10.043025
9.9826019
9.9237538
9.8665257
9.810963
9.7571114
9.7050162
9.654722
9.606272
9.5597078
9.5150687
9.472392
9.4317118
9.3930597
9.3564639
9.3219492
9.2895374
9.2592463
9.2310907
9.2050815
9.1812266
9.1595303
9.1399938
9.1226154
9.1073904
9.0943116
9.0833701
9.0745578
9.0678698
12.014205
11.917225
11.822105
11.728779
11.637179
11.547213
11.458819
11.371943
11.286538
11.202562
11.119978
11.038754
10.958863
10.880288
10.803012
10.72703
10.652339
10.578944
10.506853
10.436084
10.366654
10.29859
10.23192
10.166678
10.102899
10.040624
9.979893
9.92075
9.8632396
9.8074072
9.7532983
9.7009582
9.6504314
9.6017611
9.5549887
9.5101538
9.4672934
9.4264417
9.3876303
9.3508872
9.3162373
9.2837022
9.2532997
9.2250444
9.1989471
9.1750155
9.1532537
9.1336628
9.1162406
9.1009823
9.0878804
9.0769258
9.0681107
9.0614304
12.024441
11.926685
11.830826
11.736788
11.644496
11.553872
11.464849
11.377371
11.29139
11.20686
11.123744
11.042009
10.961628
10.88258
10.804851
10.728432
10.653321
10.57952
10.507041
10.435896
10.366105
10.297693
10.230689
10.165125
10.101038
10.038465
9.9774494
9.9180332
9.8602614
9.8041791
9.7498318
9.6972647
9.6465223
9.5976476
9.5506823
9.5056657
9.4626349
9.421624
9.3826646
9.3457847
9.3110091
9.2783592
9.247853
9.2195046
9.1933251
9.1693217
9.1474984
9.127856
9.1103922
9.0951018
9.0819769
9.0710084
9.0621885
9.0555132
12.033935
11.935468
11.838926
11.74423
11.651304
11.560072
11.470468
11.382435
11.295921
11.210881
11.127275
11.045068
10.964234
10.88475
10.806602
10.72978
10.654281
10.580107
10.507267
10.435776
10.365652
10.29692
10.229607
10.163746
10.099373
10.036526
9.9752468
9.9155783
9.8575649
9.8012517
9.7466841
9.6939072
9.6429654
9.5939019
9.5467581
9.5015734
9.4583848
9.4172266
9.3781301
9.3411233
9.3062312
9.2734749
9.2428722
9.2144374
9.1881812
9.1641107
9.1422299
9.1225391
9.1050359
9.0897145
9.0765671
9.0655839
9.0567572
9.050084
12.042714
11.943593
11.846423
11.751121
11.657613
11.565823
11.475686
11.387142
11.300138
11.214627
11.130569
11.047929
10.966678
10.886793
10.808259
10.731066
10.655209
10.580692
10.507521
10.435711
10.36528
10.296252
10.228655
10.16252
10.097884
10.034785
9.9732634
9.9133625
9.8551265
9.7986005
9.7438298
9.6908595
9.6397339
9.5904962
9.5431878
9.497848
9.4545138
9.4132195
9.3739964
9.3368725
9.3018725
9.2690177
9.2383257
9.2098108
9.1834834
9.1593505
9.137416
9.1176799
9.1001394
9.0847885
9.0716188
9.0606203
9.051785
9.0451107
12.050803
11.951083
11.853336
11.75748
11.663439
11.571138
11.480511
11.391498
11.304044
11.218102
11.13363
11.050591
10.968958
10.888705
10.809817
10.732283
10.656099
10.581266
10.507791
10.435689
10.364976
10.295677
10.227818
10.161433
10.096555
10.033224
9.9714793
9.9113649
9.8529244
9.7962029
9.7412456
9.6880975
9.636803
9.5874051
9.5399452
9.4944627
9.4509946
9.4095751
9.3702353
9.3330034
9.297904
9.2649583
9.2341839
9.2055949
9.1792016
9.1550109
9.1330264
9.113248
9.0956725
9.0802936
9.0671023
9.0560878
9.0472419
9.0405631
12.05823
11.957962
11.859688
11.763326
11.668797
11.57603
11.484956
11.395513
11.307648
11.221312
11.13646
11.053058
10.971074
10.890485
10.811273
10.733428
10.656943
10.581821
10.508069
10.435698
10.364728
10.29518
10.227083
10.160467
10.095369
10.031825
9.9698767
9.9095667
9.8509389
9.7940383
9.73891
9.6855991
9.6341497
9.5846049
9.5370062
9.4913929
9.4478019
9.4062673
9.3668206
9.3294895
9.2942987
9.2612695
9.2304192
9.2017618
9.1753078
9.1510637
9.1290329
9.1092152
9.091607
9.0762016
9.0629893
9.0519586
9.0431003
9.0364131
12.065023
11.964255
11.865501
11.768678
11.673706
11.580513
11.489032
11.399199
11.310959
11.224263
11.139066
11.055332
10.973029
10.892133
10.812626
10.734496
10.657738
10.582353
10.508347
10.435732
10.364526
10.294752
10.226437
10.159612
10.094311
10.030574
9.9684393
9.9079508
9.8491521
9.7920879
9.7368035
9.6833438
9.631753
9.5820741
9.5343485
9.4886155
9.4449121
9.4032724
9.3637276
9.3263058
9.2910314
9.2579255
9.2270056
9.1982856
9.1717756
9.1474824
9.1254089
9.1055548
9.0879163
9.0724861
9.0592538
9.0482067
9.0393342
9.032634
12.07121
11.969989
11.870799
11.773557
11.678183
11.584605
11.492753
11.402565
11.313985
11.226962
11.141452
11.057416
10.974824
10.893649
10.813874
10.735486
10.65848
10.582856
10.508619
10.435782
10.364363
10.294383
10.225869
10.158854
10.09337
10.029456
9.9671524
9.9065016
9.8475474
9.7903345
9.734908
9.6813129
9.6295934
9.5797923
9.5319512
9.4861093
9.4423035
9.4005679
9.3609339
9.3234292
9.2880784
9.2549026
9.2239191
9.1951417
9.1685806
9.1442423
9.1221296
9.1022421
9.0845755
9.0691222
9.0558711
9.044808
9.03592
9.0292016
12.076821
11.975188
11.875605
11.777984
11.682247
11.58832
11.496134
11.405626
11.316738
11.22942
11.143626
11.059318
10.976463
10.895037
10.815019
10.736398
10.659167
10.583326
10.508881
10.435843
10.36423
10.294064
10.225371
10.158183
10.092533
10.02846
9.9660028
9.9052049
9.8461099
9.7887622
9.7332071
9.6794893
9.627653
9.5777412
9.5297953
9.4838545
9.4399558
9.3981333
9.3584181
9.3208381
9.2854179
9.2521785
9.2211371
9.1923075
9.1656998
9.1413203
9.1191718
9.0992536
9.0815613
9.0660868
9.0528183
9.0417401
9.032836
9.0260939
12.081882
11.97988
11.879942
11.781981
11.685917
11.591676
11.49919
11.408393
11.319229
11.231645
11.145596
11.061042
10.977951
10.896298
10.816062
10.737231
10.659797
10.583761
10.509128
10.43591
10.364123
10.293789
10.224934
10.15759
10.091791
10.027573
9.9649784
9.9040481
9.8448259
9.7873567
9.7316854
9.6778569
9.6259153
9.5759035
9.527863
9.4818329
9.4378502
9.3959491
9.3561606
9.3185126
9.2830295
9.2497325
9.2186386
9.1897617
9.1631116
9.1386947
9.1165136
9.0965675
9.0788518
9.0633581
9.0500738
9.038982
9.0300626
9.0232933
12.086423
11.98409
11.883834
11.785568
11.689212
11.594691
11.501935
11.41088
11.321468
11.233646
11.147369
11.062595
10.979293
10.897437
10.817005
10.737985
10.66037
10.58416
10.509359
10.435978
10.364035
10.29355
10.224551
10.157067
10.091134
10.026787
9.9640685
9.9030192
9.8436831
9.7861047
9.7303292
9.6764012
9.624365
9.5742634
9.5261379
9.4800276
9.4359694
9.3939975
9.354143
9.3164337
9.2808941
9.2475451
9.216404
9.1874843
9.160796
9.1363452
9.1141347
9.0941634
9.0764265
9.0609154
9.0476172
9.0365138
9.0275822
9.0207888
12.090471
11.987844
11.887305
11.788768
11.692151
11.59738
11.504385
11.413101
11.323469
11.235435
11.148953
11.063985
10.980495
10.898457
10.817851
10.738664
10.660887
10.584521
10.50957
10.436045
10.363962
10.293344
10.224215
10.156607
10.090554
10.026093
9.9632631
9.9021077
9.8426698
9.7849941
9.7291255
9.6751088
9.6229881
9.5728063
9.5246047
9.4784227
9.4342971
9.3922619
9.3523483
9.3145842
9.2789939
9.2455984
9.2144148
9.1854568
9.1587341
9.134253
9.112016
9.092022
9.0742661
9.0587396
9.0454294
9.0343168
9.0253779
9.0185839
9.013868
12.094054
11.991166
11.890378
11.791601
11.694754
11.599762
11.506556
11.415068
11.325241
11.23702
11.150359
11.065217
10.981561
10.899363
10.818603
10.739267
10.661348
10.584844
10.50976
10.436107
10.363902
10.293164
10.223921
10.156203
10.090044
10.025481
9.9625532
9.9013037
9.8417757
9.7840137
9.7280625
9.6739671
9.6217714
9.5715184
9.5232494
9.4770037
9.4328181
9.3907267
9.3507606
9.3129477
9.2773123
9.2438753
9.2126539
9.1836617
9.1569084
9.1324002
9.1101395
9.0901253
9.0723525
9.0568125
9.043492
9.0323727
9.0234305
9.0166376
9.0119765
12.097197
11.994082
11.893074
11.794087
11.697038
11.601853
11.508461
11.416796
11.326798
11.238413
11.151594
11.0663
10.982498
10.90016
10.819265
10.739799
10.661754
10.585129
10.509929
10.436164
10.36385
10.293008
10.223665
10.15585
10.089597
10.024944
9.9619307
9.9005985
9.8409911
9.7831531
9.7271294
9.6729646
9.6207028
9.5703871
9.5220587
9.4757568
9.4315183
9.3893774
9.349365
9.3115089
9.2758337
9.2423601
9.2111053
9.1820828
9.1553024
9.1307701
9.1084885
9.0884563
9.0706687
9.0551169
9.041788
9.0306639
9.0217216
9.0149364
9.0102946
12.099928
11.996614
11.895416
11.796246
11.699022
11.603669
11.510116
11.418297
11.328151
11.239623
11.152667
11.067242
10.983313
10.900852
10.81984
10.74026
10.662107
10.585377
10.510075
10.436212
10.363804
10.292871
10.223441
10.155541
10.089208
10.024477
9.9613881
9.8999838
9.8403073
9.782403
9.7263159
9.6720906
9.6197713
9.5694008
9.5210205
9.4746695
9.4303849
9.3882005
9.3481476
9.3102539
9.2745437
9.241038
9.2097539
9.1807049
9.1539006
9.1293473
9.1070473
9.0869994
9.0691989
9.053637
9.0403011
9.0291739
9.0202336
9.0134585
9.00884
9.0063547
12.10227
11.998787
11.897426
11.798098
11.700723
11.605226
11.511535
11.419584
11.329311
11.240661
11.153587
11.068049
10.984011
10.901446
10.820332
10.740655
10.662408
10.585587
10.510198
10.436252
10.363762
10.292752
10.223246
10.155274
10.08887
10.024072
9.9609186
9.8994522
9.839716
9.7817546
9.7256128
9.6713353
9.6189663
9.5685485
9.5201233
9.47373
9.4294054
9.3871835
9.3470955
9.3091692
9.2734288
9.2398953
9.2085858
9.1795137
9.1526887
9.1281171
9.1058011
9.0857397
9.067928
9.0523575
9.039016
9.0278871
9.0189501
9.0121856
9.0075832
9.0051566
12.104248
12.000621
11.899122
11.799661
11.702159
11.60654
11.512733
11.42067
11.330289
11.241536
11.154363
11.068729
10.984599
10.901945
10.820746
10.740987
10.662659
10.585762
10.5103
10.436281
10.363723
10.292647
10.223076
10.155043
10.08858
10.023725
9.9605162
9.8989969
9.83921
9.7812
9.7250117
9.6706897
9.6182783
9.5678202
9.5193568