/*--------------------------------*- C++ -*----------------------------------*\
| =========                 |                                                 |
| \\      /  F ield         | OpenFOAM: The Open Source CFD Toolbox           |
|  \\    /   O peration     | Version:  2312                                  |
|   \\  /    A nd           | Website:  www.openfoam.com                      |
|    \\/     M anipulation  |                                                 |
\*---------------------------------------------------------------------------*/
FoamFile
{
    version     2.0;
    format      ascii;
    arch        "LSB;label=32;scalar=64";
    class       volScalarField;
    location    "0.06";
    object      N2;
}
// * * * * * * * * * * * * * * * * * * * * * * * * * * * * * * * * * * * * * //

dimensions      [0 0 0 0 0 0 0];

internalField   nonuniform List<scalar> 
3250
(
0.76155277
0.76170101
0.7618508
0.76200237
0.76215533
0.76230925
0.76246377
0.76261858
0.76277344
0.76292809
0.76308233
0.76323595
0.76338877
0.76354064
0.76369139
0.76384091
0.76398908
0.76413578
0.76428092
0.76442439
0.76456612
0.76470601
0.76484396
0.76497988
0.76511369
0.76524529
0.7653746
0.76550155
0.76562606
0.76574808
0.76586755
0.76598444
0.76609872
0.76621039
0.76631944
0.76642589
0.76652977
0.76663112
0.76673
0.76682648
0.76692064
0.76701262
0.76710252
0.76719048
0.76088576
0.76105494
0.76122568
0.76139797
0.76157133
0.76174532
0.76191956
0.76209375
0.7622676
0.76244086
0.76261332
0.76278476
0.76295499
0.76312383
0.76329114
0.76345677
0.76362061
0.76378253
0.76394244
0.76410024
0.76425583
0.76440913
0.76456005
0.7647085
0.7648544
0.76499766
0.76513821
0.76527599
0.76541093
0.76554298
0.7656721
0.76579828
0.76592148
0.76604171
0.76615899
0.76627333
0.76638478
0.76649339
0.76659922
0.76670237
0.76680295
0.76690109
0.76699694
0.76709049
0.75969533
0.75990121
0.76010831
0.76031646
0.76052518
0.760734
0.76094255
0.76115048
0.76135749
0.76156332
0.76176771
0.76197043
0.76217128
0.76237004
0.76256657
0.76276069
0.76295228
0.76314121
0.76332737
0.76351066
0.76369097
0.76386823
0.76404235
0.76421323
0.76438082
0.76454503
0.7647058
0.76486308
0.76501683
0.765167
0.76531357
0.76545654
0.7655959
0.76573168
0.76586388
0.76599257
0.76611779
0.76623961
0.7663581
0.76647339
0.76658558
0.76669483
0.76680128
0.76690494
0.75813685
0.75838858
0.75864118
0.75889433
0.75914752
0.7594003
0.75965225
0.75990299
0.7601522
0.76039957
0.7606448
0.76088763
0.76112781
0.76136513
0.76159939
0.76183039
0.76205799
0.76228204
0.7625024
0.76271897
0.76293164
0.76314031
0.7633449
0.76354532
0.76374151
0.7639334
0.76412093
0.76430408
0.7644828
0.76465707
0.7648269
0.76499228
0.76515324
0.7653098
0.76546202
0.76560995
0.76575366
0.76589324
0.76602879
0.76616042
0.76628828
0.76641251
0.76653329
0.76665062
0.75635663
0.75665777
0.75695956
0.75726155
0.75756319
0.75786401
0.75816355
0.7584614
0.75875719
0.75905053
0.75934112
0.75962862
0.75991275
0.76019326
0.76046989
0.76074243
0.76101069
0.7612745
0.76153369
0.76178813
0.7620377
0.76228229
0.7625218
0.76275615
0.76298526
0.76320908
0.76342755
0.76364066
0.76384836
0.76405067
0.76424757
0.76443911
0.7646253
0.76480621
0.76498189
0.76515241
0.76531787
0.76547837
0.76563402
0.76578496
0.76593134
0.76607332
0.76621107
0.76634463
0.75447387
0.7548241
0.75517493
0.75552579
0.75587611
0.75622537
0.75657308
0.75691876
0.75726198
0.75760232
0.7579394
0.75827284
0.7586023
0.75892747
0.75924807
0.75956382
0.7598745
0.7601799
0.76047981
0.76077408
0.76106255
0.7613451
0.76162162
0.76189199
0.76215616
0.76241405
0.76266561
0.76291081
0.76314964
0.7633821
0.76360821
0.76382799
0.76404149
0.76424877
0.76444992
0.76464501
0.76483416
0.76501747
0.76519508
0.76536714
0.7655338
0.76569524
0.76585164
0.76600307
0.75257396
0.75297082
0.75336838
0.75376598
0.75416302
0.75455893
0.75495317
0.75534521
0.75573455
0.75612071
0.75650325
0.75688174
0.75725578
0.757625
0.75798906
0.75834766
0.7587005
0.75904734
0.75938794
0.7597221
0.76004964
0.7603704
0.76068425
0.76099106
0.76129075
0.76158325
0.76186848
0.76214643
0.76241708
0.76268042
0.76293648
0.76318528
0.7634269
0.76366139
0.76388884
0.76410936
0.76432305
0.76453004
0.76473048
0.76492451
0.76511232
0.76529408
0.76546998
0.76564012
0.75071064
0.75115089
0.75159203
0.75203336
0.75247424
0.75291405
0.75335218
0.75378807
0.75422114
0.75465085
0.75507671
0.75549822
0.75591493
0.75632642
0.75673229
0.75713218
0.75752576
0.75791272
0.75829281
0.75866576
0.75903137
0.75938944
0.75973983
0.76008237
0.76041697
0.76074353
0.76106199
0.7613723
0.76167443
0.7619684
0.76225421
0.7625319
0.76280153
0.76306317
0.76331692
0.76356287
0.76380116
0.76403192
0.76425529
0.76447145
0.76468056
0.76488283
0.76507844
0.76526752
0.74891299
0.74939349
0.74987506
0.75035702
0.75083873
0.7513195
0.75179869
0.75227564
0.75274975
0.75322042
0.75368707
0.75414917
0.75460621
0.75505772
0.75550324
0.75594237
0.75637471
0.75679994
0.75721773
0.75762779
0.75802988
0.75842378
0.75880928
0.75918624
0.75955451
0.75991398
0.76026458
0.76060624
0.76093894
0.76126265
0.76157741
0.76188324
0.7621802
0.76246836
0.76274782
0.76301869
0.76328109
0.76353517
0.76378108
0.76401899
0.76424909
0.76447157
0.76468664
0.76489445
0.74616676
0.74667875
0.74719409
0.74771172
0.74823083
0.74875066
0.74927046
0.74978951
0.75030709
0.7508225
0.75133508
0.75184418
0.75234917
0.75284945
0.75334447
0.75383371
0.75431665
0.75479285
0.75526188
0.75572334
0.75617689
0.75662219
0.75705896
0.75748694
0.75790592
0.7583157
0.75871613
0.75910707
0.75948843
0.75986013
0.76022213
0.76057442
0.760917
0.7612499
0.76157317
0.76188689
0.76219115
0.76248607
0.76277177
0.76304839
0.76331612
0.7635751
0.76382555
0.76406766
0.76430164
0.76452765
0.74446019
0.74500651
0.74555639
0.74610892
0.74666327
0.74721862
0.7477742
0.7483292
0.74888286
0.74943444
0.74998322
0.75052848
0.75106957
0.75160584
0.75213668
0.75266151
0.75317979
0.75369102
0.75419473
0.75469048
0.75517787
0.75565656
0.75612621
0.75658655
0.75703731
0.75747829
0.75790929
0.75833018
0.75874083
0.75914116
0.75953111
0.75991066
0.7602798
0.76063855
0.76098697
0.76132513
0.76165312
0.76197106
0.76227907
0.76257731
0.76286595
0.76314516
0.76341514
0.7636761
0.76392825
0.76417179
0.74283706
0.74341573
0.7439983
0.74458386
0.74517153
0.74576047
0.74634984
0.74693882
0.74752658
0.74811234
0.74869532
0.74927479
0.74985001
0.75042031
0.75098503
0.75154355
0.75209529
0.75263969
0.75317624
0.75370448
0.75422397
0.75473431
0.75523516
0.75572619
0.75620713
0.75667773
0.75713779
0.75758713
0.75802563
0.75845319
0.75886972
0.7592752
0.75966962
0.76005299
0.76042536
0.7607868
0.76113739
0.76147727
0.76180655
0.7621254
0.76243398
0.76273248
0.7630211
0.76330005
0.76356957
0.76382985
0.74129353
0.74190297
0.74251662
0.74313357
0.74375291
0.74437375
0.74499522
0.74561644
0.74623657
0.74685476
0.74747021
0.74808213
0.74868975
0.74929234
0.74988922
0.75047972
0.7510632
0.75163909
0.75220683
0.75276593
0.75331589
0.75385631
0.75438679
0.75490699
0.7554166
0.75591535
0.75640302
0.75687942
0.75734439
0.75779783
0.75823964
0.75866978
0.75908824
0.75949501
0.75989015
0.76027372
0.76064582
0.76100655
0.76135606
0.76169449
0.76202204
0.76233888
0.76264522
0.7629413
0.76322733
0.76350354
0.7398259
0.74046467
0.74110797
0.74175483
0.74240433
0.74305555
0.74370757
0.74435949
0.74501041
0.74565946
0.74630579
0.74694858
0.74758701
0.74822033
0.74884779
0.74946869
0.75008238
0.75068822
0.75128563
0.75187407
0.75245303
0.75302205
0.75358072
0.75412867
0.75466555
0.75519108
0.75570502
0.75620715
0.75669731
0.75717536
0.75764121
0.7580948
0.7585361
0.75896513
0.75938191
0.75978652
0.76017903
0.76055958
0.76092829
0.76128534
0.76163088
0.76196513
0.76228831
0.76260063
0.76290234
0.76319366
0.73843106
0.73909783
0.7397694
0.74044478
0.74112303
0.74180319
0.74248431
0.74316545
0.7438457
0.74452413
0.74519986
0.74587203
0.7465398
0.74720236
0.74785893
0.74850879
0.74915123
0.74978558
0.75041123
0.7510276
0.75163416
0.75223042
0.75281592
0.75339027
0.75395312
0.75450414
0.75504308
0.75556969
0.75608381
0.75658527
0.75707399
0.75754988
0.75801291
0.75846309
0.75890044
0.75932503
0.75973694
0.7601363
0.76052325
0.76089795
0.76126058
0.76161134
0.76195047
0.76227819
0.76259476
0.76290041
0.73710652
0.73779998
0.73849849
0.73920104
0.73990666
0.74061437
0.74132319
0.74203215
0.74274029
0.74344668
0.74415039
0.74485052
0.74554619
0.74623658
0.74692086
0.74759827
0.74826807
0.74892956
0.74958209
0.75022505
0.75085788
0.75148005
0.75209109
0.75269058
0.75327814
0.75385342
0.75441614
0.75496605
0.75550296
0.7560267
0.75653716
0.75703425
0.75751794
0.75798822
0.75844511
0.75888868
0.75931902
0.75973624
0.76014049
0.76053193
0.76091076
0.76127718
0.76163143
0.76197374
0.76230438
0.7626236
0.73585026
0.73656912
0.73729326
0.73802164
0.73875327
0.73948715
0.74022229
0.74095767
0.74169233
0.74242528
0.74315557
0.74388226
0.74460447
0.7453213
0.74603192
0.74673551
0.74743132
0.74811861
0.7487967
0.74946494
0.75012275
0.75076957
0.75140491
0.7520283
0.75263935
0.7532377
0.75382304
0.75439511
0.75495369
0.7554986
0.75602973
0.75654697
0.75705028
0.75753965
0.7580151
0.75847669
0.7589245
0.75935867
0.75977933
0.76018665
0.76058082
0.76096208
0.76133064
0.76168677
0.76203073
0.76236278
0.73466048
0.73540349
0.73615193
0.73690481
0.73766111
0.73841981
0.7391799
0.73994034
0.74070013
0.74145827
0.74221377
0.74296567
0.74371303
0.74445495
0.74519056
0.74591901
0.7466395
0.74735128
0.74805364
0.74874589
0.74942742
0.75009765
0.75075605
0.75140215
0.75203552
0.75265578
0.7532626
0.75385571
0.75443487
0.75499989
0.75555063
0.756087
0.75660893
0.75711642
0.75760947
0.75808815
0.75855254
0.75900277
0.75943898
0.75986134
0.76027005
0.76066534
0.76104746
0.76141665
0.76177321
0.76211738
0.7327766
0.73353566
0.73430142
0.73507284
0.73584888
0.73662852
0.7374107
0.73819439
0.73897855
0.73976212
0.74054409
0.74132344
0.7420992
0.74287038
0.74363606
0.74439533
0.74514732
0.7458912
0.74662619
0.74735153
0.74806654
0.74877055
0.74946297
0.75014325
0.75081088
0.75146541
0.75210645
0.75273364
0.7533467
0.75394537
0.75452946
0.7550988
0.7556533
0.75619289
0.75671755
0.75722728
0.75772215
0.75820225
0.75866768
0.7591186
0.7595552
0.75997767
0.76038624
0.76078116
0.7611627
0.76153116
0.76188679
0.73169348
0.73247384
0.73326111
0.73405423
0.73485215
0.73565382
0.73645817
0.73726414
0.73807068
0.7388767
0.73968118
0.74048306
0.74128135
0.74207503
0.74286316
0.74364479
0.74441903
0.74518503
0.74594196
0.74668905
0.74742558
0.74815086
0.74886428
0.74956526
0.75025326
0.75092783
0.75158853
0.75223502
0.75286696
0.75348411
0.75408624
0.7546732
0.75524486
0.75580116
0.75634206
0.75686758
0.75737777
0.75787271
0.75835253
0.75881737
0.75926741
0.75970288
0.76012399
0.76053101
0.76092421
0.7613039
0.76167033
0.73067262
0.73147313
0.73228071
0.73309429
0.73391282
0.73473524
0.73556048
0.73638745
0.73721507
0.73804225
0.73886793
0.73969105
0.74051057
0.74132547
0.74213477
0.74293749
0.74373272
0.74451958
0.74529722
0.74606484
0.74682169
0.74756706
0.74830031
0.74902084
0.74972809
0.75042158
0.75110088
0.75176558
0.75241538
0.75304998
0.75366917
0.75427277
0.75486066
0.75543274
0.755989
0.75652943
0.75705409
0.75756305
0.75805645
0.75853443
0.75899717
0.7594449
0.75987784
0.76029627
0.76070047
0.76109074
0.76146736
0.72971201
0.73053153
0.73135822
0.73219105
0.73302898
0.73387092
0.7347158
0.73556251
0.73640996
0.73725705
0.73810268
0.73894577
0.73978527
0.74062014
0.74144935
0.74227193
0.74308693
0.74389344
0.74469059
0.74547754
0.74625354
0.74701785
0.74776979
0.74850875
0.74923416
0.7499455
0.75064232
0.75132421
0.75199085
0.75264192
0.7532772
0.7538965
0.75449968
0.75508667
0.7556574
0.7562119
0.7567502
0.75727239
0.75777859
0.75826896
0.75874367
0.75920295
0.75964705
0.76007622
0.76049077
0.76089101
0.76127721
0.72798072
0.72880963
0.72964692
0.73049155
0.73134246
0.7321986
0.73305888
0.7339222
0.73478745
0.73565352
0.73651929
0.73738365
0.73824551
0.73910378
0.7399574
0.74080533
0.74164657
0.74248015
0.74330513
0.74412061
0.74492576
0.74571977
0.74650189
0.74727142
0.74802773
0.74877022
0.74949836
0.75021168
0.75090977
0.75159226
0.75225884
0.75290928
0.75354336
0.75416096
0.75476196
0.75534634
0.75591408
0.75646523
0.75699987
0.75751813
0.75802015
0.75850613
0.75897629
0.75943087
0.75987016
0.76029445
0.76070405
0.76109927
0.72711754
0.72796301
0.728817
0.72967846
0.73054634
0.73141956
0.73229703
0.73317765
0.73406028
0.73494381
0.7358271
0.73670903
0.73758848
0.73846435
0.73933556
0.74020105
0.7410598
0.74191081
0.74275313
0.74358583
0.74440806
0.74521898
0.74601783
0.74680389
0.74757649
0.74833504
0.74907897
0.7498078
0.75052111
0.7512185
0.75189967
0.75256435
0.75321233
0.75384348
0.75445768
0.75505487
0.75563507
0.7561983
0.75674465
0.75727423
0.75778722
0.75828378
0.75876416
0.7592286
0.75967738
0.76011081
0.76052922
0.7609329
0.72630869
0.72716974
0.72803942
0.72891667
0.72980044
0.73068966
0.73158324
0.73248005
0.73337896
0.73427884
0.73517853
0.73607691
0.73697283
0.73786519
0.73875288
0.73963482
0.74050998
0.74137732
0.74223589
0.74308473
0.74392297
0.74474975
0.74556429
0.74636585
0.74715374
0.74792735
0.7486861
0.74942949
0.75015707
0.75086846
0.75156331
0.75224137
0.75290241
0.75354627
0.75417285
0.75478209
0.75537398
0.75594855
0.75650588
0.7570461
0.75756937
0.75807587
0.75856584
0.75903952
0.75949722
0.75993923
0.76036589
0.7607775
0.72555171
0.72642741
0.72731178
0.72820381
0.72910247
0.73000667
0.73091532
0.73182728
0.73274142
0.73365658
0.73457162
0.73548538
0.73639671
0.73730449
0.73820759
0.73910493
0.73999543
0.74087807
0.74175184
0.74261579
0.74346902
0.74431065
0.74513988
0.74595596
0.74675818
0.7475459
0.74831853
0.74907556
0.74981653
0.75054102
0.75124871
0.7519393
0.75261258
0.75326837
0.75390655
0.75452707
0.75512992
0.75571512
0.75628276
0.75683295
0.75736585
0.75788167
0.75838062
0.75886297
0.75932901
0.75977906
0.76021346
0.7606325
0.72396465
0.72484422
0.72573356
0.72663167
0.72753754
0.72845011
0.72936832
0.73029105
0.73121717
0.73214554
0.73307499
0.73400436
0.7349325
0.73585823
0.73678041
0.73769792
0.73860964
0.73951448
0.74041141
0.7412994
0.74217747
0.74304472
0.74390024
0.74474321
0.74557287
0.74638849
0.74718941
0.74797503
0.74874483
0.74949832
0.75023509
0.75095478
0.75165711
0.75234184
0.75300879
0.75365785
0.75428893
0.75490204
0.75549719
0.75607447
0.75663399
0.75717592
0.75770044
0.7582078
0.75869826
0.75917211
0.75962969
0.76007133
0.76049733
0.72329137
0.72418362
0.72508573
0.72599668
0.72691548
0.72784107
0.72877236
0.72970824
0.73064758
0.73158923
0.73253202
0.73347477
0.73441632
0.73535549
0.73629112
0.73722207
0.73814721
0.73906545
0.73997572
0.74087698
0.74176825
0.74264858
0.74351708
0.74437289
0.74521523
0.74604337
0.74685663
0.7476544
0.74843612
0.74920132
0.74994956
0.75068048
0.75139378
0.75208922
0.75276661
0.75342582
0.75406679
0.75468948
0.75529394
0.75588023
0.75644848
0.75699884
0.75753151
0.75804673
0.75854476
0.75902592
0.75949052
0.75993893
0.76037145
0.72266328
0.72356743
0.72448147
0.72540445
0.72633532
0.72727305
0.72821655
0.72916471
0.73011639
0.73107042
0.73202565
0.73298088
0.73393494
0.73488664
0.73583481
0.73677829
0.73771596
0.73864668
0.73956939
0.74048304
0.74138661
0.74227915
0.74315975
0.74402754
0.74488172
0.74572155
0.74654632
0.74735542
0.74814829
0.74892442
0.74968337
0.75042477
0.75114832
0.75185375
0.75254089
0.75320959
0.75385978
0.75449143
0.75510457
0.75569928
0.75627567
0.75683391
0.75737419
0.75789674
0.75840185
0.75888981
0.75936097
0.75981571
0.76025435
0.72207795
0.72299322
0.72391844
0.72485262
0.72579477
0.72674384
0.72769873
0.72865833
0.7296215
0.73058708
0.7315539
0.73252075
0.73348646
0.73444984
0.73540969
0.73636486
0.73731418
0.73825654
0.73919085
0.74011603
0.74103107
0.74193499
0.74282687
0.74370583
0.74457104
0.74542176
0.74625727
0.74707694
0.74788019
0.74866651
0.74943546
0.75018664
0.75091974
0.7516345
0.75233072
0.75300827
0.75366706
0.75430707
0.75492832
0.75553088
0.75611487
0.75668045
0.75722781
0.75775721
0.75826891
0.75876322
0.75924049
0.75970111
0.76014548
0.72153299
0.72245866
0.7233943
0.72433896
0.72529163
0.72625125
0.72721675
0.72818702
0.7291609
0.73013723
0.73111483
0.73209251
0.73306907
0.73404331
0.73501404
0.73598007
0.73694025
0.73789345
0.73883854
0.73977446
0.74070018
0.7416147
0.74251708
0.74340643
0.74428193
0.74514279
0.7459883
0.74681781
0.74763074
0.74842656
0.7492048
0.74996509
0.75070709
0.75143054
0.75213524
0.75282103
0.75348784
0.75413563
0.75476443
0.7553743
0.75596537
0.75653779
0.75709176
0.75762753
0.75814537
0.75864558
0.75912853
0.75959458
0.76004411
0.76047747
0.72102611
0.72196148
0.72290685
0.72386127
0.72482373
0.7257932
0.72676858
0.72774877
0.72873261
0.72971895
0.73070659
0.73169434
0.73268098
0.73366533
0.73464617
0.73562231
0.73659259
0.73755585
0.73851098
0.73945689
0.74039254
0.74131691
0.74222906
0.74312809
0.74401315
0.74488345
0.74573827
0.74657694
0.74739886
0.74820352
0.74899042
0.74975919
0.75050948
0.75124101
0.75195359
0.75264706
0.75332133
0.75397636
0.75461219
0.75522887
0.75582652
0.7564053
0.75696542
0.75750712
0.75803067
0.75853638
0.7590246
0.7594957
0.75995007
0.76038796
0.72055508
0.7214995
0.72245393
0.72341744
0.72438903
0.72536765
0.72635223
0.72734165
0.72833476
0.72933039
0.73032736
0.73132447
0.73232049
0.73331423
0.73430446
0.73529
0.73626966
0.73724228
0.73820673
0.73916193
0.74010679
0.74104033
0.74196156
0.74286958
0.74376352
0.74464259
0.74550606
0.74635324
0.74718354
0.7479964
0.74879136
0.74956801
0.750326
0.75106505
0.75178496
0.75248556
0.75316677
0.75382854
0.7544709
0.7550939
0.75569768
0.75628238
0.75684822
0.75739542
0.75792428
0.7584351
0.75892822
0.75940403
0.7598629
0.76030511
0.72011777
0.72107062
0.72203349
0.72300547
0.72398554
0.72497268
0.72596581
0.7269638
0.72796552
0.7289698
0.72997543
0.73098123
0.73198596
0.73298841
0.73398736
0.73498162
0.73596999
0.7369513
0.73792441
0.73888822
0.73984165
0.74078369
0.74171335
0.74262971
0.74353191
0.74441913
0.74529062
0.74614571
0.74698378
0.74780428
0.74860671
0.74939068
0.75015582
0.75090186
0.75162857
0.7523358
0.75302345
0.75369147
0.7543399
0.75496878
0.75557825
0.75616844
0.75673958
0.75729191
0.75782569
0.75834125
0.75883894
0.75931911
0.75978218
0.76022843
0.71971216
0.72067286
0.72164358
0.72262342
0.72361139
0.72460644
0.72560751
0.72661347
0.72762318
0.72863547
0.72964915
0.730663
0.73167581
0.73268634
0.73369339
0.73469573
0.73569218
0.73668155
0.73766269
0.73863449
0.73959587
0.74054579
0.74148327
0.74240737
0.74331722
0.744212
0.74509095
0.74595337
0.74679865
0.74762622
0.7484356
0.74922635
0.74999813
0.75075065
0.75148367
0.75219705
0.75289068
0.75356451
0.75421856
0.7548529
0.75546764
0.75606294
0.756639
0.75719607
0.75773443
0.75825439
0.7587563
0.75924054
0.7597075
0.7601575
0.71933632
0.72030431
0.72128233
0.72226948
0.72326477
0.72426717
0.7252756
0.72628895
0.72730607
0.7283258
0.72934693
0.73036826
0.73138855
0.73240658
0.73342112
0.73443096
0.73543489
0.73643173
0.73742031
0.73839951
0.73936825
0.74032548
0.74127021
0.74220149
0.74311843
0.74402021
0.74490606
0.74577528
0.74662724
0.74746138
0.74827718
0.74907423
0.74985216
0.75061068
0.75134956
0.75206864
0.75276781
0.75344702
0.75410629
0.75474568
0.75536531
0.75596533
0.75654596
0.75710743
0.75765003
0.75817407
0.7586799
0.7591679
0.75963848
0.76009196
0.71898841
0.71996317
0.72094797
0.7219419
0.72294399
0.7239532
0.72496846
0.72598865
0.72701265
0.72803926
0.7290673
0.73009554
0.73112276
0.73214774
0.73316922
0.734186
0.73519686
0.7362006
0.73719607
0.73818213
0.73915768
0.74012168
0.74107311
0.74201104
0.74293455
0.74384281
0.74473505
0.74561057
0.74646872
0.74730892
0.74813068
0.74893356
0.74971718
0.75048127
0.75122557
0.75194992
0.75265421
0.75333841
0.75400251
0.75464658
0.75527074
0.75587514
0.75645999
0.75702553
0.75757205
0.75809987
0.75860933
0.75910083
0.75957476
0.76003145
0.7186667
0.71964774
0.72063881
0.72163903
0.72264742
0.72366294
0.72468452
0.72571106
0.72674141
0.7277744
0.72880883
0.72984347
0.73087711
0.7319085
0.73293641
0.7339596
0.73497686
0.735987
0.73698884
0.73798124
0.73896309
0.73993335
0.74089099
0.74183505
0.74276463
0.74367889
0.74457705
0.74545838
0.74632225
0.74716807
0.74799534
0.74880361
0.7495925
0.75036173
0.75111104
0.75184027
0.75254931
0.75323812
0.75390668
0.75455508
0.75518343
0.75579187
0.75638063
0.75694994
0.75750009
0.7580314
0.75854423
0.75903895
0.75951598
0.75997564
0.71836954
0.71935639
0.72035328
0.72135932
0.72237354
0.7233949
0.72442234
0.72545474
0.72649097
0.72752985
0.72857018
0.72961075
0.73065031
0.73168763
0.73272147
0.73375059
0.73477378
0.73578982
0.73679754
0.7377958
0.73878347
0.73975951
0.74072288
0.74167261
0.7426078
0.7435276
0.74443122
0.74531794
0.74618709
0.7470381
0.74787045
0.7486837
0.74947747
0.75025144
0.75100539
0.75173913
0.75245255
0.75314561
0.7538183
0.7544707
0.75510291
0.7557151
0.75630746
0.75688025
0.75743376
0.7579683
0.75848423
0.75898193
0.75946182
0.75992424
0.71809539
0.7190876
0.72008987
0.7211013
0.72212091
0.72314767
0.72418052
0.72521834
0.72626
0.72730432
0.72835011
0.72939613
0.73044116
0.73148396
0.73252327
0.73355787
0.73458652
0.73560801
0.73662116
0.73762482
0.73861787
0.73959923
0.74056789
0.74152286
0.74246323
0.74338814
0.7442968
0.74518848
0.74606251
0.74691831
0.74775535
0.7485732
0.74937145
0.75014981
0.75090803
0.75164593
0.7523634
0.75306038
0.75373689
0.75439297
0.75502875
0.75564439
0.75624008
0.75681609
0.75737269
0.7579102
0.758429
0.75892945
0.75941199
0.75987694
0.71784278
0.71883993
0.71984717
0.72086358
0.72188817
0.72291992
0.72395775
0.72500058
0.72604725
0.72709659
0.7281474
0.72919847
0.73024854
0.73129638
0.73234074
0.73338038
0.73441406
0.73544058
0.73645873
0.73746737
0.73846537
0.73945165
0.74042518
0.74138498
0.74233012
0.74325974
0.74417305
0.74506929
0.74594782
0.74680804
0.74764941
0.74847148
0.74927388
0.75005628
0.75081844
0.75156017
0.75228137
0.75298197
0.75366198
0.75432147
0.75496054
0.75557935
0.75617811
0.75675708
0.75731653
0.75785679
0.75837823
0.75888122
0.7593662
0.75983349
0.71761031
0.71861201
0.71962386
0.72064486
0.72167405
0.72271039
0.72375282
0.72480026
0.72585154
0.72690551
0.72796095
0.72901665
0.73007137
0.73112386
0.73217287
0.73321715
0.73425547
0.7352866
0.73630936
0.73732259
0.73832514
0.73931595
0.74029396
0.7412582
0.74220773
0.74314169
0.74405927
0.74495973
0.74584239
0.74670667
0.74755202
0.74837799
0.7491842
0.74997032
0.7507361
0.75148136
0.75220599
0.75290992
0.75359316
0.75425578
0.75489787
0.75551961
0.7561212
0.75670289
0.75726497
0.75780776
0.75833162
0.75883696
0.75932418
0.75979361
0.71444602
0.71541763
0.71640152
0.71739656
0.71840257
0.71941867
0.72044391
0.72147733
0.7225179
0.72356457
0.72461624
0.72567177
0.72672999
0.7277897
0.72884966
0.72990865
0.73096541
0.73201869
0.73306724
0.73410982
0.73514521
0.7361722
0.73718964
0.73819638
0.73919134
0.74017348
0.7411418
0.74209537
0.74303331
0.74395482
0.74485914
0.74574561
0.74661362
0.74746263
0.74829219
0.7491019
0.74989143
0.75066054
0.75140905
0.75213683
0.75284382
0.75353003
0.75419552
0.7548404
0.75546482
0.75606901
0.7566532
0.75721769
0.75776281
0.75828891
0.75879639
0.75928568
0.75975709
0.71327534
0.71423801
0.71521354
0.7162013
0.71720044
0.71821042
0.71923044
0.72025958
0.72129689
0.72234135
0.72339191
0.72444748
0.72550691
0.72656903
0.72763265
0.72869653
0.72975944
0.73082013
0.73187733
0.73292979
0.73397628
0.73501557
0.73604645
0.73706775
0.73807834
0.73907711
0.74006303
0.7410351
0.74199237
0.74293397
0.74385908
0.74476696
0.74565692
0.74652835
0.74738072
0.74821356
0.74902648
0.74981915
0.75059132
0.7513428
0.75207347
0.75278327
0.75347221
0.75414034
0.75478776
0.75541466
0.75602122
0.75660771
0.75717442
0.75772166
0.75824982
0.75875928
0.75925046
0.75972369
0.71308109
0.71404746
0.71502662
0.71601799
0.71702082
0.71803444
0.71905806
0.72009078
0.72113166
0.72217969
0.72323382
0.72429296
0.72535597
0.72642168
0.72748888
0.72855635
0.72962286
0.73068713
0.73174793
0.73280398
0.73385405
0.73489691
0.73593135
0.7369562
0.73797031
0.73897258
0.73996196
0.74093746
0.74189812
0.74284307
0.74377149
0.74468261
0.74557577
0.74645034
0.74730579
0.74814164
0.7489575
0.74975305
0.75052802
0.75128222
0.75201554
0.75272791
0.75341934
0.75408989
0.75473965
0.7553688
0.75597755
0.75656614
0.75713488
0.75768408
0.75821412
0.75872538
0.75921831
0.75969321
0.71290353
0.71387327
0.71485577
0.71585046
0.71685663
0.71787358
0.71890049
0.7199365
0.72098065
0.72203195
0.72308935
0.72415176
0.72521804
0.72628703
0.72735751
0.72842827
0.72949806
0.73056562
0.7316297
0.73268904
0.73374239
0.73478852
0.73582621
0.7368543
0.73787162
0.73887709
0.73986965
0.74084828
0.74181205
0.74276006
0.7436915
0.7446056
0.74550167
0.74637912
0.74723738
0.74807598
0.74889453
0.7496927
0.75047023
0.75122693
0.75196267
0.7526774
0.7533711
0.75404385
0.75469576
0.75532697
0.75593771
0.75652823
0.75709882
0.75764981
0.75818157
0.7586945
0.75918902
0.75966546
0.71274154
0.71371436
0.71469991
0.71569765
0.71670687
0.71772685
0.71875677
0.71979577
0.72084292
0.7218972
0.72295759
0.72402299
0.72509226
0.72616424
0.72723772
0.72831148
0.72938427
0.73045483
0.73152191
0.73258425
0.73364059
0.7346897
0.73573037
0.73676141
0.73778168
0.73879006
0.73978551
0.74076701
0.7417336
0.74268441
0.7436186
0.74453541
0.74543416
0.74631422
0.74717505
0.74801616
0.74883717
0.74963774
0.7504176
0.75117657
0.75191452
0.75263139
0.75332718
0.75400195
0.7546558
0.7552889
0.75590146
0.75649373
0.75706601
0.75761863
0.75815197
0.75866641
0.7591624
0.75964024
0.71259408
0.71356972
0.71455806
0.71555858
0.71657058
0.71759331
0.71862598
0.71966772
0.72071759
0.7217746
0.72283771
0.72390583
0.72497783
0.72605253
0.72712874
0.72820523
0.72928076
0.73035406
0.73142387
0.73248893
0.733548
0.73459982
0.7356432
0.73667693
0.73769987
0.73871092
0.739709
0.7406931
0.74166228
0.74261563
0.74355233
0.74447161
0.74537279
0.74625523
0.74711839
0.7479618
0.74878504
0.74958779
0.75036977
0.75113081
0.75187078
0.7525896
0.75328728
0.75396388
0.75461951
0.75525432
0.75586854
0.75646241
0.75703623
0.75759034
0.7581251
0.75864093
0.75913826
0.7596174
0.71246019
0.7134384
0.71442929
0.71543234
0.71644685
0.7174721
0.71850726
0.71955148
0.72060383
0.72166332
0.72272891
0.7237995
0.72487398
0.72595116
0.72702985
0.72810883
0.72918683
0.73026262
0.73133492
0.73240246
0.733464
0.73451829
0.73556412
0.7366003
0.73762568
0.73863913
0.7396396
0.74062608
0.74159759
0.74255326
0.74349224
0.74441376
0.74531714
0.74620175
0.74706703
0.74791252
0.74873779
0.74954251
0.75032643
0.75108935
0.75183114
0.75255174
0.75325114
0.7539294
0.75458664
0.75522301
0.75583873
0.75643405
0.75700927
0.75756473
0.7581008
0.75861789
0.75911644
0.75959677
0.71233898
0.71331952
0.71431272
0.71531807
0.71633487
0.71736238
0.71839981
0.71944629
0.72050088
0.72156262
0.72263045
0.72370329
0.72478001
0.72585944
0.72694038
0.7280216
0.72910186
0.7301799
0.73125444
0.73232423
0.73338802
0.73444454
0.7354926
0.736531
0.73755857
0.73857421
0.73957685
0.74056547
0.74153911
0.74249686
0.74343791
0.74436146
0.74526684
0.74615341
0.74702061
0.74786798
0.74869508
0.74950161
0.75028727
0.75105189
0.75179534
0.75251754
0.75321849
0.75389827
0.75455696
0.75519474
0.75581182
0.75640845
0.75698494
0.75754162
0.75807887
0.7585971
0.75909677
0.75957821
0.71222959
0.71321224
0.71420754
0.71521496
0.71623382
0.71726339
0.71830287
0.71935138
0.72040801
0.72147177
0.72254163
0.7236165
0.72469525
0.72577671
0.72685968
0.72794294
0.72902523
0.7301053
0.73118188
0.7322537
0.73331951
0.73437805
0.73542812
0.73646852
0.73749808
0.7385157
0.73952029
0.74051084
0.7414864
0.74244604
0.74338895
0.74431434
0.74522152
0.74610986
0.7469788
0.74782786
0.74865662
0.74946476
0.75025201
0.75101816
0.7517631
0.75248675
0.75318911
0.75387024
0.75453025
0.75516931
0.75578761
0.75638543
0.75696306
0.75752084
0.75805915
0.75857842
0.75907911
0.75956158
0.71213122
0.71311578
0.71411297
0.71512226
0.71614299
0.71717441
0.71821573
0.71926608
0.72032454
0.72139013
0.72246181
0.72353851
0.72461908
0.72570237
0.72678717
0.72787226
0.72895638
0.73003828
0.73111669
0.73219034
0.73325796
0.73431833
0.73537021
0.7364124
0.73744375
0.73846314
0.7394695
0.7404618
0.74143907
0.74240042
0.743345
0.74427204
0.74518084
0.74607077
0.74694127
0.74779186
0.74862212
0.74943171
0.75022038
0.75098791
0.75173419
0.75245914
0.75316277
0.75384512
0.75450631
0.75514651
0.75576592
0.7563648
0.75694346
0.75750223
0.75804149
0.75856169
0.7590633
0.75954674
0.71204315
0.71302942
0.7140283
0.71503928
0.71606168
0.71709476
0.71813773
0.71918972
0.72024982
0.72131705
0.72239038
0.72346871
0.72455092
0.72563585
0.72672229
0.72780902
0.72889479
0.72997832
0.73105837
0.73213365
0.73320292
0.73426491
0.73531841
0.73636222
0.73739517
0.73841615
0.73942408
0.74041794
0.74139676
0.74235963
0.74330571
0.74423424
0.74514449
0.74603585
0.74690774
0.7477597
0.74859129
0.74940219
0.75019213
0.7509609
0.75170838
0.7524345
0.75313925
0.7538227
0.75448495
0.75512617
0.75574657
0.7563464
0.75692598
0.75748563
0.75802575
0.75854678
0.7590492
0.75953355
0.71196466
0.71295246
0.71395286
0.71496534
0.71598923
0.7170238
0.71806824
0.71912171
0.72018327
0.72125197
0.72232675
0.72340655
0.72449023
0.72557662
0.72666452
0.72775271
0.72883994
0.72992495
0.73100645
0.7320832
0.73315392
0.73421736
0.73527231
0.73631756
0.73735194
0.73837434
0.73938368
0.74037893
0.74135913
0.74232336
0.74327078
0.74420062
0.74511217
0.74600479
0.74687794
0.74773111
0.7485639
0.74937596
0.75016703
0.7509369
0.75168545
0.75241261
0.75311837
0.7538028
0.75446599
0.75510812
0.7557294
0.75633008
0.75691047
0.75747092
0.75801179
0.75853355
0.75903669
0.75952183
0.7118951
0.71288427
0.71388602
0.71489984
0.71592505
0.71696093
0.71800669
0.71906146
0.72012433
0.72119432
0.72227041
0.7233515
0.72443648
0.72552417
0.72661337
0.72770286
0.72879139
0.72987769
0.7309605
0.73203854
0.73311055
0.73417529
0.73523152
0.73627804
0.7373137
0.73833736
0.73934794
0.74034443
0.74132584
0.74229128
0.74323989
0.7441709
0.7450836
0.74597735
0.7468516
0.74770585
0.7485397
0.74935279
0.75014486
0.75091571