/*--------------------------------*- C++ -*----------------------------------*\
| =========                 |                                                 |
| \\      /  F ield         | OpenFOAM: The Open Source CFD Toolbox           |
|  \\    /   O peration     | Version:  2312                                  |
|   \\  /    A nd           | Website:  www.openfoam.com                      |
|    \\/     M anipulation  |                                                 |
\*---------------------------------------------------------------------------*/
FoamFile
{
    version     2.0;
    format      ascii;
    arch        "LSB;label=32;scalar=64";
    class       volScalarField;
    location    "0.06";
    object      O2;
}
// * * * * * * * * * * * * * * * * * * * * * * * * * * * * * * * * * * * * * //

dimensions      [0 0 0 0 0 0 0];

internalField   nonuniform List<scalar> 
3250
(
0.21768124
0.2177907
0.21790513
0.21802413
0.21814741
0.21827473
0.21840584
0.2185405
0.21867847
0.21881951
0.21896337
0.21910981
0.2192586
0.21940953
0.21956239
0.219717
0.21987317
0.22003074
0.22018952
0.22034936
0.22051007
0.22067146
0.22083334
0.2209955
0.22115774
0.22131984
0.22148158
0.22164277
0.22180319
0.22196267
0.22212104
0.22227813
0.22243383
0.22258801
0.22274058
0.22289148
0.22304064
0.22318805
0.22333369
0.22347756
0.22361969
0.22376013
0.22389894
0.22403621
0.21672461
0.21685597
0.2169924
0.21713347
0.21727886
0.21742828
0.21758146
0.21773814
0.21789803
0.21806086
0.21822637
0.21839429
0.21856436
0.21873634
0.21891001
0.21908514
0.21926155
0.21943903
0.2196174
0.21979646
0.21997602
0.22015589
0.22033586
0.22051572
0.22069524
0.22087422
0.22105244
0.22122969
0.22140578
0.22158051
0.22175373
0.22192528
0.22209502
0.22226286
0.22242871
0.22259248
0.22275415
0.22291368
0.22307106
0.22322631
0.22337944
0.22353051
0.22367959
0.22382674
0.21501717
0.21518568
0.21535948
0.21553814
0.21572128
0.21590857
0.21609968
0.21629428
0.21649203
0.21669261
0.21689571
0.217101
0.21730818
0.21751696
0.21772708
0.21793826
0.21815028
0.21836288
0.21857585
0.21878896
0.21900198
0.2192147
0.21942689
0.2196383
0.21984873
0.22005794
0.2202657
0.22047181
0.22067607
0.22087829
0.22107831
0.22127597
0.22147114
0.22166373
0.22185365
0.22204082
0.22222522
0.22240682
0.22258561
0.22276161
0.22293486
0.2231054
0.22327331
0.22343866
0.2127858
0.21299942
0.21321883
0.21344356
0.21367318
0.21390727
0.21414542
0.21438723
0.2146323
0.21488023
0.21513063
0.21538312
0.21563732
0.21589288
0.21614946
0.21640675
0.21666442
0.2169222
0.2171798
0.21743693
0.21769334
0.21794876
0.21820292
0.21845557
0.21870645
0.21895532
0.21920194
0.21944608
0.21968754
0.21992612
0.22016166
0.22039399
0.22062299
0.22084856
0.22107059
0.22128905
0.22150387
0.22171505
0.22192257
0.22212647
0.22232678
0.22252356
0.22271686
0.22290679
0.21024358
0.21050416
0.21077132
0.21104454
0.21132331
0.21160714
0.21189554
0.21218802
0.2124841
0.2127833
0.21308513
0.21338915
0.21369489
0.21400192
0.21430983
0.21461821
0.21492668
0.21523487
0.21554244
0.21584904
0.21615434
0.21645803
0.21675978
0.21705931
0.21735632
0.21765053
0.21794169
0.21822953
0.21851384
0.21879441
0.21907104
0.21934358
0.21961188
0.21987583
0.22013534
0.22039033
0.22064077
0.22088663
0.2211279
0.22136462
0.2215968
0.22182452
0.22204784
0.22226684
0.20756425
0.20786954
0.20818245
0.20850241
0.20882883
0.20916115
0.2094988
0.2098412
0.21018778
0.21053796
0.2108912
0.21124694
0.21160464
0.21196378
0.21232386
0.21268438
0.21304489
0.21340492
0.21376406
0.21412189
0.214478
0.21483201
0.21518355
0.21553227
0.21587783
0.21621991
0.2165582
0.21689244
0.21722235
0.2175477
0.21786828
0.21818391
0.21849443
0.21879971
0.21909963
0.21939413
0.21968313
0.21996662
0.22024457
0.22051701
0.22078396
0.22104548
0.22130163
0.22155249
0.20487218
0.20521795
0.20557254
0.20593533
0.20630569
0.20668296
0.20706649
0.20745564
0.20784975
0.20824817
0.20865025
0.20905535
0.20946286
0.20987215
0.21028265
0.21069377
0.21110495
0.21151567
0.21192541
0.21233367
0.21273998
0.21314388
0.21354494
0.21394273
0.21433687
0.21472699
0.21511273
0.21549377
0.21586982
0.2162406
0.21660587
0.21696542
0.21731906
0.21766664
0.21800802
0.21834311
0.21867183
0.21899414
0.21931
0.21961942
0.21992243
0.22021906
0.22050937
0.22079343
0.20224541
0.20262698
0.20301867
0.20341979
0.20382965
0.20424755
0.20467277
0.20510458
0.20554226
0.20598508
0.20643231
0.20688324
0.20733716
0.20779338
0.20825121
0.20871
0.20916911
0.20962792
0.21008583
0.21054227
0.21099667
0.21144852
0.2118973
0.21234254
0.21278378
0.21322058
0.21365256
0.21407934
0.21450057
0.21491595
0.21532519
0.21572804
0.21612429
0.21651375
0.21689626
0.21727169
0.21763995
0.21800096
0.2183547
0.21870113
0.21904027
0.21937214
0.21969679
0.22001429
0.19972582
0.20013897
0.20056352
0.20099876
0.20144394
0.20189832
0.2023611
0.20283152
0.20330876
0.20379204
0.20428057
0.20477355
0.20527019
0.20576974
0.20627143
0.20677452
0.20727829
0.20778204
0.20828509
0.20878679
0.20928651
0.20978365
0.21027764
0.21076791
0.21125397
0.21173532
0.2122115
0.21268209
0.2131467
0.21360497
0.21405659
0.21450125
0.2149387
0.21536873
0.21579115
0.21620579
0.21661254
0.2170113
0.21740201
0.21778462
0.21815914
0.21852557
0.21888394
0.21923431
0.1964891
0.19690294
0.19733084
0.19777213
0.19822607
0.19869191
0.19916888
0.19965617
0.20015295
0.20065839
0.20117163
0.20169183
0.20221812
0.20274965
0.20328557
0.20382504
0.20436723
0.20491132
0.20545652
0.20600205
0.20654717
0.20709114
0.20763326
0.20817287
0.20870931
0.20924199
0.2097703
0.21029372
0.21081173
0.21132385
0.21182965
0.21232871
0.21282067
0.21330519
0.213782
0.21425082
0.21471145
0.21516368
0.21560737
0.21604239
0.21646867
0.21688614
0.21729476
0.21769455
0.2180855
0.21846768
0.19417472
0.19461159
0.19506376
0.19553053
0.19601113
0.19650479
0.1970107
0.197528
0.19805585
0.19859334
0.1991396
0.1996937
0.20025474
0.20082181
0.20139399
0.20197038
0.20255008
0.20313221
0.20371591
0.20430033
0.20488466
0.20546809
0.20604986
0.20662923
0.20720548
0.20777796
0.20834601
0.20890903
0.20946646
0.21001777
0.21056246
0.21110009
0.21163025
0.21215256
0.21266668
0.21317234
0.21366926
0.21415724
0.21463609
0.21510567
0.21556586
0.21601658
0.21645778
0.21688944
0.21731156
0.21772417
0.19198841
0.19244647
0.19292095
0.19341114
0.19391628
0.19443556
0.19496813
0.19551313
0.19606965
0.19663678
0.19721358
0.1977991
0.19839237
0.19899243
0.19959831
0.20020905
0.20082369
0.2014413
0.20206093
0.20268169
0.20330269
0.20392307
0.20454199
0.20515866
0.2057723
0.20638218
0.2069876
0.20758791
0.20818248
0.20877073
0.20935213
0.20992618
0.21049242
0.21105043
0.21159986
0.21214037
0.21267167
0.21319352
0.21370569
0.21420803
0.21470039
0.21518267
0.21565481
0.21611675
0.2165685
0.21701007
0.18992327
0.19040104
0.19089627
0.19140825
0.1919362
0.19247929
0.19303668
0.19360745
0.19419069
0.19478544
0.19539073
0.19600556
0.19662893
0.19725982
0.19789722
0.19854011
0.19918748
0.19983832
0.20049166
0.20114653
0.20180197
0.20245706
0.20311093
0.20376269
0.20441152
0.20505664
0.20569729
0.20633276
0.20696236
0.20758549
0.20820154
0.20880998
0.20941031
0.21000208
0.21058488
0.21115834
0.21172216
0.21227604
0.21281975
0.21335309
0.2138759
0.21438807
0.21488949
0.21538012
0.21585994
0.21632894
0.18797251
0.18846873
0.18898337
0.18951573
0.19006502
0.1906304
0.191211
0.19180591
0.19241417
0.19303479
0.19366678
0.19430911
0.19496071
0.19562055
0.19628756
0.19696066
0.1976388
0.19832092
0.19900599
0.19969297
0.20038087
0.2010687
0.20175551
0.20244038
0.20312244
0.20380083
0.20447475
0.20514343
0.20580615
0.20646223
0.20711104
0.207752
0.20838457
0.20900826
0.20962262
0.21022726
0.21082183
0.21140601
0.21197954
0.21254221
0.21309383
0.21363426
0.21416338
0.21468115
0.21518751
0.21568245
0.1861302
0.18664373
0.18717659
0.18772806
0.18829736
0.18888364
0.18948602
0.19010356
0.1907353
0.19138023
0.19203731
0.19270547
0.19338364
0.19407072
0.1947656
0.19546716
0.1961743
0.19688592
0.19760091
0.19831821
0.19903675
0.19975549
0.20047344
0.20118961
0.20190308
0.20261293
0.20331832
0.20401842
0.20471248
0.20539975
0.20607957
0.20675131
0.2074144
0.20806829
0.20871253
0.20934667
0.20997033
0.21058318
0.21118493
0.21177533
0.21235419
0.21292134
0.21347666
0.21402006
0.21455151
0.21507098
0.18439142
0.18492117
0.18547111
0.18604049
0.18662855
0.18723442
0.18785723
0.18849601
0.1891498
0.18981755
0.1904982
0.19119066
0.19189382
0.19260654
0.19332767
0.19405606
0.19479055
0.19552999
0.19627324
0.19701916
0.19776664
0.19851461
0.19926199
0.20000777
0.20075095
0.20149058
0.20222576
0.20295561
0.20367933
0.20439613
0.20510532
0.2058062
0.20649818
0.20718068
0.2078532
0.20851526
0.20916646
0.20980644
0.21043488
0.21105152
0.21165614
0.21224855
0.21282863
0.21339627
0.21395142
0.21449404
0.18275195
0.1832969
0.18386281
0.18444895
0.18505455
0.18567876
0.18632069
0.18697938
0.18765382
0.18834298
0.18904576
0.18976105
0.19048769
0.19122453
0.19197037
0.19272403
0.19348429
0.19424996
0.19501986
0.1957928
0.19656762
0.19734319
0.19811839
0.19889216
0.19966344
0.20043125
0.20119461
0.20195262
0.20270441
0.20344918
0.20418616
0.20491464
0.20563398
0.20634356
0.20704284
0.20773133
0.2084086
0.20907425
0.20972794
0.21036939
0.21099837
0.21161466
0.21221813
0.21280867
0.2133862
0.21395069
0.18120807
0.18176723
0.18234804
0.1829498
0.18357177
0.18421309
0.18487288
0.18555017
0.18624394
0.18695314
0.18767665
0.18841333
0.18916201
0.1899215
0.19069056
0.19146796
0.19225247
0.19304285
0.19383785
0.19463626
0.19543686
0.19623848
0.19703995
0.19784015
0.19863798
0.19943241
0.20022242
0.20100705
0.20178541
0.20255662
0.2033199
0.20407449
0.2048197
0.2055549
0.20627951
0.206993
0.20769492
0.20838484
0.20906241
0.20972731
0.2103793
0.21101817
0.21164373
0.21225589
0.21285455
0.21343968
0.17920714
0.17975644
0.1803287
0.18092332
0.18153961
0.1821768
0.18283406
0.18351049
0.18420512
0.18491692
0.18564483
0.18638772
0.18714442
0.18791373
0.18869443
0.18948526
0.19028495
0.19109224
0.19190582
0.19272444
0.19354681
0.19437169
0.19519785
0.19602407
0.1968492
0.19767208
0.19849163
0.19930679
0.20011657
0.20092
0.20171621
0.20250433
0.20328359
0.20405326
0.20481267
0.20556121
0.20629833
0.20702354
0.20773639
0.20843651
0.20912358
0.2097973
0.21045747
0.21110389
0.21173645
0.21235505
0.21295964
0.17783258
0.17839338
0.1789778
0.17958524
0.180215
0.18086632
0.18153838
0.18223028
0.18294104
0.18366963
0.18441498
0.18517593
0.18595131
0.1867399
0.18754043
0.18835163
0.1891722
0.19000082
0.19083618
0.19167695
0.19252183
0.19336953
0.19421876
0.19506827
0.19591685
0.19676332
0.19760654
0.19844541
0.19927888
0.20010598
0.20092574
0.20173731
0.20253984
0.20333259
0.20411485
0.20488598
0.2056454
0.20639259
0.20712709
0.20784849
0.20855646
0.20925069
0.20993095
0.21059704
0.21124883
0.21188621
0.21250915
0.17654379
0.17711531
0.17771103
0.17833034
0.17897257
0.17963699
0.18032277
0.18102901
0.18175474
0.18249893
0.18326049
0.18403826
0.18483104
0.18563759
0.18645663
0.18728685
0.18812693
0.18897551
0.18983124
0.19069277
0.19155874
0.19242783
0.19329871
0.19417009
0.19504072
0.19590936
0.19677483
0.197636
0.19849178
0.19934114
0.20018309
0.20101673
0.2018412
0.20265569
0.20345948
0.2042519
0.20503233
0.20580023
0.20655513
0.20729659
0.20802425
0.2087378
0.20943699
0.21012161
0.21079151
0.21144659
0.21208679
0.17533713
0.17591864
0.1765248
0.17715509
0.17780886
0.17848538
0.17918386
0.17990338
0.18064299
0.18140165
0.18217825
0.18297164
0.1837806
0.18460386
0.18544014
0.18628809
0.18714636
0.18801357
0.18888834
0.18976927
0.19065498
0.19154409
0.19243526
0.19332713
0.19421842
0.19510786
0.19599422
0.19687633
0.19775307
0.19862335
0.19948616
0.20034056
0.20118565
0.20202059
0.20284464
0.20365708
0.20445728
0.20524468
0.20601877
0.2067791
0.2075253
0.20825703
0.20897402
0.20967607
0.21036301
0.21103472
0.21169115
0.17364408
0.17420909
0.1747997
0.17541548
0.17605589
0.17672032
0.17740803
0.17811824
0.17885005
0.1796025
0.18037455
0.1811651
0.18197297
0.18279694
0.18363574
0.18448804
0.18535249
0.1862277
0.18711228
0.18800479
0.18890383
0.18980797
0.1907158
0.19162593
0.19253698
0.19344762
0.19435653
0.19526247
0.19616421
0.19706059
0.1979505
0.19883289
0.19970677
0.20057121
0.20142537
0.20226844
0.20309969
0.20391847
0.20472419
0.20551631
0.20629437
0.20705798
0.20780678
0.20854051
0.20925893
0.20996187
0.21064922
0.21132089
0.17258269
0.17315564
0.17375468
0.17437934
0.1750291
0.17570335
0.17640139
0.17712243
0.17786559
0.17862992
0.17941436
0.18021782
0.18103911
0.181877
0.18273021
0.18359739
0.18447716
0.18536813
0.18626886
0.18717791
0.18809382
0.18901515
0.18994044
0.19086827
0.19179723
0.19272595
0.19365308
0.19457733
0.19549744
0.19641221
0.1973205
0.19822122
0.19911336
0.19999596
0.20086812
0.20172903
0.20257792
0.20341413
0.20423703
0.20504607
0.20584077
0.20662071
0.20738554
0.20813497
0.20886875
0.2095867
0.21028871
0.21097468
0.17159253
0.17217293
0.17277978
0.17341265
0.17407103
0.17475436
0.17546192
0.17619296
0.1769466
0.17772189
0.17851778
0.17933318
0.18016689
0.18101768
0.18188424
0.18276521
0.18365921
0.18456482
0.18548056
0.18640498
0.1873366
0.18827392
0.18921548
0.19015982
0.19110549
0.19205108
0.19299521
0.19393656
0.19487384
0.1958058
0.19673128
0.19764916
0.19855839
0.19945797
0.20034699
0.2012246
0.20209002
0.20294254
0.20378154
0.20460643
0.20541671
0.20621197
0.20699181
0.20775594
0.20850412
0.20923614
0.20995187
0.21065124
0.17066981
0.17125718
0.17187125
0.17251169
0.17317804
0.17386972
0.17458608
0.17532634
0.17608965
0.17687506
0.17768153
0.17850796
0.17935316
0.18021588
0.1810948
0.18198856
0.18289575
0.18381492
0.18474461
0.18568331
0.18662952
0.18758173
0.18853843
0.18949813
0.19045936
0.19142067
0.19238067
0.19333797
0.19429126
0.19523928
0.19618081
0.19711471
0.1980399
0.19895536
0.19986014
0.20075336
0.20163424
0.20250203
0.20335608
0.2041958
0.20502067
0.20583024
0.20662414
0.20740203
0.20816367
0.20890885
0.20963744
0.21034934
0.16924463
0.16981102
0.17040468
0.1710254
0.17167282
0.1723465
0.1730459
0.17377036
0.17451913
0.17529136
0.17608611
0.17690235
0.17773897
0.17859478
0.17946853
0.18035889
0.18126448
0.18218389
0.18311565
0.18405827
0.18501022
0.18596998
0.18693602
0.18790679
0.18888078
0.18985649
0.19083244
0.1918072
0.19277937
0.19374759
0.19471057
0.19566708
0.19661593
0.19755601
0.19848628
0.19940578
0.20031359
0.2012089
0.20209095
0.20295906
0.20381264
0.20465114
0.2054741
0.20628112
0.20707188
0.2078461
0.20860358
0.20934417
0.21006778
0.16844035
0.16901224
0.16961173
0.17023857
0.17089244
0.17157289
0.17227941
0.17301135
0.17376796
0.17454842
0.17535179
0.17617704
0.17702307
0.17788869
0.17877263
0.17967356
0.18059011
0.18152083
0.18246424
0.18341884
0.18438308
0.18535541
0.18633428
0.18731812
0.18830539
0.18929456
0.19028412
0.19127262
0.19225861
0.19324074
0.19421766
0.19518811
0.19615089
0.19710485
0.19804894
0.19898216
0.19990357
0.20081234
0.2017077
0.20258894
0.20345544
0.20430666
0.20514211
0.20596139
0.20676416
0.20755012
0.20831908
0.20907088
0.20980542
0.16769275
0.16826983
0.16887473
0.16950725
0.17016708
0.17085379
0.17156687
0.1723057
0.17306956
0.17385761
0.17466893
0.17550249
0.17635721
0.17723187
0.17812523
0.17903594
0.17996261
0.18090379
0.18185799
0.18282369
0.18379931
0.1847833
0.18577407
0.18677003
0.18776962
0.18877129
0.1897735
0.19077476
0.19177362
0.19276867
0.19375856
0.19474199
0.19571773
0.19668462
0.19764158
0.19858757
0.19952166
0.20044298
0.20135073
0.2022442
0.20312276
0.20398584
0.20483294
0.20566364
0.2064776
0.20727452
0.20805419
0.20881643
0.20956115
0.16699841
0.16758033
0.16819027
0.16882806
0.16949339
0.17018588
0.17090503
0.17165022
0.17242075
0.1732158
0.17403445
0.17487569
0.17573842
0.17662144
0.17752349
0.17844323
0.17937926
0.18033011
0.18129429
0.18227025
0.18325642
0.1842512
0.18525299
0.1862602
0.18727123
0.18828449
0.18929844
0.19031155
0.19132235
0.19232941
0.19333135
0.19432684
0.19531464
0.19629356
0.19726248
0.19822037
0.19916625
0.20009925
0.20101854
0.20192341
0.20281319
0.2036873
0.20454525
0.2053866
0.20621099
0.20701811
0.20780775
0.20857973
0.20933392
0.166354
0.16694045
0.16755507
0.16819774
0.16886817
0.16956601
0.17029075
0.17104181
0.1718185
0.17262
0.17344542
0.17429373
0.17516385
0.17605458
0.17696466
0.17789274
0.17883741
0.1797972
0.18077061
0.18175606
0.18275198
0.18375676
0.18476876
0.18578639
0.186808
0.18783202
0.18885685
0.18988096
0.19090285
0.19192106
0.19293418
0.19394088
0.19493988
0.19592998
0.19691002
0.19787896
0.19883581
0.19977966
0.20070969
0.20162515
0.20252537
0.20340976
0.2042778
0.20512905
0.20596314
0.20677977
0.20757869
0.20835973
0.20912278
0.20986777
0.16575637
0.16634703
0.16696601
0.16761321
0.16828837
0.16899114
0.16972105
0.17047753
0.1712599
0.17206735
0.172899
0.17375384
0.17463078
0.17552862
0.1764461
0.17738188
0.17833453
0.17930258
0.18028451
0.18127874
0.18228368
0.1832977
0.18431916
0.18534642
0.18637785
0.18741182
0.18844675
0.18948105
0.19051322
0.19154177
0.19256527
0.19358237
0.19459177
0.19559223
0.19658261
0.19756181
0.19852885
0.19948279
0.20042279
0.20134809
0.20225801
0.20315195
0.20402937
0.20488983
0.20573294
0.2065584
0.20736595
0.20815542
0.20892671
0.20967974
0.16520252
0.1657971
0.16642014
0.16707154
0.16775107
0.16845841
0.16919309
0.16995457
0.17074218
0.17155512
0.17239252
0.17325337
0.17413659
0.175041
0.17596531
0.17690819
0.1778682
0.17884388
0.17983368
0.18083602
0.1818493
0.18287186
0.18390206
0.18493825
0.18597875
0.18702195
0.18806621
0.18910996
0.19015165
0.19118978
0.19222291
0.19324965
0.19426869
0.19527877
0.19627873
0.19726746
0.19824395
0.19920725
0.20015651
0.20109095
0.20200988
0.20291268
0.20379881
0.20466782
0.20551931
0.20635297
0.20716854
0.20796585
0.20874477
0.20950526
0.16468962
0.16528785
0.16591465
0.16656995
0.16725354
0.16796509
0.16870419
0.16947028
0.17026272
0.17108072
0.17192342
0.17278981
0.17367883
0.17458928
0.17551989
0.17646931
0.17743613
0.17841884
0.1794159
0.18042574
0.18144671
0.18247717
0.18351545
0.18455988
0.18560879
0.18666051
0.18771342
0.18876591
0.18981641
0.19086341
0.19190546
0.19294113
0.1939691
0.1949881
0.19599694
0.1969945
0.19797975
0.19895174
0.19990958
0.2008525
0.20177978
0.20269081
0.20358502
0.20446196
0.20532122
0.20616249
0.2069855
0.20779008
0.20857609
0.20934349
0.16421497
0.16481661
0.16544691
0.16610584
0.16679317
0.16750863
0.1682518
0.16902214
0.16981903
0.1706417
0.17148928
0.17236078
0.17325514
0.17417116
0.17510757
0.17606303
0.17703611
0.17802531
0.17902908
0.18004583
0.18107391
0.18211166
0.18315741
0.18420946
0.18526612
0.18632573
0.18738663
0.1884472
0.18950586
0.19056108
0.19161137
0.19265531
0.19369155
0.19471881
0.19573587
0.19674161
0.19773498
0.19871501
0.19968081
0.20063158
0.20156661
0.20248525
0.20338696
0.20427125
0.20513772
0.20598604
0.20681595
0.20762726
0.20841984
0.20919363
0.16377605
0.16438087
0.16501444
0.16567672
0.16636753
0.16708659
0.16783352
0.16860779
0.16940878
0.17023575
0.17108782
0.17196403
0.1728633
0.17378445
0.17472622
0.17568724
0.1766661
0.17766128
0.17867123
0.17969435
0.18072899
0.18177347
0.18282611
0.18388519
0.18494902
0.18601591
0.1870842
0.18815224
0.18921844
0.19028125
0.19133916
0.19239075
0.19343465
0.19446954
0.19549422
0.19650753
0.19750841
0.19849588
0.19946904
0.20042709
0.20136928
0.20229498
0.20320363
0.20409472
0.20496787
0.20582272
0.20665902
0.20747656
0.20827523
0.20905494
0.1633705
0.16397829
0.1646149
0.1652803
0.16597432
0.16669671
0.1674471
0.16822499
0.16902977
0.16986069
0.1707169
0.17159744
0.17250124
0.17342712
0.17437381
0.17533996
0.17632413
0.17732482
0.17834047
0.17936947
0.18041015
0.18146084
0.18251983
0.1835854
0.18465584
0.18572946
0.18680456
0.1878795
0.18895267
0.19002249
0.19108745
0.19214611
0.19319707
0.19423903
0.19527074
0.19629105
0.19729888
0.19829323
0.19927321
0.20023798
0.2011868
0.20211903
0.20303409
0.20393148
0.2048108
0.2056717
0.2065139
0.20733722
0.20814151
0.20892671
0.16299609
0.16360667
0.16424611
0.16491439
0.16561139
0.16633685
0.16709044
0.16787166
0.16867991
0.16951448
0.1703745
0.17125903
0.17216699
0.17309721
0.17404844
0.1750193
0.17600837
0.17701414
0.17803504
0.17906944
0.1801157
0.1811721
0.18223695
0.1833085
0.18438505
0.18546486
0.18654626
0.18762756
0.18870715
0.18978344
0.19085491
0.19192009
0.19297759
0.19402606
0.19506427
0.19609105
0.19710529
0.19810601
0.19909228
0.20006326
0.20101822
0.20195648
0.20287747
0.20378068
0.2046657
0.20553218
0.20637985
0.2072085
0.20801799
0.20880826
0.16265074
0.16326394
0.16390602
0.16457698
0.16527671
0.16600501
0.16676154
0.16754582
0.16835728
0.16919519
0.17005872
0.17094691
0.1718587
0.17279293
0.17374832
0.17472352
0.17571709
0.17672753
0.17775326
0.17879265
0.17984403
0.1809057
0.18197594
0.18305301
0.18413517
0.1852207
0.18630789
0.18739506
0.18848058
0.18956284
0.19064031
0.19171151
0.19277502
0.19382952
0.19487372
0.19590646
0.19692663
0.19793322
0.19892529
0.19990201
0.20086262
0.20180646
0.20273292
0.20364151
0.2045318
0.20540343
0.20625614
0.20708972
0.20790401
0.20869896
0.16233252
0.16294819
0.16359272
0.16426615
0.16496841
0.16569931
0.16645854
0.16724565
0.16806005
0.16890104
0.16976778
0.17065934
0.17157465
0.17251255
0.17347177
0.17445096
0.17544868
0.17646341
0.17749358
0.17853755
0.17959365
0.18066016
0.18173537
0.18281751
0.18390484
0.18499563
0.18608816
0.18718074
0.18827171
0.18935947
0.19044247
0.19151921
0.19258828
0.19364831
0.19469805
0.19573629
0.19676192
0.19777392
0.19877135
0.19975336
0.20071918
0.20166815
0.20259966
0.20351321
0.20440835
0.20528475
0.20614211
0.20698022
0.20779895
0.20859821
0.16203967
0.16265765
0.16330444
0.16398013
0.1646847
0.16541799
0.16617971
0.1669694
0.16778651
0.16863032
0.16950003
0.17039468
0.17131322
0.17225449
0.17321723
0.17420008
0.1752016
0.17622028
0.17725452
0.17830271
0.17936314
0.18043411
0.18151388
0.18260068
0.18369277
0.1847884
0.18588584
0.18698339
0.18807938
0.1891722
0.19026029
0.19134214
0.19241631
0.19348146
0.19453628
0.19557958
0.19661024
0.19762722
0.19862959
0.19961647
0.2005871
0.2015408
0.20247696
0.20339507
0.20429469
0.20517547
0.20603711
0.20687941
0.20770221
0.20850545
0.16177057
0.16239067
0.16303949
0.16371724
0.16442393
0.16515942
0.16592342
0.16671549
0.16753507
0.16838148
0.16925389
0.17015138
0.17107289
0.17201726
0.17298322
0.17396943
0.17497444
0.17599674
0.17703473
0.17808677
0.17915119
0.18022625
0.1813102
0.18240129
0.18349776
0.18459783
0.18569978
0.1868019
0.18790251
0.18899998
0.19009274
0.19117928
0.19225816
0.193328
0.1943875
0.19543546
0.19647074
0.19749231
0.19849921
0.19949058
0.20046563
0.20142368
0.20236412
0.20328643
0.20419017
0.20507497
0.20594056
0.2067867
0.20761326
0.20842016
0.15983099
0.16036646
0.16093052
0.16152388
0.16214569
0.16279632
0.16347594
0.16418456
0.16492206
0.16568814
0.16648239
0.16730424
0.16815303
0.16902793
0.16992801
0.17085224
0.17179944
0.17276837
0.17375766
0.17476587
0.17579148
0.1768329
0.17788849
0.17895656
0.18003536
0.18112316
0.18221819
0.18331866
0.18442281
0.1855289
0.18663521
0.18774006
0.1888418
0.18993886
0.19102971
0.1921129
0.19318705
0.19425085
0.19530309
0.19634262
0.1973684
0.19837947
0.19937496
0.20035407
0.20131612
0.20226049
0.20318666
0.20409418
0.20498269
0.20585189
0.20670157
0.20753158
0.20834184
0.15909118
0.15960054
0.16013765
0.16070329
0.16129786
0.16192118
0.16257343
0.16325475
0.16396514
0.16470447
0.16547246
0.1662687
0.16709263
0.16794359
0.16882077
0.16972323
0.17064994
0.17159975
0.17257138
0.17356348
0.17457462
0.17560327
0.17664784
0.17770667
0.17877808
0.17986032
0.18095165
0.18205027
0.18315441
0.18426231
0.18537219
0.18648235
0.18759108
0.18869674
0.18979773
0.19089254
0.19197968
0.19305778
0.19412553
0.19518169
0.19622512
0.19725477
0.19826966
0.19926892
0.20025176
0.20121748
0.20216546
0.20309517
0.20400616
0.20489806
0.20577059
0.20662351
0.20745669
0.20827003
0.15887884
0.15938959
0.15992817
0.1604952
0.16109103
0.16171572
0.16236944
0.16305231
0.16376431
0.16450531
0.16527505
0.1660731
0.16689894
0.16775189
0.16863114
0.16953578
0.17046476
0.17141694
0.17239104
0.17338573
0.17439954
0.17543097
0.17647841
0.17754021
0.17861468
0.17970007
0.18079461
0.18189653
0.18300403
0.18411535
0.18522871
0.18634238
0.18745467
0.18856391
0.18966851
0.19076693
0.1918577
0.19293943
0.19401078
0.19507054
0.19611754
0.19715073
0.19816912
0.19917184
0.20015809
0.20112717
0.20207845
0.2030114
0.20392558
0.20482059
0.20569616
0.20655206
0.20738813
0.2082043
0.1586846
0.15919674
0.15973668
0.16030499
0.16090203
0.161528
0.16218306
0.16286733
0.1635808
0.16432333
0.16509466
0.16589438
0.16672195
0.16757671
0.16845786
0.16936448
0.17029554
0.17124988
0.17222625
0.17322328
0.17423954
0.1752735
0.17632357
0.17738808
0.17846534
0.1795536
0.18065108
0.18175601
0.18286659
0.18398103
0.18509756
0.18621445
0.18732999
0.1884425
0.1895504
0.19065213
0.19174621
0.19283125
0.1939059
0.19496895
0.19601921
0.19705563
0.19807723
0.19908312
0.20007249
0.20104464
0.20199894
0.20293486
0.20385194
0.2047498
0.20562815
0.20648676
0.20732548
0.20814423
0.1585073
0.15902078
0.15956197
0.16013146
0.16072964
0.16135679
0.16201309
0.16269864
0.16341344
0.16415737
0.16493014
0.16573137
0.16656052
0.16741693
0.16829981
0.16920824
0.17014119
0.1710975
0.17207593
0.17307511
0.17409359
0.17512987
0.17618232
0.17724931
0.17832911
0.17941998
0.18052015
0.18162783
0.1827412
0.1838585
0.18497793
0.18609775
0.18721624
0.18833175
0.18944265
0.1905474
0.19164451
0.19273256
0.19381023
0.19487627
0.19592951
0.19696889
0.19799341
0.19900218
0.1999944
0.20096936
0.20192642
0.20286504
0.20378477
0.20468523
0.20556612
0.20642721
0.20726835
0.20808945
0.15834585
0.15886055
0.15940289
0.15997348
0.16057274
0.16120097
0.16185839
0.16254511
0.16326113
0.16400632
0.16478041
0.16558301
0.1664136
0.16727151
0.16815597
0.16906604
0.17000071
0.17095881
0.17193911
0.17294024
0.17396075
0.17499912
0.17605376
0.17712299
0.17820511
0.17929836
0.18040097
0.18151114
0.18262707
0.18374695
0.18486902
0.18599151
0.18711271
0.18823093
0.18934457
0.19045207
0.19155193
0.19264273
0.19372314
0.19479191
0.19584787
0.19688994
0.19791712
0.19892852
0.19992334
0.20090085
0.20186042
0.20280151
0.20372365
0.20462648
0.20550968
0.20637302
0.20721636
0.2080396
0.15819918
0.158715
0.1592584
0.15983
0.16043025
0.16105948
0.16171793
0.16240571
0.16312283
0.16386917
0.16464445
0.1654483
0.1662802
0.16713947
0.16802535
0.16893692
0.16987314
0.17083288
0.17181487
0.17281776
0.17384012
0.1748804
0.17593701
0.17700828
0.1780925
0.17918791
0.18029274
0.18140518
0.18252342
0.18364566
0.18477012
0.18589503
0.18701868
0.18813938
0.18925551
0.1903655
0.19146785
0.19256116
0.19364407
0.19471532
0.19577374
0.19681825
0.19784785
0.19886164
0.19985881
0.20083864
0.2018005
0.20274382
0.20366817
0.20457314
0.20545844
0.20632383
0.20716916
0.20799435
0.1580663
0.15858314
0.15912751
0.15970004
0.1603012
0.16093134
0.16159072
0.16227947
0.16299759
0.16374496
0.16452133
0.16532631
0.16615938
0.16701989
0.16790706
0.16881998
0.16975761
0.17071882
0.17170235
0.17270685
0.17373086
0.17477287
0.17583127
0.17690438
0.17799051
0.17908788
0.18019472
0.18130921
0.18242954
0.18355392
0.18468055
0.18580766
0.18693353
0.18805646
0.18917484
0.19028709
0.19139172
0.19248729
0.19357245
0.19464595
0.1957066
0.19675333
0.19778512
0.19880108
0.19980039
0.20078232
0.20174624
0.2026916
0.20361793
0.20452485
0.20541205
0.2062793
0.20712644
0.20795339
0.15794629
0.15846406
0.1590093
0.15958268
0.16018466
0.16081564
0.16147587
0.16216549
0.16288451
0.16363282
0.16441016
0.16521616
0.1660503
0.16691192
0.16780025
0.16871439
0.1696533
0.17061583
0.17160075
0.17260669
0.17363221
0.17467578
0.17573579
0.17681057
0.17789842
0.17899755
0.1801062
0.18122255
0.18234478
0.18347108
0.18459967
0.18572876
0.18685663
0.1879816
0.18910201
0.1902163
0.19132297
0.19242059
0.19350779
0.19458332
0.195646
0.19669472
0.1977285
0.19874641
0.19974765
0.20073149
0.20169727
0.20264447
0.2035726
0.20448128
0.20537019
0.20623912
0.20708789
0.20791642
0.15783828
0.15835687
0.15890291
0.15947705
0.16007979
0.16071151
0.16137251
0.16206291
0.16278275
0.16353191
0.16431013
0.16511705
0.16595214
0.16681476
0.16770414
0.16861937
0.16955942
0.17052316
0.17150932
0.17251656
0.17354343
0.1745884
0.17564986
0.17672615
0.17781554
0.17891627
0.18002655
0.18114456
0.1822685
0.18339654
0.18452688
0.18565777
0.18678744
0.18791423
0.18903647
0.19015261
0.19126112
0.19236058
0.19344962
0.19452698
0.19559147
0.196642
0.19767756
0.19869723
0.19970021
0.20068576
0.20165323
0.20260207
0.20353182
0.20444209
0.20533255
0.20620298
0.20705322
0.20788317
0.15774143
0.15826078
0.15880753
0.15938236
0.15998577
0.16061817
0.16127986
0.16197097
0.16269154
0.16344145
0.16422046
0.1650282
0.16586415
0.16672767
0.16761798
0.16853419
0.16947527
0.17044008
0.17142736
0.17243577
0.17346385
0.17451008
0.17557284
0.17665047
0.17774125
0.1788434
0.17995514
0.18107466
0.18220012
0.18332972
0.18446164
0.18559413
0.18672543
0.18785384
0.18897773
0.19009552
0.19120568
0.19230679
0.19339748
0.19447648
0.19554261
0.19659475
0.19763191
0.19865317
0.19965771
0.20064479
0.20161377
0.2025641
0.2034953
0.20440698
0.20529884
0.20617062
0.20702217
0.20785339
0.157655
0.15817501
0.1587224
0.15929784
0.15990186
0.16053487
0.16119717
0.16188891
0.16261013
0.16336072
0.16414044
0.16494891
0.16578562
0.16664994
0.1675411
0.16845818
0.16940017
0.17036594
0.17135422
0.17236366
0.17339283
0.17444017
0.1755041
0.17658293
0.17767495
0.17877838
0.17989142
0.18101227
0.1821391
0.18327009
0.18440343
0.18553734
0.18667009
0.18779996
0.18892532
0.19004458
0.19115622
0.19225881
0.19335097
0.19443144
0.19549902
0.1965526
0.19759119
0.19861387
0.1996198
0.20060825
0.20157858
0.20253023
0.20346273
0.20437568
0.20526878
0.20614178
0.2069945
0.20782685
0.15757827
0.15809886
0.15864681
0.15922281
0.15982736
0.1604609
0.16112375
0.16181606
0.16253786
0.16328905
0.16406939
0.16487851
0.1657159
0.16658093
0.16747283
0.16839069
0.1693335
0.17030011
0.17128928
0.17229965
0.17332977
0.17437811
0.17544307
0.17652297
0.17761608
0.17872064
0.17983485
0.18095689
0.18208493
0.18321715
0.18435175
0.18548693
0.18662096
0.18775213
0.1888788
0.18999937
0.19111232
0.19221622
0.19330969