/*--------------------------------*- C++ -*----------------------------------*\
| =========                 |                                                 |
| \\      /  F ield         | OpenFOAM: The Open Source CFD Toolbox           |
|  \\    /   O peration     | Version:  2312                                  |
|   \\  /    A nd           | Website:  www.openfoam.com                      |
|    \\/     M anipulation  |                                                 |
\*---------------------------------------------------------------------------*/
FoamFile
{
    version     2.0;
    format      ascii;
    arch        "LSB;label=32;scalar=64";
    class       volScalarField;
    location    "0.06";
    object      omega;
}
// * * * * * * * * * * * * * * * * * * * * * * * * * * * * * * * * * * * * * //

dimensions      [0 0 -1 0 0 0 0];

internalField   nonuniform List<scalar> 
3250
(
310.55193
308.04288
305.51309
302.96603
300.40372
297.82796
295.24058
292.6435
290.03875
287.42844
284.81475
282.19985
279.5859
276.97499
274.36916
271.77035
269.18042
266.60119
264.03441
261.48182
258.94512
256.426
253.92613
251.44715
248.99064
246.55815
244.15117
241.7711
239.41927
237.09692
234.80521
232.54522
230.31795
228.12432
225.96521
223.8414
221.75364
219.70261
217.68894
215.71316
213.77576
211.8771
210.01743
208.19686
310.61265
308.09799
305.56319
303.01135
300.44442
297.86416
295.27239
292.67104
290.06211
287.44771
284.83
282.21114
279.59327
276.9785
274.36886
271.7663
269.17271
266.58991
264.01968
261.46377
258.92389
256.40173
253.89895
251.41719
248.95804
246.52304
244.11365
241.73127
239.37724
237.05278
234.75905
232.49714
230.26804
228.07269
225.91194
223.78661
221.69744
219.64511
217.63026
215.65348
213.71526
211.81607
209.95616
208.13516
309.98509
307.48117
304.95758
302.41719
299.86186
297.29335
294.71346
292.12407
289.52716
286.92477
284.319
281.71197
279.10578
276.50249
273.90413
271.31265
268.72993
266.15781
263.5981
261.05253
258.52283
256.0107
253.51779
251.04572
248.59606
246.17035
243.77003
241.3965
239.05107
236.73498
234.44938
232.19535
229.9739
227.78598
225.63244
223.51412
221.43176
219.38606
217.37766
215.40716
213.47509
211.58187
209.72778
207.91241
309.24458
306.75031
304.2369
301.70696
299.16232
296.60473
294.03598
291.45791
288.87247
286.28166
283.6875
281.09207
278.49743
275.9056
273.31858
270.73832
268.16671
265.6056
263.05679
260.52206
258.00311
255.50164
253.01931
250.55772
248.11843
245.70295
243.31271
240.9491
238.61341
236.30687
234.03064
231.78579
229.57334
227.39423
225.24933
223.13948
221.06542
219.02786
217.02746
215.06479
213.14039
211.2547
209.40797
207.59983
308.4899
306.00282
303.49715
300.97524
298.43886
295.88976
293.32971
290.76056
288.18421
285.60261
283.01776
280.43169
277.8464
275.2639
272.68618
270.11516
267.55275
265.00081
262.46115
259.93554
257.42573
254.93339
252.46018
250.0077
247.5775
245.17107
242.78984
240.43517
238.10836
235.81063
233.54312
231.30692
229.10304
226.93242
224.79595
222.69444
220.62866
218.59931
216.60704
214.65242
212.736
210.85819
209.01928
207.21892
307.76492
305.28204
302.78122
300.26448
297.73357
295.19019
292.63611
290.07315
287.50318
284.92813
282.34995
279.77062
277.19212
274.61644
272.04553
269.48132
266.92573
264.3806
261.84776
259.32901
256.82608
254.34067
251.87443
249.42897
247.00583
244.6065
242.23241
239.8849
237.56528
235.27477
233.01451
230.78558
228.58901
226.42573
224.29663
222.20254
220.1442
218.12232
216.13755
214.19047
212.28159
210.41134
208.58002
206.78733
307.10825
304.62474
302.12411
299.60812
297.07843
294.5367
291.98467
289.42414
286.85692
284.28491
281.71002
279.13417
276.55932
273.98741
271.42037
268.86013
266.30856
263.76755
261.2389
258.72442
256.22585
253.7449
251.28323
248.84243
246.42406
244.02961
241.6605
239.31811
237.0037
234.71853
232.46373
230.24039
228.04954
225.89212
223.76901
221.68104
219.62897
217.61349
215.63525
213.69481
211.79269
209.92933
208.105
206.3195
306.57079
304.07921
301.57161
299.04952
296.51451
293.96821
291.41231
288.84854
286.27868
283.70455
281.12802
278.55096
275.97527
273.40285
270.8356
268.2754
265.72413
263.18363
260.65573
258.14221
255.64481
253.16524
250.70516
248.26617
245.84982
243.45761
241.09097
238.75125
236.43977
234.15773
231.90631
229.6866
227.49961
225.34629
223.22754
221.14417
219.09695
217.08656
215.11363
213.17874
211.28238
209.42499
207.60686
205.82785
306.20311
303.69438
301.17091
298.63415
296.0856
293.52684
290.95948
288.3852
285.80572
283.22279
280.63821
278.0538
275.47139
272.89283
270.31998
267.75469
265.19879
262.65411
260.12245
257.60557
255.10522
252.62308
250.16081
247.72002
245.30224
242.90898
240.54166
238.20164
235.89022
233.60864
231.35806
229.13956
226.95416
224.80283
222.68644
220.60581
218.5617
216.55478
214.58568
212.65496
210.7631
208.91053
207.09755
205.32407
311.06406
308.55894
306.03815
303.50291
300.9545
298.39429
295.82371
293.24425
290.65747
288.06495
285.46835
282.86936
280.2697
277.67114
275.07545
272.48442
269.89987
267.3236
264.75741
262.2031
259.66244
257.13718
254.62904
252.13969
249.6708
247.22394
244.80065
242.40244
240.03072
237.68686
235.37215
233.08782
230.83503
228.61488
226.42838
224.27647
222.16005
220.0799
218.03679
216.03138
214.06428
212.13603
210.24711
208.39792
206.58876
204.8196
311.183
308.63985
306.08294
303.51336
300.93232
298.3411
295.74106
293.13362
290.52025
287.90248
285.28188
282.66009
280.03877
277.41961
274.80434
272.19471
269.59248
266.99941
264.41728
261.84786
259.29288
256.75408
254.23316
251.73179
249.25161
246.7942
244.36109
241.95377
239.57367
237.22213
234.90047
232.6099
230.35158
228.1266
225.93597
223.78064
221.66148
219.57927
217.53476
215.5286
213.56139
211.63364
209.74581
207.89829
206.09136
204.32504
311.50888
308.922
306.32321
303.71353
301.09411
298.46617
295.83099
293.18991
290.54433
287.89572
285.2456
282.59551
279.94708
277.30195
274.6618
272.02833
269.40326
266.78833
264.18528
261.59585
259.02177
256.46475
253.92649
251.40863
248.91282
246.44063
243.99359
241.57319
239.18084
236.81791
234.4857
232.18543
229.91825
227.68525
225.48744
223.32576
221.20107
219.11415
217.06573
215.05644
213.08686
211.15749
209.26876
207.42104
205.6146
203.84948
312.01075
309.3764
306.73196
304.07839
301.41677
298.74824
296.07402
293.39537
290.71365
288.03023
285.34658
282.66421
279.98466
277.30954
274.64049
271.97917
269.32728
266.68652
264.05861
261.44526
258.84821
256.26914
253.70975
251.17169
248.65658
246.16601
243.7015
241.26455
238.85659
236.47897
234.13299
231.81989
229.54082
227.29687
225.08904
222.91828
220.78542
218.69126
216.6365
214.62177
212.64762
210.71453
208.82292
206.97312
205.16538
203.39978
312.65395
309.96998
307.27768
304.57797
301.87185
299.1604
296.44475
293.7261
291.00573
288.28497
285.56521
282.84791
280.13457
277.42676
274.72607
272.03414
269.35262
266.68321
264.0276
261.38751
258.76463
256.16067
253.57731
251.0162
248.47897
245.96721
243.48246
241.02622
238.59991
236.20491
233.84254
231.51402
229.22052
226.96313
224.74286
222.56064
220.41733
218.3137
216.25045
214.22819
212.24746
210.30874
208.4124
206.55876
204.74805
202.98036
313.40581
310.67115
307.92989
305.1829
302.4311
299.67549
296.91712
294.15714
291.39673
288.63718
285.87982
283.12605
280.37734
277.6352
274.90118
272.1769
269.464
266.76413
264.07899
261.41026
258.75966
256.12887
253.51958
250.93345
248.37211
245.83717
243.33016
240.85261
238.40595
235.99157
233.6108
231.26487
228.95497
226.6822
224.44756
222.252
220.09637
217.98145
215.90792
213.87639
211.8874
209.94139
208.03874
206.17972
204.36456
202.59335
314.23827
311.45256
308.66197
305.86728
303.06935
300.26908
297.46747
294.66557
291.86451
289.06551
286.26983
283.47885
280.69396
277.91663
275.14841
272.39085
269.64558
266.91424
264.19849
261.50004
258.82057
256.16178
253.52536
250.91297
248.32625
245.76682
243.23624
240.73603
238.26766
235.83252
233.43195
231.06722
228.73951
226.44993
224.19951
221.98919
219.81984
217.69223
215.60705
213.5649
211.5663
209.61169
207.70143
205.83579
204.01495
202.23901
315.12848
312.29179
309.45194
306.60961
303.76557
300.92064
298.07574
295.23184
292.39002
289.55142
286.71725
283.88882
281.06749
278.2547
275.45193
272.66073
269.88268
267.11942
264.3726
261.6439
258.935
256.24762
253.58343
250.94411
248.33131
245.74666
243.19174
240.66808
238.17716
235.72041
233.29917
230.91472
228.56828
226.26096
223.9938
221.76776
219.58371
217.44242
215.34459
213.29082
211.28163
209.31743
207.39858
205.52533
203.69786
201.91624
316.0582
313.17091
310.28219
307.39259
304.50278
301.6135
298.72559
295.83995
292.95759
290.07958
287.20709
284.34135
281.4837
278.63551
275.79824
272.97341
270.16258
267.36735
264.58937
261.8303
259.09184
256.37568
253.68351
251.01702
248.37787
245.76768
243.18807
240.64058
238.12672
235.64791
233.20553
230.80088
228.43517
226.10956
223.82509
221.58273
219.38336
217.22776
215.11663
213.05057
211.03009
209.05562
207.12748
205.24592
203.41111
201.62309
319.94957
317.01277
314.07568
311.13874
308.20247
305.26746
302.33436
299.40395
296.47705
293.5546
290.63761
287.72719
284.82454
281.93091
279.04766
276.1762
273.31802
270.47465
267.64768
264.83874
262.04949
259.28161
256.53679
253.81673
251.12311
248.45763
245.82191
243.21757
240.64619
238.10927
235.60828
233.1446
230.71956
228.33438
225.99023
223.68817
221.42919
219.21417
217.0439
214.91909
212.84033
210.80815
208.82296
206.88507
204.99473
203.15208
201.35716
320.96836
317.98089
314.9948
312.01046
309.02829
306.04881
303.07261
300.10037
297.13287
294.17096
291.2156
288.26783
285.32881
282.39974
279.48193
276.57677
273.6857
270.81024
267.95196
265.11245
262.29338
259.49642
256.72326
253.9756
251.25514
248.56356
245.90253
243.27365
240.67853
238.1187
235.59562
233.11071
230.66531
228.26067
225.89796
223.57827
221.30258
219.0718
216.88674
214.74808
212.65645
210.61235
208.61619
206.6683
204.76889
202.9181
201.11595
321.99036
318.95324
315.91914
312.88835
309.86122
306.83816
303.81972
300.80648
297.79917
294.79856
291.80557
288.82118
285.84647
282.88263
279.93092
276.99268
274.06933
271.16235
268.2733
265.40377
262.5554
259.72986
256.92883
254.15402
251.40713
248.68985
246.00386
243.3508
240.73226
238.14979
235.6049
233.099
230.63345
228.20952
225.8284
223.49119
221.1989
218.95242
216.75259
214.60009
212.49555
210.43948
208.43228
206.47427
204.56566
202.70657
200.897
323.00772
319.92213
316.84118
313.76506
310.69402
307.62843
304.56873
301.51545
298.46924
295.43084
292.40107
289.38088
286.37131
283.37348
280.38861
277.41803
274.46311
271.52531
268.60617
265.70725
262.8302
259.97667
257.14835
254.34695
251.57417
248.8317
246.12125
243.44445
240.80293
238.19825
235.63192
233.10538
230.62001
228.1771
225.77784
223.42336
221.11467
218.85269
216.63824
214.47203
212.35468
210.2867
208.2685
206.30038
204.38255
202.51511
200.69805
327.15261
324.01381
320.88116
317.75468
314.63447
311.52073
308.41375
305.3139
302.22166
299.13759
296.06238
292.99681
289.94176
286.89822
283.86727
280.85011
277.84801
274.86232
271.89448
268.946
266.01844
263.11342
260.2326
257.37766
254.5503
251.75224
248.98519
246.25085
243.55087
240.88689
238.26049
235.67319
233.12647
230.6217
228.16019
225.74317
223.37175
221.04697
218.76975
216.54093
214.36123
212.23126
210.15154
208.12246
206.14433
204.21735
202.3416
200.51706
328.18914
325.00322
321.82499
318.6544
315.49147
312.33635
309.18924
306.05046
302.92042
299.79963
296.68872
293.58839
290.49951
287.42299
284.3599
281.31138
278.27867
275.26309
272.26607
269.28908
266.33368
263.40148
260.49412
257.61329
254.7607
251.93806
249.14709
246.38949
243.66695
240.98111
238.33355
235.72584
233.15944
230.63576
228.15612
225.72176
223.33381
220.99331
218.70121
216.45834
214.26543
212.12309
210.03185
207.99209
206.00412
204.06812
202.18418
200.35224
329.20274
325.97136
322.74914
319.53596
316.33179
313.13669
309.95081
306.77441
303.60784
300.45154
297.30609
294.17216
291.05054
287.94213
284.84793
281.76905
278.7067
275.66219
272.6369
269.6323
266.64994
263.6914
260.75833
257.85241
254.97535
252.12888
249.31471
246.53457
243.79013
241.08307
238.41499
235.78746
233.20195
230.6599
228.16264
225.71143
223.3074
220.95162
218.64503
216.38847
214.18269
212.0283
209.92581
207.87562
205.87802
203.93319
202.0412
200.20199
330.18949
326.9144
323.64987
320.39571
317.15183
313.91825
310.69504
307.48241
304.28064
301.09012
297.91139
294.74505
291.59187
288.45268
285.32847
282.2203
279.12935
276.05691
273.00434
269.97309
266.96468
263.9807
261.02279
258.09263
255.19193
252.32242
249.48582
246.68387
243.91827
241.19068
238.50274
235.85602
233.25202
230.69219
228.17786
225.71032
223.29071
220.92011
218.59947
216.32964
214.11136
211.94525
209.83183
207.7715
205.76453
203.8111
201.91126
200.06495
334.47549
331.14622
327.82921
324.52409
321.23063
317.94866
314.67814
311.4191
308.17167
304.93609
301.71271
298.50199
295.30451
292.12098
288.95221
285.79913
282.66278
279.54432
276.445
273.36617
270.30925
267.27577
264.26729
261.28545
258.33194
255.40846
252.51674
249.65853
246.83556
244.04954
241.30216
238.59505
235.92982
233.30798
230.73097
228.20018
225.71686
223.2822
220.89728
218.56306
216.28039
214.05002
211.87258
209.74858
207.6784
205.66235
203.70057
201.79311
199.93989
335.44099
332.07033
328.71325
325.36933
322.03827
318.71987
315.41401
312.12067
308.83993
305.57198
302.31711
299.07574
295.84843
292.63581
289.43867
286.25791
283.09454
279.94969
276.82458
273.72054
270.63899
267.58143
264.54943
261.54461
258.56866
255.62329
252.71024
249.83125
246.98806
244.18241
241.41599
238.69046
236.00742
233.3684
230.77487
228.22821
225.72971
223.28055
220.88183
218.53452
216.23947
213.99745
211.80907
209.67484
207.59518
205.57033
203.60048
201.68566
199.82575
336.36988
332.95978
329.56452
326.18361
322.81671
319.46355
316.12397
312.7979
309.48536
306.18649
302.90155
299.63091
296.37507
293.13466
289.9104
286.70318
283.51396
280.34386
277.19407
274.06592
270.96079
267.88017
264.82564
261.79882
258.80137
255.83503
252.90153
250.00262
247.14006
244.31559
241.53091
238.78769
236.08756
233.43206
230.82267
228.26078
225.7477
223.28462
220.87264
218.51275
216.2058
213.95256
211.75366
209.6096
207.52079
205.48748
203.50984
201.58791
199.72158
337.26067
333.8131
330.38154
326.96546
323.56447
320.17824
316.80658
313.44934
310.10653
306.77822
303.46463
300.1661
296.88309
293.61617
290.36606
287.1336
283.91973
280.72554
277.55221
274.40103
271.27339
268.17077
265.09472
262.04687
259.0289
256.04251
253.08947
250.17152
247.29043
244.44796
241.64581
238.88568
236.16919
233.49791
230.87334
228.29687
225.76982
223.2934
220.86872
218.49677
216.17842
213.91443
211.70543
209.55194
207.45433
205.4129
203.42777
201.499
199.62649
338.11233
334.62924
331.16326
327.71383
324.28049
320.86289
317.46076
314.07394
310.70237
307.3461
304.0053
300.68026
297.37141
294.0793
290.80461
287.54814
284.31082
281.0937
277.89796
274.72486
271.57579
268.45221
265.35567
262.28779
259.25025
256.24476
253.27308
250.33698
247.43822
244.57858
241.75977
238.98349
236.2514
233.56506
230.92599
228.33559
225.7952
223.30604
220.86923
218.48575
216.15649
213.88222
211.66356
209.50103
207.39501
205.34578
203.35347
201.4181
199.53957
197.71764
338.92427
335.40757
331.90903
328.42803
324.96408
321.51677
318.0858
314.67096
311.27214
307.88937
304.52277
301.17261
297.83926
294.52326
291.22524
287.94599
284.68641
281.44754
278.23052
275.03661
271.86718
268.72369
265.60768
262.52076
259.46462
256.44097
253.45158
250.49821
247.58264
244.70666
241.87199
239.08035
236.3334
233.63272
230.97984
228.37618
225.82308
223.32178
220.87339
218.47892
216.13927
213.85518
211.62731
209.45615
207.3421
205.28542
203.28623
201.34456
199.46028
197.63309
339.69621
336.14781
332.61853
329.10773
325.61486
322.13949
318.68127
315.23994
311.81538
308.40755
305.01656
301.64263
298.28611
294.94749
291.6274
288.32659
285.04594
281.78646
278.54929
275.33567
272.14695
268.98459
265.85012
262.74516
259.67138
256.63051
253.6243
250.65455
247.72304
244.83155
241.98182
239.1756
236.41453
233.70024
231.03423
228.41797
225.85279
223.33995
220.88056
218.47564
216.12609
213.83267
211.59603
209.41666
207.29496
205.23117
203.22544
201.27775
199.38798
197.55584
340.42825
336.84998
333.29175
329.75287
326.23275
322.73093
319.24701
315.78072
312.33187
308.9004
305.4864
302.09003
298.71164
295.35168
292.01074
288.68957
285.38901
282.11007
278.85385
275.6216
272.41465
269.23444
266.08252
262.96049
259.87002
256.81285
253.79075
250.80549
247.85888
244.9527
242.08872
239.26867
236.49424
233.76704
231.0886
228.46039
225.88376
223.35997
220.89014
218.47532
216.11638
213.8141
211.56913
209.38197
207.253
205.18247
203.1705
201.2171
199.32212
197.48528
341.1207
337.51436
333.92892
330.36364
326.81789
323.29119
319.7831
316.29331
312.8216
309.36789
305.93221
302.51472
299.11573
295.73566
292.37509
289.03472
285.7154
282.41811
279.14394
275.89411
272.66996
269.47293
266.30454
263.1664
260.06018
256.98763
253.9505
250.9506
247.98973
245.06968
242.19223
239.35912
236.57206
233.83265
231.14246
228.50295
225.91549
223.38134
220.90164
218.47744
216.10961
213.79895
211.54609
209.35154
207.21569
205.13877
203.1209
201.16208
199.26216
197.42085
341.77413
338.14147
334.5305
330.94044
327.37065
323.82059
320.2898
316.77794
313.28476
309.81015
306.35411
302.91678
299.49842
296.09944
292.72041
289.362
286.02503
282.71048
279.41941
276.15305
272.91272
269.69984
266.51595
263.36264
260.2416
257.15455
254.10328
251.08958
248.11527
245.18214
242.29199
239.44658
236.64759
233.89668
231.1954
228.54523
225.94755
223.40362
220.91461
218.48155
216.10533
213.78675
211.52644
209.32492
207.18256
205.0996
203.07616
201.11221
199.20762
197.36209
342.3893
338.732
335.09712
331.48386
327.89154
324.3196
320.76754
317.235
313.7217
310.2275
306.75237
303.29641
299.85989
296.44319
293.04683
289.67149
286.31796
282.9872
279.68028
276.3984
273.14286
269.91511
266.71665
263.54909
260.41411
257.31345
254.24887
251.2222
248.23525
245.28983
242.38774
239.53074
236.72054
233.9588
231.24708
228.58688
225.97958
223.42645
220.92866
218.48725
216.10314
213.77709
211.50977
209.30167
207.15317
205.06452
203.03582
201.06704
199.15805
197.30852
342.9671
339.28679
335.62958
331.99462
328.38125
324.78884
321.2169
317.66502
314.13289
310.62035
307.12736
303.65398
300.20046
296.76716
293.35458
289.96338
286.59435
283.24841
279.92663
276.6302
273.36042
270.11872
266.90661
263.72569
260.57764
257.46421
254.38716
251.34832
248.34951
245.39255
242.47925
239.61138
236.79066
234.01875
231.29723
228.62761
226.01126
223.44949
220.94346
218.49421
216.10267
213.76961
211.49569
209.28141
207.12715
205.03314
202.99949
201.02617
199.11303
197.25974
343.50857
339.80681
336.12877
332.47359
328.84056
325.22906
321.63855
318.06861
314.51891
310.98926
307.47958
303.98993
300.52053
297.07172
293.64399
290.23797
286.85444
283.49431
280.15864
276.84861
273.56551
270.31077
267.08589
263.89247
260.7322
257.60681
254.51809
251.46786
248.45795
245.49019
242.56639
239.68834
236.85776
234.07632
231.34562
228.66717
226.04235
223.47248
220.95871
218.50212
216.10361
213.76398
211.48387
209.26379
207.10412
205.00509
202.96681
200.98922
199.07219
197.21537
344.01485
340.29315
336.59571
332.92169
329.27036
325.64108
322.03328
318.44652
314.88044
311.33483
307.8096
304.30479
300.82059
297.35732
293.91545
290.49561
287.09856
283.7252
280.37658
277.05385
273.75833
270.49141
267.25461
264.04952
260.87784
257.74129
254.64167
251.5808
248.56052
245.58266
242.64906
239.76149
236.9217
234.13136
231.39208
228.70536
226.07263
223.49518
220.97419
218.51072
216.1057
213.75991
211.47401
209.24851
207.08378
204.98006
202.93743
200.95586
199.03518
197.17505
344.48715
340.74694
337.03149
333.33996
329.67162
326.0258
322.40193
318.79952
315.21822
311.65778
308.11809
304.59917
301.10119
297.62447
294.16945
290.73675
287.32712
283.94144
280.58075
277.24621
273.93911
270.66086
267.41295
264.197
261.01468
257.86773
254.75795
251.68717
248.65723
245.66996
242.72722
239.83077
236.98239
234.18375
231.43646
228.74205
226.10192
223.5174
220.98967
218.51978
216.10868
213.75716
211.46585
209.23529
207.06584
204.95773
202.91105
200.92576
199.00168
197.13846
344.92679
341.16942
337.43725
333.72947
330.04535
326.38419
322.74541
319.12849
315.53305
311.95884
308.40573
304.87371
301.36295
297.87373
294.40651
290.96187
287.54054
284.14342
280.77153
277.42601
274.10816
270.81937
267.56115
264.3351
261.14289
257.98628
254.86705
251.78705
248.74812
245.75211
242.80085
239.89616
237.03978
234.23342
231.47868
228.7771
226.1301
223.53899
221.00498
218.52913
216.11237
213.75549
211.45916
209.22389
207.05004
204.93785
202.8874
200.89864
198.9714
197.1053
356.82052
352.96337
349.13517
345.3352
341.56183
337.81415
334.09134
330.3926
326.71725
323.06465
319.43429
315.82578
312.23882
308.67327
305.12912
301.60652
298.10573
294.62719
291.17148
287.73933
284.33161
280.94932
277.59363
274.26581
270.96726
267.69947
264.46405
261.26267
258.09709
254.96911
251.88055
248.83328
245.82915
242.87001
239.95765
237.09386
234.28032
231.51867
228.81043
226.15705
223.55983
221.01999
218.53859
216.11657
213.75474
211.45374
209.21409
207.03616
204.92017
202.86622
200.87425
198.94407
197.0753
361.14981
357.24597
353.37273
349.52892
345.71358
341.92541
338.1634
334.42669
330.71447
327.02599
323.36064
319.71787
316.09726
312.49852
308.92148
305.36613
301.83258
298.3211
294.8321
291.36616
287.92399
284.50646
281.11458
277.74948
274.41243
271.10484
267.82821
264.58412
261.37426
258.20038
255.06429
251.96782
248.91283
245.90119
242.93473
240.01529
237.14462
234.32444
231.55639
228.84199
226.18269
223.57981
221.03457
218.54804
216.12115
213.75471
211.44938
209.20568
207.02397
204.90448
202.84729
200.85235
198.91945
197.04821
361.55818
357.63898
353.75088
349.89265
346.06323
342.26142
338.48622
334.7367
331.01203
327.31147
323.63437
319.98015
316.3484
312.7388
309.15117
305.58548
302.04184
298.52049
295.02185
291.54648
288.09507
284.6685
281.26775
277.89397
274.54842
271.23249
267.94768
264.6956
261.47791
258.29637
255.1528
252.04902
248.9869
245.96832
242.99512
240.06912
237.19211
234.3658
231.59182
228.87173
226.20697
223.59887
221.04863
218.55735
216.12597
213.75528
211.44596
209.19851
207.01331
204.89058
202.8304
200.83271
198.89731
197.02379
361.93428
358.00102
354.09927
350.22779
346.38545
342.57113
338.7838
335.02251
331.28641
327.57474
323.88682
320.22209
316.58009
312.9605
309.36313
305.78794
302.23501
298.70459
295.19708
291.71302
288.25312
284.81822
281.40932
278.02755
274.67417
271.35057
268.05825
264.7988
261.5739
258.38531
255.23484
252.12433
249.05565
246.03068
243.05126
240.11923
237.23638
234.40442
231.62499
228.89965
226.22986
223.61693
221.0621
218.56645
216.13092
213.75632
211.44331
209.19241
207.00399
204.87828
202.81536
200.81515
198.87744
197.00184
362.27975
358.33362
354.41938
350.53574
346.68159
342.85581
339.05736
335.28528
331.5387
327.81684
324.11901
320.44463
316.79323
313.16449
309.55819
305.97427
302.41282
298.87408
295.35843
291.86641
288.39871
284.95618
281.53979
278.15069
274.79012
271.45947
268.16025
264.89404
261.66252
258.46746
255.31066
252.19397
249.11927
246.08842
243.10329
240.16573
237.2775
234.44035
231.65591
228.92576
226.25133
223.63398
221.07493
218.57525
216.13591
213.75771
211.44132
209.18726
206.99589
204.86744
202.80199
200.79947
198.85967
196.98215
362.59619
358.6383
354.71263
350.8179
346.95296
343.11671
339.30809
335.52615
331.76999
328.03882
324.33193
320.64872
316.98873
313.35161
309.73714
306.14524
302.57601
299.02965
295.50655
292.00725
288.53241
285.08289
281.65965
278.26384
274.89669
271.5596
268.25406
264.98166
261.74408
258.54309
255.3805
252.25815
249.17792
246.1417
243.15135
240.2087
237.31556
234.47365
231.68463
228.95006
226.2714
223.64999
221.08706
218.58371
216.14088
213.75938
211.43989
209.18292
206.98885
204.8579
202.79015
200.78552
198.8438
196.96456
362.88513
358.91653
354.98045
351.0756
347.20084
343.35506
339.53719
335.74626
331.98137
328.2417
324.52654
320.8353
317.16747
313.52271
309.90079
306.30162
302.72528
299.17198
295.64209
292.13613
288.65479
285.19889
281.76941
278.36747
274.99433
271.65135
268.34004
265.06199
261.81889
258.61249
255.44461
252.31709
249.23183
246.19069
243.19557
240.24829
237.35066
234.5044
231.71119
228.97259
226.29006
223.66495
221.09849
218.59177
216.14575
213.76125
211.43893
209.17931
206.98277
204.84954
202.77968
200.77314
198.8297
196.9489
363.14808
359.16975
355.22421
351.31019
347.42651
343.57207
339.74579
335.9467
332.17387
328.42649
324.70383
321.00527
317.33033
313.67862
310.04993
306.44415
302.86135
299.30174
295.76568
292.25368
288.76642
285.30472
281.86956
278.46206
275.08345
271.73513
268.41858
265.13539
261.88726
258.67594
255.50324
252.37103
249.28118
246.23558
243.23611
240.28461
237.38289
234.53269
231.73567
228.9934
226.30734
223.67886
221.10919
218.59941
216.15049
213.76325
211.43835
209.17633
206.97755
204.84223
202.77047
200.7622
198.81719
196.93501
363.38651
359.39936
355.44527
351.52294
347.63119
343.76892
339.93503
336.12855
332.34854
328.59418
324.86472
321.15955
317.47815
313.82016
310.18534
306.57358
302.98493
299.4196
295.87795
292.36048
288.86786
285.40091
281.9606
278.54805
275.1645
271.81133
268.49003
265.20219
261.9495
258.73372
255.55666
252.42019
249.32618
246.27654
243.27313
240.31781
237.41239
234.5586
231.75812
229.01253
226.32328
223.69175
221.11915
218.6066
216.15506
213.76533
211.4381
209.17389
206.97308
204.83589
202.7624
200.75256
198.80616
196.92275
363.6018
359.60671
355.64491
351.71509
347.81608
343.94674
340.10601
336.29286
332.50638
328.74572
325.01013
321.29899
317.61178
313.94813
310.30777
306.69061
303.09669
299.52621
295.97951
292.4571
288.95965
285.48797
282.04302
278.62592
275.2379
271.88036
268.55477
265.26273
262.00593
258.78612
255.60512
252.46481
249.36705
246.31375
243.30679
240.34802
237.43925
234.58224
231.77864
229.03004
226.33791
223.70362
221.12839
218.61334
216.15942
213.76745
211.43812
209.17194
206.96929
204.8304
202.75536
200.74411
198.79645
196.91199
363.79534
359.79312
355.8244
351.88786
347.98233
344.10665
340.25976
336.44064
332.64835
328.88203
325.14095
321.42445
317.73203
314.06329
310.41797
306.79596
303.19731
299.6222
296.07097
292.54413
289.04233
285.5664
282.11728
278.69609
275.30407
271.9426
268.61316
265.31734
262.05684
258.83342
255.64889
252.50512
249.40399
246.34741
243.33725
240.37539
237.46361
234.60369
231.79729
229.04599
226.35127
223.7145
221.13691
218.61961
216.16356
213.76958
211.43835
209.1704
206.9661
204.82569
202.74925
200.73674
198.78796
196.90259
363.96841
359.95983
355.98493
352.0424
348.13104
344.24971
340.39733
336.57287
332.77539
329.00403
325.25803
321.53676
317.83967
314.16639
310.51663
306.8903
303.28742
299.70817
296.1529
292.6221
289.11643
285.63669
282.18385
278.75901
275.36341
271.99842
268.66554
265.36636
262.10256
258.8759
255.68821
252.54135
249.43721
246.37769
243.36469
240.40004
237.48559
234.62307
231.81416
229.06045
226.36342
223.72443
221.14473
218.62541
216.16746
213.77168
211.43876
209.16923
206.96346
204.82168
202.744
200.73035
198.78057
196.89438
364.12228
360.10804
356.12767
352.17981
348.26328
344.37693
340.51968
336.69048
332.8884
329.11256
325.36221
321.63668
317.93546
314.25814
310.60446
306.97428
303.36765
299.78473
296.22587
292.69155
289.18243
285.69932
282.24317
278.81509
275.41631
272.04821
268.71227
265.41009
262.14336
258.91383
255.72333
252.57373
249.46691
246.40479
243.38924
240.42214
237.50529
234.64047
231.82933
229.07348
226.37439
223.73343
221.15185
218.63075
216.17111
213.77373
211.43931
209.16837
206.9613
204.81831
202.73951
200.72485
198.77416
196.88715
195.0635
364.25813
360.23892
356.25371
352.30116
348.38007
344.4893
340.62775
336.79438
332.98824
329.20845
325.45426
321.72499
318.02013
314.33925
310.6821
307.04854
303.43859
299.85244
296.29041
292.75299
289.24084
285.75475
282.29568
278.86474
275.46316
272.09231
268.75367
265.44885
262.17953
258.94746
255.75449
252.60247
249.49329
246.42886
243.41108
240.44181
237.52286
234.65599
231.84289
229.08515
226.38425
223.74155
221.15832
218.63564
216.1745
213.77572
211.43998
209.1678
206.95957
204.81552
202.73573
200.72017
198.76866
196.88091
195.05639
364.37712
360.35355
356.36411
352.40746
348.48239
344.58775
340.72245
336.88543
333.07574
329.2925
325.53495
321.80241
318.09436
314.41037
310.75019
307.11366
303.50082
299.91184
296.34704
292.80691
289.2921
285.80341
282.3418
278.90835
275.50431
272.13105
268.79006
265.48293
262.21134
258.97706
255.78192
252.62778
249.51654
246.4501
243.43036
240.45918
237.53839
234.66974
231.85492
229.09552
226.39304
223.74883
221.16414
218.64009
216.17764
213.77763
211.44073
209.16747
206.95823
204.81324
202.7326
200.71625
198.764
196.87558
195.05044
364.48032
360.45299
356.45989
352.49968
348.57116
344.67318
340.80462
336.96445
333.15168
329.36546
325.60499
321.86963
318.15881
314.47214
310.80932
307.17024
303.55489
299.96345
296.39626
292.85378
289.33667
285.84573
282.3819
278.94629
275.54013
272.16478
268.82175
265.51261
262.23906
259.00286
255.80584
252.64987
249.53683
246.46865
243.44721
240.47439
237.552
234.68181
231.8655
229.10467
226.40081
223.75529
221.16935
218.6441
216.18053
213.77945
211.44155
209.16735
206.95724
204.81144
202.73005
200.71301
198.76013
196.87111
195.04539
193.28238
364.56877
360.53821
356.54198
352.57873
348.64726
344.74641
340.87508
337.03221
333.21682
329.42804
325.66509
321.9273
318.21413
314.52515
310.86009
307.21881
303.60131
300.00778
296.43853
292.89405
289.37498
285.8821
282.41638
278.97892
275.57094
272.19381
268.84902
265.53817
262.26295
259.0251
255.82647
252.66893
249.55436
246.48469
243.4618
240.48756
237.56381
234.6923
231.87472
229.11266
226.40762
223.76097
221.17396
218.6477
216.18316
213.78117
211.44242
209.16742
206.95656
204.81007
202.72804
200.71041
198.75698
196.86743
195.04125
193.27762
364.64344
360.61017
356.61131
352.64549
348.71153
344.80827
340.9346
337.08946
333.27186
329.48093
325.71588
321.97605
318.26089
314.56998
310.90302
307.25989
303.6406
300.0453
296.47432
292.92815
289.40741
285.91292
282.4456
279.00657
275.59706
272.21843
268.87217
265.55988
262.28323
259.044
255.84402
252.68515
249.56929