/*--------------------------------*- C++ -*----------------------------------*\
| =========                 |                                                 |
| \\      /  F ield         | OpenFOAM: The Open Source CFD Toolbox           |
|  \\    /   O peration     | Version:  2312                                  |
|   \\  /    A nd           | Website:  www.openfoam.com                      |
|    \\/     M anipulation  |                                                 |
\*---------------------------------------------------------------------------*/
FoamFile
{
    version     2.0;
    format      ascii;
    arch        "LSB;label=32;scalar=64";
    class       surfaceScalarField;
    location    "0.06";
    object      phi;
}
// * * * * * * * * * * * * * * * * * * * * * * * * * * * * * * * * * * * * * //

dimensions      [1 0 -1 0 0 0 0];

oriented        oriented;

internalField   nonuniform List<scalar> 
6378
(
8.3932774e-08
-1.7954873e-07
8.2916064e-08
-1.7854234e-07
8.192092e-08
-1.7746941e-07
8.0938126e-08
-1.7633062e-07
7.9963145e-08
-1.7512805e-07
7.8995179e-08
-1.7386461e-07
7.803565e-08
-1.7254333e-07
7.7086875e-08
-1.7116713e-07
7.6151125e-08
-1.6973876e-07
7.5230066e-08
-1.6826085e-07
7.43245e-08
-1.6673601e-07
7.3434372e-08
-1.6516693e-07
7.2558949e-08
-1.635564e-07
7.169716e-08
-1.6190741e-07
7.0847978e-08
-1.6022311e-07
7.0010804e-08
-1.5850678e-07
6.9185766e-08
-1.5676174e-07
6.8373896e-08
-1.5499128e-07
6.7577156e-08
-1.5319857e-07
6.679833e-08
-1.5138654e-07
6.6040798e-08
-1.495579e-07
6.5308237e-08
-1.4771508e-07
6.460429e-08
-1.4586023e-07
6.3932251e-08
-1.4399523e-07
6.3294787e-08
-1.421218e-07
6.269373e-08
-1.4024144e-07
6.2129948e-08
-1.3835558e-07
6.1603283e-08
-1.3646555e-07
6.1112573e-08
-1.345727e-07
6.0655718e-08
-1.3267832e-07
6.0229795e-08
-1.3078375e-07
5.9831189e-08
-1.2889033e-07
5.9455746e-08
-1.2699939e-07
5.9098909e-08
-1.2511224e-07
5.8755859e-08
-1.2323017e-07
5.8421629e-08
-1.2135442e-07
5.8091202e-08
-1.1948617e-07
5.775952e-08
-1.1762659e-07
5.7421413e-08
-1.1577681e-07
5.7071327e-08
-1.13938e-07
5.670294e-08
-1.1211142e-07
5.6308786e-08
-1.1029868e-07
5.5880202e-08
-1.0850235e-07
-1.0672637e-07
8.7998703e-08
-1.408548e-07
8.6784513e-08
-1.4017166e-07
8.5594939e-08
-1.3943274e-07
8.4421054e-08
-1.3864059e-07
8.3258845e-08
-1.3779762e-07
8.2107867e-08
-1.3690621e-07
8.0969611e-08
-1.3596867e-07
7.9846282e-08
-1.3498728e-07
7.8740004e-08
-1.3396423e-07
7.765236e-08
-1.3290166e-07
7.6584179e-08
-1.3180173e-07
7.5535536e-08
-1.3066666e-07
7.4505904e-08
-1.294988e-07
7.3494433e-08
-1.283006e-07
7.2500267e-08
-1.2707466e-07
7.152287e-08
-1.2582364e-07
7.0562279e-08
-1.2455024e-07
6.961926e-08
-1.2325711e-07
6.8695336e-08
-1.2194679e-07
6.7792707e-08
-1.2062168e-07
6.6914057e-08
-1.1928397e-07
6.6062317e-08
-1.1793565e-07
6.524038e-08
-1.165785e-07
6.4450838e-08
-1.1521413e-07
6.3695746e-08
-1.13844e-07
6.2976443e-08
-1.1246943e-07
6.2293439e-08
-1.110917e-07
6.1646365e-08
-1.0971201e-07
6.1033984e-08
-1.0833155e-07
6.0454255e-08
-1.0695149e-07
5.9904425e-08
-1.0557301e-07
5.9381146e-08
-1.0419724e-07
5.888061e-08
-1.0282534e-07
5.8398663e-08
-1.0145836e-07
5.793095e-08
-1.0009735e-07
5.7472999e-08
-9.8743252e-08
5.702032e-08
-9.7396998e-08
5.6568398e-08
-9.6059456e-08
5.6112597e-08
-9.473151e-08
5.564785e-08
-9.3414057e-08
5.5168167e-08
-9.2108094e-08
5.4666035e-08
-9.0814771e-08
5.4132196e-08
-8.9535473e-08
-8.8271604e-08
9.7686262e-08
-1.1262233e-07
9.6156564e-08
-1.1203229e-07
9.4653144e-08
-1.1139832e-07
9.3169302e-08
-1.1072393e-07
9.170207e-08
-1.1001177e-07
9.0251285e-08
-1.0926406e-07
8.8818316e-08
-1.0848281e-07
8.7405104e-08
-1.0767001e-07
8.6013538e-08
-1.0682757e-07
8.4645094e-08
-1.059574e-07
8.3300663e-08
-1.0506144e-07
8.1980535e-08
-1.0414166e-07
8.0684513e-08
-1.032001e-07
7.9412103e-08
-1.0223891e-07
7.816276e-08
-1.0126026e-07
7.6936124e-08
-1.0026638e-07
7.5732223e-08
-9.9259484e-08
7.4551585e-08
-9.8241724e-08
7.3395282e-08
-9.7215151e-08
7.226486e-08
-9.6181689e-08
7.1162219e-08
-9.5143105e-08
7.0089418e-08
-9.4101015e-08
6.9048477e-08
-9.3056886e-08
6.8041164e-08
-9.2012056e-08
6.7068821e-08
-9.0967754e-08
6.6132219e-08
-8.9925128e-08
6.5231467e-08
-8.8885267e-08
6.4365972e-08
-8.7849217e-08
6.3534445e-08
-8.6818e-08
6.2734942e-08
-8.5792613e-08
6.1964943e-08
-8.4774029e-08
6.1221444e-08
-8.3763173e-08
6.050106e-08
-8.2760927e-08
5.9800137e-08
-8.1768092e-08
5.9114848e-08
-8.0785397e-08
5.8441293e-08
-7.9813482e-08
5.7775559e-08
-7.8852932e-08
5.7113716e-08
-7.7904269e-08
5.6451704e-08
-7.6968014e-08
5.5785043e-08
-7.6044678e-08
5.5108359e-08
-7.5134809e-08
5.4414875e-08
-7.4238933e-08
5.3696517e-08
-7.3357444e-08
-7.2490326e-08
1.0980678e-07
-9.4645845e-08
1.0794005e-07
-9.3974973e-08
1.0609879e-07
-9.3270412e-08
1.0427907e-07
-9.2536025e-08
1.0247936e-07
-9.1774632e-08
1.0069998e-07
-9.0988536e-08
9.8942292e-08
-9.0179815e-08
9.7208027e-08
-8.9350466e-08
9.5498894e-08
-8.8502438e-08
9.3816292e-08
-8.7637673e-08
9.2161202e-08
-8.6758115e-08
9.0534153e-08
-8.5865739e-08
8.8935295e-08
-8.4962541e-08
8.7364519e-08
-8.4050545e-08
8.5821624e-08
-8.313178e-08
8.4306477e-08
-8.2208257e-08
8.2819155e-08
-8.1281932e-08
8.1360036e-08
-8.0354686e-08
7.9929824e-08
-7.9428287e-08
7.852952e-08
-7.8504384e-08
7.7160337e-08
-7.7584492e-08
7.5823574e-08
-7.6670004e-08
7.4520472e-08
-7.5762191e-08
7.3252073e-08
-7.4862228e-08
7.2019087e-08
-7.3971204e-08
7.0821791e-08
-7.3090139e-08
6.9659959e-08
-7.2220003e-08
6.853283e-08
-7.1361721e-08
6.7439105e-08
-7.051618e-08
6.6376982e-08
-6.9684225e-08
6.5344206e-08
-6.8866649e-08
6.4338145e-08
-6.8064182e-08
6.3355862e-08
-6.7277473e-08
6.2394214e-08
-6.6507072e-08
6.1449928e-08
-6.5753435e-08
6.0519683e-08
-6.5016905e-08
5.9600158e-08
-6.4297747e-08
5.868804e-08
-6.359615e-08
5.7779916e-08
-6.2912266e-08
5.6872033e-08
-6.2246209e-08
5.5959917e-08
-6.1598063e-08
5.5038012e-08
-6.0967798e-08
5.4099937e-08
-6.0355083e-08
-5.9759026e-08
1.2215271e-07
-8.4811278e-08
1.1998407e-07
-8.397916e-08
1.1783825e-07
-8.3120042e-08
1.1571381e-07
-8.2237827e-08
1.1361064e-07
-8.1335473e-08
1.1152961e-07
-8.0415481e-08
1.0947216e-07
-7.9480148e-08
1.0743995e-07
-7.8531688e-08
1.0543455e-07
-7.757227e-08
1.0345735e-07
-7.6604046e-08
1.0150942e-07
-7.5629158e-08
9.9591502e-08
-7.4649749e-08
9.7704059e-08
-7.3667952e-08
9.5847314e-08
-7.2685883e-08
9.4021377e-08
-7.170562e-08
9.2226334e-08
-7.0729181e-08
9.046235e-08
-6.9758499e-08
8.8729722e-08
-6.8795408e-08
8.7028912e-08
-6.7841619e-08
8.536053e-08
-6.6898725e-08
8.372528e-08
-6.596819e-08
8.212389e-08
-6.5051368e-08
8.0557012e-08
-6.4149505e-08
7.9025133e-08
-6.3263755e-08
7.7528486e-08
-6.2395198e-08
7.6066979e-08
-6.1544844e-08
7.4640146e-08
-6.0713645e-08
7.324712e-08
-5.9902496e-08
7.1886636e-08
-5.911224e-08
7.0557046e-08
-5.8343651e-08
6.9256363e-08
-5.7597434e-08
6.7982307e-08
-5.6874202e-08
6.6732374e-08
-5.6174465e-08
6.5503903e-08
-5.5498617e-08
6.4294142e-08
-5.4846929e-08
6.3100323e-08
-5.421955e-08
6.1919702e-08
-5.3616523e-08
6.0749568e-08
-5.3037793e-08
5.9587174e-08
-5.2483239e-08
5.842956e-08
-5.1952671e-08
5.7273272e-08
-5.1445818e-08
5.6114117e-08
-5.0962241e-08
5.4947461e-08
-5.0501135e-08
-5.0061092e-08
1.3344564e-07
-8.0448182e-08
1.3102926e-07
-7.9452055e-08
1.2863239e-07
-7.8431951e-08
1.2625548e-07
-7.7391614e-08
1.2389953e-07
-7.6334081e-08
1.2156589e-07
-7.5262039e-08
1.1925612e-07
-7.417803e-08
1.1697183e-07
-7.3084523e-08
1.1471457e-07
-7.1983948e-08
1.1248571e-07
-7.0878719e-08
1.102864e-07
-6.9771231e-08
1.0811755e-07
-6.866386e-08
1.0597985e-07
-6.7558955e-08
1.0387378e-07
-6.6458817e-08
1.0179967e-07
-6.5365686e-08
9.97578e-08
-6.4281719e-08
9.7748415e-08
-6.3208971e-08
9.5771788e-08
-6.2149382e-08
9.3828235e-08
-6.1104768e-08
9.191811e-08
-6.0076821e-08
9.0041782e-08
-5.9067114e-08
8.8199588e-08
-5.8077102e-08
8.6391779e-08
-5.7108143e-08
8.4618459e-08
-5.6161499e-08
8.2879531e-08
-5.5238355e-08
8.1174653e-08
-5.4339817e-08
7.9503203e-08
-5.3466924e-08
7.7864261e-08
-5.2620642e-08
7.6256614e-08
-5.1801865e-08
7.4678764e-08
-5.1011402e-08
7.312896e-08
-5.024997e-08
7.1605236e-08
-4.9518176e-08
7.0105464e-08
-4.8816509e-08
6.8627405e-08
-4.8145322e-08
6.7168771e-08
-4.7504835e-08
6.5727283e-08
-4.6895127e-08
6.4300712e-08
-4.6316155e-08
6.2886904e-08
-4.5767763e-08
6.1483732e-08
-4.5249695e-08
6.0088989e-08
-4.4761599e-08
5.8700198e-08
-4.4303011e-08
5.731448e-08
-4.3873266e-08
5.5928806e-08
-4.3471319e-08
-4.3095538e-08
1.4317607e-07
-7.9208813e-08
1.4056267e-07
-7.8088279e-08
1.3796565e-07
-7.6944198e-08
1.353868e-07
-7.5780084e-08
1.3282786e-07
-7.4598903e-08
1.302905e-07
-7.3403448e-08
1.277764e-07
-7.2196427e-08
1.2528715e-07
-7.0980502e-08
1.2282427e-07
-6.9758307e-08
1.2038914e-07
-6.8532459e-08
1.1798296e-07
-6.7305557e-08
1.1560675e-07
-6.6080173e-08
1.1326133e-07
-6.4858844e-08
1.1094736e-07
-6.364405e-08
1.0866534e-07
-6.24382e-08
1.0641566e-07
-6.1243615e-08
1.0419864e-07
-6.006251e-08
1.0201456e-07
-5.8896984e-08
9.986363e-08
-5.7749017e-08
9.7746074e-08
-5.6620467e-08
9.5662045e-08
-5.5513074e-08
9.3611633e-08
-5.4428467e-08
9.1594832e-08
-5.3368174e-08
8.9611497e-08
-5.2333629e-08
8.7661321e-08
-5.1326178e-08
8.5743801e-08
-5.0347084e-08
8.3858222e-08
-4.939753e-08
8.2003645e-08
-4.8478615e-08
8.0178912e-08
-4.7591351e-08
7.8382654e-08
-4.6736654e-08
7.6613318e-08
-4.5915331e-08
7.4869198e-08
-4.5128072e-08
7.3148471e-08
-4.4375437e-08
7.1449255e-08
-4.3657844e-08
6.9769644e-08
-4.2975568e-08
6.8107767e-08
-4.232874e-08
6.6461839e-08
-4.1717352e-08
6.483018e-08
-4.114127e-08
6.3211193e-08
-4.0600247e-08
6.1603329e-08
-4.0093916e-08
6.000497e-08
-3.9621771e-08
5.8414366e-08
-3.9183098e-08
5.6829876e-08
-3.8776815e-08
-3.8401298e-08
1.5129416e-07
-7.9408762e-08
1.4852346e-07
-7.8215223e-08
1.4576675e-07
-7.6997413e-08
1.4302656e-07
-7.5758413e-08
1.4030506e-07
-7.4501057e-08
1.3760413e-07
-7.3228134e-08
1.3492545e-07
-7.1942423e-08
1.3227064e-07
-7.0646667e-08
1.2964119e-07
-6.9343601e-08
1.2703847e-07
-6.8035944e-08
1.2446372e-07
-6.6726398e-08
1.21918e-07
-6.5417639e-08
1.1940224e-07
-6.4112309e-08
1.1691717e-07
-6.2812993e-08
1.144634e-07
-6.152221e-08
1.1204142e-07
-6.0242392e-08
1.0965158e-07
-5.8975878e-08
1.0729416e-07
-5.7724893e-08
1.0496935e-07
-5.6491559e-08
1.0267729e-07
-5.5277879e-08
1.00418e-07
-5.4085749e-08
9.8191424e-08
-5.2916958e-08
9.5997404e-08
-5.1773196e-08
9.3835646e-08
-5.0656058e-08
9.1705713e-08
-4.9567049e-08
8.9607007e-08
-4.8507585e-08
8.7538764e-08
-4.7478998e-08
8.5500044e-08
-4.6482529e-08
8.3489744e-08
-4.5519323e-08
8.1506603e-08
-4.4590423e-08
7.9549225e-08
-4.3696763e-08
7.7616108e-08
-4.2839151e-08
7.5705678e-08
-4.2018267e-08
7.3816329e-08
-4.1234651e-08
7.1946467e-08
-4.0488697e-08
7.0094558e-08
-3.9780659e-08
6.8259165e-08
-3.9110646e-08
6.643899e-08
-3.8478642e-08
6.4632879e-08
-3.7884496e-08
6.2839814e-08
-3.7327934e-08
6.1058874e-08
-3.6808529e-08
5.9289235e-08
-3.632565e-08
5.7530365e-08
-3.5878328e-08
-3.5465121e-08
1.5794714e-07
-8.001786e-08
1.5504865e-07
-7.879703e-08
1.5216266e-07
-7.7550794e-08
1.4929199e-07
-7.6281774e-08
1.464389e-07
-7.4992732e-08
1.436053e-07
-7.3686439e-08
1.4079291e-07
-7.2365653e-08
1.3800331e-07
-7.1033111e-08
1.3523797e-07
-6.9691543e-08
1.3249826e-07
-6.8343664e-08
1.2978542e-07
-6.6992178e-08
1.2710055e-07
-6.5639765e-08
1.2444461e-07
-6.4289074e-08
1.218184e-07
-6.2942704e-08
1.1922258e-07
-6.1603197e-08
1.1665769e-07
-6.0273019e-08
1.1412412e-07
-5.8954551e-08
1.1162216e-07
-5.7650084e-08
1.09152e-07
-5.6361806e-08
1.0671371e-07
-5.5091803e-08
1.0430726e-07
-5.3842066e-08
1.0193253e-07
-5.2614483e-08
9.9589263e-08
-5.1410851e-08
9.7277081e-08
-5.0232872e-08
9.4995479e-08
-4.9082163e-08
9.2743814e-08
-4.7960248e-08
9.0521299e-08
-4.6868565e-08
8.8327013e-08
-4.5808464e-08
8.6159902e-08
-4.4781196e-08
8.4018795e-08
-4.3787913e-08
8.1902426e-08
-4.2829654e-08
7.9809452e-08
-4.1907345e-08
7.7738494e-08
-4.1021783e-08
7.5688165e-08
-4.0173636e-08
7.3657115e-08
-3.9363436e-08
7.1644071e-08
-3.8591577e-08
6.9647875e-08
-3.7858318e-08
6.766753e-08
-3.7163789e-08
6.5702224e-08
-3.6507992e-08
6.3751354e-08
-3.5890796e-08
6.1814538e-08
-3.5311922e-08
5.989166e-08
-3.47709e-08
5.7983032e-08
-3.4266963e-08
-3.3798951e-08
1.6935636e-07
-8.2851735e-08
1.6633772e-07
-8.1694698e-08
1.6332555e-07
-8.0506734e-08
1.6032223e-07
-7.9290295e-08
1.5733068e-07
-7.8047653e-08
1.5435351e-07
-7.6781249e-08
1.5139291e-07
-7.5493662e-08
1.4845077e-07
-7.4187522e-08
1.4552879e-07
-7.2865473e-08
1.4262854e-07
-7.1530153e-08
1.397515e-07
-7.0184202e-08
1.3689903e-07
-6.8830248e-08
1.3407235e-07
-6.7470915e-08
1.3127258e-07
-6.6108804e-08
1.285007e-07
-6.4746492e-08
1.2575753e-07
-6.3386514e-08
1.2304377e-07
-6.2031358e-08
1.2035999e-07
-6.0683444e-08
1.1770661e-07
-5.9345127e-08
1.1508394e-07
-5.8018676e-08
1.1249216e-07
-5.6706277e-08
1.0993134e-07
-5.5410026e-08
1.0740142e-07
-5.413193e-08
1.0490224e-07
-5.2873906e-08
1.024335e-07
-5.1637785e-08
9.9994805e-08
-5.0425307e-08
9.7585611e-08
-4.9238131e-08
9.5205261e-08
-4.807783e-08
9.2852968e-08
-4.694589e-08
9.0527844e-08
-4.584371e-08
8.8228886e-08
-4.4772594e-08
8.5955003e-08
-4.3733756e-08
8.3705033e-08
-4.2728302e-08
8.1477766e-08
-4.1757234e-08
7.9271972e-08
-4.0821435e-08
7.7086442e-08
-3.9921674e-08
7.4920015e-08
-3.9058592e-08
7.2771621e-08
-3.8232709e-08
7.064032e-08
-3.7444416e-08
6.8525346e-08
-3.669399e-08
6.6426146e-08
-3.5981579e-08
6.4342429e-08
-3.5307211e-08
6.227421e-08
-3.4670771e-08
6.0221889e-08
-3.4071976e-08
5.818638e-08
-3.3510295e-08
-3.2984885e-08
1.7380547e-07
-8.2959305e-08
1.7070136e-07
-8.1825781e-08
1.6760325e-07
-8.0661327e-08
1.6451381e-07
-7.9468251e-08
1.6143567e-07
-7.8248787e-08
1.5837119e-07
-7.7005234e-08
1.5532244e-07
-7.5739999e-08
1.5229125e-07
-7.4455539e-08
1.4927929e-07
-7.315434e-08
1.4628813e-07
-7.1838891e-08
1.4331921e-07
-7.0511691e-08
1.4037387e-07
-6.9175235e-08
1.3745334e-07
-6.7832014e-08
1.3455871e-07
-6.6484501e-08
1.3169098e-07
-6.5135151e-08
1.2885099e-07
-6.3786383e-08
1.2603944e-07
-6.2440574e-08
1.2325693e-07
-6.1100049e-08
1.2050389e-07
-5.9767072e-08
1.1778066e-07
-5.8443836e-08
1.1508742e-07
-5.7132463e-08
1.1242425e-07
-5.5834992e-08
1.097911e-07
-5.4553387e-08
1.0718778e-07
-5.3289527e-08
1.0461401e-07
-5.2045212e-08
1.0206936e-07
-5.0822158e-08
9.9553304e-08
-4.9622005e-08
9.7065192e-08
-4.8446308e-08
9.4604264e-08
-4.7296542e-08
9.2169662e-08
-4.61741e-08
8.9760442e-08
-4.5080286e-08
8.7375582e-08
-4.4016318e-08
8.5014013e-08
-4.2983321e-08
8.2674638e-08
-4.198232e-08
8.0356345e-08
-4.1014243e-08
7.8058066e-08
-4.0079905e-08
7.5778794e-08
-3.9180019e-08
7.3517615e-08
-3.8315184e-08
7.1273759e-08
-3.7485892e-08
6.9046633e-08
-3.6692525e-08
6.6835883e-08
-3.5935356e-08
6.4641436e-08
-3.5214543e-08
6.2463594e-08
-3.4530126e-08
6.0303107e-08
-3.3881993e-08
5.8161297e-08
-3.3269843e-08
-3.2693132e-08
1.7726264e-07
-8.2677246e-08
1.7408891e-07
-8.1575234e-08
1.7092088e-07
-8.0442918e-08
1.6776127e-07
-7.9282451e-08
1.6461256e-07
-7.8095955e-08
1.6147696e-07
-7.6885623e-08
1.5835641e-07
-7.5653703e-08
1.5525269e-07
-7.4402488e-08
1.5216744e-07
-7.3134296e-08
1.4910216e-07
-7.1851459e-08
1.4605828e-07
-7.055632e-08
1.4303711e-07
-6.9251219e-08
1.4003985e-07
-6.7938497e-08
1.3706761e-07
-6.6620478e-08
1.3412133e-07
-6.5299469e-08
1.3120189e-07
-6.3977749e-08
1.2830998e-07
-6.2657558e-08
1.2544622e-07
-6.1341093e-08
1.2261106e-07
-6.0030493e-08
1.1980484e-07
-5.8727842e-08
1.1702777e-07
-5.7435153e-08
1.1427994e-07
-5.6154374e-08
1.115613e-07
-5.4887375e-08
1.0887169e-07
-5.3635957e-08
1.0621083e-07
-5.2401839e-08
1.0357832e-07
-5.1186672e-08
1.0097363e-07
-4.9992021e-08
9.8396147e-08
-4.8819387e-08
9.5845147e-08
-4.7670178e-08
9.3319819e-08
-4.6545742e-08
9.0819267e-08
-4.5447328e-08
8.8342548e-08
-4.4376125e-08
8.5888664e-08
-4.3333214e-08
8.3456617e-08
-4.2319615e-08
8.1045398e-08
-4.133623e-08
7.8654059e-08
-4.0383899e-08
7.62817e-08
-3.9463338e-08
7.3927552e-08
-3.8575198e-08
7.1590952e-08
-3.7720006e-08
6.927146e-08
-3.6898225e-08
6.6968847e-08
-3.611019e-08
6.4683212e-08
-3.5356173e-08
6.2415033e-08
-3.4636309e-08
6.0165298e-08
-3.3950646e-08
5.7935568e-08
-3.3299059e-08
-3.2681274e-08
1.7984485e-07
-8.2058949e-08
1.766153e-07
-8.0990451e-08
1.7339127e-07
-7.9892711e-08
1.7017543e-07
-7.876772e-08
1.6697018e-07
-7.7617511e-08
1.6377761e-07
-7.6444147e-08
1.6059957e-07
-7.524974e-08
1.5743778e-07
-7.403643e-08
1.5429382e-07
-7.2806383e-08
1.5116915e-07
-7.1561779e-08
1.4806516e-07
-7.0304808e-08
1.4498312e-07
-6.9037662e-08
1.4192422e-07
-6.7762527e-08
1.3888952e-07
-6.6481579e-08
1.3587998e-07
-6.5196978e-08
1.3289643e-07
-6.3910851e-08
1.2993961e-07
-6.26253e-08
1.2701011e-07
-6.1342376e-08
1.2410841e-07
-6.0064092e-08
1.2123485e-07
-5.8792394e-08
1.1838967e-07
-5.7529183e-08
1.1557296e-07
-5.6276278e-08
1.1278471e-07
-5.503545e-08
1.1002477e-07
-5.380838e-08
1.0729289e-07
-5.25967e-08
1.0458867e-07
-5.1401945e-08
1.0191165e-07
-5.0225606e-08
9.9261227e-08
-4.9069068e-08
9.6636731e-08
-4.7933679e-08
9.4037382e-08
-4.6820674e-08
9.1462366e-08
-4.5731257e-08
8.8910778e-08
-4.4666508e-08
8.6381724e-08
-4.3627483e-08
8.3874256e-08
-4.2615106e-08
8.1387487e-08
-4.1630278e-08
7.8920528e-08
-4.0673761e-08
7.6472613e-08
-3.9746296e-08
7.4043033e-08
-3.8848483e-08
7.1631267e-08
-3.7980903e-08
6.9236936e-08
-3.7143995e-08
6.6859946e-08
-3.6338179e-08
6.450047e-08
-3.5563736e-08
6.2159129e-08
-3.4820912e-08
5.9837023e-08
-3.4109827e-08
5.7535856e-08
-3.3430523e-08
-3.2782905e-08
1.8164959e-07
-8.117639e-08
1.7837639e-07
-8.0140331e-08
1.7510862e-07
-7.9076327e-08
1.7184891e-07
-7.7986272e-08
1.6859956e-07
-7.6872068e-08
1.6536258e-07
-7.573567e-08
1.6213975e-07
-7.4579054e-08
1.5893271e-07
-7.3404234e-08
1.5574297e-07
-7.2213233e-08
1.5257198e-07
-7.1008103e-08
1.4942105e-07
-6.9790887e-08
1.4629144e-07
-6.8563646e-08
1.4318429e-07
-6.7328419e-08
1.4010065e-07
-6.608725e-08
1.3704144e-07
-6.4842147e-08
1.340075e-07
-6.3595112e-08
1.3099955e-07
-6.2348093e-08
1.2801819e-07
-6.1103023e-08
1.250639e-07
-5.9861764e-08
1.2213705e-07
-5.8626152e-08
1.1923787e-07
-5.7397943e-08
1.1636649e-07
-5.6178856e-08
1.1352291e-07
-5.4970522e-08
1.1070701e-07
-5.3774532e-08
1.0791856e-07
-5.2592379e-08
1.0515722e-07
-5.1425519e-08
1.0242252e-07
-5.0275306e-08
9.9713944e-08
-4.9143055e-08
9.7030828e-08
-4.8029977e-08
9.437248e-08
-4.6937247e-08
9.1738105e-08
-4.5865936e-08
8.9126899e-08
-4.4817076e-08
8.6537994e-08
-4.3791599e-08
8.3970556e-08
-4.2790391e-08
8.1423733e-08
-4.1814247e-08
7.8896757e-08
-4.0863908e-08
7.6388898e-08
-3.9940032e-08
7.3899566e-08
-3.9043216e-08
7.1428281e-08
-3.8173986e-08
6.8974771e-08
-3.7332796e-08
6.6538976e-08
-3.6520047e-08
6.4121171e-08
-3.5736053e-08
6.172201e-08
-3.4981095e-08
5.9342672e-08
-3.4255345e-08
5.6984898e-08
-3.355895e-08
-3.2891951e-08
1.8276185e-07
-8.0095034e-08
1.7945581e-07
-7.9089189e-08
1.7615524e-07
-7.8056842e-08
1.7286267e-07
-7.6999755e-08
1.6958033e-07
-7.5919732e-08
1.6631015e-07
-7.4818594e-08
1.6305383e-07
-7.3698219e-08
1.5981294e-07
-7.2560487e-08
1.5658897e-07
-7.1407323e-08
1.5338327e-07
-7.0240636e-08
1.5019716e-07
-6.906237e-08
1.4703181e-07
-6.7874439e-08
1.4388836e-07
-6.667878e-08
1.407678e-07
-6.5477288e-08
1.3767107e-07
-6.4271869e-08
1.3459897e-07
-6.3064373e-08
1.3155223e-07
-6.1856649e-08
1.2853142e-07
-6.0650477e-08
1.2553705e-07
-5.9447624e-08
1.2256948e-07
-5.8249782e-08
1.1962897e-07
-5.7058608e-08
1.1671566e-07
-5.5875688e-08
1.1382958e-07
-5.4702557e-08
1.1097064e-07
-5.3540679e-08
1.0813862e-07
-5.2391452e-08
1.0533323e-07
-5.1256216e-08
1.0255406e-07
-5.0136221e-08
9.9800589e-08
-4.9032683e-08
9.7072235e-08
-4.7946704e-08
9.4368341e-08
-4.687937e-08
9.1688174e-08
-4.5831638e-08
8.9030985e-08
-4.480447e-08
8.6395967e-08
-4.3798676e-08
8.3782356e-08
-4.28151e-08
8.1189355e-08
-4.1854405e-08
7.8616276e-08
-4.0917322e-08
7.6062436e-08
-4.0004376e-08
7.3527331e-08
-3.9116187e-08
7.1010508e-08
-3.8253152e-08
6.8511783e-08
-3.7415783e-08
6.6031103e-08
-3.6604362e-08
6.3568814e-08
-3.5819294e-08
6.1125565e-08
-3.5060769e-08
5.8702574e-08
-3.4329081e-08
5.630154e-08
-3.3624354e-08
-3.294677e-08
1.8325811e-07
-7.8865442e-08
1.7992893e-07
-7.7887563e-08
1.766053e-07
-7.6884667e-08
1.7328972e-07
-7.5858377e-08
1.6998432e-07
-7.4810368e-08
1.6669094e-07
-7.3742361e-08
1.6341124e-07
-7.2656126e-08
1.6014671e-07
-7.1553447e-08
1.5689877e-07
-7.0436139e-08
1.5366875e-07
-6.9306013e-08
1.5045789e-07
-6.8164899e-08
1.4726736e-07
-6.7014609e-08
1.4409824e-07
-6.5856963e-08
1.4095151e-07
-6.4693751e-08
1.3782807e-07
-6.3526761e-08
1.3472872e-07
-6.2357734e-08
1.3165416e-07
-6.1188405e-08
1.2860499e-07
-6.0020445e-08
1.2558169e-07
-5.8855512e-08
1.2258464e-07
-5.7695182e-08
1.1961412e-07
-5.6541019e-08
1.1667028e-07
-5.5394487e-08
1.1375317e-07
-5.4257038e-08
1.1086272e-07
-5.3130009e-08
1.0799877e-07
-5.201473e-08
1.0516104e-07
-5.0912403e-08
1.0234916e-07
-4.9824228e-08
9.956266e-08
-4.8751269e-08
9.6801017e-08
-4.7694596e-08
9.4063584e-08
-4.6655131e-08
9.1349732e-08
-4.5633817e-08
8.8658708e-08
-4.4631442e-08
8.598983e-08
-4.3648819e-08
8.3342313e-08
-4.2686609e-08
8.0715503e-08
-4.1745504e-08
7.8108677e-08
-4.0826046e-08
7.55213e-08
-3.992881e-08
7.2952818e-08
-3.9054232e-08
7.0402924e-08
-3.8202777e-08
6.7871364e-08
-3.7374793e-08
6.5358215e-08
-3.6570641e-08
6.2863737e-08
-3.5790593e-08
6.0388669e-08
-3.5034924e-08
5.7934126e-08
-3.430385e-08
5.5501812e-08
-3.3597585e-08
-3.2916314e-08
1.8320816e-07
-7.7523058e-08
1.798645e-07
-7.6571436e-08
1.7652656e-07
-7.5596243e-08
1.731968e-07
-7.459894e-08
1.6987724e-07
-7.3581057e-08
1.6656966e-07
-7.2544257e-08
1.6327561e-07
-7.1490198e-08
1.5999656e-07
-7.0420607e-08
1.5673384e-07
-6.9337177e-08
1.5348876e-07
-6.8241658e-08
1.5026249e-07
-6.7135751e-08
1.4705619e-07
-6.6021207e-08
1.4387088e-07
-6.4899711e-08
1.4070753e-07
-6.3772991e-08
1.3756702e-07
-6.2642698e-08
1.3445013e-07
-6.1510513e-08
1.3135753e-07
-6.0378031e-08
1.2828985e-07
-5.9246866e-08
1.2524754e-07
-5.8118535e-08
1.2223102e-07
-5.6994565e-08
1.1924054e-07
-5.5876376e-08
1.1627631e-07
-5.4765389e-08
1.1333837e-07
-5.3662915e-08
1.104267e-07
-5.257025e-08
1.0754115e-07
-5.1488586e-08
1.0468149e-07
-5.0419085e-08
1.0184737e-07
-4.9362817e-08
9.9038388e-08
-4.8320801e-08
9.6254029e-08
-4.7293983e-08
9.3493745e-08
-4.628324e-08
9.0756902e-08
-4.5289399e-08
8.8042852e-08
-4.4313192e-08
8.535091e-08
-4.3355337e-08
8.2680399e-08
-4.2416427e-08
8.003066e-08
-4.1497079e-08
7.740107e-08
-4.0597757e-08
7.4791089e-08
-3.9718985e-08
7.2200247e-08
-3.8861113e-08
6.962823e-08
-3.8024588e-08
6.7074839e-08
-3.7209661e-08
6.4540135e-08
-3.6416706e-08
6.20244e-08
-3.5645908e-08
5.9528327e-08
-3.4897566e-08
5.7053006e-08
-3.4171851e-08
5.460005e-08
-3.3469005e-08
-3.2789214e-08
1.8267568e-07
-7.6091196e-08
1.793253e-07
-7.5165028e-08
1.7598098e-07
-7.4216438e-08
1.7264501e-07
-7.3246791e-08
1.6931934e-07
-7.225763e-08
1.6600563e-07
-7.1250536e-08
1.6270539e-07
-7.0227122e-08
1.5941998e-07
-6.918901e-08
1.5615072e-07
-6.813784e-08
1.5289885e-07
-6.707525e-08
1.4966553e-07
-6.6002883e-08
1.4645184e-07
-6.4922372e-08
1.4325882e-07
-6.3835345e-08
1.4008737e-07
-6.2743408e-08
1.3693837e-07
-6.1648154e-08
1.3381256e-07
-6.0551146e-08
1.3071066e-07
-5.9453918e-08
1.2763321e-07
-5.835797e-08
1.2458074e-07
-5.7264758e-08
1.2155361e-07
-5.6175699e-08
1.1855214e-07
-5.5092154e-08
1.155765e-07
-5.4015437e-08
1.1262679e-07
-5.2946801e-08
1.0970299e-07
-5.1887445e-08
1.06805e-07
-5.0838497e-08
1.0393262e-07
-4.9801035e-08
1.0108553e-07
-4.8776054e-08
9.8263371e-08
-4.7764507e-08
9.5465676e-08
-4.6767253e-08
9.2691939e-08
-4.5785118e-08
8.994157e-08
-4.4818828e-08
8.7213982e-08
-4.3869084e-08
8.4508518e-08
-4.2936488e-08
8.1824575e-08
-4.2021623e-08
7.9161503e-08
-4.1124975e-08
7.6518767e-08
-4.024702e-08
7.3895811e-08
-3.9388141e-08
7.1292256e-08
-3.8548722e-08
6.8707742e-08
-3.7729061e-08
6.6142159e-08
-3.6929463e-08
6.3595494e-08
-3.6150165e-08
6.1068081e-08
-3.5391402e-08
5.8560525e-08
-3.4653385e-08
5.6073902e-08
-3.3936308e-08
5.360969e-08
-3.3240359e-08
-3.2565791e-08
1.8507229e-07
-7.5465786e-08
1.8171838e-07
-7.4586528e-08
1.783685e-07
-7.3684806e-08
1.7502503e-07
-7.276183e-08
1.7169014e-07
-7.1818898e-08
1.6836564e-07
-7.085747e-08
1.6505311e-07
-6.9879049e-08
1.6175398e-07
-6.8885179e-08
1.5846958e-07
-6.7877401e-08
1.5520118e-07
-6.6857282e-08
1.5194996e-07
-6.5826375e-08
1.4871705e-07
-6.4786249e-08
1.4550351e-07
-6.3738447e-08
1.4231032e-07
-6.2684523e-08
1.3913839e-07
-6.1625995e-08
1.3598855e-07
-6.0564381e-08
1.3286155e-07
-5.9501152e-08
1.2975807e-07
-5.8437775e-08
1.2667868e-07
-5.7375656e-08
1.2362387e-07
-5.6316189e-08
1.2059404e-07
-5.5260698e-08
1.175895e-07
-5.4210485e-08
1.1461043e-07
-5.3166778e-08
1.1165697e-07
-5.2130769e-08
1.0872912e-07
-5.1103578e-08
1.0582679e-07
-5.0086276e-08
1.0294982e-07
-4.9079864e-08
1.0009794e-07
-4.8085283e-08
9.7270813e-08
-4.7103412e-08
9.4468031e-08
-4.6135057e-08
9.1689113e-08
-4.5180975e-08
8.8933535e-08
-4.4241839e-08
8.6200733e-08
-4.3318288e-08
8.3490119e-08
-4.2410864e-08
8.0801106e-08
-4.1520101e-08
7.8133118e-08
-4.064642e-08
7.5485621e-08
-3.9790257e-08
7.2858126e-08
-3.8951929e-08
7.0250244e-08
-3.813179e-08
6.7661669e-08
-3.7330075e-08
6.5092258e-08
-3.6547066e-08
6.2542029e-08
-3.5782942e-08
6.0011275e-08
-3.503794e-08
5.7500557e-08
-3.4312206e-08
5.501088e-08
-3.3605941e-08
5.2543674e-08
-3.2919326e-08
-3.2252553e-08
1.8373656e-07
-7.3875295e-08
1.803891e-07
-7.301884e-08
1.7704624e-07
-7.2141119e-08
1.7371019e-07
-7.1243265e-08
1.7038293e-07
-7.0326509e-08
1.6706616e-07
-6.9392224e-08
1.6376139e-07
-6.8441837e-08
1.6046998e-07
-6.7476809e-08
1.5719321e-07
-6.6498612e-08
1.5393231e-07
-6.5508731e-08
1.5068843e-07
-6.4508648e-08
1.4746265e-07
-6.3499848e-08
1.4425599e-07
-6.2483805e-08
1.4106942e-07
-6.1461988e-08
1.3790382e-07
-6.0435845e-08
1.3475999e-07
-5.9406809e-08
1.3163868e-07
-5.8376285e-08
1.2854054e-07
-5.7345656e-08
1.2546615e-07
-5.6316266e-08
1.22416e-07
-5.5289425e-08
1.1939048e-07
-5.4266398e-08
1.1638991e-07
-5.3248411e-08
1.134145e-07
-5.2236634e-08
1.1046439e-07
-5.1232188e-08
1.0753961e-07
-5.0236136e-08
1.0464011e-07
-4.9249486e-08
1.0176574e-07
-4.8273184e-08
9.8916274e-08
-4.7308113e-08
9.6091418e-08
-4.6355096e-08
9.3290797e-08
-4.5414891e-08
9.0513973e-08
-4.4488196e-08
8.7760468e-08
-4.3575643e-08
8.5029754e-08
-4.267781e-08
8.2321297e-08
-4.1795207e-08
7.9634537e-08
-4.0928302e-08
7.6968949e-08
-4.0077495e-08
7.4324017e-08
-3.9243152e-08
7.16993e-08
-3.8425577e-08
6.9094406e-08
-3.7625057e-08
6.6509067e-08
-3.6841815e-08
6.3943118e-08
-3.6076077e-08
6.1396592e-08
-3.5328015e-08
5.8869719e-08
-3.4597815e-08
5.6363062e-08
-3.3885633e-08
5.3877533e-08
-3.3191621e-08
5.141444e-08
-3.2515938e-08
-3.185882e-08
1.8207059e-07
-7.2228396e-08
1.7873561e-07
-7.13948e-08
1.754057e-07
-7.0541076e-08
1.7208296e-07
-6.9668221e-08
1.6876923e-07
-6.8777431e-08
1.6546612e-07
-6.7870009e-08
1.6217504e-07
-6.6947314e-08
1.588973e-07
-6.6010731e-08
1.5563414e-07
-6.5061663e-08
1.5238674e-07
-6.4101516e-08
1.491562e-07
-6.3131704e-08
1.4594358e-07
-6.2153632e-08
1.4274987e-07
-6.1168705e-08
1.39576e-07
-6.0178313e-08
1.3642282e-07
-5.9183836e-08
1.3329114e-07
-5.8186629e-08
1.3018166e-07
-5.7188032e-08
1.2709505e-07
-5.6189351e-08
1.2403185e-07
-5.5191867e-08
1.2099257e-07
-5.4196819e-08
1.179776e-07
-5.3205412e-08
1.1498727e-07
-5.2218804e-08
1.120218e-07
-5.1238107e-08
1.0908135e-07
-5.0264385e-08
1.0616596e-07
-4.9298642e-08
1.0327561e-07
-4.8341836e-08
1.0041019e-07
-4.7394856e-08
9.7569505e-08
-4.6458542e-08
9.4753284e-08
-4.5533661e-08
9.19612e-08
-4.4620936e-08
8.9192851e-08
-4.3721009e-08
8.6447802e-08
-4.2834483e-08
8.3725565e-08
-4.1961878e-08
8.1025646e-08
-4.1103686e-08
7.8347523e-08
-4.0260313e-08
7.5690707e-08
-3.9432149e-08
7.3054709e-08
-3.8619497e-08
7.0439118e-08
-3.7822659e-08
6.7843555e-08
-3.7041857e-08
6.5267768e-08
-3.6277321e-08
6.2711585e-08
-3.5529214e-08
6.0175031e-08
-3.4797723e-08
5.7658315e-08
-3.4082986e-08
5.5161927e-08
-3.3385142e-08
5.2686732e-08
-3.2704343e-08
5.0233974e-08
-3.2040734e-08
-3.1394508e-08
1.8011793e-07
-7.0530027e-08
1.7680083e-07
-6.9719816e-08
1.7348923e-07
-6.8890292e-08
1.7018515e-07
-6.8042502e-08
1.6689031e-07
-6.7177651e-08
1.636062e-07
-6.6296998e-08
1.6033418e-07
-6.5401844e-08
1.5707548e-07
-6.4493504e-08
1.5383132e-07
-6.3573314e-08
1.506028e-07
-6.2642607e-08
1.4739102e-07
-6.1702727e-08
1.4419698e-07
-6.0755006e-08
1.4102166e-07
-5.9800779e-08
1.3786593e-07
-5.8841363e-08
1.3473066e-07
-5.7878068e-08
1.316166e-07
-5.6912181e-08
1.2852446e-07
-5.5944971e-08
1.2545488e-07
-5.4977679e-08
1.2240842e-07
-5.4011521e-08
1.1938556e-07
-5.304767e-08
1.163867e-07
-5.2087274e-08
1.1341218e-07
-5.1131428e-08
1.1046223e-07
-5.0181191e-08
1.0753702e-07
-4.9237568e-08
1.0463662e-07
-4.8301517e-08
1.0176103e-07
-4.737394e-08
9.8910159e-08
-4.6455686e-08
9.6083852e-08
-4.5547543e-08
9.3281876e-08
-4.4650245e-08
9.0503928e-08
-4.3764462e-08
8.7749657e-08
-4.2890812e-08
8.5018653e-08
-4.2029847e-08
8.2310481e-08
-4.1182068e-08
7.9624668e-08
-4.0347918e-08
7.6960747e-08
-3.9527788e-08
7.4318241e-08
-3.8722023e-08
7.1696711e-08
-3.7930915e-08
6.9095746e-08
-3.7154722e-08
6.6515007e-08
-3.639366e-08
6.3954224e-08
-3.5647921e-08
6.1413252e-08
-3.4917664e-08
5.889208e-08
-3.4203045e-08
5.6390883e-08
-3.3504191e-08
5.3910141e-08
-3.2821252e-08
5.145062e-08
-3.215432e-08
4.9013478e-08
-3.1503562e-08
-3.0869176e-08
1.812157e-07
-6.9553781e-08
1.7791753e-07
-6.8786098e-08
1.7462321e-07
-6.7999175e-08
1.7133484e-07
-6.7193874e-08
1.680543e-07
-6.6371206e-08
1.647832e-07
-6.553232e-08
1.6152294e-07
-6.4678424e-08
1.5827481e-07
-6.3810752e-08
1.5504e-07
-6.2930561e-08
1.5181967e-07
-6.2039112e-08
1.486149e-07
-6.1137675e-08
1.4542673e-07
-6.0227519e-08
1.4225615e-07
-5.9309911e-08
1.3910408e-07
-5.8386112e-08
1.359714e-07
-5.7457375e-08
1.3285892e-07
-5.6524937e-08
1.2976739e-07
-5.5590022e-08
1.2669751e-07
-5.465383e-08
1.2364989e-07
-5.3717541e-08
1.2062508e-07
-5.2782303e-08
1.1762358e-07
-5.1849236e-08
1.1464578e-07
-5.0919421e-08
1.1169202e-07
-4.9993903e-08