/*--------------------------------*- C++ -*----------------------------------*\
| =========                 |                                                 |
| \\      /  F ield         | OpenFOAM: The Open Source CFD Toolbox           |
|  \\    /   O peration     | Version:  2312                                  |
|   \\  /    A nd           | Website:  www.openfoam.com                      |
|    \\/     M anipulation  |                                                 |
\*---------------------------------------------------------------------------*/
FoamFile
{
    version     2.0;
    format      ascii;
    arch        "LSB;label=32;scalar=64";
    class       volScalarField;
    location    "0.06";
    object      Qdot;
}
// * * * * * * * * * * * * * * * * * * * * * * * * * * * * * * * * * * * * * //

dimensions      [1 -1 -3 0 0 0 0];

internalField   nonuniform List<scalar> 
3250
(
0.20885763
0.20002748
0.19116227
0.18231684
0.17353825
0.16487516
0.15636436
0.14803434
0.13991276
0.13202417
0.12438557
0.1170132
0.10991809
0.10310661
0.096586244
0.090353462
0.084411801
0.0787605
0.073390808
0.068299589
0.063484366
0.058938753
0.054653276
0.050625325
0.046845387
0.043305545
0.039997503
0.03691296
0.03404003
0.031370818
0.028892852
0.026595459
0.024468746
0.022502038
0.0206861
0.019007755
0.017457897
0.016027567
0.014708973
0.013492504
0.012369258
0.011331313
0.01037591
0.0094921787
0.33483269
0.31823724
0.30179896
0.28561621
0.26976385
0.25431291
0.23931261
0.22480252
0.21081908
0.1973824
0.1845181
0.17223529
0.16053709
0.1494267
0.13889698
0.1289412
0.11954408
0.11069259
0.1023702
0.094559025
0.087244787
0.08040482
0.074016966
0.068071358
0.062543586
0.057412293
0.052659273
0.048266231
0.044207417
0.040468484
0.037024901
0.033860194
0.030951265
0.028282507
0.025834797
0.023591259
0.021535103
0.019652053
0.017926832
0.016347374
0.014900294
0.013574066
0.012358049
0.011241128
0.74797507
0.70271837
0.65869765
0.61609646
0.57506035
0.53569295
0.49807896
0.46226419
0.42827322
0.3961171
0.36578723
0.33726036
0.31050292
0.2854622
0.26208599
0.24030862
0.22006086
0.20127124
0.18386584
0.16777301
0.15291974
0.13923636
0.12664816
0.11509157
0.10449897
0.094806635
0.085950125
0.07787075
0.070512338
0.063817147
0.057731365
0.052207945
0.047199017
0.042657431
0.038544834
0.034819537
0.031448935
0.028397609
0.025637354
0.023138492
0.020876692
0.018829034
0.016973936
0.015294071
2.0008875
1.8578713
1.7208481
1.5901804
1.4661294
1.3488357
1.2383457
1.1346375
1.0376199
0.94716001
0.8630715
0.78513023
0.71308458
0.64666401
0.58557069
0.52950843
0.47817043
0.43125597
0.38846702
0.34951509
0.3141187
0.28200979
0.2529332
0.22665044
0.2029268
0.18155104
0.1623167
0.14503166
0.1295199
0.11561609
0.1031699
0.092031685
0.082075247
0.073183394
0.065241282
0.058156335
0.051831775
0.046189888
0.041158468
0.036667906
0.032663757
0.029088451
0.025897104
0.023047118
5.6658564
5.2104968
4.7787609
4.3713427
3.9885755
3.6304693
3.2967581
2.9869463
2.7003628
2.4361728
2.1934395
1.9711084
1.7680768
1.5831959
1.4152848
1.26317
1.1257038
1.0017481
0.89022767
0.79009117
0.70036836
0.62012059
0.54848328
0.4846449
0.42785273
0.37740818
0.33266952
0.29304818
0.25800423
0.22704401
0.19972133
0.17562876
0.15440438
0.1357159
0.11927103
0.10480749
0.092090467
0.080910335
0.071082335
0.062444166
0.054852846
0.048175311
0.042303347
0.037139219
15.65294
14.29838
13.021884
11.824778
10.707311
9.6687895
8.7077183
7.8219455
7.0087627
6.2650336
5.5872827
4.9717913
4.4146947
3.9120416
3.459868
3.0542808
2.6914609
2.3677505
2.0796418
1.8238316
1.5972129
1.3968862
1.2201663
1.0645801
0.9278525
0.80791099
0.70286748
0.61101459
0.53080902
0.46085904
0.39992919
0.34690837
0.30081494
0.26077261
0.22601042
0.19585081
0.16969661
0.14701708
0.12736043
0.11032619
0.095561959
0.08276748
0.071677452
0.062066807
40.372381
36.729525
33.305721
30.104091
27.124797
24.365427
21.821369
19.486139
17.351712
15.408835
13.64733
12.05636
10.624692
9.3409099
8.1936257
7.17164
6.2640874
5.4605419
4.7510949
4.1264304
3.5778415
3.0972501
2.6772222
2.3109462
1.992224
1.7154373
1.4755211
1.2679246
1.0885859
0.93389515
0.80064633
0.68600161
0.5874815
0.50289418
0.43033524
0.3681379
0.31485839
0.26923686
0.23019225
0.19678523
0.16820812
0.14376548
0.12286071
0.10498609
95.532665
86.73819
78.475331
70.753041
63.572782
56.929715
50.813411
45.20862
40.096059
35.453201
31.255027
27.474749
24.084463
21.05573
18.36012
15.969631
13.857074
11.996346
10.362661
8.9327139
7.6847765
6.5987315
5.6561262
4.8400967
4.13536
3.5281359
3.0060656
2.5581127
2.1744928
1.8465327
1.5666158
1.3280598
1.1250302
0.95243964
0.80589272
0.68157783
0.5762056
0.48696274
0.41142592
0.34752121
0.2934837
0.24780085
0.20919808
0.17658206
207.05061
187.87081
169.83228
152.95873
137.25897
122.72758
109.34629
97.085437
85.905777
75.760188
66.595397
58.353635
50.974116
44.394438
38.551835
33.384176
28.830904
24.833717
21.337122
18.288858
15.640151
13.345857
11.364541
9.6584307
8.1933274
6.9384586
5.8663127
4.9524123
4.1751029
3.5153211
2.9563627
2.4836599
2.0845481
1.748077
1.4647982
1.2265961
1.0265162
0.85862596
0.71786908
0.59994797
0.50122573
0.41861924
0.34953447
0.29178438
496.16466
453.8771
413.54859
375.32339
339.30245
305.55052
274.09985
244.95271
218.08406
193.44476
170.96489
150.55729
132.12095
115.54444
100.70899
87.491444
75.76684
65.4107
56.300964
48.319576
41.353755
35.296929
30.049415
25.518797
21.620142
18.275991
15.416228
12.977803
10.904391
9.1459838
7.6584253
6.4029323
5.3456264
4.4570494
3.7116991
3.0875922
2.5658678
2.1303735
1.7673592
1.4651403
1.2138089
1.0050162
0.83171336
0.68798031
0.56885762
0.47019786
920.071
842.38455
768.13365
697.5966
630.98454
568.44384
510.05985
455.86099
405.82339
359.87638
317.90849
279.77369
245.29772
214.28435
186.5213
161.78583
139.84976
120.48402
103.46245
88.56514
75.580943
64.309601
54.563136
46.16685
38.959848
32.795203
27.539751
23.073734
19.29016
16.094078
13.401726
11.139662
9.2438105
7.6585873
6.3359917
5.2347621
4.3195901
3.5603857
2.9315851
2.4115736
1.9821207
1.6278946
1.3360508
1.095849
0.89833472
0.73605587
1600.733
1467.0872
1339.0647
1217.1753
1101.8203
993.29242
891.77947
797.36987
710.05978
629.76163
556.31382
489.4911
429.0152
374.56551
325.78946
282.31234
243.74641
209.69903
179.77985
153.60693
130.8117
111.04301
93.970017
79.284288
66.701033
55.959615
46.823518
39.079747
32.537926
27.029057
22.404109
18.532458
15.300279
12.608952
10.373442
8.5208245
6.9888295
5.7245196
4.6830733
3.8267069
3.12366
2.5473377
2.0755369
1.689785
1.3747456
1.1177258
2635.1052
2417.7189
2209.0356
2009.9285
1821.1035
1643.0941
1476.2654
1320.8205
1176.8103
1044.146
922.61324
811.88837
711.55506
621.12141
540.03679
467.70812
403.51508
346.82401
297.0003
253.41901
215.47391
182.58464
154.20227
129.81329
108.94219
91.152753
76.048371
63.271377
52.501748
43.455209
35.881002
29.559384
24.298946
19.933977
16.321783
13.340134
10.884859
8.8675858
7.2136708
5.8603379
4.754984
3.8537139
3.1200018
2.5235604
2.0393614
1.6467548
4133.6316
3796.7523
3472.7141
3162.9282
2868.5578
2590.5073
2329.4247
2085.7089
1859.5216
1650.8041
1459.2974
1284.5656
1126.0202
982.94624
854.52813
739.87484
638.04411
548.0647
468.95653
399.74833
339.49261
287.27799
242.23889
203.56268
170.49459
142.34045
118.46775
98.305157
81.340761
67.119445
55.23951
45.348847
37.140828
30.350071
24.748245
20.139968
16.358953
13.264354
10.73745
8.6786045
7.0045438
5.645952
4.5453352
3.6551746
2.9363215
2.356631
6215.0174
5714.6433
5232.4416
4770.5819
4330.8791
3914.7764
3523.3457
3157.2937
2816.9757
2502.4161
2213.3354
1949.1816
1709.1652
1492.2955
1297.4193
1123.2578
968.44291
831.55165
711.13685
605.75492
513.98978
434.47264
365.89802
307.03581
256.73987
213.95327
177.71077
147.13885
121.45369
99.957648
82.034487
67.143792
54.8149
44.640524
36.270411
29.405093
23.789939
19.209589
15.482779
12.457675
10.007657
8.0275533
6.4303728
5.1444154
4.1107901
3.2812992
8999.2039
8283.3863
7592.3537
6929.3011
6296.9262
5697.4167
5132.4465
4603.177
4110.2709
3653.9156
3233.8569
2849.4394
2499.6537
2183.1863
1898.4727
1643.751
1417.1132
1216.5559
1040.0254
885.45945
750.82353
634.14139
533.52005
447.16918
373.4152
310.71054
257.63852
212.91451
175.38398
144.01796
117.90673
96.252004
78.3583
63.623763
51.530964
41.63773
33.568409
27.005604
21.682551
17.376127
13.900599
11.102026
8.8533668
7.050161
5.6068465
4.4536038
12599.333
11609.07
10651.538
9731.2502
8852.0398
8017.0776
7228.8543
6489.1698
5799.1422
5159.233
4569.2857
4028.5765
3535.874
3089.5056
2687.4285
2327.3021
2006.5604
1722.4814
1472.2525
1253.0302
1061.9927
896.38556
753.55848
630.99555
526.33715
437.395
362.161
298.81043
245.70047
201.36505
164.5065
133.98528
108.80811
88.115286
71.167742
57.334143
46.07844
36.948119
29.563253
23.606521
18.814168
14.967994
11.888271
9.4275682
7.4654025
5.9037178
17113.631
15784.263
14497.049
13257.936
12072.17
10944.188
9877.548
8874.9097
7938.0302
7067.7888
6264.23
5526.6229
4853.535
4242.916
3692.1898
3198.3497
2758.055
2367.7253
2023.63
1721.9712
1458.9576
1230.8693
1034.1115
865.25838
721.08589
598.59549
495.0285
407.87274
334.86237
273.97225
223.40777
181.59159
147.14799
118.88588
95.781211
76.959383
61.678128
49.311264
39.333532
31.30672
24.867095
19.714212
15.601037
12.325324
9.7221572
7.6576442
24396.578
22617.288
20881.363
19197.743
17574.451
16018.542
14536.036
13131.85
11809.755
10572.362
9421.1455
8356.4865
7377.7378
6483.313
5670.7888
4937.0196
4278.2593
3690.2858
3168.5252
2708.1706
2304.293
1951.9428
1646.2379
1382.4395
1156.0135
962.67859
798.44072
659.61591
542.8418
445.08005
363.61071
296.02045
240.18598
194.25406
156.61946
125.90179
100.92216
80.680336
64.332953
51.173092
40.611549
32.159828
25.414976
20.0462
15.783149
12.405803
9.7359022
31423.841
29160.015
26948.094
24799.636
22725.025
20733.451
18832.845
17029.781
15329.417
13735.463
12250.196
10874.496
9607.9221
8448.8097
7394.3938
6440.9467
5583.9298
4818.1494
4137.9153
3537.1936
3009.7526
2549.2956
2149.5792
1804.516
1508.258
1255.2643
1040.3502
858.72065
705.98929
578.18469
471.74576
383.50853
310.68627
250.84473
201.87421
161.95993
129.55192
103.33528
82.20173
65.222866
51.625464
40.769097
32.126131
25.263992
19.829703
15.536505
12.152495
39578.947
36760.971
34004.202
31322.972
28730.229
26237.591
23855.209
21591.622
19453.665
17446.411
15573.166
13835.504
12233.337
10765.027
9427.5266
8216.5408
7126.7091
6151.7979
5284.896
4518.6077
3845.2377
3256.9618
2745.9814
2304.6572
1925.6218
1601.8697
1326.8259
1094.3933
898.98149
735.51882
599.44981
486.72128
393.75922
317.43884
255.05024
204.26137
163.08006
129.81635
103.04619
81.577144
64.416756
50.743718
39.882038
31.27817
24.481075
19.124861
14.914149
48847.043
45408.058
42040.573
38761.315
35586.021
32529.035
29603.037
26818.839
24185.246
21708.965
19394.578
17244.562
15259.355
13437.478
11775.686
10269.158
8911.7098
7696.0245
6613.8888
5656.4309
4814.3487
4078.1254
3438.2244
2885.2612
2410.1488
2004.2167
1659.302
1367.815
1122.7803
917.85687
747.33923
606.14357
489.78165
394.32559
316.36658
252.9696
201.62673
160.21031
126.92769
100.27828
79.013782
62.101892
48.693682
38.094737
29.739896
23.171325
18.019988
63358.095
59179.229
55059.56
51020.57
47082.566
43264.519
39583.815
36055.963
32694.341
29510.01
26511.587
23705.18
21094.392
18680.379
16461.97
14435.834
12596.691
10937.559
9450.0203
8124.5058
6950.5766
5917.2042
5013.034
4226.6267
3546.674
2962.1825
2462.6261
2038.0646
1679.2311
1377.5888
1125.3612
915.53938
741.86831
598.81907
481.54814
385.84869
308.09663
245.19404
194.51235
153.8369
121.31429
95.403303
74.830135
58.548029
45.701535
35.595151
27.666138
21.461521
75423.622
70503.795
65648.466
60883.068
56231.51
51716.206
47357.828
43174.976
39183.863
35398.078
31828.408
28482.738
25366.026
22480.343
19824.995
17396.693
15189.791
13196.558
11407.488
9811.6242
8396.9002
7150.4665
6059.0095
5109.0456
4287.1842
3580.3567
2976.0064
2462.2402
2027.9405
1662.8421
1357.575
1103.6787
893.59202
720.6225
578.9014
463.32719
369.50224
293.66583
232.62623
183.69418
144.61936
113.53107
88.883855
69.408578
54.06881
42.022682
32.589774
25.223028
88434.047
82724.716
77085.803
71546.237
66133.372
60873.154
55789.724
50904.988
46238.232
41805.816
37620.945
33693.517
30030.068
26633.789
23504.635
20639.507
18032.499
15675.204
13557.061
11665.729
9987.4749
8507.5621
7210.6244
6081.0172
5103.1336
4261.6829
3541.9234
2929.8506
2412.3392
1977.2419
1613.4487
1310.9103
1060.6318
854.64203
685.94304
548.44665
436.9012
346.81348
274.369
216.35336
170.07694
133.30432
104.18944
81.217032
63.15051
48.986226
37.913763
29.282226
102266.73
95727.346
89265.434
82912.066
76698.015
70652.87
64804.394
59177.98
53796.184
48678.352
43840.323
39294.232
35048.403
31107.344
27471.839
24139.127
21103.167
18354.966
15882.966
13673.462
11711.048
9979.0587
8460.0109
7136.0091
5989.1228
5001.7172
4156.7341
3437.9209
2830.0064
2318.8252
1891.3957
1535.9555
1241.9607
1000.0548
802.01564
640.68321
509.87715
404.30694
319.47968
251.6086
197.5251
154.59603
120.64747
93.895807
72.886274
56.438961
43.601891
33.611199
124223.9
116781.27
109384.65
102069.53
94871.24
87824.395
80962.385
74316.718
67916.411
61787.452
55952.347
50429.763
45234.26
40376.148
35861.438
31691.914
27865.31
24375.58
21213.248
18365.833
15818.311
13553.618
11553.149
9797.2636
8265.7538
6938.2853
5794.7841
4815.7695
3982.6276
3277.8247
2685.061
2189.3696
1777.1664
1436.2561
1155.8038
926.27727
739.36861
587.90149
465.72946
367.63076
289.20334
226.76349
177.25021
138.13688
107.35123
83.203855
64.325347
49.611616
38.177476
140161.56
131840.23
123564.45
115373.88
107307.86
99404.915
91702.276
84235.266
77036.619
70135.868
63558.819
57327.116
51457.915
45963.681
40852.096
36126.112
31784.106
27820.159
24224.425
20983.589
18081.372
15499.086
13216.198
11210.896
9460.6281
7942.6022
6634.2363
5513.5473
4559.4718
3752.1202
3072.9633
2504.9547
2032.5972
1641.9583
1320.6436
1057.7376
843.71865
670.35561
530.59493
418.44167
328.84072
257.56137
201.08812
156.51968
121.47711
94.021809
72.583132
55.895557
42.945168
156517.08
147301.72
138132.45
129052.08
120103.64
111329.38
102770.36
94465.742
86452
78762.287
71425.805
64467.295
57906.642
51758.609
46032.703
40733.187
35859.227
31405.161
27360.892
23712.366
20442.124
17529.911
14953.298
12688.314
10710.051
8993.2321
7512.7275
6243.9963
5163.4627
4248.812
3479.2121
2835.4635
2300.0834
1857.3317
1493.1893
1195.2969
952.8635
756.55464
598.36634
471.49307
370.19459
289.66602
225.91469
175.64583
136.15846
105.25228
81.145429
62.403005
47.876107
173141.7
163025.5
152956.16
142979.35
133141.48
123488.42
114064.95
104914
96075.818
87587.187
79480.762
71784.465
64521.009
57707.572
51355.612
45470.836
40053.328
35097.811
30594.05
26527.354
22879.174
19627.755
16748.822
14216.276
12002.868
10080.836
8422.4815
7000.679
5789.3008
4763.5608
3900.274
3178.0341
2577.3187
2080.5276
1671.9662
1337.7841
1065.8782
845.77117
668.47422
526.34109
412.92042
322.81115
251.52491
195.35811
151.27512
116.80375
89.942723
69.081258
52.930586
189893.35
178877.03
167908.3
157035.61
146308.53
135776.37
125487.52
115488.61
105823.59
96532.879
87652.612
79213.924
71242.429
63757.807
56773.568
50296.976
44329.147
38865.305
33895.19
29403.58
25370.927
21774.056
18586.911
15781.316
13327.714
11195.876
9355.5437
7776.9993
6431.5481
5291.9096
4332.5161
3529.7219
2861.9295
2309.6427
1855.4562
1483.9948
1181.8116
937.25781
740.33412
582.5308
456.66572
356.72482
277.70989
215.49668
166.70527
128.58365
98.904794
75.876843
58.066154
44.333319
206639.38
194730.26
182869.43
171107.96
159498.44
148093.44
136944.83
126102.8
115614.95
105525.29
95873.397
86693.644
78014.581
69858.45
62240.889
55170.809
48650.458
42675.669
37236.258
32316.576
27896.172
23950.54
20451.919
17370.118
14673.326
12328.885
10304.004
8566.3884
7084.7823
5829.4087
4772.3086
3887.5826
3151.5412
2542.7725
2042.1402
1632.7236
1299.7123
1030.2676
813.3624
639.60841
501.07934
391.13655
304.26218
235.90317
182.3285
140.50081
107.96286
82.738294
63.246581
48.2311
223258.41
210469.6
197729.77
185092.47
172613.14
160347.44
148350.52
136676.06
125375.15
114495.32
104079.56
94165.462
84784.515
75961.555
67714.4
60053.677
52982.85
46498.449
40590.466
35242.923
30434.563
26139.638
22328.769
18969.827
16028.811
13470.691
11260.187
9362.463
7743.7278
6371.7244
5216.1127
4248.7439
3443.836
2778.0575
2230.5346
1782.7936
1418.6517
1124.0716
886.98996
697.13184
545.81951
425.78342
330.98052
256.42421
198.02845
152.4674
117.05104
89.61655
68.434814
52.132024
239641.5
225991.11
212390.4
198895.3
185563.92
172454.79
159626.19
147135.08
135035.97
123379.79
112212.85
101575.94
91503.461
82022.85
73154.135
64909.706
57294.309
50305.247
43932.776
38160.681
32966.992
28324.817
24203.246
20568.298
17383.86
14612.598
12216.805
10159.154
8403.3623
6914.7266
5660.5531
4610.4642
3736.6003
3013.721
2419.2219
1933.08
1537.7425
1217.9737
960.67352
754.6793
590.56052
460.41516
357.67352
276.91417
213.69489
164.40039
126.10712
96.465236
73.596722
56.010134
255692.73
241203.05
226763.89
212433.38
198272.08
184341.21
170701.98
157414.46
144536.4
132122.04
120220.92
108876.93
98127.365
88002.245
78523.811
69706.248
61555.628
54070.093
47240.238
41049.694
35475.871
30490.825
26062.211
22154.284
18728.908
15746.527
13167.076
10950.807
9059.0004
7454.5582
6102.4746
4970.1786
4027.762
3248.0992
2606.8741
2082.5294
1656.1536
1311.3219
1033.9045
811.85628
634.99792
494.79805
384.1627
297.2374
229.22526
176.22263
135.0734
103.24137
78.700323
59.841565
271329.3
256026.09
240774.43
225634.53
210669.16
195941.98
181516.9
167456.93
153822.92
140672.25
128057.6
116025.88
104617.19
93864.126
83791.118
74414.156
65740.672
57769.692
50492.216
43891.798
37945.314
32623.859
27893.747
23717.568
20055.252
16865.111
14104.809
11732.251
9706.3531
7987.6846
6538.9831
5325.5327
4315.4181
3479.6634
2792.2706
2230.1729
1773.1209
1403.5171
1106.2157
868.30049
678.85233
528.71781
410.28456
317.26985
244.52588
187.86377
143.89724
109.90579
83.716522
63.60478
286481.24
270392.96
254357.65
238437.37
222696.82
207201.82
192018.75
177213.4
162849.51
148987.47
135683
122985.9
110939.03
99577.475
88927.839
79007.91
69826.495
61383.542
53670.505
46670.932
40361.243
34711.659
29687.251
25249.038
21355.116
17961.76
15024.455
12498.847
10341.567
8510.9266
6967.4733
5674.4053
4597.8525
3707.0345
2974.3101
2375.1366
1887.9548
1494.0185
1177.1857
923.6853
721.87205
561.98155
435.8921
336.90007
259.51271
199.26072
152.53157
116.4235
88.619389
67.280643
301090.78
284247.95
267460.11
250790.89
234306.5
218074.62
202163.91
186642.69
171577.48
157031.52
143063.4
129725.73
117064.05
105115.83
93909.835
83465.619
73793.362
64893.96
56759.364
49373.173
42711.423
36743.55
31433.468
26740.726
22621.688
19030.69
15921.137
13246.51
10961.245
9021.4782
7385.6431
6014.9205
4873.547
3928.9914
3152.0171
2516.6461
2000.0445
1582.3472
1246.4413
977.72162
763.83445
594.41881
460.85552
356.02977
274.11174
210.35806
160.93505
122.76383
93.386294
70.852517
315111.51
297546.09
280038.62
262653.84
245458.86
228522.96
211916.84
195711.2
179975.14
164774.63
150170.98
136219.5
122968.28
110457.15
98716.931
87768.925
77624.676
68286.033
59745.478
51986.711
44985.452
38710.428
33124.489
28185.81
23849.122
20066.926
16790.653
13971.716
11562.452
9516.9122
7791.4989
6345.4525
5141.1845
4144.4745
3324.5446
2654.0289
2108.8594
1668.0874
1313.6584
1030.1586
804.5465
625.8819
485.06251
374.57402
288.25908
221.108
169.07215
128.90046
97.997859
74.306212
328507.1
310252.08
292059.48
273994.03
256123.18
238517.51
221249.6
204392.37
188017.36
172193.1
156983.5
142446.43
128632.43
115583.59
103332.73
91902.849
81306.838
71547.498
62617.864
54501.774
47174.695
40604.717
34753.713
29578.578
25032.513
21066.289
17629.464
14671.491
12142.708
9995.1745
8183.3521
6664.6223
5399.647
4352.5839
3491.1732
2786.7135
2213.9488
1750.8856
1378.5619
1080.7834
843.84443
656.24566
508.41798
392.46101
301.90085
231.47031
176.913
134.81138
102.43792
77.629927
341249.55
322339.15
303497.58
284787.62
266276.61
248036.35
230141.2
212666.14
195685.04
179268.81
163483.84
148390.45
134041.48
120481.19
107744.34
95855.572
84829.072
74668.595
65367.738
56910.518
49272.194
42420.291
36315.785
30914.385
26167.861
22025.359
18434.671
15343.394
12699.972
10454.572
8559.8079
6971.2901
5648.0097
4552.5742
3651.3064
2914.2262
2314.9388
1830.4492
1440.924
1129.4196
881.59284
685.40672
530.84351
409.63162
314.99272
241.41201
184.43319
140.47862
106.69335
80.814138
353316.34
333787.98
314335.74
295018.29
275903.42
257064.27
238576.92
220518.34
202964.54
185988.72
169659.61
154039.79
139184.35
125139.6
111942.14
99618.187
88183.204
77641.873
67988.362
59206.89
51272.553
44152.377
37806.517
32189.584
27252.013
22941.432
19203.971
15985.482
13232.616
10893.751
8919.7512
7264.5429
5885.5306
4743.8472
3804.4655
3036.1865
2411.5294
1906.5428
1500.5615
1175.926
917.68325
713.28241
552.27648
426.03874
327.49953
250.90697
191.61347
145.88808
110.75392
83.851461
424734.23
404832.94
384806.61
364685.87
344587.93
324564.27
304676.58
284994.28
265592.05
246547.68
227940.03
209847.15
192344.37
175502.59
159386.6
144053.54
129551.7
115919.42
103184.43
91363.429
80461.996
70474.867
61386.481
53171.817
45797.452
39222.795
33401.446
28282.601
23812.468
19935.624
16596.279
13739.4
11311.679
9262.3264
7543.6791
6111.6391
4925.9423
3950.2814
3152.3012
2503.4891
1978.9854
1557.3338
1220.1938
952.03241
739.80936
572.66905
441.64651
339.39454
259.93545
198.43936
151.02926
114.61204
86.736477
457293.91
437004.36
416564.75
396002.49
375365.57
354737.5
334180.21
313759.05
293545.45
273615.73
254049.35
234926.95
216328.48
198331.3
181008.35
164426.44
148644.7
133713.24
119672.1
106550.42
94366.074
83125.525
72824.065
63446.367
54967.325
47353.12
40562.485
34548.085
29257.972
24637.032
20628.394
17174.733
14219.436
11707.613
9586.9176
7808.1921
6325.9219
5098.5253
4088.4864
3262.3571
2590.6498
2047.6453
1611.1387
1262.1445
984.58024
764.94206
591.98698
456.42935
350.65883
268.48355
204.90076
155.89488
118.26256
89.465579
469274.9
448489.47
427548.75
406489.52
385363.59
364240.81
343186.08
322267.4
301558.04
281135.92
261082.08
241478.85
222407.95
203948.61
186175.7
169157.92
152956.26
137622.56
123198.42
109714.36
97189.352
85630.71
75034.269
65384.949
56657.581
48818.001
41824.325
35628.366
30177.115
25414.236
21281.509
17720.179
14672.157
12081.073
9893.1255
8057.7516
6528.1088
5261.377
4218.9042
3366.2142
2672.9012
2112.4364
1661.9094
1301.7268
1015.2878
788.65115
610.20834
470.37106
361.28051
276.54268
210.99152
160.48063
121.70251
92.036775
480457.53
459203.23
437795.95
416274.26
394689.82
373106.2
351588.93
330207.69
309037.31
288157.16
267649.75
247598.96
228088.21
209198.44
191006.3
173582.28
156989.09
141280.19
126498.66
112676.29
99833.129
87977.282
77105.114
67201.791
58242.112
50191.606
43007.833
36641.823
31039.594
26143.678
21894.606
18232.294
15097.282
12431.819
10180.744
8292.1858
6718.0576
5414.3815
4341.4414
3463.7979
2750.1845
2173.313
1709.6108
1338.9141
1044.1351
810.9218
627.32229
483.46379
371.25405
284.10897
216.70902
164.78481
124.93088
94.449537
490852.71
469160.7
447320.04
425368.69
403357.12
381345.57
359399.49
337589.6
315991.98
294687.27
273759.33
253293.5
233374.7
214085.52
195504.24
177703.01
160746.13
144688.58
129574.82
115437.85
102298.71
90166.256
79037.376
68897.476
59721.34
51474.23
44113.203
37588.576
31845.471
26825.381
22467.682
18711.059
15494.781
12759.816
10449.74
8511.4624
6895.7396
5557.514
4456.0775
3555.0918
2822.4869
2230.2653
1754.236
1373.7014
1071.1188
831.75203
643.32776
495.70716
380.57947
291.18273
222.05376
168.80802
127.94834
96.704578
500477.35
478379.63
456137.81
433788.64
411381.22
388973.81
366631.55
344425.81
322433.65
300736.83
279420.43
258571.11
238275.2
218616.78
199675.65
181525.48
164232.07
147851.8
132430.4
118002.01
104588.6
92199.745
80832.814
70473.456
61096.455
52666.84
45141.215
38469.249
32595.245
27459.739
23001.046
19156.716
15864.844
13065.212
10700.229
8715.6712
7061.2248
5690.8294
4562.8557
3640.13
2889.8356
2283.3153
1795.8024
1406.1029
1096.2505
851.15112
658.2323
507.10726
389.26169
297.7679
227.02891
172.55283
130.75703
98.803725
509352.41
486880.67
464269.03
441553.01
418780.49
396008.34
373301.39
350731.43
328376.28
306318.67
284644.79
263442.49
242799.4
222800.95
203528.34
185056.66
167453.07
150775.25
135070.13
120372.88
106706.35
94080.789
82494.015
71931.92
62369.299
53770.976
46093.15
39284.899
33289.784
28047.462
23495.277
19569.734
16207.849
13348.312
10932.453
8905.0073
7214.6688
5814.4516
4661.8744
3718.9908
2952.2926
2332.5119
1834.3487
1436.1492
1119.5542
869.13807
672.05081
517.67576
397.30982
303.8716
231.63996
176.02351
133.36032
100.74974
517501.9
494686.98
471735.9
448683.09
425575.37
402468.59
379427.29
356523.5
333835.68
311447.42
289445.87
267919.97
246958.52
226648.21
207071.51
188304.8
170416.49
153465.47
137499.76
122555.51
108656.36
95813.191
84024.256
73275.672
63542.256
54788.655
46970.703
40036.947
33930.269
28589.528
23951.179
19950.772
16524.334
13609.551
11146.766
9079.7547
7356.2995
5928.5629
4753.2789
3791.7894
3009.9492
2377.9272
1869.9318
1463.8849
1141.0649
885.74015
684.8045
527.4291
404.73656
309.50355
235.89436
179.22575
135.76258
102.54612
524952.12
501823.79
478562.6
455202.04
431788.01
408375.61
385029.04
361820.56
338829.14
316139.11
293838.48
272017.16
250765.04
230169.92
210315.44
191279.16
173130.64
155929.88
139725.88
124555.69
110443.71
97401.383
85427.376
74508.019
64618.159
55722.289
47775.917
40727.111
34518.139
29087.136
24369.744
20300.648
16814.968
13849.477
11343.612
9240.2722
7486.4058
6033.3945
4837.2536
3858.6726
3062.9216
2419.6528
1902.6237
1489.3663
1160.8266
900.99154
696.51988
536.38775
411.55761
314.67576
239.80119
182.16637
137.96898
104.19695
531731.01
508317.86
484774.74
461134.34
437441.82
413751.59
390127.61
366642.28
343375.03
320410.82
297838.43
275748.67
254232.36
233378.32
213271.27
193989.82
175604.6
158176.57
141755.7
126379.82
112074.02
98850.289
86707.66
75632.67
65600.198
56574.605
48511.112
41357.353
35055.042
29541.661
24752.119
20620.308
17080.531
14068.727
11523.51
9386.9798
7605.3259
6129.2179
4914.0155
3919.8126
3111.346
2457.7963
1932.5087
1512.6595
1178.8906
914.93213
707.22775
544.5754
417.79114
319.40205
243.3709
184.85315
139.98525
105.70666
537867.67
514197.02
490398.94
466505.46
442561.06
418619.58
394744.76
371009.12
347492.49
324280.4
301462.3
279129.79
257374.55
236286.31
215950.75
196447.45
177847.97
160214.2
143596.93
128034.74
113553.34
100165.22
87869.74
76653.644
66491.842
57348.581
49178.824
41929.823
35542.793
29954.626
25099.569
20910.804
17321.888
14268.009
11687.037
9520.3464
7713.4383
6216.3369
4983.8071
3975.4024
3155.3753
2492.478
1959.6813
1533.8382
1195.3144
927.60639
716.96245
552.01844
423.45732
323.69776
246.61503
187.2946
141.81752
107.07961
543391.9
519489.78
495462.48
471341.44
447170.56
423003.16
398902.76
374942.02
351201.15
327766.16
304727.12
282176.3
260206.16
238907.24
218366.08
198663.11
179870.78
162051.77
145257.63
129527.63
114888.02
101351.75
88918.507
77575.194
67296.768
58047.377
49781.758
42446.818
35983.331
30327.659
25413.456
21173.263
17539.97
14448.09
11834.817
9640.8789
7811.1523
6295.0804
5046.8914
4025.6511
3195.1749
2523.8282
1984.2438
1552.9823
1210.16
939.06236
725.76099
558.74529
428.57786
327.57938
249.54601
189.49993
143.47217
108.3194
548333.83
524224.96
499992.9
475668.61
451295.42
426926.15
402624.14
378462.22
354520.92
330886.72
307650.21
284904.26
262742.01
241254.73
220529.7
200648.16
181683.29
163698.54
146746.11
130865.88
116084.62
102415.68
89859.026
78401.737
68018.803
58674.289
50322.733
42910.74
36378.688
30662.469
25695.207
21408.873
17735.76
14609.774
11967.511
9749.1128
7898.9006
6365.7961
5103.5464
4070.7799
3230.92
2551.985
2006.3041
1570.1761
1223.493
949.35075
733.66245
564.78591
433.17565
331.06433
252.17696
191.47887
144.95595
109.42741
82.393552
552723.66
528431.44
504017.83
479513.33
454960.76
430412.42
405931.47
381590.96
357471.76
333660.75
310248.97
287329.82
264997.03
243342.51
222454.21
202414.06
183295.92
165163.89
148070.78
132057.01
117149.81
103362.89
90696.475
79137.791
68661.867
59232.699
50804.65
43324.06
36730.957
30960.819
25946.299
21618.862
17910.273
14753.899
12085.801
9845.6033
7977.1322
6428.845
5154.0608
4111.0186
3262.7924
2577.0915
2025.9747
1585.5072
1235.3813
958.52417
740.70732
570.17136
437.27441
334.17062
254.52156
193.24171
146.27668
110.41324
83.120307
556591.37
532137.9
507564.66
482901.8
458191.55
433485.68
408847.18
384349.38
360073.53
336106.84
312540.75
289469.1
266986.13
245184.31
224152.2
203972.3
184719.1
166457.25
149240.13
133108.61
118090.33
104199.34
91436.084
79787.925
69229.93
59726.034
51230.451
43689.288
37042.267
31224.503
26168.235
21804.483
18064.545
14881.316
12190.385
9930.9183
8046.3063
6484.5967
5198.7303
4146.6023
3290.9782
2599.2942
2043.3704
1599.0653
1245.8946
966.63636
746.93696
574.93333
440.89834
336.91669
256.59379
194.79911
147.44257
111.28214
83.764451
559966.56
535372.61
510660.44
485859.83
461012.42
436169.33
411393.4
386758.35
362345.84
338243.37
314542.7
291338.05
268724.09
246793.77
225636.16
205334.3
185963.19
167588.01
150262.58
134028.21
118912.9
104930.97
92083.083
80356.715
69726.97
60157.733
51603.09
44008.946
37314.76
31455.326
26362.529
21966.997
18199.623
14992.886
12281.967
10005.631
8106.887
6533.4243
5237.8534
4177.7687
3315.6657
2618.7416
2058.6074
1610.9408
1255.1032
973.74164
752.39317
579.10383
444.07188
339.32113
258.4078
196.16189
148.46196
112.04115
84.326071
63.30501
562878.23
538163.27
513331.63
488412.74
463447.53
438486.33
413591.82
388838.33
364307.94
340088.39
316271.69
292952.36
270225.44
248184.28
226918.41
206511.31
187038.44
168565.42
151146.48
134823.3
119624.18
105563.68
92642.663
80848.704
70156.94
60531.215
51925.506
44285.546
37550.568
31655.092
26530.692
22107.664
18316.549
15089.471
12361.252
10070.316
8159.3385
6575.7016
5271.7293
4204.7557
3337.0431
2635.5817
2071.8018
1621.2244
1263.0773
979.89428
757.11767
582.71485
446.81942
341.40251
259.97771
197.3408
149.34321