/*--------------------------------*- C++ -*----------------------------------*\
| =========                 |                                                 |
| \\      /  F ield         | OpenFOAM: The Open Source CFD Toolbox           |
|  \\    /   O peration     | Version:  2312                                  |
|   \\  /    A nd           | Website:  www.openfoam.com                      |
|    \\/     M anipulation  |                                                 |
\*---------------------------------------------------------------------------*/
FoamFile
{
    version     2.0;
    format      ascii;
    arch        "LSB;label=32;scalar=64";
    class       volScalarField;
    location    "0.06";
    object      T;
}
// * * * * * * * * * * * * * * * * * * * * * * * * * * * * * * * * * * * * * //

dimensions      [0 0 0 1 0 0 0];

internalField   nonuniform List<scalar> 
3250
(
346.60166
346.39656
346.17769
345.94619
345.7028
345.44807
345.18249
344.90653
344.62064
344.32529
344.02095
343.70805
343.38699
343.0581
342.72167
342.37793
342.02708
341.66929
341.30475
340.93366
340.55627
340.17287
339.78383
339.38958
338.99058
338.58735
338.18041
337.77029
337.35753
336.94261
336.52596
336.10796
335.68893
335.2691
334.84862
334.42757
334.00593
333.58362
333.16044
332.73616
332.31041
331.88275
331.45259
331.01923
350.14792
349.87789
349.59369
349.29651
348.98714
348.66622
348.33429
347.99191
347.63959
347.27789
346.90731
346.52837
346.14152
345.74716
345.34565
344.93728
344.52232
344.10101
343.67359
343.24031
342.80148
342.35743
341.90856
341.45532
340.99818
340.53769
340.07436
339.60875
339.14137
338.67271
338.20321
337.73325
337.26314
336.79311
336.32333
335.85387
335.38471
334.91579
334.44691
333.97785
333.50825
333.03769
332.56562
332.09148
356.43759
356.06058
355.66849
355.26248
354.84341
354.41203
353.96901
353.51503
353.05073
352.57677
352.09381
351.60244
351.10325
350.59676
350.08346
349.56376
349.03805
348.50669
347.97005
347.42848
346.88238
346.33216
345.7783
345.22129
344.66167
344.09999
343.53682
342.97271
342.4082
341.84379
341.27993
340.71701
340.15536
339.59523
339.03678
338.48011
337.92524
337.37209
336.82051
336.27028
335.72107
335.17249
334.62406
334.07528
364.58057
364.07943
363.56143
363.02767
362.47914
361.9167
361.34118
360.7534
360.15418
359.54434
358.92466
358.29592
357.65885
357.01416
356.36248
355.70441
355.04051
354.37132
353.69735
353.01912
352.33716
351.65202
350.96427
350.27451
349.58334
348.89139
348.19928
347.50761
346.81696
346.12787
345.44083
344.75626
344.07451
343.39589
342.7206
342.04876
341.38044
340.71561
340.05416
339.3959
338.74056
338.08781
337.43724
336.78841
373.75018
373.12783
372.48587
371.82543
371.14756
370.45326
369.74352
369.01933
368.28165
367.53148
366.76979
365.99751
365.21558
364.42487
363.62622
362.82044
362.00828
361.19048
360.36776
359.54082
358.71036
357.8771
357.04175
356.20503
355.36768
354.53041
353.69393
352.85894
352.02608
351.19595
350.36913
349.54609
348.72727
347.91301
347.1036
346.29924
345.50005
344.70606
343.91726
343.13351
342.35464
341.58037
340.8104
340.04437
383.28817
382.55945
381.80767
381.03395
380.23941
379.42517
378.59234
377.74205
376.87544
375.99364
375.09779
374.18901
373.26839
372.33702
371.39593
370.44614
369.4886
368.52428
367.55409
366.57894
365.59974
364.61738
363.63274
362.64671
361.66015
360.67392
359.68885
358.70573
357.72533
356.74836
355.77547
354.80725
353.84422
352.88684
351.93548
350.99044
350.05193
349.1201
348.19501
347.27664
346.36492
345.45966
344.56068
343.66774
392.73964
391.92367
391.08079
390.21213
389.31885
388.40215
387.46322
386.50331
385.52367
384.52556
383.51027
382.47906
381.4332
380.37393
379.30248
378.22003
377.12778
376.02687
374.91844
373.80358
372.6834
371.55899
370.4314
369.30169
368.17088
367.03999
365.90998
364.78179
363.6563
362.53436
361.41675
360.30416
359.19726
358.09661
357.0027
355.91595
354.83672
353.76524
352.70172
351.64625
350.59888
349.55955
348.52821
347.50471
401.83387
400.94885
400.03303
399.08752
398.1135
397.11218
396.08482
395.03273
393.95725
392.85973
391.74155
390.60411
389.44881
388.27701
387.09012
385.88949
384.67647
383.4524
382.2186
380.97636
379.72696
378.47166
377.21172
375.94834
374.68272
373.41603
372.14939
370.88387
369.62052
368.3603
367.10414
365.85288
364.60731
363.36813
362.13598
360.91141
359.69489
358.48683
357.28754
356.09727
354.91618
353.74438
352.58192
351.4288
410.43836
409.49921
408.52556
407.51845
406.47902
405.40851
404.3082
403.17943
402.02358
400.84207
399.63636
398.40791
397.15823
395.8888
394.60114
393.29674
391.9771
390.64371
389.29804
387.94156
386.57572
385.20193
383.82161
382.43614
381.04687
379.65512
378.26215
376.86921
375.47746
374.08804
372.702
371.32034
369.94398
368.57377
367.21049
365.85483
364.50741
363.16878
361.8394
360.51964
359.20983
357.9102
356.62095
355.3422
420.35601
419.45297
418.50994
417.52787
416.50776
415.45066
414.35771
413.23011
412.06915
410.87617
409.65257
408.3998
407.11936
405.81277
404.48159
403.1274
401.7518
400.3564
398.94281
397.51265
396.06752
394.60903
393.13877
391.65831
390.1692
388.67298
387.17114
385.66514
384.15641
382.64632
381.1362
379.6273
378.12083
376.61793
375.11967
373.62703
372.14095
370.66225
369.19171
367.72999
366.27772
364.83541
363.40352
361.98244
360.57248
359.1739
427.96243
427.03017
426.05498
425.03768
423.9792
422.88055
421.7428
420.56714
419.35482
418.10717
416.82557
415.51148
414.16642
412.79194
411.38964
409.96117
408.50819
407.03239
405.53547
404.01916
402.48518
400.93523
399.37105
397.79433
396.20676
394.61
393.00567
391.39539
389.78071
388.16314
386.54414
384.92511
383.3074
381.69229
380.08097
378.47457
376.87417
375.28074
373.69517
372.1183
370.55085
368.99351
367.44685
365.91139
364.3876
362.87584
435.06055
434.10374
433.10142
432.0543
430.9632
429.82906
428.6529
427.43584
426.17909
424.88394
423.55176
422.18399
420.78214
419.34779
417.88256
416.38813
414.86622
413.31859
411.747
410.15327
408.53921
406.90663
405.25737
403.59323
401.91602
400.22752
398.52949
396.82366
395.11171
393.39529
391.67598
389.95532
388.23478
386.51578
384.79965
383.08765
381.38098
379.68076
377.98801
376.30368
374.62866
372.96373
371.30963
369.66698
368.03637
366.41829
441.68734
440.70931
439.6835
438.61049
437.49101
436.32591
435.11613
433.86273
432.56685
431.22974
429.85272
428.43723
426.98476
425.49688
423.97523
422.42152
420.8375
419.22497
417.58577
415.92178
414.23488
412.52699
410.80002
409.05589
407.29652
405.52379
403.73958
401.94573
400.14405
398.33631
396.52422
394.70945
392.89359
391.07817
389.26467
387.45449
385.64892
383.84923
382.05656
380.27199
378.49653
376.73109
374.97651
373.23355
371.50291
369.78519
447.87723
446.88059
445.83414
444.73835
443.59384
442.40138
441.16181
439.87612
438.54537
437.17077
435.7536
434.29524
432.79718
431.26097
429.68826
428.08078
426.44029
424.76864
423.06772
421.33947
419.58583
417.8088
416.01039
414.1926
412.35744
410.50691
408.643
406.76765
404.88281
402.99033
401.09208
399.18981
397.28526
395.38009
393.47588
391.57416
389.67635
387.78382
385.89786
384.01965
382.15031
380.29089
378.44233
376.6055
374.78121
372.97015
453.66001
452.64698
451.58232
450.46639
449.29973
448.08297
446.81689
445.50236
444.1404
442.73214
441.27881
439.78174
438.24241
436.66234
435.04319
433.38667
431.69458
429.9688
428.21125
426.42392
424.60883
422.76804
420.90363
419.01769
417.11234
415.18966
413.25174
411.30065
409.33842
407.36705
405.38848
403.40463
401.41732
399.42835
397.4394
395.45213
393.46808
391.48874
389.51549
387.54966
385.59247
383.64505
381.70848
379.78374
377.87171
375.97318
459.06098
458.03357
456.95289
455.81923
454.633
453.39472
452.10506
450.76482
449.37492
447.93643
446.45052
444.91848
443.34175
441.72182
440.06035
438.35904
436.61971
434.84426
433.03464
431.19289
429.32109
427.42135
425.49583
423.54671
421.57618
419.58643
417.57964
415.55798
413.5236
411.47859
409.42503
407.36493
405.30025
403.23287
401.16462
399.09726
397.03244
394.97177
392.91675
390.8688
388.82926
386.79937
384.7803
382.77313
380.77884
378.7983
464.10206
463.0621
461.96745
460.81829
459.61489
458.35766
457.04715
455.68407
454.26927
452.80371
451.28853
449.72496
448.11439
446.45829
444.7583
443.01611
441.23355
439.41254
437.55506
435.66318
433.73902
431.78478
429.80266
427.79493
425.76385
423.7117
421.64078
419.55333
417.45161
415.33783
413.21417
411.08275
408.94565
406.80485
404.66232
402.51989
400.37937
398.24245
396.11074
393.98577
391.86898
389.76172
387.66525
385.58075
383.50927
381.4518
468.80278
467.7519
466.64525
465.48272
464.26442
462.99064
461.66184
460.27861
458.84172
457.35207
455.8107
454.21881
452.57773
450.88891
449.15394
447.37454
445.55251
443.68978
441.78836
439.85036
437.87795
435.87336
433.83887
431.7768
429.68952
427.57937
425.44874
423.29998
421.13545
418.95745
416.76828
414.57016
412.36528
410.15574
407.9436
405.73084
403.51933
401.31089
399.10725
396.91002
394.72075
392.54089
390.37179
388.21472
386.07082
383.94115
474.18331
473.18053
472.12091
471.00421
469.8303
468.59921
467.31112
465.96639
464.56552
463.10918
461.59818
460.03352
458.41631
456.74783
455.02952
453.26291
451.44972
449.59175
447.69093
445.74929
443.76896
441.75215
439.70114
437.61827
435.50593
433.36654
431.20255
429.01642
426.8106
424.58753
422.34964
420.09929
417.83885
415.57058
413.29672
411.01942
408.74076
406.46274
404.18727
401.91617
399.65118
397.39393
395.14596
392.90871
390.68355
388.4717
386.27428
478.26258
477.25354
476.18659
475.06147
473.87797
472.63601
471.33567
469.97719
468.56098
467.08762
465.55784
463.97254
462.33281
460.63985
458.89505
457.09994
455.25619
453.36559
451.43009
449.45172
447.43264
445.37508
443.28138
441.15391
438.99514
436.80756
434.59368
432.35604
430.0972
427.81967
425.52598
423.21861
420.9
418.57254
416.23857
413.90033
411.56001
409.21972
406.88147
404.54718
402.21868
399.8977
397.58588
395.28475
392.99574
390.72016
388.45921
482.05323
481.03883
479.96578
478.83368
477.64218
476.39108
475.08033
473.71007
472.28062
470.79246
469.24624
467.64278
465.9831
464.26835
462.49987
460.67915
458.80784
456.88772
454.92073
452.90892
450.85445
448.75959
446.6267
444.45823
442.25668
440.0246
437.76458
435.47925
433.17122
430.84312
428.49755
426.1371
423.76431
421.38165
418.99157
416.59642
414.19849
411.79998
409.40301
407.00959
404.62164
402.241
399.86937
397.50839
395.15956
392.82428
390.5038
485.57181
484.55285
483.47485
482.33707
481.13898
479.88026
478.56076
477.1805
475.73971
474.23875
472.67821
471.05883
469.38155
467.64747
465.85789
464.01424
462.11816
460.17141
458.17591
456.13371
454.047
451.91807
449.74931
447.54321
445.30231
443.02924
440.72664
438.39722
436.04366
433.66868
431.27497
428.8652
426.442
424.00796
421.56561
419.11739
416.66571
414.21285
411.76102
409.31234
406.86882
404.43238
402.00481
399.58783
397.18303
394.79185
392.41564
489.7969
488.83372
487.81166
486.72985
485.58753
484.3841
483.11911
481.79231
480.40362
478.95315
477.4412
475.86824
474.23496
472.54222
470.79106
468.98272
467.11861
465.20031
463.22958
461.20832
459.13859
457.02257
454.86258
452.66104
450.42047
448.14347
445.8327
443.49088
441.12077
438.72514
436.30677
433.86846
431.41294
428.94294
426.46114
423.97016
421.47255
418.97078
416.46725
413.96426
411.46402
408.96862
406.48006
404.00023
401.53092
399.0738
396.63038
394.20205
492.82082
491.85575
490.83126
489.74649
488.6006
487.39288
486.12278
484.78995
483.3942
481.93554
480.41418
478.83051
477.18514
475.47885
473.71263
471.88766
470.00531
468.06714
466.07486
464.03038
461.93573
459.79312
457.60488
455.37343
453.10134
450.79125
448.44587
446.06798
443.66039
441.22594
438.7675
436.28792
433.79004
431.27665
428.75053
426.21438
423.67085
421.1225
418.57181
416.02117
413.47287
410.9291
408.39193
405.86335
403.34521
400.83924
398.34704
395.87004
495.62026
494.65347
493.62705
492.54
491.39134
490.18023
488.90602
487.56825
486.16662
484.70107
483.17169
481.57881
479.92295
478.20482
476.42535
474.58568
472.68712
470.73119
468.71959
466.65419
464.53704
462.37033
460.1564
457.89771
455.59685
453.25648
450.87938
448.46835
446.02628
443.55608
441.06066
438.54296
436.00589
433.45234
430.88515
428.30712
425.72096
423.12933
420.5348
417.93983
415.34682
412.75801
410.17558
407.60156
405.0379
402.4864
399.94871
397.42632
498.20995
497.24162
496.21378
495.12505
493.97429
492.76055
491.48307
490.14128
488.73481
487.26347
485.7273
484.12652
482.46158
480.73313
478.94203
477.08937
475.17641
473.20463
471.17571
469.09151
466.95405
464.76553
462.52829
460.24481
457.9177
455.54967
453.14351
450.70209
448.22834
445.72523
443.19574
440.64288
438.06962
435.47893
432.87373
430.25689
427.63121
424.99944
422.36421
419.72807
417.09349
414.4628
411.83826
409.22196
406.61593
404.02204
401.44199
398.87733
501.51374
500.60316
499.63427
498.60556
497.51567
496.36337
495.14762
493.86758
492.52256
491.11212
489.63596
488.09405
486.48651
484.81374
483.0763
481.27501
479.41088
477.48515
475.49925
473.45483
471.35373
469.19795
466.9897
464.73133
462.42531
460.07429
457.68098
455.24824
452.77897
450.27614
447.74278
445.18194
442.59666
439.99002
437.36503
434.72469
432.07194
429.40968
426.7407
424.06772
421.39339
418.72022
416.05064
413.38695
410.73136
408.08593
405.45262
402.83318
400.22921
503.72504
502.81436
501.84515
500.81591
499.72524
498.57185
497.35462
496.07259
494.72502
493.31133
491.83119
490.28443
488.67114
486.99161
485.24637
483.43614
481.56191
479.62485
477.62637
475.56809
473.4518
471.27953
469.05345
466.77591
464.44941
462.07661
459.66025
457.20321
454.70843
452.17893
449.61779
447.0281
444.41299
441.77557
439.11893
436.44614
433.76021
431.0641
428.36068
425.65274
422.943
420.23405
417.52838
414.82836
412.13628
409.45425
406.78432
404.1283
401.48786
505.76747
504.85656
503.88713
502.85758
501.76643
500.61231
499.39401
498.11049
496.7609
495.34461
493.86116
492.31035
490.69216
489.00683
487.2548
485.43676
483.55362
481.60653
479.59685
477.52616
475.39625
473.20911
470.96691
468.67201
466.32692
463.93429
461.49691
459.01766
456.49954
453.9456
451.35896
448.74277
446.10021
443.43444
440.74862
438.04589
435.32931
432.60192
429.86665
427.12636
424.38383
421.64173
418.9026
416.1689
413.44294
410.72695
408.02302
405.33307
402.65887
507.65303
506.74188
505.77232
504.74261
503.6512
502.49662
501.27758
499.99296
498.64182
497.22344
495.73729
494.18309
492.56074
490.87042
489.1125
487.28762
485.39665
483.44067
481.42101
479.33923
477.19708
474.99655
472.7398
470.42918
468.0672
465.65653
463.19998
460.70046
458.16098
455.58465
452.97463
450.3341
447.66629
444.97444
442.26175
439.5314
436.78655
434.03027
431.26556
428.49537
425.7225
422.94971
420.1796
417.41467
414.65732
411.90982
409.17433
406.45287
403.74744
509.39298
508.48163
507.512
506.48226
505.39074
504.23592
503.01641
501.73101
500.37869
498.95866
497.47032
495.91328
494.28742
492.59281
490.82979
488.99894
487.10105
485.1372
483.10866
481.01695
478.86383
476.65124
474.38134
472.05648
469.67917
467.2521
464.77807
462.26004
459.70104
457.10421
454.47274
451.80987
449.11888
446.40303
443.66559
440.90981
438.13888
435.35595
432.56407
429.76623
426.96533
424.16415
421.36537
418.57154
415.7851
413.00838
410.24358
407.49274
404.75764
402.04027
510.99792
510.0864
509.11674
508.08704
506.99556
505.84066
504.62089
503.33495
501.98177
500.56045
499.07033
497.51095
495.88211
494.18383
492.41639
490.58031
488.67634
486.70551
484.66906
482.56849
480.40551
478.18205
475.90028
473.56252
471.1713
468.7293
466.23936
463.70443
461.12759
458.51199
455.86087
453.17751
450.46521
447.72731
444.96711
442.1879
439.39295
436.58543
433.76848
430.94514
428.11833
425.29092
422.46562
419.64505
416.83169
414.0279
411.23592
408.4578
405.69537
402.95016
512.47771
511.56604
510.5964
509.56679
508.47542
507.32057
506.1007
504.81445
503.46065
502.03834
500.54679
498.98548
497.35413
495.65271
493.88144
492.04078
490.13146
488.15445
486.11095
484.00244
481.83061
479.59737
477.30487
474.95543
472.55158
470.09601
467.59157
465.04122
462.44808
459.81531
457.14619
454.44403
451.71218
448.95401
446.17288
443.37212
440.55504
437.72487
434.8848
432.03792
429.18721
426.33558
423.48578
420.64049
417.80223
414.9734
412.15626
409.3529
406.56516
403.79464
513.84155
512.92973
511.96011
510.93065
509.83944
508.68473
507.46489
506.17848
504.82428
503.40123
501.90855
500.34564
498.71218
497.00808
495.23349
493.38884
491.4748
489.4923
487.44253
485.32692
483.14713
480.90508
478.60288
476.24287
473.82756
471.35965
468.84199
466.27759
463.66954
461.02107
458.33547
455.61607
452.86629
450.0895
447.28913
444.46855
441.6311
438.78008
435.91871
433.05013
430.17737
427.30338
424.43098
421.56287
418.70161
415.84964
413.00925
410.18257
407.37148
404.57768
515.09798
514.186
513.2164
512.18708
511.0961
509.94159
508.72187
507.43544
506.08099
504.65741
503.16384
501.59963
499.9644
498.258
496.48054
494.6324
492.7142
490.72684
488.67148
486.54951
484.36258
482.11259
479.80163
477.43203
475.00632
472.52719
469.9975
467.42027
464.79861
462.13578
459.43509
456.69991
453.93366
451.1398
448.32175
445.48295
442.62677
439.75656
436.87557
433.987
431.09392
428.19932
425.30606
422.41689
419.5344
416.66107
413.79923
410.95103
408.11841
405.30313
516.25491
515.34274
514.37315
513.34398
512.25323
511.09898
509.87946
508.59311
507.23854
505.81459
504.32034
502.75508
501.11837
499.41001
497.63006
495.77887
493.857
491.86534
489.80498
487.67732
485.48398
483.22682
480.90794
478.52967
476.09451
473.60518
471.06453
468.4756
465.84153
463.16557
460.45106
457.70142
454.92009
452.11055
449.27628
446.42073
443.54734
440.65947
437.76044
434.85346
431.94167
429.02808
426.1156
423.20701
420.30495
417.41192
414.53029
411.66226
408.80979
405.9747
517.31968
516.40726
515.43764
514.40862
513.31813
512.16417
510.94491
509.65871
508.30413
506.87995
505.38518
503.81908
502.18113
500.4711
498.68901
496.83514
494.91005
492.91455
490.84975
488.71699
486.51788
484.25426
481.92823
479.5421
477.09837
474.59976
472.04914
469.44954
466.80412
464.11617
461.38903
458.62614
455.83099
453.00708
450.15792
447.287
444.39779
441.49369
438.57806
435.65415
432.72514
429.79407
426.86389
423.93742
421.01733
418.10616
415.2063
412.31998
409.44923
406.59586
518.29906
517.38633
516.41664
515.38776
514.29753
513.14389
511.92493
510.63894
509.28444
507.86014
506.365
504.79822
503.15925
501.4478
499.66385
497.80764
495.8797
493.88081
491.81204
489.67471
487.47041
485.20097
482.86847
480.47522
478.02372
475.51667
472.95697
470.34765
467.69188
464.99296
462.25427
459.47927
456.67146
453.83438
450.97156
448.08653
445.1828
442.2638
439.33292
436.39345
433.44859
430.50145
427.55498
424.61206
421.67537
418.7475
415.83086
412.92772
410.04011
407.16991
519.1993
518.28617
517.31637
516.28763
515.19768
514.04438
512.82575
511.54003
510.18566
508.76133
507.26593
505.69862
504.0588
502.34615
500.56059
498.70234
496.77188
494.76997
492.69766
490.55624
488.34727
486.07259
483.73425
481.33454
478.87598
476.36127
473.7933
471.17512
468.50991
465.80099
463.05174
460.26565
457.44626
454.59711
451.72177
448.82381
445.90676
442.97408
440.02919
437.07542
434.11602
431.15409
428.19266
425.23461
422.28266
419.33943
416.40736
413.48874
410.58565
407.69993
520.02617
519.11252
518.1426
517.11401
516.02435
514.8714
513.65313
512.36771
511.01354
509.58924
508.09368
506.52596
504.88545
503.17176
501.38482
499.52478
497.5921
495.58752
493.51204
491.36695
489.15379
486.87437
484.53075
482.1252
479.66024
477.13857
474.56308
471.93682
469.26301
466.54494
463.78606
460.98984
458.15984
455.29964
452.41285
449.50304
446.57376
443.62854
440.6708
437.70392
434.73115
431.75566
428.78048
425.80853
422.84257
419.88523
416.93899
414.00616
411.08882
408.18886
520.78487
519.87064
518.90063
517.87222
516.78288
515.6303
514.4124
513.12731
511.77337
510.34917
508.85352
507.2855
505.64441
503.92986
502.14171
500.28011
498.34548
496.33851
494.26021
492.11183
489.8949
487.61122
485.26282
482.85198
480.38121
477.85321
475.27089
472.63729
469.95562
467.22923
464.46154
461.65606
458.81637
455.94608
453.04879
450.12813
447.18767
444.23095
441.26143
438.28252
435.2975
432.30956
429.32178
426.33708
423.35826
420.38798
417.42873
414.48285
411.55244
408.6394
521.48005
520.56532
519.59538
518.56722
517.47822
516.32603
515.10852
513.82377
512.47009
511.04603
509.55036
507.9821
506.34055
504.62527
502.83609
500.97312
499.03675
497.02768
494.94686
492.79553
490.57521
488.28767
485.93496
483.51934
481.0433
478.50957
475.92102
473.28074
470.59193
467.85794
465.08222
462.26829
459.41975
456.54023
453.63335
450.70276
447.75206
444.78481
441.80452
438.81458
435.81834
432.819
429.81965
426.82327
423.83267
420.85053
417.87937
414.92154
411.97916
409.05411
524.5468
523.78686
522.97782
522.11552
521.20112
520.23143
519.20358
518.11495
516.96316
515.74604
514.46164
513.10825
511.68436
510.18871
508.62029
506.97838
505.26248
503.4724
501.60823
499.67034
497.65939
495.57632
493.42235
491.19898
488.90798
486.55137
484.13141
481.65061
479.11167
476.51748
473.87111
471.1758
468.4349
465.65186
462.83022
459.97361
457.08565
454.17002
451.23035
448.27029
445.29342
442.30326
439.30325
436.29673
433.28695
430.27703
427.26995
424.26857
421.27557
418.29352
415.32476
412.37142
409.4354
525.84289
525.12739
524.36676
523.55739
522.69629
521.78239
520.81306
519.78556
518.69731
517.54592
516.32919
515.04516
513.69206
512.26836
510.77277
509.20426
507.56205
505.84563
504.05478
502.18957
500.25034
498.23772
496.15264
493.9963
491.77019
489.47606
487.11594
484.69207
482.20695
479.66328
477.06397
474.41208
471.71086
468.96366
466.17395
463.3453
460.48133
457.58568
454.66205
451.71411
448.7455
445.75984
442.76067
439.75144
436.73554
433.71622
430.69662
427.67977
424.66853
421.66562
418.67361
415.69488
412.73154
409.7855
526.37366
525.6577
524.89654
524.08708
523.22662
522.31318
521.34422
520.31709
519.22923
518.07823
516.8619
515.57823
514.22543
512.80194
511.30645
509.73788
508.09543
506.37858
504.58708
502.72095
500.78053
498.76643
496.67955
494.5211
492.29253
489.99559
487.63229
485.20489
482.71586
480.16792
477.56396
474.90706
472.20047
469.44755
466.65178
463.81674
460.94606
458.04342
455.1125
452.15701
449.18062
446.18693
443.17953
440.1619
437.13743
434.1094
431.08098
428.0552
425.03497
422.02302
419.02193
416.03411
413.06168
410.10651
526.85826
526.14152
525.37988
524.57036
523.71026
522.7972
521.8286
520.80183
519.71434
518.56374
517.34779
516.06448
514.71198
513.28871
511.79333
510.22474
508.58212
506.8649
505.07283
503.20591
501.26444
499.24903
497.16055
495.0002
492.76943
490.46996
488.10381
485.67321
483.18065
480.62884
478.02067
475.35923
472.64777
469.88966
467.08839
464.24754
461.37077
458.46175
455.52421
452.56185
449.57836
446.57737
443.56248
440.53719
437.5049
434.46894
431.43247
428.39857
425.37014
422.34995
419.34061
416.34453
413.36384
410.4004
527.2998
526.58222
525.82012
525.0105
524.15061
523.23784
522.26957
521.24314
520.15602
519.0058
517.79022
516.50725
515.15505
513.73201
512.23676
510.66818
509.02542
507.30791
505.51535
503.64773
501.70534
499.68877
497.59887
495.43682
493.20407
490.90233
488.53361
486.10013
483.60439
481.04908
478.43711
475.77156
473.05568
470.29287
467.4866
464.64049
461.75818
458.84339
455.89982
452.93122
449.94128
446.93365
443.91195
440.87968
437.8403
434.79711
431.75332
428.71202
425.67614
422.64847
419.63163
416.62806
413.6399
410.66899
527.70123
526.98285
526.2203
525.41055
524.55078
523.63825
522.67026
521.64416
520.55738
519.40752
518.1923
516.90966
515.55775
514.13494
512.63983
511.07128
509.42843
507.71067
505.91769
504.04947
502.10627
500.08866
497.9975
495.83394
493.59942
491.29565
488.92461
486.48854
483.98993
481.43147
478.81606
476.1468
473.42693
470.65986
467.84908
464.99819
462.11088
459.19084
456.24181
453.26755
450.27175
447.2581
444.23021
441.19162
438.14578
435.09604
432.0456
428.99759
425.95494
422.92047
419.89684
416.88651
413.89163
410.91401
528.06535
527.34623
526.58325
525.77335
524.91364
524.00129
523.03356
522.00776
520.92131
519.77178
518.5569
517.27459
515.92296
514.50038
513.00541
511.43692
509.794
508.07604
506.28271
504.41396
502.47005
500.45153
498.35925
496.19434
493.95823
491.65263
489.27952
486.84113
484.33993
481.77863
479.16013
476.48752
473.76406
470.99314
468.17827
465.32308
462.43123
459.50645
456.55248
453.57309
450.57199
447.55288
444.51939
441.47508
438.42339
435.3677
432.31125
429.25715
426.20837
423.16776
420.13799
417.12156
414.12065
411.13707
528.39476
527.67497
526.91159
526.10154
525.24186
524.32966
523.36216
522.33663
521.25048
520.10128
518.88672
517.60471
516.25335
514.83098
513.33617
511.76774
510.12478
508.40666
506.61303
504.74382
502.79929
500.77997
498.68669
496.52058
494.28306
491.97583
489.60087
487.16039
484.65688
482.09302
479.47174
476.79611
474.06941
471.29503
468.47649
465.6174
462.72146
459.7924
456.83398
453.84996
450.84408
447.82004
444.78149
441.73199
438.67503
435.61397
432.55207
429.49246
426.43815
423.39198
420.35668
417.33477
414.32848
411.33965
528.69191
527.97152
527.20778
526.39756
525.53789
524.62583
523.65852
522.63324
521.54738
520.39847
519.18421
517.90249
516.55139
515.12924
513.63458
512.06622
510.42324
508.70499
506.9111
505.04151
503.09644
501.07641
498.98224
496.81507
494.5763
492.26762
489.89099
487.44865
484.94306
482.37692
479.75314
477.07481
474.3452
471.56771
468.74586
465.88328
462.98366
460.05075
457.08832
454.10013
451.08994
448.06146
445.01835
441.96419
438.90246
435.83656
432.76975
429.70519
426.64588
423.5947
420.55441
417.52758
414.51652
411.52315
528.95907
528.23813
527.47406
526.66371
525.80404
524.89208
523.92496
522.89991
521.8143
520.66567
519.45169
518.17024
516.81939
515.39744
513.90293
512.33466
510.69168
508.97332
507.17922
505.30929
503.36374
501.34309
499.24815
497.08004
494.84015
492.53018
490.15208
487.70807
485.20063
482.63246
480.00644
477.3257
474.59348
471.8132
468.98839
466.12267
463.21976
460.2834
457.31736
454.32543
451.31137
448.27891
445.2317
442.17335
439.10734
436.03709
432.96587
429.89685
426.83305
423.77738
420.7326
417.70136
414.68607
411.68882
529.19834
528.47694
527.71257
526.90209
526.04242
525.13056
524.1636
523.13875
522.05339
520.90501
519.69129
518.41009
517.05947
515.63772
514.14336
512.57517
510.9322
509.21377
507.41949
505.54927
503.60331
501.58212
499.4865
497.31756
495.07669
492.76557
490.38616
487.94068
485.43159
482.8616
480.2336
477.5507
474.81615
472.03339
469.20593
466.33742
463.43156
460.49211
457.52286
454.52759
451.51007
448.47404
445.42317
442.36106
439.29123
436.21708
433.14191
430.0689
427.00107
423.94137
420.89257
417.85737
414.8383
411.83777
529.4117
528.68989
527.92527
527.11467
526.25502
525.34324
524.37643
523.35177
522.26662
521.11848
519.905
518.62403
517.27363
515.85207
514.35785
512.78975
511.1468
509.42831
507.63389
505.76343
503.81711
501.79545
499.69924
497.52956
495.28783
492.9757
490.59513
488.14835
485.6378
483.0662
480.43644
477.75162
475.01501
472.23004
469.40023
466.52923
463.62075
460.67856
457.70644
454.70819
451.68759
448.64838
445.59425
442.5288
439.45556
436.37794
433.29925
430.22267
427.15126
424.08794
421.03554
417.99679
414.97431
411.97084
529.60098
528.87882
528.11399
527.3033
526.44365
525.53197
524.56528
523.5408
522.45584
521.30791
520.09466
518.81391
517.46371
516.04232
514.54825
512.98024
511.33732
509.61879
507.82425
505.95358
504.00696
501.98489
499.88816
497.71785
495.47536
493.16235
490.78077
488.33283
485.821
483.24798
480.61666
477.93015
475.19172
472.40479
469.57291
466.69971
463.78891
460.84428
457.86963
454.86874
451.84542
448.80339
445.74637
442.67796
439.60169
436.52099
433.43917
430.35943
427.28482
424.2183
421.16268
418.12073
415.0951
412.08838
409.10413
529.7679
529.04544
528.28043
527.46967
526.61005
525.69845
524.73189
523.70755
522.62277
521.47504
520.26199
518.98144
517.63143
516.21021
514.71626
513.14834
511.50546
509.78691
507.99228
506.12143
504.17456
502.15214
500.05496
497.88411
495.64095
493.32717
490.9447
488.49576
485.98281
483.40854
480.77585
478.08786
475.34783
472.55919
469.72548
466.85034
463.9375
460.99073
458.01385
455.01064
451.98491
448.94041
445.88083
442.80981
439.73088
436.64746
433.56289
430.48035
427.40293
424.33356
421.27508
418.23025
415.20175
412.1921
409.20336
529.91405
529.19133
528.42618
527.61538
526.7558
525.84428
524.87782
523.85362
522.76901
521.62145
520.40858
519.12822
517.77839
516.35732
514.8635
513.29567
511.65283
509.93427
508.13956
506.26858
504.32149
502.29878
500.20122
498.02989
495.78616
493.47171
491.08847
488.63866
486.12473
483.54938
480.91551
478.22622
475.4848
472.69466
469.85935
466.98252
464.0679
461.11927
458.14043
455.13519
452.10736
449.06069
445.99889
442.92558
439.84431
436.75852
433.67153
430.58654
427.50664
424.43477
421.37377
418.32638
415.29525
412.28283
409.29104
530.04091
529.31798
528.55272
527.74191
526.88238
525.97094
525.00459
523.98051
522.89603
521.74863
520.53593
519.25574
517.90607
516.48515
514.99145
513.4237
511.78091
510.06235
508.26759
506.3965
504.44923
502.42627
500.32839
498.15665
495.91244
493.59742
491.21352
488.76296
486.24819
483.6719
481.037
478.3466
475.60397
472.81254
469.97585
467.09756
464.18139
461.23114
458.25061
455.24362
452.21396
449.16541
446.10168
443.02639
439.94309
436.85524
433.76615
430.67904
427.59698
424.52293
421.45971
418.41005
415.37658
412.36163
409.36699
406.39468
530.14988
529.42678
528.66144
527.85064
526.99118
526.07983
525.11356
524.08958
523.00523
521.85797
520.64543
519.3654
518.01587
516.59508
515.10149
513.53384
511.89109
510.17255
508.37775
506.50657
504.55916
502.53599
500.43784
498.26577
496.02115
493.70564
491.32118
488.86998
486.35449
483.77741
481.14164
478.45028
475.70662
472.91408
470.07621
467.19666
464.27918
461.32754
458.34556
455.33706
452.30584
449.25568
446.19028
443.11329
440.02826
436.93863
433.84774
430.75879
427.67488
424.59894
421.5338
418.48217
415.44661
412.42944
409.43246
406.45659
530.24225
529.519
528.75361
527.94286
527.08349
526.17224
525.20604
524.18214
523.09789
521.95077
520.73836
519.45847
518.10908
516.68842
515.19494
513.62736
511.98467
510.26614
508.47133
506.60008
504.65256
502.62923
500.53085
498.3585
496.11354
493.79763
491.4127
488.96097
486.44488
483.86713