/*--------------------------------*- C++ -*----------------------------------*\
| =========                 |                                                 |
| \\      /  F ield         | OpenFOAM: The Open Source CFD Toolbox           |
|  \\    /   O peration     | Version:  2312                                  |
|   \\  /    A nd           | Website:  www.openfoam.com                      |
|    \\/     M anipulation  |                                                 |
\*---------------------------------------------------------------------------*/
FoamFile
{
    version     2.0;
    format      ascii;
    arch        "LSB;label=32;scalar=64";
    class       volVectorField;
    location    "0.06";
    object      U;
}
// * * * * * * * * * * * * * * * * * * * * * * * * * * * * * * * * * * * * * //

dimensions      [0 1 -1 0 0 0 0];

internalField   nonuniform List<vector> 
3250
(
(0.24032101 -1.102083 0)
(0.23720215 -1.0939568 0)
(0.23415875 -1.0854282 0)
(0.23116251 -1.0764927 0)
(0.22818972 -1.0671647 0)
(0.22523279 -1.0574663 0)
(0.22229434 -1.0474201 0)
(0.2193812 -1.0370476 0)
(0.21650092 -1.0263689 0)
(0.21365979 -1.0154032 0)
(0.21086181 -1.0041693 0)
(0.20810832 -0.992686 0)
(0.20539833 -0.98097258 0)
(0.20272933 -0.96904914 0)
(0.20009832 -0.95693647 0)
(0.19750294 -0.94465579 0)
(0.19494254 -0.93222847 0)
(0.1924188 -0.91967539 0)
(0.18993605 -0.90701663 0)
(0.18750115 -0.89427092 0)
(0.18512298 -0.88145549 0)
(0.18281165 -0.8685859 0)
(0.18057763 -0.85567608 0)
(0.17843081 -0.84273842 0)
(0.17637962 -0.82978406 0)
(0.17443039 -0.81682305 0)
(0.17258685 -0.80386469 0)
(0.17084993 -0.79091774 0)
(0.16921765 -0.77799062 0)
(0.16768531 -0.76509157 0)
(0.16624577 -0.75222869 0)
(0.1648898 -0.73940999 0)
(0.16360644 -0.72664326 0)
(0.16238353 -0.71393608 0)
(0.16120797 -0.70129565 0)
(0.16006616 -0.68872882 0)
(0.15894432 -0.67624197 0)
(0.15782859 -0.66384116 0)
(0.15670506 -0.65153211 0)
(0.15555943 -0.63932048 0)
(0.15437602 -0.6272122 0)
(0.15313549 -0.61521491 0)
(0.15181233 -0.603342 0)
(0.15038148 -0.5916183 0)
(0.26198935 -0.798555 0)
(0.25809791 -0.79392798 0)
(0.25429897 -0.78895938 0)
(0.25055924 -0.78366298 0)
(0.24685597 -0.77805454 0)
(0.24318317 -0.77215042 0)
(0.23954438 -0.76596672 0)
(0.23594656 -0.75951891 0)
(0.2323971 -0.75282181 0)
(0.22890219 -0.74588983 0)
(0.22546587 -0.73873725 0)
(0.2220898 -0.73137863 0)
(0.21877348 -0.72382891 0)
(0.21551495 -0.71610371 0)
(0.2123117 -0.70821909 0)
(0.20916166 -0.70019153 0)
(0.2060641 -0.69203746 0)
(0.20302022 -0.68377305 0)
(0.20003344 -0.67541377 0)
(0.19710931 -0.66697416 0)
(0.19425508 -0.65846764 0)
(0.19147907 -0.64990647 0)
(0.18878986 -0.64130172 0)
(0.18619549 -0.63266347 0)
(0.18370273 -0.62400085 0)
(0.18131645 -0.61532234 0)
(0.17903925 -0.60663585 0)
(0.1768712 -0.59794895 0)
(0.17480979 -0.58926896 0)
(0.17285014 -0.580603 0)
(0.17098514 -0.57195808 0)
(0.16920581 -0.56334095 0)
(0.16750174 -0.55475817 0)
(0.16586133 -0.54621588 0)
(0.16427229 -0.53771988 0)
(0.16272193 -0.52927546 0)
(0.16119738 -0.52088762 0)
(0.15968585 -0.51256094 0)
(0.15817451 -0.50429994 0)
(0.15665007 -0.49610905 0)
(0.15509748 -0.48799319 0)
(0.15349682 -0.47995821 0)
(0.15182074 -0.4720124 0)
(0.15004439 -0.46416652 0)
(0.30489145 -0.64338913 0)
(0.29971497 -0.63956151 0)
(0.29463948 -0.63545603 0)
(0.28963746 -0.63109298 0)
(0.28469101 -0.62648897 0)
(0.27979653 -0.6216584 0)
(0.27495781 -0.61661477 0)
(0.27018145 -0.61137117 0)
(0.2654744 -0.6059403 0)
(0.26084263 -0.60033471 0)
(0.25629033 -0.5945669 0)
(0.25181974 -0.5886496 0)
(0.24743123 -0.58259581 0)
(0.24312387 -0.57641894 0)
(0.23889613 -0.57013261 0)
(0.23474662 -0.5637506 0)
(0.23067483 -0.55728655 0)
(0.22668159 -0.55075371 0)
(0.22276938 -0.5441647 0)
(0.2189422 -0.53753137 0)
(0.21520533 -0.53086464 0)
(0.21156478 -0.52417452 0)
(0.20802675 -0.51747012 0)
(0.20459691 -0.5107598 0)
(0.20127986 -0.50405121 0)
(0.19807865 -0.49735149 0)
(0.19499443 -0.4906674 0)
(0.19202621 -0.48400534 0)
(0.18917093 -0.47737156 0)
(0.18642345 -0.47077201 0)
(0.18377683 -0.46421251 0)
(0.18122254 -0.45769851 0)
(0.1787508 -0.45123518 0)
(0.17635089 -0.44482715 0)
(0.17401149 -0.43847869 0)
(0.17172094 -0.43219345 0)
(0.16946758 -0.4259748 0)
(0.16723975 -0.41982565 0)
(0.16502575 -0.41374892 0)
(0.16281344 -0.40774738 0)
(0.16058884 -0.40182404 0)
(0.15833321 -0.39598201 0)
(0.15602111 -0.39022423 0)
(0.15363146 -0.38455243 0)
(0.36105229 -0.53944964 0)
(0.35433252 -0.53539293 0)
(0.34771384 -0.53111976 0)
(0.34117864 -0.52665337 0)
(0.334716 -0.52201132 0)
(0.32832571 -0.51720813 0)
(0.32201247 -0.51225697 0)
(0.31578283 -0.50717048 0)
(0.30964351 -0.50196096 0)
(0.30360047 -0.49664056 0)
(0.29765826 -0.49122132 0)
(0.29181986 -0.48571541 0)
(0.28608676 -0.480135 0)
(0.28045926 -0.47449239 0)
(0.274937 -0.46879982 0)
(0.2695195 -0.46306939 0)
(0.2642067 -0.45731285 0)
(0.25899931 -0.45154144 0)
(0.25389901 -0.44576573 0)
(0.24890848 -0.43999553 0)
(0.24403116 -0.43423986 0)
(0.23927094 -0.42850698 0)
(0.2346317 -0.42280441 0)
(0.23011688 -0.41713906 0)
(0.22572901 -0.4115173 0)
(0.22146936 -0.40594505 0)
(0.2173377 -0.40042791 0)
(0.21333211 -0.39497115 0)
(0.20944898 -0.38957982 0)
(0.20568305 -0.38425863 0)
(0.20202761 -0.37901205 0)
(0.1984746 -0.37384409 0)
(0.19501503 -0.36875834 0)
(0.19163907 -0.36375782 0)
(0.18833643 -0.35884502 0)
(0.18509665 -0.35402179 0)
(0.18190919 -0.34928959 0)
(0.17876366 -0.34464941 0)
(0.17564968 -0.3401021 0)
(0.17255651 -0.3356483 0)
(0.16947185 -0.33128857 0)
(0.16637943 -0.327023 0)
(0.16325768 -0.32285045 0)
(0.16008988 -0.31876728 0)
(0.42405635 -0.48130353 0)
(0.41572543 -0.47630974 0)
(0.40748941 -0.47114729 0)
(0.39934072 -0.46584098 0)
(0.3912761 -0.46040955 0)
(0.38329914 -0.4548688 0)
(0.3754159 -0.44923308 0)
(0.36763336 -0.44351617 0)
(0.35995846 -0.43773139 0)
(0.35239743 -0.43189187 0)
(0.34495545 -0.42601053 0)
(0.3376364 -0.42010018 0)
(0.33044293 -0.41417343 0)
(0.32337665 -0.40824271 0)
(0.31643845 -0.4023201 0)
(0.30962885 -0.39641729 0)
(0.30294839 -0.39054534 0)
(0.29639787 -0.38471466 0)
(0.28997856 -0.37893491 0)
(0.28369215 -0.37321494 0)
(0.27754073 -0.36756283 0)
(0.27152649 -0.36198592 0)
(0.2656515 -0.35649089 0)
(0.25991734 -0.35108385 0)
(0.25432488 -0.34577039 0)
(0.24887394 -0.34055569 0)
(0.24356317 -0.33544455 0)
(0.23838987 -0.33044139 0)
(0.23335006 -0.32555032 0)
(0.22843841 -0.32077505 0)
(0.22364846 -0.31611886 0)
(0.21897271 -0.31158454 0)
(0.21440285 -0.30717427 0)
(0.20992998 -0.30288963 0)
(0.20554485 -0.29873151 0)
(0.20123806 -0.29470016 0)
(0.19700031 -0.29079526 0)
(0.19282245 -0.28701602 0)
(0.18869546 -0.28336133 0)
(0.18461021 -0.27982976 0)
(0.18055648 -0.27641954 0)
(0.17652106 -0.27312813 0)
(0.17248693 -0.26995129 0)
(0.16844182 -0.26688191 0)
(0.4892386 -0.45813015 0)
(0.47933558 -0.45194538 0)
(0.46951802 -0.4456195 0)
(0.45978695 -0.43917744 0)
(0.45014617 -0.43263929 0)
(0.44060265 -0.42602259 0)
(0.43116409 -0.4193437 0)
(0.42183825 -0.41261832 0)
(0.41263265 -0.40586171 0)
(0.40355412 -0.39908882 0)
(0.39460861 -0.3923143 0)
(0.38580099 -0.38555248 0)
(0.37713508 -0.37881733 0)
(0.36861373 -0.37212238 0)
(0.36023901 -0.3654806 0)
(0.35201246 -0.3589043 0)
(0.34393532 -0.35240503 0)
(0.33600869 -0.34599352 0)
(0.32823371 -0.33967962 0)
(0.32061156 -0.33347233 0)
(0.31314343 -0.32737983 0)
(0.30583037 -0.32140951 0)
(0.29867319 -0.31556811 0)
(0.29167216 -0.30986172 0)
(0.28482693 -0.3042959 0)
(0.27813626 -0.29887571 0)
(0.27159798 -0.29360574 0)
(0.26520886 -0.28849013 0)
(0.25896464 -0.28353257 0)
(0.25286001 -0.27873624 0)
(0.24688879 -0.27410377 0)
(0.24104395 -0.26963715 0)
(0.23531787 -0.26533773 0)
(0.22970244 -0.26120607 0)
(0.22418937 -0.25724204 0)
(0.21877029 -0.25344476 0)
(0.21343697 -0.24981268 0)
(0.20818148 -0.24634373 0)
(0.20299615 -0.24303534 0)
(0.19787342 -0.23988451 0)
(0.19280516 -0.23688774 0)
(0.18778138 -0.23404057 0)
(0.18278965 -0.23133666 0)
(0.17782178 -0.22876679 0)
(0.55383515 -0.45703683 0)
(0.54243743 -0.44975023 0)
(0.53111414 -0.44233068 0)
(0.51987459 -0.43480305 0)
(0.50872771 -0.42718828 0)
(0.49768343 -0.41950558 0)
(0.48675097 -0.41177327 0)
(0.47593912 -0.40400911 0)
(0.46525616 -0.39623043 0)
(0.45470972 -0.38845418 0)
(0.44430659 -0.38069696 0)
(0.43405265 -0.37297492 0)
(0.42395282 -0.36530373 0)
(0.41401108 -0.35769844 0)
(0.4042306 -0.35017345 0)
(0.39461388 -0.34274231 0)
(0.38516288 -0.33541773 0)
(0.37587916 -0.32821149 0)
(0.366764 -0.32113443 0)
(0.35781839 -0.31419644 0)
(0.34904308 -0.30740658 0)
(0.34043849 -0.30077303 0)
(0.33200462 -0.29430325 0)
(0.32374093 -0.288004 0)
(0.31564627 -0.28188141 0)
(0.30771871 -0.27594102 0)
(0.29995556 -0.27018779 0)
(0.29235323 -0.26462611 0)
(0.28490732 -0.25925981 0)
(0.2776126 -0.25409209 0)
(0.27046312 -0.24912547 0)
(0.26345229 -0.24436179 0)
(0.25657306 -0.23980207 0)
(0.24981808 -0.23544659 0)
(0.24317983 -0.23129475 0)
(0.23665084 -0.22734521 0)
(0.23022388 -0.22359589 0)
(0.22389209 -0.22004405 0)
(0.21764899 -0.2166864 0)
(0.21148847 -0.21351907 0)
(0.20540438 -0.21053756 0)
(0.19938962 -0.20773633 0)
(0.19343603 -0.20510797 0)
(0.18753909 -0.20264231 0)
(0.616529 -0.46735699 0)
(0.60371254 -0.45922941 0)
(0.59096167 -0.4509645 0)
(0.57829067 -0.44258625 0)
(0.56571313 -0.43411588 0)
(0.55324092 -0.42557378 0)
(0.54088463 -0.4169798 0)
(0.52865401 -0.40835335 0)
(0.51655826 -0.39971344 0)
(0.50460585 -0.39107873 0)
(0.4928045 -0.38246744 0)
(0.48116102 -0.37389733 0)
(0.46968134 -0.36538559 0)
(0.45837047 -0.35694876 0)
(0.44723259 -0.34860263 0)
(0.43627108 -0.34036212 0)
(0.42548864 -0.33224126 0)
(0.41488738 -0.32425311 0)
(0.40446889 -0.31640975 0)
(0.39423427 -0.30872233 0)
(0.38418414 -0.30120104 0)
(0.37431866 -0.29385522 0)
(0.36463745 -0.2866934 0)
(0.35513951 -0.27972334 0)
(0.34582327 -0.27295207 0)
(0.33668639 -0.26638595 0)
(0.32772589 -0.26003067 0)
(0.318938 -0.25389124 0)
(0.31031827 -0.24797201 0)
(0.30186157 -0.2422766 0)
(0.2935622 -0.2368079 0)
(0.28541395 -0.23156802 0)
(0.27741027 -0.22655822 0)
(0.26954438 -0.22177893 0)
(0.26180947 -0.21722974 0)
(0.25419886 -0.2129094 0)
(0.24670612 -0.20881586 0)
(0.23932529 -0.2049464 0)
(0.23205094 -0.20129762 0)
(0.22487821 -0.19786548 0)
(0.21780261 -0.1946452 0)
(0.2108196 -0.19163095 0)
(0.20392467 -0.18881515 0)
(0.19711637 -0.18618772 0)
(0.67684499 -0.48178646 0)
(0.66267316 -0.47311408 0)
(0.64856021 -0.46429447 0)
(0.63452493 -0.45534928 0)
(0.62058317 -0.44629988 0)
(0.60674813 -0.43716741 0)
(0.59303144 -0.42797274 0)
(0.57944388 -0.41873634 0)
(0.56599551 -0.40947835 0)
(0.5526957 -0.40021849 0)
(0.53955304 -0.39097611 0)
(0.52657529 -0.38177004 0)
(0.51376928 -0.37261855 0)
(0.50114099 -0.36353925 0)
(0.48869548 -0.354549 0)
(0.47643697 -0.3456638 0)
(0.46436894 -0.33689879 0)
(0.45249406 -0.32826814 0)
(0.44081436 -0.31978506 0)
(0.42933124 -0.31146181 0)
(0.41804548 -0.30330972 0)
(0.40695719 -0.29533922 0)
(0.39606593 -0.28755989 0)
(0.38537056 -0.2799805 0)
(0.3748693 -0.27260903 0)
(0.36455968 -0.26545271 0)
(0.3544386 -0.25851802 0)
(0.34450224 -0.25181072 0)
(0.33474621 -0.24533582 0)
(0.3251655 -0.23909757 0)
(0.31575465 -0.23309942 0)
(0.30650778 -0.22734401 0)
(0.29741877 -0.22183311 0)
(0.28848135 -0.21656768 0)
(0.27968927 -0.21154777 0)
(0.27103648 -0.20677265 0)
(0.26251726 -0.20224073 0)
(0.25412638 -0.19794972 0)
(0.24585925 -0.19389661 0)
(0.23771205 -0.19007769 0)
(0.22968167 -0.18648848 0)
(0.2217656 -0.18312347 0)
(0.21396234 -0.17997558 0)
(0.2062729 -0.17703554 0)
(0.76575076 -0.51340499 0)
(0.75020456 -0.50481854 0)
(0.73468487 -0.49603069 0)
(0.7192067 -0.48706504 0)
(0.70378718 -0.47794064 0)
(0.6884447 -0.46867786 0)
(0.67319537 -0.45929792 0)
(0.65805319 -0.44982222 0)
(0.64303082 -0.44027197 0)
(0.62814005 -0.43066806 0)
(0.61339186 -0.42103107 0)
(0.59879654 -0.41138121 0)
(0.58436353 -0.4017383 0)
(0.57010146 -0.39212168 0)
(0.55601804 -0.38255015 0)
(0.54212011 -0.37304187 0)
(0.52841357 -0.36361431 0)
(0.51490346 -0.35428412 0)
(0.50159394 -0.34506711 0)
(0.48848835 -0.33597819 0)
(0.47558926 -0.32703135 0)
(0.46289846 -0.31823965 0)
(0.45041701 -0.30961525 0)
(0.43814526 -0.30116938 0)
(0.42608286 -0.29291245 0)
(0.41422873 -0.28485399 0)
(0.40258115 -0.27700274 0)
(0.39113765 -0.26936665 0)
(0.37989515 -0.26195287 0)
(0.36884992 -0.25476779 0)
(0.35799766 -0.24781703 0)
(0.34733357 -0.24110541 0)
(0.33685242 -0.23463696 0)
(0.32654863 -0.22841487 0)
(0.31641645 -0.22244152 0)
(0.30645003 -0.21671843 0)
(0.2966436 -0.21124632 0)
(0.28699163 -0.20602505 0)
(0.27748895 -0.20105371 0)
(0.26813095 -0.19633066 0)
(0.2589137 -0.19185353 0)
(0.24983421 -0.18761924 0)
(0.24089042 -0.18362393 0)
(0.23208143 -0.1798628 0)
(0.22340804 -0.17632967 0)
(0.21487312 -0.17301658 0)
(0.8236417 -0.52558582 0)
(0.80684427 -0.51689949 0)
(0.79006788 -0.5080053 0)
(0.77333061 -0.49892396 0)
(0.75665213 -0.48967477 0)
(0.74005036 -0.48027775 0)
(0.72354151 -0.47075373 0)
(0.70714022 -0.4611237 0)
(0.69086004 -0.45140858 0)
(0.67471363 -0.44162909 0)
(0.65871288 -0.43180568 0)
(0.64286886 -0.42195852 0)
(0.62719187 -0.41210738 0)
(0.61169132 -0.40227163 0)
(0.59637576 -0.39247011 0)
(0.5812528 -0.38272109 0)
(0.56632915 -0.37304216 0)
(0.55161059 -0.36345019 0)
(0.53710201 -0.35396124 0)
(0.52280739 -0.34459054 0)
(0.50872987 -0.33535245 0)
(0.49487173 -0.32626044 0)
(0.48123446 -0.31732709 0)
(0.46781872 -0.30856413 0)
(0.45462443 -0.29998238 0)
(0.44165073 -0.29159188 0)
(0.42889605 -0.2834018 0)
(0.4163581 -0.27542054 0)
(0.40403394 -0.26765566 0)
(0.39191999 -0.26011399 0)
(0.38001216 -0.25280151 0)
(0.36830584 -0.2457235 0)
(0.35679604 -0.23888437 0)
(0.3454775 -0.2322878 0)
(0.33434477 -0.2259366 0)
(0.32339237 -0.21983287 0)
(0.31261494 -0.21397783 0)
(0.30200737 -0.20837199 0)
(0.29156495 -0.20301504 0)
(0.28128353 -0.19790605 0)
(0.27115973 -0.19304331 0)
(0.26119115 -0.18842448 0)
(0.25137654 -0.18404643 0)
(0.2417162 -0.17990525 0)
(0.23221258 -0.17599582 0)
(0.22286991 -0.17231167 0)
(0.87902606 -0.534576 0)
(0.86101795 -0.52589437 0)
(0.84302662 -0.51700093 0)
(0.82507346 -0.5079152 0)
(0.80717872 -0.49865651 0)
(0.78936067 -0.4892446 0)
(0.77163574 -0.47969968 0)
(0.7540192 -0.47004205 0)
(0.73652531 -0.46029206 0)
(0.71916747 -0.4504699 0)
(0.70195834 -0.44059558 0)
(0.68490975 -0.43068884 0)
(0.66803274 -0.42076912 0)
(0.65133747 -0.41085543 0)
(0.63483324 -0.40096634 0)
(0.61852839 -0.39111986 0)
(0.60243039 -0.38133339 0)
(0.58654573 -0.37162365 0)
(0.57087998 -0.36200662 0)
(0.55543777 -0.35249748 0)
(0.54022285 -0.34311062 0)
(0.52523803 -0.33385956 0)
(0.51048527 -0.32475698 0)
(0.49596566 -0.31581472 0)
(0.48167946 -0.30704377 0)
(0.46762614 -0.29845427 0)
(0.45380441 -0.29005559 0)
(0.44021221 -0.28185622 0)
(0.42684686 -0.27386396 0)
(0.413705 -0.26608572 0)
(0.40078275 -0.25852774 0)
(0.38807577 -0.25119538 0)
(0.37557933 -0.24409337 0)
(0.36328843 -0.23722554 0)
(0.35119793 -0.23059513 0)
(0.33930267 -0.22420441 0)
(0.32759762 -0.21805516 0)
(0.31607803 -0.2121482 0)
(0.30473954 -0.20648389 0)
(0.29357839 -0.20106168 0)
(0.28259157 -0.19588062 0)
(0.27177715 -0.19093889 0)
(0.26113447 -0.18623421 0)
(0.25066459 -0.18176338 0)
(0.24037116 -0.17752245 0)
(0.23025925 -0.1735063 0)
(0.931923 -0.54050694 0)
(0.91274168 -0.53188373 0)
(0.89357584 -0.5230484 0)
(0.87444707 -0.51401987 0)
(0.85537677 -0.50481703 0)
(0.83638344 -0.49545915 0)
(0.81748402 -0.48596571 0)
(0.79869428 -0.47635634 0)
(0.7800291 -0.46665065 0)
(0.76150255 -0.4568682 0)
(0.74312794 -0.44702839 0)
(0.72491778 -0.43715038 0)
(0.70688379 -0.42725304 0)
(0.68903682 -0.41735489 0)
(0.67138684 -0.40747399 0)
(0.65394293 -0.39762792 0)
(0.63671321 -0.38783366 0)
(0.61970487 -0.37810756 0)
(0.60292414 -0.36846526 0)
(0.5863763 -0.35892172 0)
(0.57006568 -0.34949101 0)
(0.55399566 -0.34018655 0)
(0.53816871 -0.33102078 0)
(0.52258638 -0.32200548 0)
(0.50724938 -0.31315143 0)
(0.49215754 -0.30446881 0)
(0.4773099 -0.29596672 0)
(0.46270475 -0.2876538 0)
(0.44833967 -0.2795375 0)
(0.43421159 -0.27162499 0)
(0.42031692 -0.26392213 0)
(0.40665155 -0.25643463 0)
(0.39321104 -0.24916684 0)
(0.37999065 -0.24212305 0)
(0.36698552 -0.23530615 0)
(0.35419077 -0.22871904 0)
(0.34160167 -0.22236321 0)
(0.32921371 -0.21624024 0)
(0.31702285 -0.21035031 0)
(0.3050256 -0.20469378 0)
(0.29321925 -0.19926961 0)
(0.28160218 -0.19407699 0)
(0.27017408 -0.18911378 0)
(0.25893658 -0.18437788 0)
(0.24789397 -0.17986597 0)
(0.23705189 -0.17557438 0)
(0.98233691 -0.54378443 0)
(0.96202055 -0.53524272 0)
(0.94171856 -0.526492 0)
(0.92145374 -0.51755014 0)
(0.90124771 -0.50843561 0)
(0.88111952 -0.49916694 0)
(0.86108654 -0.48976298 0)
(0.84116502 -0.48024259 0)
(0.8213704 -0.47062471 0)
(0.80171731 -0.46092818 0)
(0.78221965 -0.45117177 0)
(0.76289056 -0.44137398 0)
(0.74374237 -0.43155309 0)
(0.72478656 -0.42172697 0)
(0.70603376 -0.41191318 0)
(0.68749369 -0.40212867 0)
(0.66917511 -0.39238999 0)
(0.65108589 -0.38271291 0)
(0.63323286 -0.37311276 0)
(0.61562196 -0.3636039 0)
(0.59825807 -0.35420028 0)
(0.58114519 -0.34491466 0)
(0.56428627 -0.33575953 0)
(0.54768341 -0.32674597 0)
(0.5313377 -0.31788494 0)
(0.51524947 -0.30918584 0)
(0.49941809 -0.30065813 0)
(0.48384226 -0.29230953 0)
(0.46851982 -0.28414804 0)
(0.45344811 -0.27617976 0)
(0.43862373 -0.26841128 0)
(0.42404293 -0.26084716 0)
(0.40970147 -0.25349264 0)
(0.39559493 -0.24635082 0)
(0.38171866 -0.23942563 0)
(0.36806807 -0.23271881 0)
(0.35463861 -0.22623305 0)
(0.34142605 -0.21996883 0)
(0.32842654 -0.21392767 0)
(0.31563679 -0.20810894 0)
(0.30305432 -0.20251304 0)
(0.29067764 -0.19713841 0)
(0.27850677 -0.1919843 0)
(0.26654342 -0.18704837 0)
(0.25479248 -0.18232863 0)
(0.24325961 -0.17782193 0)
(1.0302729 -0.54485389 0)
(1.008859 -0.53640226 0)
(0.98745958 -0.52774618 0)
(0.96609778 -0.5189034 0)
(0.94479578 -0.50989135 0)
(0.92357305 -0.50072812 0)
(0.90244733 -0.49143163 0)
(0.88143535 -0.48202025 0)
(0.86055298 -0.47251204 0)
(0.83981539 -0.46292538 0)
(0.81923702 -0.45327818 0)
(0.79883155 -0.4435885 0)
(0.77861189 -0.43387378 0)
(0.7585901 -0.42415155 0)
(0.73877745 -0.41443848 0)
(0.71918422 -0.40475127 0)
(0.69981986 -0.39510557 0)
(0.68069276 -0.38551705 0)
(0.66181048 -0.37600008 0)
(0.64317944 -0.36656908 0)
(0.62480525 -0.35723696 0)
(0.6066923 -0.34801677 0)
(0.58884425 -0.33891983 0)
(0.57126355 -0.32995771 0)
(0.55395193 -0.32114009 0)
(0.53690998 -0.31247704 0)
(0.52013769 -0.3039766 0)
(0.50363392 -0.29564736 0)
(0.4873971 -0.28749573 0)
(0.47142467 -0.27952889 0)
(0.45571375 -0.27175171 0)
(0.44026069 -0.26416997 0)
(0.42506169 -0.25678716 0)
(0.41011242 -0.2496077 0)
(0.39540859 -0.24263378 0)
(0.38094572 -0.23586856 0)
(0.36671954 -0.22931309 0)
(0.35272597 -0.22296932 0)
(0.33896128 -0.21683731 0)
(0.3254224 -0.21091788 0)
(0.31210683 -0.20521029 0)
(0.2990134 -0.19971422 0)
(0.28614185 -0.19442837 0)
(0.27349443 -0.18935139 0)
(0.2610757 -0.18448137 0)
(0.24889167 -0.17981627 0)
(1.0757447 -0.54409951 0)
(1.0532714 -0.53574012 0)
(1.030813 -0.52718305 0)
(1.0083935 -0.51844441 0)
(0.98603551 -0.50954146 0)
(0.96375872 -0.50049097 0)
(0.94158127 -0.49131074 0)
(0.91952021 -0.48201793 0)
(0.89759188 -0.47263051 0)
(0.87581186 -0.46316568 0)
(0.85419509 -0.45364128 0)
(0.83275579 -0.44407419 0)
(0.81150735 -0.43448186 0)
(0.79046247 -0.42488059 0)
(0.76963288 -0.41528716 0)
(0.74902955 -0.40571702 0)
(0.7286624 -0.39618603 0)
(0.70854057 -0.38670855 0)
(0.68867203 -0.37729931 0)
(0.66906398 -0.36797138 0)
(0.64972237 -0.35873817 0)
(0.63065242 -0.34961132 0)
(0.61185805 -0.34060276 0)
(0.59334249 -0.33172266 0)
(0.57510769 -0.32298137 0)
(0.55715498 -0.31438754 0)
(0.53948447 -0.30594992 0)
(0.52209574 -0.29767571 0)
(0.50498728 -0.28957204 0)
(0.48815717 -0.28164474 0)
(0.47160257 -0.27389935 0)
(0.45532036 -0.26634044 0)
(0.43930678 -0.25897204 0)
(0.42355794 -0.25179758 0)
(0.40806963 -0.24481965 0)
(0.39283761 -0.2380407 0)
(0.37785778 -0.23146196 0)
(0.36312613 -0.22508504 0)
(0.34863917 -0.21890996 0)
(0.33439367 -0.21293765 0)
(0.32038757 -0.20716701 0)
(0.30661916 -0.20159836 0)
(0.29308878 -0.19622984 0)
(0.279798 -0.19106106 0)
(0.26675178 -0.18608992 0)
(0.25395571 -0.18131514 0)
(1.1187789 -0.54181369 0)
(1.0952847 -0.53355005 0)
(1.071806 -0.52509535 0)
(1.0483684 -0.51646537 0)
(1.0249947 -0.50767582 0)
(1.0017047 -0.49874343 0)
(0.97851677 -0.48968472 0)
(0.95544826 -0.48051688 0)
(0.93251585 -0.47125665 0)
(0.90973556 -0.46192128 0)
(0.88712277 -0.45252736 0)
(0.86469214 -0.44309188 0)
(0.84245764 -0.43363104 0)
(0.82043238 -0.42416128 0)
(0.79862875 -0.41469814 0)
(0.77705814 -0.40525725 0)
(0.75573121 -0.39585328 0)
(0.73465745 -0.38650081 0)
(0.71384564 -0.3772134 0)
(0.69330331 -0.36800438 0)
(0.67303721 -0.35888606 0)
(0.65305286 -0.34987032 0)
(0.63335497 -0.34096814 0)
(0.61394703 -0.33218981 0)
(0.59483172 -0.32354491 0)
(0.5760106 -0.31504208 0)
(0.55748444 -0.30668952 0)
(0.53925303 -0.29849421 0)
(0.52131542 -0.29046299 0)
(0.50366988 -0.28260119 0)
(0.48631401 -0.27491441 0)
(0.4692449 -0.26740641 0)
(0.45245909 -0.26008163 0)
(0.43595294 -0.25294236 0)
(0.41972232 -0.24599201 0)
(0.40376336 -0.23923153 0)
(0.38807183 -0.23266342 0)
(0.37264414 -0.22628749 0)
(0.35747646 -0.22010542 0)
(0.34256609 -0.21411608 0)
(0.32791039 -0.2083204 0)
(0.31350819 -0.20271659 0)
(0.29935916 -0.19730484 0)
(0.28546497 -0.1920832 0)
(0.27183049 -0.18705102 0)
(0.25846084 -0.18220649 0)
(1.1594155 -0.53820658 0)
(1.134938 -0.53004511 0)
(1.1104784 -0.52169929 0)
(1.086063 -0.51318362 0)
(1.0617144 -0.50451331 0)
(1.0374525 -0.4957045 0)
(1.0132956 -0.48677327 0)
(0.98926142 -0.47773617 0)
(0.96536696 -0.46860947 0)
(0.94162862 -0.45940975 0)
(0.91806216 -0.45015316 0)
(0.89468273 -0.44085604 0)
(0.8715047 -0.43153414 0)
(0.84854175 -0.4222033 0)
(0.82580669 -0.41287861 0)
(0.80331156 -0.40357519 0)
(0.78106739 -0.39430723 0)
(0.75908442 -0.3850889 0)
(0.73737179 -0.37593325 0)
(0.71593775 -0.36685333 0)
(0.69478944 -0.35786089 0)
(0.67393308 -0.34896767 0)
(0.65337374 -0.34018399 0)
(0.63311556 -0.33152019 0)
(0.61316162 -0.32298508 0)
(0.59351401 -0.31458752 0)
(0.57417389 -0.30633479 0)
(0.55514147 -0.29823428 0)
(0.53641623 -0.29029177 0)
(0.51799671 -0.2825132 0)
(0.49988095 -0.27490292 0)
(0.48206616 -0.26746549 0)
(0.46454936 -0.26020396 0)
(0.44732686 -0.25312159 0)
(0.43039503 -0.24622029 0)
(0.41374978 -0.23950213 0)
(0.39738741 -0.23296806 0)
(0.38130391 -0.22661908 0)
(0.36549604 -0.22045535 0)
(0.34996053 -0.21447699 0)
(0.33469522 -0.20868353 0)
(0.31969835 -0.2030744 0)
(0.30496957 -0.19764866 0)
(0.29051057 -0.19240536 0)
(0.27632546 -0.18734324 0)
(0.2624194 -0.18246124 0)
(1.2231253 -0.54129218 0)
(1.1977034 -0.53343178 0)
(1.1722811 -0.5253807 0)
(1.1468813 -0.51715142 0)
(1.1215294 -0.50875727 0)
(1.0962474 -0.50021352 0)
(1.071055 -0.49153542 0)
(1.0459709 -0.48273893 0)
(1.021013 -0.47383966 0)
(0.9961986 -0.46485374 0)
(0.9715444 -0.45579679 0)
(0.9470666 -0.44668483 0)
(0.92278071 -0.43753323 0)
(0.8987016 -0.42835768 0)
(0.87484336 -0.41917304 0)
(0.85121933 -0.40999442 0)
(0.82784198 -0.40083594 0)
(0.80472296 -0.39171189 0)
(0.78187292 -0.38263545 0)
(0.75930164 -0.37361987 0)
(0.7370178 -0.36467719 0)
(0.71502919 -0.35581945 0)
(0.69334244 -0.34705736 0)
(0.67196324 -0.33840166 0)
(0.65089615 -0.32986163 0)
(0.63014479 -0.32144654 0)
(0.60971168 -0.31316424 0)
(0.58959844 -0.3050225 0)
(0.56980572 -0.29702772 0)
(0.55033331 -0.28918615 0)
(0.5311802 -0.28150282 0)
(0.51234464 -0.2739825 0)
(0.49382429 -0.26662893 0)
(0.47561621 -0.2594455 0)
(0.45771715 -0.25243479 0)
(0.44012342 -0.24559892 0)
(0.42283133 -0.23893946 0)
(0.40583696 -0.23245742 0)
(0.38913671 -0.22615353 0)
(0.37272694 -0.22002784 0)
(0.3566048 -0.21408042 0)
(0.34076754 -0.20831063 0)
(0.32521365 -0.20271797 0)
(0.30994238 -0.19730141 0)
(0.29495492 -0.19206003 0)
(0.28025555 -0.18699251 0)
(0.26584875 -0.18209811 0)
(1.2600321 -0.53535108 0)
(1.2337033 -0.52760314 0)
(1.2073769 -0.51967069 0)
(1.1810779 -0.51156582 0)
(1.1548305 -0.5033019 0)
(1.1286563 -0.49489321 0)
(1.102575 -0.48635474 0)
(1.0766053 -0.47770152 0)
(1.0507655 -0.4689489 0)
(1.0250731 -0.46011213 0)
(0.99954509 -0.45120659 0)
(0.97419806 -0.44224744 0)
(0.94904789 -0.43324985 0)
(0.92410983 -0.42422865 0)
(0.89939844 -0.41519857 0)
(0.87492747 -0.40617386 0)
(0.85070992 -0.3971686 0)
(0.82675787 -0.38819622 0)
(0.80308253 -0.37926993 0)
(0.77969412 -0.37040214 0)
(0.75660194 -0.361605 0)
(0.73381418 -0.35288972 0)
(0.71133808 -0.34426724 0)
(0.68917976 -0.33574742 0)
(0.66734435 -0.32733986 0)
(0.64583587 -0.31905297 0)
(0.62465737 -0.31089499 0)
(0.60381086 -0.30287282 0)
(0.58329742 -0.29499329 0)
(0.56311724 -0.28726183 0)
(0.54326964 -0.27968387 0)
(0.52375321 -0.27226344 0)
(0.50456586 -0.26500464 0)
(0.48570497 -0.25791019 0)
(0.4671674 -0.25098298 0)
(0.44894976 -0.24422455 0)
(0.43104831 -0.23763672 0)
(0.41345942 -0.23122004 0)
(0.39617929 -0.22497538 0)
(0.37920456 -0.21890252 0)
(0.36253191 -0.21300156 0)
(0.34615896 -0.20727173 0)
(0.33008351 -0.20171256 0)
(0.3143048 -0.19632294 0)
(0.29882404 -0.19110184 0)
(0.28364447 -0.1860484 0)
(0.26877056 -0.18116107 0)
(1.2946833 -0.52842952 0)
(1.2674871 -0.52080332 0)
(1.2402971 -0.51299919 0)
(1.213139 -0.50502895 0)
(1.1860367 -0.49690517 0)
(1.1590112 -0.48864173 0)
(1.1320821 -0.48025271 0)
(1.1052684 -0.47175276 0)
(1.0785882 -0.46315644 0)
(1.0520594 -0.4544786 0)
(1.0256994 -0.44573388 0)
(0.99952492 -0.43693708 0)
(0.97355224 -0.42810264 0)
(0.947797 -0.41924508 0)
(0.92227412 -0.41037844 0)
(0.89699782 -0.4015167 0)
(0.87198151 -0.39267327 0)
(0.84723776 -0.38386141 0)
(0.82277823 -0.37509364 0)
(0.79861367 -0.36638232 0)
(0.77475383 -0.35773891 0)
(0.75120744 -0.34917465 0)
(0.7279822 -0.34069979 0)
(0.70508475 -0.33232435 0)
(0.68252068 -0.3240572 0)
(0.66029449 -0.31590703 0)
(0.63840969 -0.30788132 0)
(0.6168687 -0.29998736 0)
(0.59567305 -0.29223117 0)
(0.57482325 -0.28461866 0)
(0.55431904 -0.27715445 0)
(0.53415927 -0.2698431 0)
(0.5143422 -0.26268789 0)
(0.49486537 -0.2556921 0)
(0.47572595 -0.24885781 0)
(0.45692058 -0.24218715 0)
(0.43844582 -0.23568117 0)
(0.42029789 -0.22934096 0)
(0.40247325 -0.22316673 0)
(0.38496825 -0.21715871 0)
(0.36777981 -0.21131652 0)
(0.35090499 -0.20563972 0)
(0.33434177 -0.20012752 0)
(0.31808915 -0.19477897 0)
(0.30214729 -0.18959318 0)
(0.28652032 -0.18456862 0)
(0.27121113 -0.17970518 0)
(1.3271563 -0.5205928 0)
(1.2991318 -0.51310061 0)
(1.2711176 -0.50543692 0)
(1.2431407 -0.49761249 0)
(1.2152238 -0.48963995 0)
(1.1873876 -0.48153233 0)
(1.1596516 -0.47330347 0)
(1.1320347 -0.46496713 0)
(1.1045553 -0.45653757 0)
(1.0772315 -0.4480288 0)
(1.0500806 -0.43945515 0)
(1.02312 -0.43083059 0)
(0.99636602 -0.42216931 0)
(0.96983477 -0.41348504 0)
(0.94354151 -0.40479159 0)
(0.91750084 -0.39610221 0)
(0.8917266 -0.38743012 0)
(0.86623178 -0.37878787 0)
(0.84102851 -0.3701879 0)
(0.81612799 -0.36164187 0)
(0.79154044 -0.35316122 0)
(0.76727508 -0.34475654 0)
(0.74334008 -0.33643815 0)
(0.71974257 -0.3282154 0)
(0.69648857 -0.32009734 0)
(0.67358309 -0.31209203 0)
(0.65103003 -0.30420716 0)
(0.62883229 -0.29644942 0)
(0.60699173 -0.2888251 0)
(0.58550932 -0.28133955 0)
(0.56438507 -0.27399767 0)
(0.54361822 -0.26680349 0)
(0.52320723 -0.25976058 0)
(0.50314997 -0.25287178 0)
(0.48344371 -0.24613941 0)
(0.46408538 -0.23956524 0)
(0.4450715 -0.23315048 0)
(0.42639853 -0.22689601 0)
(0.40806275 -0.2208021 0)
(0.39006069 -0.21486892 0)
(0.37238892 -0.209096 0)
(0.35504463 -0.20348305 0)
(0.33802538 -0.1980291 0)
(0.32132968 -0.19273346 0)
(0.30495852 -0.1875948 0)
(0.28891369 -0.18261253 0)
(0.2731993 -0.17778517 0)
(1.3863386 -0.51907954 0)
(1.357531 -0.51190833 0)
(1.3287163 -0.5045622 0)
(1.2999185 -0.49704987 0)
(1.2711629 -0.48938231 0)
(1.2424716 -0.48157158 0)
(1.2138649 -0.47363053 0)
(1.1853623 -0.46557221 0)
(1.1569827 -0.45741006 0)
(1.1287446 -0.4491575 0)
(1.1006661 -0.44082821 0)
(1.0727651 -0.43243569 0)
(1.0450588 -0.42399363 0)
(1.0175642 -0.41551541 0)
(0.99029736 -0.40701449 0)
(0.96327407 -0.39850393 0)
(0.93650924 -0.38999675 0)
(0.9100171 -0.38150548 0)
(0.88381104 -0.37304249 0)
(0.85790363 -0.36461956 0)
(0.8323065 -0.35624822 0)
(0.80703031 -0.34793933 0)
(0.78208473 -0.33970341 0)
(0.75747841 -0.33155023 0)
(0.73321891 -0.32348914 0)
(0.70931274 -0.3155287 0)
(0.68576531 -0.30767699 0)
(0.66258097 -0.29994128 0)
(0.63976302 -0.29232832 0)
(0.61731374 -0.28484405 0)
(0.59523444 -0.27749387 0)
(0.5735255 -0.27028242 0)
(0.55218643 -0.26321375 0)
(0.53121602 -0.25629128 0)
(0.51061232 -0.2495178 0)
(0.49037287 -0.2428956 0)
(0.47049467 -0.23642635 0)
(0.45097444 -0.23011132 0)
(0.43180861 -0.22395122 0)
(0.41299358 -0.21794652 0)
(0.3945257 -0.21209711 0)
(0.37640161 -0.20640288 0)
(0.35861809 -0.20086315 0)
(0.3411727 -0.19547741 0)
(0.324064 -0.19024461 0)
(0.30729132 -0.18516391 0)
(0.29085818 -0.18023413 0)
(0.27476637 -0.17545479 0)
(1.4154549 -0.50946767 0)
(1.3858917 -0.50244536 0)
(1.3563267 -0.49525395 0)
(1.3267845 -0.48790253 0)
(1.2972895 -0.48040153 0)
(1.267863 -0.47276266 0)
(1.2385253 -0.46499807 0)
(1.2092956 -0.45712035 0)
(1.1801929 -0.44914224 0)
(1.1512358 -0.44107668 0)
(1.1224425 -0.43293663 0)
(1.093831 -0.42473517 0)
(1.0654188 -0.41648529 0)
(1.0372231 -0.40819994 0)
(1.0092603 -0.39989194 0)
(0.98154643 -0.39157398 0)
(0.95409674 -0.38325845 0)
(0.9269258 -0.37495756 0)
(0.9000474 -0.36668311 0)
(0.87347448 -0.35844662 0)
(0.84721909 -0.35025911 0)
(0.82129233 -0.34213121 0)
(0.7957043 -0.33407299 0)
(0.77046405 -0.32609406 0)
(0.7455796 -0.31820337 0)
(0.72105789 -0.31040937 0)
(0.69690475 -0.30271982 0)
(0.67312496 -0.29514191 0)
(0.6497222 -0.28768211 0)
(0.62669915 -0.28034634 0)
(0.60405746 -0.27313977 0)
(0.58179785 -0.26606702 0)
(0.55992016 -0.25913202 0)
(0.53842341 -0.25233813 0)
(0.51730592 -0.2456881 0)
(0.49656539 -0.23918416 0)
(0.47619902 -0.23282799 0)
(0.45620358 -0.22662081 0)
(0.43657562 -0.22056338 0)
(0.41731149 -0.2146561 0)
(0.39840755 -0.20889901 0)
(0.37986022 -0.20329186 0)
(0.36166634 -0.19783421 0)
(0.34382303 -0.1925254 0)