/*--------------------------------*- C++ -*----------------------------------*\
| =========                 |                                                 |
| \\      /  F ield         | OpenFOAM: The Open Source CFD Toolbox           |
|  \\    /   O peration     | Version:  2312                                  |
|   \\  /    A nd           | Website:  www.openfoam.com                      |
|    \\/     M anipulation  |                                                 |
\*---------------------------------------------------------------------------*/
FoamFile
{
    version     2.0;
    format      ascii;
    arch        "LSB;label=32;scalar=64";
    class       volScalarField;
    location    "0.1";
    object      CO2;
}
// * * * * * * * * * * * * * * * * * * * * * * * * * * * * * * * * * * * * * //

dimensions      [0 0 0 0 0 0 0];

internalField   nonuniform List<scalar> 
3272
(
0.0121186
0.012308518
0.012492965
0.012671772
0.012844826
0.013012032
0.013173302
0.013328558
0.013477727
0.013620743
0.013757547
0.013888085
0.014012307
0.014130173
0.014241644
0.014346688
0.014445278
0.014537392
0.014623012
0.014702125
0.014774724
0.014840806
0.014900372
0.01495343
0.014999994
0.015040085
0.015073081
0.015099758
0.015120428
0.015134564
0.015142476
0.015144228
0.015139835
0.01512921
0.015112438
0.01508962
0.015060831
0.015026153
0.014985673
0.014939482
0.014887681
0.014830374
0.014767671
0.014699689
0.014626552
0.014548386
0.014465326
0.014377511
0.014285088
0.014188208
0.014087032
0.013981731
0.013872489
0.012212769
0.012402945
0.012587559
0.01276645
0.012939513
0.013106656
0.013267795
0.013422855
0.013571766
0.013714464
0.013850893
0.013981001
0.014104743
0.014222078
0.014332972
0.014437394
0.014535319
0.014626729
0.014711606
0.014789941
0.014861727
0.014926963
0.014985652
0.0150378
0.015083422
0.015122541
0.015154561
0.015180246
0.015199927
0.015213033
0.015219902
0.015220587
0.015215118
0.015203373
0.015185487
0.015161545
0.015131621
0.015095799
0.015054166
0.015006816
0.014953849
0.01489537
0.014831492
0.014762331
0.01468801
0.01460866
0.014524412
0.014435408
0.014341791
0.014243708
0.014141314
0.014034775
0.01392432
0.012390902
0.012581385
0.012766162
0.012945076
0.013118027
0.013284927
0.013445699
0.013600273
0.013748583
0.013890573
0.01402619
0.014155387
0.014278125
0.014394367
0.014504083
0.014607248
0.014703842
0.014793848
0.014877256
0.014954059
0.015024254
0.015087842
0.015144829
0.01519522
0.015239019
0.01527625
0.015306397
0.015330221
0.015347975
0.015359124
0.015364019
0.015362698
0.01535516
0.015341322
0.015321338
0.01529528
0.015263224
0.015225256
0.015181465
0.015131946
0.015076801
0.015016137
0.014950067
0.014878711
0.014802191
0.01472064
0.014634191
0.014542985
0.014447168
0.014346888
0.014242301
0.014133577
0.014020952
0.0126444
0.012835108
0.013019911
0.013198657
0.013371252
0.013537618
0.013697685
0.01385139
0.013998677
0.014139494
0.014273797
0.014401549
0.014522714
0.014637265
0.014745178
0.014846433
0.014941019
0.015028923
0.015110142
0.015184674
0.015252523
0.015313696
0.015368202
0.015416043
0.015457199
0.01549163
0.015519076
0.015540405
0.01555517
0.015563565
0.015565666
0.015561495
0.015550985
0.015534196
0.015511239
0.015482187
0.015447121
0.015406126
0.015359296
0.015306727
0.015248523
0.015184793
0.015115652
0.015041222
0.014961628
0.014877003
0.014787483
0.01469321
0.014594332
0.014491
0.014383372
0.01427162
0.014155987
0.012965732
0.013156441
0.013340997
0.013519255
0.013691134
0.013856564
0.014015486
0.014167847
0.014313602
0.014452708
0.014585133
0.014710846
0.014829824
0.014942046
0.015047499
0.015146171
0.015238058
0.015323156
0.015401468
0.015473
0.015537764
0.015595772
0.015647042
0.015691583
0.015729385
0.015760025
0.01578415
0.015802084
0.015813293
0.015818128
0.015816628
0.015808783
0.015794528
0.015774008
0.015747298
0.015714474
0.015675619
0.015630824
0.015580181
0.015523792
0.015461761
0.015394202
0.01532123
0.01524297
0.015159548
0.0150711
0.014977765
0.014879686
0.014777013
0.0146699
0.014558507
0.01444301
0.014323654
0.013348209
0.013538557
0.013722461
0.01389979
0.014070474
0.01423446
0.014391699
0.014542152
0.014685786
0.014822573
0.01495249
0.015075519
0.015191648
0.015300868
0.015403176
0.015498569
0.015587053
0.015668634
0.015743323
0.015811135
0.015872089
0.01592621
0.015973533
0.016014117
0.016047351
0.016073942
0.016094179
0.016107686
0.016114703
0.016115291
0.016109492
0.016097192
0.016078524
0.016053573
0.016022413
0.015985125
0.015941797
0.015892518
0.015837387
0.015776506
0.015709983
0.015637933
0.015560474
0.015477732
0.015389838
0.015296928
0.015199143
0.015096629
0.014989538
0.014878027
0.014762258
0.01464241
0.014518731
0.013785798
0.013975285
0.014158005
0.014333844
0.014502748
0.014664679
0.014819606
0.014967505
0.015108357
0.015242148
0.015368872
0.015488523
0.015601102
0.015706614
0.015805066
0.015896468
0.015980836
0.016058187
0.01612854
0.016191918
0.016248347
0.016297854
0.016340466
0.0163762
0.016404609
0.016426601
0.016441837
0.016450497
0.016452651
0.016448328
0.016437466
0.016420124
0.016396411
0.016366401
0.016330174
0.016287812
0.016239404
0.016185046
0.016124837
0.016058881
0.015987291
0.015910181
0.015827673
0.015739895
0.01564698
0.015549065
0.015446294
0.015338816
0.015226783
0.015110355
0.014989698
0.014864993
0.014736493
0.01427296
0.014460961
0.014641847
0.014815526
0.014981963
0.015141139
0.015293041
0.015437664
0.015575006
0.015705071
0.015827867
0.015943405
0.016051701
0.016152772
0.01624664
0.016333328
0.016412863
0.016485273
0.016550587
0.016608838
0.01666006
0.016704289
0.01674156
0.016771447
0.016794622
0.016811328
0.01682109
0.016824289
0.016820948
0.016811022
0.016794526
0.016771579
0.016742254
0.016706629
0.016664787
0.016616812
0.016562798
0.016502841
0.016437044
0.016365512
0.01628836
0.016205706
0.016117673
0.01602439
0.015925992
0.015822618
0.015714414
0.01560153
0.01548412
0.015362346
0.015236377
0.015106399
0.014972674
0.014804541
0.014990311
0.015168605
0.015339355
0.015502549
0.015658189
0.015806284
0.015946847
0.016079898
0.016205458
0.016323553
0.016434212
0.016537466
0.016633348
0.016721894
0.016803142
0.01687713
0.016943897
0.017003485
0.017055935
0.017101291
0.017139599
0.017170419
0.017194409
0.017211879
0.017222365
0.017226168
0.01722336
0.01721391
0.017197811
0.017175192
0.017146124
0.017110684
0.017068953
0.017021016
0.016966961
0.016906882
0.016840879
0.016769057
0.016691523
0.016608392
0.016519786
0.016425828
0.016326649
0.016222386
0.016113179
0.015999175
0.015880524
0.015757384
0.015629915
0.015498288
0.015362705
0.015223522
0.015375676
0.015558367
0.015733216
0.015900184
0.016059282
0.016210538
0.016353983
0.016489654
0.01661759
0.016737833
0.016850428
0.016955422
0.017052863
0.017142801
0.017225287
0.017300373
0.01736811
0.01742855
0.017481744
0.017527743
0.017566598
0.017597855
0.017622208
0.017639968
0.017650682
0.017654654
0.017651943
0.017642532
0.017626408
0.017603703
0.01757449
0.017538846
0.017496849
0.017448582
0.017394134
0.017333595
0.01726706
0.017194632
0.017116416
0.017032522
0.016943066
0.01684817
0.016747959
0.016642566
0.016532128
0.016416786
0.016296688
0.016171986
0.016042836
0.015909398
0.015771839
0.015981729
0.016160402
0.016330876
0.016493138
0.016647228
0.0167932
0.01693111
0.017061018
0.017182987
0.017297079
0.017403361
0.017501896
0.017592752
0.017675994
0.01775169
0.017819907
0.017880709
0.01793416
0.017980323
0.018019254
0.018050484
0.018074695
0.018092285
0.018102779
0.018106474
0.018103434
0.018093633
0.018077074
0.018053888
0.018024146
0.017987926
0.017945306
0.017896368
0.017841197
0.017779883
0.017712518
0.0176392
0.01756003
0.017475116
0.017384568
0.017288504
0.017187046
0.01708032
0.01696846
0.016851602
0.016729891
0.016603473
0.016472502
0.016337136
0.016197548
0.016053975
0.016618245
0.016791892
0.016956996
0.017113574
0.017261699
0.01740145
0.017532912
0.017656168
0.017771305
0.017878407
0.017977559
0.018068847
0.018152353
0.018228162
0.018296355
0.018357018
0.018410228
0.018456064
0.018494596
0.018525358
0.018549067
0.018565805
0.018575681
0.018578688
0.018574897
0.018564283
0.018546888
0.018522831
0.018492187
0.018455032
0.018411446
0.018361508
0.018305303
0.018242917
0.01817444
0.018099966
0.018019594
0.017933426
0.017841569
0.017744135
0.01764124
0.017533008
0.017419565
0.017301044
0.017177583
0.017049326
0.016916421
0.016779022
0.01663729
0.016491402
0.016341602
0.017280924
0.017448483
0.017607177
0.017757061
0.017898236
0.018030811
0.018154899
0.018270608
0.018378047
0.018477324
0.018568545
0.018651811
0.018727225
0.018794885
0.018854889
0.018907343
0.018952339
0.018989968
0.019019786
0.019042474
0.019058128
0.019066832
0.019068683
0.019063714
0.019051861
0.019033228
0.019007915
0.018975999
0.018937556
0.018892666
0.018841409
0.018783866
0.018720122
0.018650265
0.018574385
0.018492577
0.018404937
0.01831157
0.018212581
0.018108082
0.01799819
0.017883027
0.01776272
0.0176374
0.017507206
0.017372282
0.017232775
0.01708884
0.016940639
0.016788348
0.016632211
0.017965607
0.01812598
0.018277201
0.01841936
0.01855259
0.018677032
0.018792823
0.018900098
0.01899899
0.019089628
0.019172137
0.019246638
0.019313249
0.019372078
0.019423234
0.019466863
0.019503058
0.019531414
0.019552701
0.019566791
0.019573907
0.019574129
0.019567553
0.019554032
0.019533757
0.019506801
0.019473242
0.01943316
0.019386632
0.019333738
0.01927456
0.019209178
0.019137679
0.019060148
0.018976678
0.01888736
0.018792293
0.018691577
0.01858532
0.018473631
0.018356626
0.018234426
0.018107157
0.017974951
0.017837943
0.017696278
0.017550103
0.017399572
0.017244845
0.0170861
0.016923577
0.018668268
0.018820342
0.018963019
0.019096424
0.019220723
0.019336085
0.019442675
0.019540653
0.019630176
0.019711393
0.019784446
0.019849476
0.01990662
0.019955988
0.019997637
0.020031891
0.020058244
0.020077638
0.020089726
0.020094814
0.020092991
0.020084312
0.020068731
0.020046404
0.020017415
0.019981842
0.019939765
0.019891263
0.019836416
0.019775303
0.019708004
0.019634602
0.019555181
0.019469826
0.019378627
0.019281676
0.019179069
0.019070907
0.018957292
0.018838335
0.018714149
0.018584853
0.018450572
0.018311436
0.01816758
0.018019145
0.017866278
0.017709133
0.017547869
0.017382661
0.017213749
0.019385021
0.019527687
0.019660759
0.019784398
0.019898801
0.020004165
0.020100682
0.020188537
0.020267908
0.020338965
0.020401863
0.020456755
0.02050384
0.020543253
0.020574558
0.020598645
0.020615426
0.020625102
0.020627732
0.020623433
0.020612201
0.020594133
0.020569347
0.02053793
0.020499965
0.020455535
0.02040472
0.020347599
0.02028425
0.020214752
0.020139186
0.020057631
0.019970171
0.019876888
0.019777872
0.01967321
0.019562999
0.019447334
0.019326319
0.019200059
0.019068667
0.018932259
0.018790957
0.018644889
0.018494189
0.018338996
0.018179454
0.018015715
0.017847939
0.017676297
0.01750103
0.020112124
0.020244296
0.020366731
0.020479624
0.020583203
0.020677692
0.020763308
0.020840259
0.020908747
0.020968964
0.021021066
0.021065148
0.021101619
0.021129951
0.021151049
0.021164821
0.021171473
0.021171116
0.02116388
0.021149646
0.021128658
0.021100995
0.02106675
0.021026012
0.020978864
0.02092539
0.020865668
0.020799777
0.020727795
0.020649798
0.020565864
0.020476072
0.020380501
0.020279233
0.020172353
0.020059948
0.019942109
0.01981893
0.01969051
0.019556954
0.01941837
0.019274872
0.019126579
0.018973615
0.018816113
0.018654208
0.018488043
0.018317766
0.018143534
0.017965519
0.017783961
0.020845996
0.020966624
0.021077432
0.021178648
0.021270527
0.021353318
0.021427256
0.02149258
0.021549501
0.02159828
0.021639094
0.021671511
0.021696525
0.021714038
0.02172441
0.02172755
0.021723721
0.021712943
0.021695308
0.021670951
0.021639982
0.0216025
0.021558597
0.02150836
0.021451873
0.021389218
0.021320471
0.021245711
0.021165011
0.021078446
0.020986091
0.020888021
0.020784312
0.020675044
0.020560297
0.020440154
0.020314704
0.020184036
0.020048247
0.019907437
0.019761711
0.019611179
0.019455957
0.019296167
0.019131937
0.018963399
0.018790693
0.018613964
0.018433364
0.018249061
0.018061294
0.021583225
0.021691312
0.021789559
0.021878226
0.021957595
0.022027928
0.02208947
0.022142516
0.022187194
0.022223994
0.022252375
0.022273314
0.022286771
0.022293
0.022292154
0.022284359
0.022269562
0.022248029
0.022219852
0.022185142
0.022144004
0.022096536
0.022042829
0.021982969
0.021917038
0.021845115
0.021767275
0.021683591
0.021594136
0.021498978
0.021398191
0.021291845
0.021180012
0.021062767
0.020940186
0.02081235
0.02067934
0.020541245
0.020398155
0.020250165
0.020097379
0.019939901
0.019777844
0.019611325
0.01944047
0.019265407
0.019086272
0.018903206
0.018716356
0.018525874
0.022320581
0.022415196
0.022500016
0.022575332
0.022641458
0.022698661
0.022747115
0.022787416
0.022819008
0.022843023
0.022859305
0.022868179
0.022869817
0.022864431
0.022852013
0.022832782
0.022806863
0.022774395
0.022735496
0.022690274
0.022638831
0.022581264
0.02251766
0.022448104
0.022372674
0.022291444
0.022204487
0.022111871
0.022013664
0.021909932
0.021800742
0.021686159
0.021566252
0.021441091
0.021310746
0.021175292
0.021034809
0.020889377
0.020739083
0.02058402
0.020424282
0.020259973
0.020091201
0.019918078
0.019740725
0.019559269
0.01937384
0.019184579
0.018991638
0.01879522
0.023055034
0.023135317
0.023205921
0.02326715
0.023319399
0.023362966
0.023397418
0.02342405
0.023442687
0.023453928
0.023457578
0.023454075
0.023443511
0.023426017
0.023401804
0.023371014
0.023333781
0.023290234
0.023240489
0.023184654
0.023122826
0.023055099
0.022981557
0.02290228
0.022817342
0.022726812
0.022630758
0.022529243
0.022422329
0.022310078
0.022192551
0.022069808
0.021941912
0.021808926
0.021670917
0.021527954
0.021380109
0.021227461
0.021070089
0.020908081
0.020741528
0.020570527
0.020395181
0.0202156
0.020031899
0.019844201
0.019652633
0.019457334
0.019258456
0.019056212
0.023783756
0.023848928
0.02390462
0.023951055
0.023988858
0.02401763
0.024038215
0.024051218
0.024056435
0.024054368
0.024045132
0.024028816
0.024005729
0.023976017
0.023939846
0.023897363
0.023848702
0.023793986
0.023733328
0.023666832
0.023594592
0.023516695
0.023433221
0.023344245
0.023249833
0.023150052
0.023044961
0.022934619
0.022819081
0.022698402
0.022572638
0.022441842
0.022306072
0.022165384
0.02201984
0.021869501
0.021714436
0.021554715
0.021390414
0.021221614
0.021048401
0.020870867
0.02068911
0.020503236
0.020313354
0.020119583
0.019922046
0.019720876
0.019516219
0.019308288
0.024504146
0.024553481
0.024593757
0.024624573
0.024647031
0.024661448
0.024667773
0.024666606
0.024658147
0.024642461
0.024619916
0.024590671
0.024554931
0.024512866
0.024464636
0.024410383
0.024350238
0.02428432
0.024212736
0.024135584
0.024052954
0.023964925
0.023871571
0.023772959
0.023669152
0.023560207
0.023446177
0.023327115
0.023203068
0.023074086
0.022940215
0.022801504
0.022658002
0.022509761
0.022356834
0.022199278
0.022037154
0.021870526
0.021699465
0.021524044
0.021344346
0.021160456
0.020972468
0.020780481
0.020584601
0.02038494
0.020181618
0.019974761
0.019764502
0.025213876
0.02524651
0.025270381
0.025285895
0.025292992
0.025292299
0.025284094
0.025268464
0.025245859
0.025216457
0.025180501
0.025138187
0.025089704
0.025035221
0.024974889
0.024908848
0.024837222
0.024760123
0.024677651
0.024589898
0.024496945
0.024398865
0.024295725
0.024187583
0.024074495
0.023956509
0.023833673
0.02370603
0.023573621
0.023436486
0.023294667
0.023148204
0.022997139
0.022841516
0.022681383
0.022516788
0.022347785
0.022174435
0.021996799
0.021814947
0.021628953
0.021438899
0.021244872
0.021046966
0.020845282
0.020639928
0.020431019
0.020218685
0.020003094
0.025909975
0.025926259
0.025933703
0.025933053
0.025924623
0.025908524
0.02588527
0.025855077
0.02581824
0.025774989
0.025725546
0.025670108
0.025608854
0.025541948
0.025469533
0.025391741
0.025308689
0.02522048
0.025127207
0.025028952
0.024925788
0.02481778
0.024704985
0.024587454
0.024465234
0.024338364
0.024206884
0.024070829
0.023930231
0.023785123
0.023635538
0.023481509
0.023323069
0.023160256
0.02299311
0.022821672
0.02264599
0.022466116
0.022282106
0.022094024
0.021901938
0.021705923
0.021506061
0.02130244
0.021095157
0.020884314
0.020670023
0.02045241
0.020231655
0.026591774
0.026590746
0.026581597
0.026564503
0.026540026
0.026508423
0.02647004
0.02642515
0.026374016
0.026316872
0.02625393
0.026185378
0.026111388
0.026032112
0.025947688
0.025858235
0.025763861
0.025664661
0.025560717
0.025452101
0.025338878
0.025221101
0.02509882
0.024972074
0.024840902
0.024705334
0.024565401
0.024421127
0.024272538
0.024119658
0.02396251
0.023801119
0.023635513
0.023465719
0.023291769
0.023113699
0.02293155
0.022745365
0.022555194
0.022361095
0.022163129
0.021961366
0.021755881
0.021546758
0.021334087
0.021117966
0.0208985
0.020675808
0.020450064
0.027257101
0.027238484
0.02721221
0.027178576
0.027137982
0.027090747
0.027037181
0.026977558
0.02691213
0.026841119
0.026764727
0.026683134
0.026596499
0.026504964
0.026408654
0.026307679
0.026202135
0.026092106
0.025977662
0.025858865
0.025735769
0.025608418
0.025476848
0.025341092
0.025201175
0.025057121
0.024908948
0.024756673
0.024600311
0.024439878
0.024275389
0.02410686
0.023934309
0.023757757
0.023577228
0.02339275
0.023204355
0.023012082
0.022815973
0.022616078
0.022412453
0.022205162
0.021994274
0.021779867
0.021562026
0.021340843
0.021116417
0.020888852
0.027904126
0.02786783
0.027824356
0.027774061
0.027717307
0.027654416
0.027585681
0.027511368
0.027431712
0.027346925
0.027257196
0.027162691
0.027063557
0.026959922
0.0268519
0.026739586
0.026623064
0.026502406
0.026377671
0.026248908
0.026116158
0.025979455
0.025838824
0.025694287
0.025545858
0.025393551
0.025237373
0.025077333
0.024913435
0.024745686
0.024574092
0.024398661
0.024219401
0.024036326
0.023849452
0.023658798
0.02346439
0.023266259
0.023064441
0.022858978
0.022649921
0.022437327
0.022221259
0.022001791
0.021779001
0.021552979
0.02132382
0.021091654
0.028531681
0.028477589
0.028416879
0.02834991
0.028277025
0.028198535
0.028114718
0.028025823
0.027932072
0.027833661
0.027730763
0.027623528
0.02751209
0.027396563
0.027277043
0.027153614
0.027026346
0.026895295
0.026760509
0.026622024
0.026479868
0.026334063
0.026184623
0.026031557
0.025874869
0.025714562
0.025550633
0.025383079
0.025211897
0.025037082
0.024858632
0.024676546
0.024490823
0.024301469
0.024108492
0.023911903
0.023711721
0.023507969
0.023300676
0.023089878
0.022875619
0.02265795
0.022436929
0.022212623
0.021985108
0.021754467
0.021520794
0.021284223
0.029138622
0.029066731
0.028988827
0.028905257
0.028816346
0.028722388
0.028623642
0.02852034
0.028412685
0.028300856
0.028185009
0.028065277
0.027941775
0.027814603
0.027683841
0.027549557
0.027411806
0.027270631
0.027126063
0.026978127
0.026826838
0.026672204
0.026514226
0.026352903
0.026188227
0.026020188
0.025848775
0.025673974
0.02549577
0.025314151
0.025129105
0.024940619
0.024748688
0.024553307
0.024354475
0.024152197
0.023946484
0.023737351
0.02352482
0.023308922
0.023089694
0.022867179
0.022641433
0.022412515
0.022180496
0.021945455
0.021707484
0.021466709
0.029724011
0.029634409
0.029539434
0.029439414
0.029334654
0.029225425
0.029111968
0.028994491
0.028873179
0.02874819
0.02861966
0.028487704
0.028352421
0.02821389
0.028072175
0.027927328
0.027779389
0.027628383
0.027474329
0.027317237
0.027157107
0.026993935
0.02682771
0.026658417
0.026486038
0.02631055
0.026131933
0.02595016
0.025765208
0.025577055
0.025385678
0.025191057
0.024993176
0.024792023
0.02458759
0.024379872
0.024168873
0.023954602
0.023737074
0.023516312
0.023292347
0.023065217
0.022834971
0.022601665
0.022365362
0.02212614
0.021884083
0.021639312
0.030287091
0.030179951
0.030068106
0.02995186
0.029831493
0.029707255
0.029579359
0.029447994
0.02931332
0.029175474
0.029034571
0.028890707
0.028743958
0.028594386
0.028442039
0.02828695
0.02812914
0.027968622
0.027805399
0.027639463
0.027470804
0.027299401
0.027125233
0.026948271
0.026768485
0.026585842
0.026400308
0.026211848
0.026020429
0.025826016
0.02562858
0.025428091
0.025224525
0.025017859
0.024808079
0.024595173
0.024379135
0.024159969
0.023937682
0.023712292
0.023483823
0.023252307
0.023017787
0.022780313
0.022539946
0.022296756
0.022050824
0.021802264
0.030827282
0.030702854
0.030574409
0.030442227
0.030306559
0.030167627
0.030025621
0.029880701
0.029733005
0.029582646
0.029429717
0.029274291
0.029116425
0.028956161
0.028793526
0.028628538
0.0284612
0.028291507
0.028119446
0.027944997
0.027768133
0.027588821
0.027407025
0.027222705
0.027035817
0.026846318
0.026654164
0.026459307
0.026261705
0.026061314
0.025858094
0.025652007
0.025443019
0.025231102
0.02501623
0.024798386
0.024577557
0.024353738
0.024126931
0.023897147
0.023664403
0.023428727
0.023190155
0.022948733
0.022704516
0.02245757
0.022207972
0.021955826
0.031344163
0.031202768
0.031058062
0.030910293
0.030759684
0.030606426
0.030450682
0.030292585
0.030132246
0.029969753
0.029805176
0.029638566
0.029469957
0.029299372
0.029126819
0.028952294
0.028775785
0.028597271
0.028416721
0.028234101
0.028049368
0.027862477
0.027673377
0.027482016
0.027288339
0.02709229
0.026893814
0.026692855
0.026489357
0.026283269
0.026074542
0.025863127
0.025648984
0.025432074
0.025212366
0.024989834
0.024764459
0.024536228
0.024305136
0.024071189
0.023834398
0.023594784
0.02335238
0.023107224
0.022859369
0.022608874
0.022355813
0.022100283
0.031837466
0.031679491
0.031518919
0.031355968
0.031190827
0.031023656
0.030854588
0.030683727
0.030511157
0.030336941
0.030161123
0.02998373
0.029804776
0.029624261
0.029442174
0.029258492
0.029073186
0.028886215
0.028697536
0.028507095
0.028314838
0.028120704
0.02792463
0.027726552
0.027526401
0.027324112
0.027119616
0.026912849
0.026703745
0.026492243
0.026278283
0.026061811
0.025842776
0.025621133
0.025396842
0.025169869
0.024940189
0.024707783
0.024472639
0.024234756
0.023994141
0.023750809
0.023504785
0.023256107
0.023004819
0.022750979
0.022494653
0.022235935
0.032307063
0.032132953
0.031956965
0.031779283
0.031600062
0.031419431
0.031237488
0.031054309
0.030869949
0.030684445
0.030497814
0.030310062
0.030121177
0.02993114
0.029739919
0.029547472
0.02935375
0.029158698
0.028962255
0.028764352
0.028564921
0.028363886
0.028161172
0.027956701
0.027750394
0.027542174
0.027331961
0.027119681
0.026905259
0.026688623
0.026469706
0.026248444
0.026024779
0.025798657
0.025570031
0.025338862
0.025105116
0.024868767
0.0246298
0.024388204
0.024143983
0.023897146
0.023647714
0.023395717
0.023141198
0.022884209
0.022624813
0.022363097
0.032752957
0.032563208
0.032372298
0.032180379
0.031987569
0.031793961
0.031599622
0.031404598
0.031208913
0.031012576
0.030815581
0.030617907
0.030419522
0.030220382
0.030020436
0.029819623
0.029617878
0.029415125
0.029211289
0.029006287
0.028800033
0.028592441
0.028383421
0.028172884
0.027960739
0.027746896
0.027531268
0.027313768
0.027094313
0.026872821
0.026649218
0.026423431
0.026195393
0.025965044
0.02573233
0.025497203
0.025259624
0.025019561
0.024776992
0.024531903
0.024284288
0.024034154
0.023781516
0.023526401
0.023268846
0.0230089
0.022746621
0.022482093
0.033785667
0.033583094
0.033379552
0.033175279
0.032970422
0.032765123
0.032559495
0.032353617
0.032147545
0.031941315
0.031734938
0.031528411
0.031321716
0.031114817
0.030907672
0.030700225
0.030492411
0.030284157
0.030075385
0.02986601
0.029655942
0.029445087
0.029233348
0.029020626
0.02880682
0.028591828
0.028375549
0.02815788
0.027938723
0.027717977
0.027495547
0.027271341
0.027045269
0.026817246
0.026587193
0.026355035
0.026120705
0.025884142
0.025645292
0.025404108
0.025160554
0.024914601
0.024666229
0.024415428
0.0241622
0.023906554
0.023648513
0.023388111
0.023125392
0.022860413
0.02259325
0.034232929
0.034013427
0.033793808
0.033574245
0.033354856
0.033135738
0.032916958
0.032698559
0.03248056
0.03226296
0.032045742
0.031828871
0.0316123
0.031395971
0.031179814
0.03096375
0.030747695
0.030531555
0.030315233
0.030098625
0.029881626
0.029664126
0.029446013
0.029227174
0.029007496
0.028786864
0.028565164
0.028342284
0.028118114
0.027892544
0.02766547
0.02743679
0.027206406
0.026974226
0.026740161
0.026504131
0.026266061
0.026025883
0.025783537
0.025538971
0.025292142
0.025043015
0.024791566
0.02453778
0.024281653
0.024023191
0.023762411
0.023499343
0.02323403
0.022966525
0.022696901
0.034655261
0.034419471
0.034184403
0.033950175
0.033716865
0.033484523
0.033253174
0.03302282
0.032793446
0.032565015
0.032337477
0.03211077
0.031884817
0.031659535
0.03143483
0.0312106
0.030986739
0.030763135
0.030539671
0.030316227
0.030092681
0.029868907
0.029644781
0.029420174
0.029194961
0.028969015
0.028742212
0.028514428
0.028285542
0.028055438
0.027823999
0.027591116
0.027356684
0.027120601
0.026882774
0.026643112
0.026401536
0.026157971
0.02591235
0.025664617
0.025414722
0.025162626
0.0249083
0.024651722
0.024392886
0.024131791
0.023868452
0.023602894
0.023335157
0.023065296
0.022793376
0.035052968
0.03480157
0.034551718
0.034303478
0.034056881
0.033811932
0.033568613
0.033326889
0.033086704
0.032847989
0.032610663
0.032374633
0.032139796
0.031906041
0.031673253
0.031441307
0.031210076
0.030979428
0.03074923
0.030519343
0.03028963
0.03005995
0.029830165
0.029600134
0.029369718
0.02913878
0.028907185
0.028674798
0.028441489
0.028207131
0.027971601
0.027734781
0.027496556
0.02725682
0.02701547
0.026772412
0.026527556
0.026280825
0.026032144
0.025781452
0.025528694
0.025273826
0.025016814
0.024757633
0.024496269
0.02423272
0.023966994
0.023699112
0.023429116
0.023157061
0.022883006
0.035426451
0.035160157
0.034896215
0.034634637
0.034375407
0.034118484
0.033863808
0.033611304
0.033360881
0.033112437
0.032865857
0.03262102
0.032377796
0.032136051
0.031895644
0.031656429
0.03141826
0.031180986
0.030944455
0.030708514
0.030473009
0.030237785
0.030002691
0.029767573
0.029532281
0.029296666
0.029060582
0.028823886
0.028586437
0.028348101
0.028108746
0.027868245
0.027626478
0.027383329
0.027138691
0.026892462
0.026644547
0.026394862
0.026143329
0.025889879
0.025634454
0.025377004
0.025117491
0.024855885
0.02459217
0.024326337
0.02405839
0.023788345
0.023516245
0.023242154
0.022966116
0.035776199
0.035495745
0.035218426
0.0349442
0.034673003
0.034404749
0.034139338
0.033876653
0.033616568
0.033358949
0.03310365
0.032850521
0.032599408
0.032350149
0.032102583
0.031856544
0.031611864
0.031368375
0.031125908
0.030884294
0.030643364
0.030402952
0.03016289
0.029923015
0.029683164
0.029443179
0.029202903
0.028962184
0.028720872
0.028478825
0.028235902
0.02799197
0.027746901
0.027500574
0.027252873
0.027003692
0.02675293
0.026500497
0.02624631
0.025990296
0.025732391
0.025472542
0.025210705
0.024946848
0.02468095
0.024412997
0.024142989
0.023870933
0.036102773
0.035808914
0.035518944
0.035232771
0.034950282
0.034671346
0.034395822
0.034123555
0.033854386
0.033588144
0.033324658
0.03306375
0.032805238
0.032548939
0.032294668
0.03204224
0.031791469
0.031542169
0.031294154
0.031047241
0.030801247
0.030555992
0.030311296
0.030066985
0.029822886
0.029578829
0.029334648
0.029090183
0.028845276
0.028599776
0.028353535
0.028106412
0.027858275
0.027608993
0.027358448
0.027106525
0.02685312
0.026598137
0.026341487
0.026083095
0.02582289
0.025560817
0.025296827
0.025030884
0.024762964
0.024493049
0.024221135
0.036406801
0.036100302
0.035798416
0.035501002
0.035207897
0.034918929
0.034633914
0.034352663
0.03407498
0.033800666
0.033529519
0.033261335
0.032995909
0.032733034
0.032472504
0.032214116
0.031957665
0.031702948
0.031449764
0.031197917
0.030947209
0.030697447
0.030448442
0.030200007
0.029951959
0.029704118
0.029456312
0.029208369
0.028960125
0.02871142
0.028462102
0.028212021
0.027961039
0.02770902
0.027455839
0.027201377
0.026945524
0.02668818
0.026429252
0.026168659
0.025906328
0.025642198
0.025376217
0.025108347
0.024838558
0.024566832
0.024293165
0.036688962
0.036370593
0.03605753
0.03574958
0.035446535
0.03514818
0.034854293
0.034564648
0.034279017
0.033997172
0.033718882
0.033443918
0.033172052
0.032903056
0.032636704
0.032372773
0.032111042
0.031851292
0.031593309
0.031336881
0.031081799
0.030827858
0.030574856
0.030322598
0.030070891
0.029819547
0.029568382
0.02931722
0.029065888
0.028814219
0.028562054
0.028309239
0.028055626
0.027801078
0.027545462
0.027288655
0.027030542
0.026771018
0.026509988
0.026247364
0.025983071
0.025717043
0.025449227
0.02517958
0.02490807
0.024634676
0.024359393
0.036949983
0.036620513
0.036297007
0.035979224
0.035666909
0.035359806
0.035057655
0.034760198
0.034467176
0.034178329
0.033893404
0.033612145
0.033334303
0.033059629
0.032787878
0.032518811
0.032252189
0.031987781
0.031725355
0.031464689
0.031205561
0.030947755
0.030691061
0.030435271
0.030180184
0.029925604
0.02967134
0.029417207
0.029163026
0.028908623
0.028653833
0.028398496
0.02814246
0.027885581
0.027627722
0.027368755
0.027108561
0.026847031
0.026584065
0.026319572
0.026053474
0.025785702
0.025516199
0.025244918
0.024971826
0.0246969
0.024420132
0.037190625
0.036850818
0.036517598
0.036190674
0.035869749
0.035554526
0.035244711
0.034940013
0.034640141
0.034344813
0.034053746
0.033766665
0.033483297
0.033203376
0.032926639
0.032652828
0.032381693
0.032112985
0.031846462
0.031581888
0.031319031
0.031057665
0.030797569
0.030538526
0.030280328
0.03002277
0.029765654
0.029508788
0.029251987
0.028995071
0.028737868
0.028480214
0.028221952
0.027962931
0.027703012
0.027442062
0.027179958
0.026916587
0.026651845
0.026385639
0.026117885
0.025848513
0.025577463
0.025304685
0.025030143
0.024753813
0.024475683
0.037411675
0.037062285
0.03672007
0.036384688
0.036055799
0.035733072
0.035416178
0.035104794
0.034798603
0.034497297
0.034200569
0.033908123
0.033619666
0.033334915
0.033053588
0.032775415
0.032500129
0.032227469
0.031957181
0.031689018
0.031422736
0.031158101
0.030894882
0.030632855
0.030371803
0.030111514
0.029851783
0.029592412
0.029333209
0.02907399
0.028814578
0.028554801
0.0282945
0.02803352
0.027771715
0.02750895
0.027245099
0.026980044
0.026713677
0.026445903
0.026176637
0.025905803
0.025633338
0.025359192
0.025083326
0.024805713
0.02452634
0.037613939
0.037255711