/*--------------------------------*- C++ -*----------------------------------*\
| =========                 |                                                 |
| \\      /  F ield         | OpenFOAM: The Open Source CFD Toolbox           |
|  \\    /   O peration     | Version:  2312                                  |
|   \\  /    A nd           | Website:  www.openfoam.com                      |
|    \\/     M anipulation  |                                                 |
\*---------------------------------------------------------------------------*/
FoamFile
{
    version     2.0;
    format      ascii;
    arch        "LSB;label=32;scalar=64";
    class       volScalarField;
    location    "0.1";
    object      f_Bilger;
}
// * * * * * * * * * * * * * * * * * * * * * * * * * * * * * * * * * * * * * //

dimensions      [0 0 0 0 0 0 0];

internalField   nonuniform List<scalar> 
3272
(
0.039323019
0.039874229
0.040405509
0.040916598
0.041407206
0.041877085
0.04232601
0.042753777
0.043160201
0.043545114
0.043908363
0.044249815
0.044569351
0.04486687
0.045142287
0.045395531
0.045626549
0.045835301
0.046021767
0.04618594
0.046327831
0.046447466
0.046544889
0.046620163
0.046673369
0.046704606
0.046713814
0.046701698
0.046667938
0.046613642
0.04653854
0.046441795
0.04632569
0.046187432
0.046028602
0.045849938
0.045651775
0.045434476
0.045198423
0.044944026
0.044671714
0.044381941
0.044075185
0.043751943
0.043412735
0.0430581
0.042688599
0.042304809
0.041907329
0.041496774
0.04107378
0.040639
0.040193004
0.039631321
0.040182851
0.040714182
0.041225079
0.041715269
0.042184517
0.042632609
0.043059351
0.043464567
0.043848096
0.044209795
0.044549537
0.044867213
0.045162727
0.045436002
0.045686975
0.045915597
0.046121837
0.04630568
0.046467123
0.046606184
0.046722894
0.046817303
0.046889475
0.046939497
0.046967472
0.046973408
0.046957961
0.046920696
0.046862962
0.046784398
0.046683974
0.04656423
0.046422017
0.04625943
0.046076966
0.045874968
0.0456538
0.04541385
0.045155528
0.044879269
0.044585528
0.044274787
0.043947544
0.043604324
0.043245668
0.042872137
0.04248431
0.042082782
0.041668162
0.041241079
0.040802197
0.040352189
0.040214506
0.040766081
0.041297032
0.041807129
0.042296118
0.04276378
0.043209919
0.043634359
0.044036938
0.044417514
0.044775958
0.045112161
0.045426025
0.045717471
0.045986434
0.046232864
0.046456726
0.046658001
0.046836684
0.046992785
0.04712633
0.047237362
0.047325936
0.047392128
0.047436025
0.047457734
0.047457406
0.047435564
0.04739169
0.047327336
0.047241852
0.047135559
0.047008092
0.046858654
0.046688975
0.046499367
0.046290172
0.046061757
0.045814514
0.045548859
0.04526523
0.04496409
0.044645924
0.044311237
0.043960557
0.043594431
0.043213425
0.042818122
0.042409122
0.041987039
0.041552508
0.041106209
0.040648846
0.041043996
0.041594951
0.04212469
0.042633003
0.043119657
0.043584458
0.044027236
0.044447838
0.044846128
0.045221986
0.045575308
0.045906004
0.046214001
0.046499238
0.046761672
0.04700127
0.047218017
0.047411908
0.047582957
0.047731189
0.047856645
0.04795938
0.048039465
0.048096984
0.048132028
0.048144698
0.048135362
0.048103998
0.048051456
0.047977733
0.047882214
0.047766519
0.047628363
0.047469026
0.047289352
0.04708967
0.046870332
0.046631715
0.046374217
0.046098261
0.045804294
0.045492784
0.045164222
0.044819122
0.044458018
0.044081464
0.043690034
0.043284316
0.042864919
0.042432465
0.0419876
0.041531015
0.041063434
0.042094681
0.042643929
0.043171228
0.043676398
0.044159237
0.044619586
0.045057306
0.045472278
0.045864397
0.046233574
0.046579734
0.046902818
0.04720278
0.047479585
0.047733214
0.04796366
0.04817093
0.048355042
0.048516028
0.048653932
0.048768815
0.048860749
0.04892982
0.048976125
0.04899977
0.049000907
0.048980088
0.048936793
0.048872515
0.048786626
0.048679587
0.048550804
0.048399682
0.04822783
0.048035561
0.047823211
0.04759114
0.047339732
0.047069395
0.04678056
0.04647368
0.046149233
0.045807717
0.045449653
0.045075584
0.044686072
0.044281697
0.043863059
0.043430774
0.042985475
0.042527817
0.042058504
0.041578277
0.043344147
0.04389018
0.044413421
0.044913726
0.045390937
0.045844935
0.046275625
0.046682926
0.047066773
0.047427116
0.047763917
0.048077149
0.0483668
0.048632868
0.048875365
0.04909431
0.049289738
0.049461691
0.049610226
0.049735411
0.049837324
0.049916059
0.049971725
0.05000445
0.050014185
0.050001625
0.049966546
0.049909872
0.049831504
0.04973053
0.04960929
0.049464745
0.0492989
0.049112235
0.048905076
0.048677773
0.048430697
0.04816424
0.047878817
0.047574868
0.047252855
0.046913263
0.046556598
0.04618339
0.04579419
0.045389566
0.044970111
0.044536431
0.044089151
0.043628916
0.043156391
0.042672293
0.042177382
0.044772055
0.045312964
0.045830154
0.046323528
0.046792982
0.047238447
0.047659877
0.048057241
0.048430519
0.048779705
0.049104802
0.049405826
0.049682802
0.049935764
0.050164758
0.050369835
0.05055106
0.050708505
0.05084225
0.050952388
0.05103902
0.051102256
0.051142219
0.051159035
0.051152945
0.051124143
0.051073362
0.051000577
0.050905252
0.050788809
0.050649312
0.050487833
0.050305169
0.050101633
0.049877559
0.049633301
0.049369237
0.049085769
0.04878332
0.048462336
0.048123286
0.047766665
0.047392985
0.047002784
0.046596621
0.046175073
0.04573874
0.045288238
0.044824201
0.044347283
0.043858161
0.043357565
0.042846273
0.046359664
0.046893161
0.04740196
0.047886022
0.048345305
0.048779799
0.049189515
0.049574476
0.049934716
0.050270278
0.050581214
0.050867583
0.051129452
0.051366895
0.051579996
0.05176884
0.051933525
0.052074152
0.05219083
0.052283676
0.052352815
0.052398378
0.052420508
0.052419398
0.052395522
0.052348414
0.052279797
0.052188621
0.052075647
0.051939562
0.051780976
0.051600882
0.051399574
0.051177371
0.050934613
0.05067166
0.050388897
0.050086733
0.049765596
0.049425939
0.049068241
0.048692998
0.048300735
0.047891993
0.04746734
0.04702736
0.04657266
0.046103865
0.045621616
0.045126576
0.044619436
0.044100943
0.043571885
0.048089452
0.04861291
0.049110669
0.04958276
0.05002921
0.050450076
0.050845434
0.051215367
0.051559968
0.051879332
0.052173563
0.052442769
0.052687063
0.052906561
0.053101384
0.053271656
0.053417506
0.053539068
0.053636479
0.053709882
0.053759424
0.053785258
0.053787513
0.053766775
0.053722556
0.053656349
0.053567725
0.053456827
0.053322724
0.053165697
0.052986876
0.052786541
0.052564998
0.05232257
0.052059602
0.051776461
0.051473539
0.051151247
0.05081002
0.050450318
0.050072622
0.049677437
0.049265291
0.048836735
0.048392339
0.047932697
0.04745842
0.04697014
0.046468507
0.045954192
0.045427905
0.044890446
0.044342517
0.049944848
0.050455341
0.050939148
0.051396376
0.051827129
0.052231539
0.052609749
0.05296191
0.053288174
0.053588698
0.053863637
0.054113151
0.054337399
0.05453654
0.054710735
0.054860146
0.054984935
0.055085266
0.055161307
0.055213227
0.055241199
0.055245328
0.05522621
0.05518342
0.055118383
0.0550307
0.054920575
0.05478706
0.054630361
0.054451617
0.054251106
0.054029119
0.053785967
0.053521978
0.053237503
0.052932914
0.052608605
0.052264991
0.051902513
0.051521633
0.051122837
0.050706634
0.050273557
0.04982416
0.049359021
0.048878738
0.048383928
0.047875229
0.047353298
0.046818823
0.046272588
0.051910032
0.05240439
0.05287112
0.053310412
0.053722453
0.054107453
0.05446563
0.054797202
0.055102387
0.055381402
0.055634457
0.055861763
0.056063525
0.056239948
0.05639123
0.056517571
0.056619164
0.056696204
0.056748886
0.056777408
0.056781893
0.056763035
0.056720206
0.056654926
0.056566861
0.056456192
0.056321885
0.056164324
0.055984525
0.055782755
0.055559297
0.055314447
0.055048519
0.054761847
0.054454783
0.054127701
0.053780998
0.053415091
0.053030422
0.052627457
0.052206682
0.051768612
0.05131378
0.050842747
0.050356091
0.049854417
0.049338347
0.048808526
0.048265623
0.047710359
0.04714355
0.053969799
0.05444467
0.054891044
0.055309203
0.055699419
0.056061985
0.056397197
0.056705342
0.056986703
0.057241557
0.057470171
0.057672805
0.057849712
0.058001136
0.058127317
0.058228485
0.058304867
0.058356681
0.058384148
0.058387411
0.058367105
0.058323384
0.058256362
0.058166374
0.058053927
0.0579175
0.057757907
0.057575947
0.057371876
0.057145964
0.056898496
0.056629769
0.0563401
0.056029823
0.05569929
0.055348876
0.054978977
0.054590011
0.05418242
0.053756668
0.053313246
0.052852666
0.052375465
0.051882203
0.051373465
0.050849855
0.050312004
0.04976056
0.049196203
0.048619669
0.048031777
0.056109491
0.056561396
0.056984043
0.057377804
0.057743045
0.05808014
0.058389459
0.058671363
0.058926199
0.059154302
0.059355994
0.059531582
0.059681365
0.059805625
0.059904638
0.059978668
0.060027967
0.060052771
0.060053287
0.060030187
0.059983646
0.059913772
0.05982043
0.059704971
0.059565131
0.05940235
0.059217133
0.059009732
0.058780407
0.058529427
0.058257075
0.05796365
0.057649465
0.057314852
0.056960163
0.056585769
0.056192065
0.055779466
0.055348412
0.054899366
0.054432816
0.053949274
0.053449277
0.052933385
0.052402183
0.05185628
0.051296306
0.050722915
0.050136792
0.04953868
0.048929395
0.058314949
0.058740355
0.059135873
0.05950197
0.0598391
0.060147721
0.060428278
0.060681201
0.060906898
0.061105761
0.061278162
0.061424456
0.061544979
0.061640051
0.061709976
0.061755061
0.061775578
0.06177178
0.061744196
0.061693369
0.061619413
0.061521185
0.061401457
0.061256924
0.061089778
0.060900203
0.060688442
0.060454744
0.060199366
0.059922575
0.05962465
0.059305886
0.058966592
0.058607096
0.058227744
0.057828904
0.057410964
0.056974336
0.056519455
0.056046781
0.055556798
0.055050016
0.054526968
0.053988214
0.053434338
0.052865947
0.052283675
0.051688177
0.05108014
0.050460309
0.049829504
0.060572522
0.060967903
0.061332922
0.061668139
0.061974096
0.062251329
0.062500357
0.062721673
0.062915746
0.063083019
0.06322391
0.063338815
0.063428108
0.063492134
0.063531203
0.063545713
0.0635361
0.063502379
0.063445585
0.063365616
0.063262624
0.063136085
0.062985916
0.062813179
0.062618114
0.062400943
0.062161901
0.061901229
0.06161918
0.061316014
0.060992003
0.060647435
0.060282612
0.059897855
0.059493502
0.059069915
0.058627474
0.058166585
0.057687676
0.057191201
0.056677639
0.056147495
0.055601298
0.055039603
0.054462993
0.053872074
0.053267476
0.052649856
0.052019902
0.051378361
0.050726059
0.06286909
0.063230989
0.063562226
0.063863453
0.064135294
0.064378361
0.064593239
0.064780481
0.064940609
0.065074114
0.065181452
0.065263053
0.065319338
0.065350678
0.065357216
0.065339929
0.065298993
0.065234652
0.065147183
0.065037132
0.064902967
0.06474584
0.064566314
0.064364611
0.064140957
0.063895576
0.063628697
0.063340553
0.063031386
0.06270145
0.062351007
0.061980334
0.061589724
0.061179488
0.060749954
0.060301474
0.05983442
0.059349188
0.058846198
0.058325896
0.057788753
0.057235267
0.056665962
0.056081387
0.05548212
0.054868763
0.054241944
0.053602318
0.052950573
0.052287456
0.051613801
0.065192091
0.065517178
0.065811495
0.066075779
0.06631073
0.066517029
0.06669532
0.066846211
0.066970269
0.067068027
0.067139975
0.067186534
0.067208236
0.067205418
0.067178508
0.067128358
0.067055007
0.066958624
0.066839822
0.066696652
0.066531271
0.066343705
0.066134192
0.065902954
0.065650211
0.065376178
0.065081075
0.064765127
0.064428562
0.064071622
0.063694557
0.063297633
0.062881129
0.062445343
0.061990593
0.061517218
0.061025578
0.060516058
0.059989068
0.059445043
0.058884446
0.058307766
0.057715519
0.057108247
0.056486521
0.055850938
0.055202121
0.05454072
0.053867418
0.053182966
0.052488201
0.067529578
0.0678147
0.06806915
0.068293736
0.068489231
0.068656373
0.068795857
0.068908336
0.068994415
0.069054674
0.069089659
0.069099548
0.069085492
0.069047831
0.068986144
0.06890221
0.068795653
0.068665431
0.068512587
0.068337529
0.068140619
0.067922075
0.067682114
0.067420948
0.067138782
0.066835822
0.066512274
0.066168347
0.065804257
0.065420231
0.065016503
0.064593323
0.064150957
0.063689688
0.063209818
0.062711673
0.0621956
0.061661971
0.061111182
0.060543658
0.05995985
0.059360236
0.058745324
0.058115646
0.057471767
0.056814275
0.056143786
0.055460943
0.054766423
0.054060968
0.053345427
0.069870258
0.07011249
0.070324354
0.070506727
0.070660441
0.070786279
0.070884973
0.070957226
0.071003639
0.071024847
0.071021422
0.070993933
0.070943058
0.070869255
0.070772515
0.070653633
0.070511031
0.070346669
0.070160584
0.069952997
0.06972416
0.069474291
0.069203599
0.068912278
0.068600521
0.068268516
0.067916453
0.067544523
0.067152927
0.06674187
0.066311572
0.065862265
0.065394197
0.064907634
0.064402863
0.063880191
0.063339951
0.0627825
0.062208222
0.061617526
0.06101085
0.060388663
0.059751459
0.059099763
0.058434128
0.057755136
0.057063394
0.05635954
0.055644244
0.054918258
0.072203545
0.072400221
0.072567047
0.072704957
0.072814832
0.072897491
0.072953658
0.072984161
0.072989439
0.072970422
0.072927907
0.072862293
0.072773342
0.072663034
0.072528926
0.072373159
0.072195737
0.071997076
0.071777414
0.071536972
0.071275967
0.070994599
0.070693057
0.070371518
0.070030155
0.069669136
0.069288632
0.068888815
0.068469862
0.068031962
0.067575313
0.067100126
0.066606631
0.066095075
0.065565726
0.065018875
0.064454836
0.06387395
0.063276584
0.062663135
0.062034025
0.06138971
0.060730673
0.060057427
0.059370514
0.058670509
0.057958012
0.05723366
0.056498146
0.055752282
0.074519596
0.074668342
0.074787969
0.074879448
0.074943718
0.074981641
0.074993705
0.074981185
0.074944994
0.074884436
0.074802024
0.074697373
0.074569622
0.074419971
0.074248954
0.074056961
0.073844228
0.073611039
0.073357628
0.073084206
0.072790967
0.072478088
0.072145736
0.071794065
0.071423226
0.071033365
0.070624627
0.070197164
0.069751129
0.069286688
0.068804017
0.068303307
0.067784765
0.067248617
0.066695111
0.066124519
0.065537136
0.064933286
0.064313318
0.063677613
0.063026579
0.062360656
0.061680314
0.060986055
0.06027841
0.059557943
0.058825246
0.058080954
0.057325769
0.05656051
0.076809342
0.076908096
0.076978674
0.077022038
0.077039216
0.077030909
0.076998579
0.076941738
0.076862825
0.076761222
0.076637526
0.076491373
0.076324263
0.076136401
0.075928129
0.075699764
0.075451567
0.075183779
0.074896613
0.074590257
0.07426488
0.073920634
0.073557658
0.073176083
0.072776031
0.072357624
0.071920982
0.07146623
0.070993497
0.070502925
0.069994664
0.069468882
0.068925763
0.068365512
0.067788354
0.06719454
0.066584347
0.065958076
0.065316062
0.064658666
0.063986282
0.063299333
0.062598277
0.0618836
0.061155822
0.060415496
0.059663204
0.05889957
0.058125289
0.057341183
0.079064517
0.079111529
0.079131567
0.079125377
0.079094765
0.079039167
0.078961289
0.078860443
0.078737967
0.07859259
0.078426729
0.078240275
0.078033764
0.077807541
0.07756192
0.077297181
0.077013565
0.076711283
0.076390519
0.076051433
0.075694164
0.075318836
0.074925559
0.074514434
0.074085555
0.073639016
0.073174909
0.07269333
0.072194383
0.071678182
0.071144851
0.070594535
0.070027391
0.069443601
0.068843368
0.068226921
0.067594514
0.066946431
0.066282985
0.065604521
0.064911414
0.064204074
0.06348294
0.062748488
0.062001225
0.061241688
0.060470452
0.059688131
0.05889542
0.081277686
0.081271445
0.081240216
0.081183335
0.08110398
0.081001289
0.080877206
0.080729893
0.080562404
0.080374453
0.080166812
0.079939835
0.079693916
0.079429383
0.079146522
0.078845579
0.078526763
0.078190253
0.077836201
0.077464733
0.077075956
0.076669961
0.076246828
0.075806624
0.075349415
0.074875261
0.074384225
0.073876374
0.073351784
0.072810538
0.072252737
0.071678496
0.071087948
0.07048125
0.069858581
0.069220146
0.068566179
0.067896942
0.067212729
0.066513865
0.065800708
0.065073652
0.06433312
0.063579574
0.062813506
0.062035444
0.061245955
0.060445664
0.059635321
0.083442595
0.083381862
0.083298384
0.083191162
0.083062466
0.082910348
0.082738241
0.082545775
0.082333931
0.082103105
0.081853797
0.081586395
0.081301243
0.080998636
0.080678821
0.080342008
0.07998837
0.079618048
0.079231157
0.078827787
0.078408011
0.077971884
0.07751945
0.077050743
0.076565796
0.076064636
0.075547295
0.075013808
0.074464221
0.073898589
0.073316982
0.072719489
0.072106217
0.071477296
0.07083288
0.070173153
0.069498324
0.068808634
0.068104357
0.067385799
0.066653301
0.065907236
0.065148015
0.064376084
0.06359192
0.062796041
0.061989003
0.061171434
0.060344091
0.085552972
0.085438423
0.08530197
0.085142045
0.084962159
0.084761988
0.084542702
0.084304759
0.084048774
0.083775209
0.083484489
0.083176965
0.082852941
0.082512666
0.082156347
0.081784152
0.081396213
0.080992629
0.080573476
0.080138805
0.07968865
0.079223028
0.078741947
0.078245405
0.077733398
0.077205922
0.076662973
0.076104556
0.075530684
0.074941382
0.074336692
0.073716672
0.073081404
0.072430991
0.071765562
0.071085276
0.070390319
0.069680912
0.068957306
0.068219788
0.067468681
0.066704341
0.065927163
0.065137577
0.064336047
0.063523075
0.062699202
0.061865045
0.061021356
0.087604991
0.08743407
0.087243068
0.087031832
0.086801677
0.086553152
0.086287
0.086003771
0.085703979
0.08538805
0.085056354
0.084709194
0.084346824
0.083969446
0.083577222
0.08317027
0.08274868
0.082312506
0.081861782
0.081396515
0.0809167
0.080422313
0.079913324
0.079389693
0.078851381
0.078298346
0.077730552
0.077147969
0.076550578
0.075938374
0.075311369
0.074669591
0.074013095
0.073341956
0.07265628
0.071956198
0.071241876
0.070513511
0.069771334
0.069015612
0.068246648
0.067464783
0.066670395
0.065863899
0.065045745
0.064216421
0.063376456
0.062526456
0.089590936
0.089365064
0.089120406
0.08885763
0.088577605
0.088280985
0.087968387
0.087640326
0.087297246
0.086939521
0.086567459
0.086181311
0.085781275
0.085367503
0.084940102
0.084499145
0.084044669
0.083576685
0.083095178
0.082600114
0.082091443
0.081569101
0.081033017
0.080483112
0.07991931
0.079341532
0.078749707
0.078143771
0.077523673
0.076889376
0.076240861
0.075578128
0.074901202
0.074210133
0.073504999
0.072785909
0.072053004
0.071306459
0.070546484
0.069773326
0.06898727
0.06818864
0.067377798
0.066555144
0.065721117
0.064876195
0.064020909
0.063155902
0.091509531
0.091228581
0.090930736
0.090616758
0.090287374
0.089943197
0.089584765
0.089212528
0.088826863
0.088428078
0.08801642
0.087592079
0.087155195
0.086705861
0.086244133
0.085770028
0.085283534
0.084784612
0.084273199
0.083749216
0.083212567
0.082663146
0.082100841
0.081525534
0.080937109
0.080335451
0.079720453
0.079092017
0.078450059
0.077794509
0.077125318
0.076442457
0.075745923
0.075035739
0.074311956
0.07357466
0.072823968
0.072060031
0.071283041
0.070493224
0.069690847
0.068876216
0.068049679
0.06721162
0.066362469
0.065502693
0.064632827
0.063753508
0.093357673
0.093022071
0.09267164
0.092307091
0.091929057
0.091538079
0.091134613
0.090719036
0.090291651
0.089852698
0.089402354
0.088940746
0.088467951
0.087984002
0.087488897
0.086982597
0.086465038
0.08593613
0.08539576
0.084843801
0.084280113
0.083704547
0.083116946
0.082517155
0.081905016
0.081280378
0.080643099
0.079993046
0.0793301
0.078654162
0.07796515
0.077263008
0.076547703
0.075819231
0.075077619
0.074322928
0.07355525
0.072774717
0.071981498
0.0711758
0.070357872
0.069528004
0.068686527
0.067833814
0.06697028
0.066096385
0.065212655
0.064319714
0.09513306
0.094743538
0.094341334
0.093927075
0.093501299
0.093064462
0.092616934
0.092159012
0.09169092
0.091212824
0.090724829
0.090226994
0.089719329
0.089201806
0.088674362
0.088136901
0.087589305
0.087031428
0.08646311
0.085884176
0.085294438
0.084693703
0.084081773
0.08345845
0.082823539
0.082176851
0.081518207
0.08084744
0.0801644
0.079468954
0.07876099
0.078040423
0.077307193
0.076561269
0.075802653
0.07503138
0.074247521
0.073451186
0.072642523
0.071821719
0.070989007
0.07014466
0.069288992
0.068422365
0.067545181
0.06665789
0.065761005
0.064855135
0.096834026
0.096391558
0.095938605
0.095475692
0.095003262
0.094521674
0.094031209
0.093532076
0.093024419
0.092508322
0.091983818
0.091450892
0.090909489
0.090359514
0.089800842
0.08923332
0.088656772
0.088071001
0.087475794
0.086870927
0.086256167
0.085631275
0.084996011
0.084350137
0.083693419
0.083025629
0.082346555
0.081655994
0.080953763
0.080239698
0.079513658
0.078775529
0.078025223
0.077262683
0.076487886
0.075700844
0.074901605
0.074090257
0.073266928
0.072431788
0.07158505
0.070726971
0.069857852
0.068978041
0.068087927
0.067187949
0.06627861
0.065360501
0.098459468
0.097965239
0.097462749
0.096952417
0.096434579
0.095909494
0.095377349
0.094838261
0.094292288
0.093739433
0.093179652
0.092612855
0.092038917
0.091457678
0.09086895
0.09027252
0.089668155
0.089055604
0.088434604
0.087804881
0.087166155
0.086518144
0.085860565
0.085193138
0.084515592
0.083827663
0.083129101
0.082419672
0.081699159
0.080967369
0.080224131
0.0794693
0.078702765
0.077924442
0.077134284
0.076332278
0.075518452
0.074692872
0.073855647
0.073006928
0.072146911
0.071275836
0.070393992
0.069501711
0.068599373
0.067687405
0.066766299
0.06583663
0.1000088
0.09946418
0.098913535
0.098357169
0.097795306
0.097228104
0.096655649
0.096077963
0.095495018
0.094906731
0.094312977
0.093713595
0.093108386
0.092497125
0.091879559
0.091255416
0.090624406
0.089986223
0.089340552
0.088687073
0.088025458
0.087355381
0.086676517
0.085988547
0.085291161
0.084584059
0.083866957
0.083139587
0.082401702
0.081653076
0.080893512
0.080122837
0.079340913
0.078547631
0.077742921
0.076926748
0.076099117
0.075260074
0.074409709
0.073548154
0.07267559
0.07179224
0.070898379
0.069994328
0.069080455
0.068157177
0.067224974
0.066284409
0.10148191
0.10088843
0.10029115
0.099690267
0.099085882
0.098478047
0.097866746
0.097251905
0.096633405
0.096011077
0.095384718
0.094754088
0.094118919
0.093478917
0.092833767
0.092183135
0.091526675
0.090864029
0.09019483
0.089518708
0.088835291
0.08814421
0.087445099
0.086737599
0.086021362
0.085296054
0.084561356
0.083816969
0.083062613
0.082298036
0.08152301
0.080737337
0.079940853
0.079133426
0.078314961
0.077485402
0.076644733
0.075792981
0.074930217
0.074056554
0.073172158
0.072277236
0.07137205
0.070456908
0.069532169
0.068598242
0.067655596
0.066704783
0.1028791
0.10223843
0.10159617
0.10095239
0.10030708
0.099660182
0.099011575
0.09836109
0.097708512
0.097053589
0.096396035
0.095735535
0.095071749
0.094404316
0.093732858
0.093056982
0.092376285
0.091690356
0.090998778
0.090301135
0.089597009
0.088885987
0.088167665
0.087441644
0.086707541
0.085964987
0.08521363
0.084453139
0.083683206
0.082903549
0.082113913
0.081314076
0.080503847
0.079683072
0.078851633
0.078009454
0.077156498
0.076292774
0.075418332
0.074533271
0.073637738
0.072731928
0.071816088
0.070890514
0.069955558
0.069011622
0.068059168
0.067098735
0.10420106
0.10351498
0.10282948
0.10214452
0.10145996
0.10077564
0.10009133
0.099406765
0.098721631
0.098035595
0.097348288
0.096659322
0.095968285
0.095274749
0.094578274
0.093878409
0.093174694
0.092466667
0.091753863
0.091035818
0.09031207
0.089582167
0.088845663
0.088102124
0.08735113
0.086592279
0.085825187
0.085049494
0.084264861
0.083470981
0.082667572
0.081854386
0.08103121
0.080197866
0.079354217
0.078500165
0.077635654
0.076760673
0.075875256
0.074979486
0.074073493
0.073157457
0.072231612
0.071296244
0.070351697
0.069398369
0.068436719
0.067467274
0.10765533
0.10691687
0.10618136
0.10544885
0.1047192
0.10399229
0.10326792
0.10254586
0.10182581
0.10110744
0.10039039
0.099674249
0.098958606
0.098243011
0.097526998
0.096810086
0.096091783
0.095371586
0.094648987
0.093923474
0.093194531
0.092461647
0.091724312
0.090982023
0.090234286
0.089480617
0.088720548
0.087953624
0.08717941
0.086397492
0.08560748
0.084809009
0.084001743
0.083185378
0.08235964
0.081524295
0.080679144
0.079824026
0.078958826
0.07808347
0.077197928
0.076302219
0.075396407
0.074480608
0.073554987
0.072619763
0.071675214
0.070721677
0.069759552
0.068789297
0.067811428
0.10896907
0.10818184
0.10740011
0.10662374
0.10585247
0.10508603
0.1043241
0.10356631
0.10281225
0.1020615
0.10131358
0.10056801
0.099824285
0.099081873
0.098340237
0.09759883
0.096857094
0.096114468
0.095370385
0.094624283
0.093875596
0.093123767
0.092368241
0.091608476
0.090843937
0.090074106
0.089298477
0.088516565
0.087727903
0.086932047
0.08612858
0.085317111
0.084497278
0.083668752
0.082831239
0.081984481
0.081128259
0.080262394
0.07938675
0.078501236
0.077605806
0.076700462
0.075785254
0.07486028
0.073925693
0.072981696
0.072028555
0.071066603
0.070096248
0.069117958
0.068132234
0.11020508
0.10937128
0.10854545
0.10772729
0.1069164
0.10611237
0.10531474
0.10452303
0.10373672
0.10295527
0.10217813
0.1014047
0.10063441
0.099866656
0.09910082
0.098336289
0.097572446
0.09680867
0.096044342
0.095278846
0.094511572
0.093741914
0.09296928
0.092193084
0.091412756
0.090627743
0.089837505
0.089041525
0.088239308
0.087430382
0.086614302
0.085790651
0.084959045
0.084119132
0.083270595
0.082413156
0.081546577
0.080670661
0.079785253
0.078890246
0.077985578
0.077071235
0.076147252
0.075213714
0.074270755
0.073318566
0.072357397
0.071387577
0.070409535
0.069423762
0.068430728
0.11136498
0.11048687
0.10961912
0.10876128
0.1079128
0.10707314
0.10624171
0.10541791
0.1046011
0.10379065
0.10298591
0.10218621
0.10139087
0.10059923
0.099810602
0.099024307
0.098239666
0.097456004
0.096672648
0.095888935
0.095104208
0.094317819
0.093529134
0.092737531
0.091942404
0.091143164
0.090339244
0.089530093
0.08871519
0.087894035
0.087066157
0.086231118
0.085388508
0.084537956
0.083679122
0.082811711
0.081935465
0.081050169
0.080155653
0.079251792
0.078338511
0.07741578
0.076483621
0.075542103
0.074591347
0.073631526
0.07266287
0.071685703
0.070700496
0.069707774
0.068707952
0.11245063
0.1115305
0.11062306
0.10972767
0.10884366
0.10797034
0.10710701
0.10625294
0.10540739
0.10456963
0.10373891
0.10291449
0.10209561
0.10128153
0.1004715
0.099664777
0.098860626
0.098058318
0.09725713
0.096456351
0.095655281
0.094853231
0.094049528
0.093243515
0.092434551
0.091622016
0.090805312
0.089983861
0.089157113
0.088324544
0.08748566
0.086639998
0.085787128
0.084926657
0.084058229
0.083181527
0.082296277
0.081402248
0.080499253
0.079587155
0.07866586
0.077735329
0.076795567
0.075846633
0.074888631
0.073921716
0.072946098
0.071962087
0.070970226
0.069971086
0.06896495
0.11346408
0.11250426
0.11155935
0.11062856
0.10971109
0.10880609
0.10791274
0.10703022
0.10615767
0.10529427
0.10443918
0.10359158
0.10275064
0.10191553
0.10108547
0.10025963
0.099437227
0.098617485
0.097799631
0.096982908
0.096166576
0.095349907
0.09453219
0.093712735
0.092890869
0.092065941
0.091237323
0.090404412
0.089566633
0.088723438
0.087874309
0.087018763
0.086156349
0.085286655
0.084409306
0.083523969
0.082630353
0.081728211
0.080817343
0.079897595
0.078968863
0.078031093
0.077084279
0.076128467
0.075163749
0.074190264
0.073208201
0.072217852
0.11440757
0.11341039
0.11243025
0.11146621
0.1105173
0.10958258
0.1086611
0.10775192
0.10685409
0.10596669
0.10508881
0.10421954
0.10335798
0.10250325
0.10165448
0.1008108
0.09997138
0.099135384
0.098301999
0.097470425
0.09663988
0.095809601
0.094978843
0.094146883
0.093313017
0.092476566
0.091636875
0.090793317
0.089945292
0.089092228
0.088233588
0.087368868
0.086497598
0.085619347
0.084733725
0.083840382
0.08293901
0.08202935
0.081111186
0.080184353
0.079248733
0.078304261
0.077350921
0.076388747
0.075417821
0.074438273
0.073450288
0.11528345
0.11425124
0.11323809
0.11224291
0.11126461
0.1103021
0.10935433
0.10842025
0.10749883
0.10658906
0.10568993
0.10480046
0.1039197
0.10304669
0.10218051
0.10132024
0.100465
0.099613894
0.098766076
0.097920706
0.097076964
0.096234052
0.095391192
0.09454763
0.093702635
0.0928555
0.092005546
0.091152121
0.090294602
0.089432398
0.088564951
0.087691738
0.086812271
0.085926104
0.085032828
0.084132079
0.083223536
0.082306925
0.081382019
0.080448638
0.079506656
0.078555995
0.077596629
0.076628583
0.075651934
0.074666811
0.073673428
0.11609419
0.11502926
0.11398529
0.11296107
0.11195536
0.11096697
0.10999472
0.10903748
0.10809411
0.10716353
0.10624465
0.10533644
0.10443785
0.10354788
0.10266555
0.1017899
0.10091998
0.10005487
0.099193687
0.09833554
0.09747958
0.096624975
0.095770917
0.094916623
0.094061336
0.093204324
0.092344883
0.091482339
0.09061605
0.089745403
0.088869823
0.087988769
0.087101736
0.086208262
0.085307925
0.084400345
0.083485188
0.082562168
0.081631046
0.080691631
0.079743785
0.078787422
0.077822507
0.076849058
0.075867144
0.0748769
0.073878555
0.11684234
0.11574695
0.11467433
0.11362311
0.11259195
0.11157953
0.11058457
0.10960585
0.10864215
0.10769229
0.10675513
0.10582955
0.10491446
0.10400881
0.10311155
0.10222167
0.1013382
0.10046016
0.099586628
0.098716686
0.097849449
0.096984055
0.096119667
0.095255476
0.094390699
0.093524582
0.092656398
0.091785453
0.090911084
0.090032662
0.089149593
0.08826132
0.087367323
0.086467125
0.085560291
0.084646427
0.083725188
0.082796274
0.081859437
0.080914475
0.079961241
0.07899964
0.078029628
0.077051216
0.076064471
0.075069528
0.07406662
0.11753048
0.11640686
0.1153077
0.1142315
0.11317679
0.11214214
0.1111262
0.11012763
0.10914515
0.10817749
0.10722346
0.10628187
0.10535157
0.10443146
0.10352044
0.10261746
0.1017215
0.10083156
0.099946664
0.099065869
0.098188257
0.09731294
0.096439054
0.095565765
0.094692266
0.093817781
0.092941565
0.092062903
0.091181115
0.090295554
0.08940561
0.088510711
0.087610323
0.086703957
0.085791162
0.084871534
0.083944717
0.0830104
0.082068324
0.081118279
0.080160108
0.079193707
0.078219026
0.077236071
0.076244903
0.075245656
0.074238563
0.11816126
0.11701158
0.11588794
0.11478869
0.11371228
0.11265717
0.1116219
0.11060507
0.1096053
0.10862129
0.10765174
0.10669544
0.10575117
0.10481777
0.10389412
0.10297912
0.1020717
0.10117084
0.10027552
0.099384771
0.098497649
0.097613237
0.096730648
0.095849022
0.094967534
0.094085387
0.093201816
0.092316089
0.091427509
0.090535415
0.08963918
0.08873822
0.087831987
0.086919978
0.086001733
0.085076837
0.08414492
0.083205665
0.082258801
0.081304111
0.08034143
0.079370645
0.078391702
0.077404598
0.076409392
0.075406215
0.074395293
0.1187373
0.11756367
0.11641754
0.11529715
0.11420082
0.11312693
0.11207395
0.11104038
0.11002478
0.10902577
0.10804203
0.10707225
0.10611519
0.10516965
0.10423445
0.10330845
0.10239056
0.10147971
0.10057487
0.099675032
0.098779224