/*--------------------------------*- C++ -*----------------------------------*\
| =========                 |                                                 |
| \\      /  F ield         | OpenFOAM: The Open Source CFD Toolbox           |
|  \\    /   O peration     | Version:  2312                                  |
|   \\  /    A nd           | Website:  www.openfoam.com                      |
|    \\/     M anipulation  |                                                 |
\*---------------------------------------------------------------------------*/
FoamFile
{
    version     2.0;
    format      ascii;
    arch        "LSB;label=32;scalar=64";
    class       volScalarField;
    location    "0.1";
    object      H2O;
}
// * * * * * * * * * * * * * * * * * * * * * * * * * * * * * * * * * * * * * //

dimensions      [0 0 0 0 0 0 0];

internalField   nonuniform List<scalar> 
3272
(
0.0099213914
0.010076875
0.010227881
0.010374268
0.010515946
0.010652836
0.010784867
0.010911973
0.011034097
0.011151183
0.011263183
0.011370053
0.011471753
0.011568248
0.011659509
0.011745508
0.011826222
0.011901635
0.011971731
0.012036501
0.012095937
0.012150037
0.012198804
0.012242242
0.012280364
0.012313185
0.012340199
0.012362039
0.012378961
0.012390534
0.012397012
0.012398446
0.01239485
0.012386151
0.01237242
0.012353739
0.01233017
0.01230178
0.012268638
0.012230823
0.012188413
0.012141496
0.012090162
0.012034506
0.011974629
0.011910636
0.011842635
0.011770742
0.011695076
0.011615761
0.011532929
0.01144672
0.011357285
0.0099984864
0.010154182
0.010305324
0.010451781
0.010593466
0.010730304
0.010862227
0.010989173
0.011111085
0.011227911
0.011339604
0.011446123
0.011547429
0.01164349
0.011734278
0.011819767
0.011899938
0.011974774
0.012044262
0.012108394
0.012167165
0.012220573
0.012268621
0.012311315
0.012348665
0.012380691
0.012406906
0.012427934
0.012444047
0.012454776
0.0124604
0.012460961
0.012456483
0.012446868
0.012432225
0.012412623
0.012388125
0.012358798
0.012324713
0.012285948
0.012242584
0.012194708
0.012142412
0.01208579
0.012024945
0.011959981
0.011891009
0.011818142
0.011741498
0.011661199
0.01157737
0.011490147
0.011399718
0.010144322
0.010300269
0.010451545
0.01059802
0.010739613
0.010876253
0.011007876
0.011134424
0.011255844
0.01137209
0.011483118
0.011588891
0.011689375
0.011784541
0.011874365
0.011958826
0.012037906
0.012111594
0.012179879
0.012242756
0.012300224
0.012352284
0.012398939
0.012440193
0.012476051
0.012506531
0.012531213
0.012550717
0.012565252
0.012574379
0.012578387
0.012577306
0.012571134
0.012559806
0.012543445
0.012522111
0.012495868
0.012464783
0.012428932
0.012388391
0.012343244
0.012293579
0.012239489
0.01218107
0.012118424
0.012051658
0.011980883
0.011906214
0.011827769
0.011745671
0.011660046
0.011571035
0.01147883
0.010351859
0.01050799
0.010659287
0.010805624
0.010946927
0.011083129
0.011214175
0.011340011
0.011460593
0.011575879
0.011685832
0.011790421
0.011889618
0.0119834
0.012071747
0.012154645
0.012232081
0.012304047
0.01237054
0.012431559
0.012487107
0.012537189
0.012581812
0.012620979
0.012654673
0.012682861
0.012705331
0.012722793
0.012734881
0.012741754
0.012743474
0.012740059
0.012731454
0.01271771
0.012698915
0.01267513
0.012646422
0.01261286
0.01257452
0.012531482
0.012483831
0.012431656
0.012375052
0.012314116
0.012248954
0.012179672
0.012106382
0.012029202
0.011948252
0.011863654
0.01177554
0.01168405
0.011589382
0.01061493
0.010771063
0.010922157
0.011068096
0.011208811
0.011344247
0.011474355
0.011599092
0.01171842
0.011832305
0.01194072
0.01204364
0.012141046
0.012232922
0.012319255
0.012400037
0.012475264
0.012544933
0.012609046
0.012667609
0.01272063
0.012768122
0.012810095
0.012846561
0.012877509
0.012902594
0.012922345
0.012937027
0.012946204
0.012950162
0.012948934
0.012942512
0.012930841
0.012914042
0.012892174
0.012865301
0.012833492
0.012796818
0.012755357
0.012709192
0.012658408
0.012603098
0.012543356
0.012479285
0.012410989
0.012338577
0.012262164
0.012181868
0.012097811
0.012010118
0.011918922
0.011824365
0.011726649
0.010928061
0.011083898
0.011234458
0.011379636
0.011519374
0.011653627
0.011782357
0.011905532
0.012023124
0.01213511
0.012241472
0.012342195
0.012437269
0.012526686
0.012610444
0.012688543
0.012760983
0.012827773
0.01288892
0.012944437
0.012994339
0.013038648
0.013077391
0.013110617
0.013137825
0.013159595
0.013176163
0.013187221
0.013192966
0.013193447
0.013188699
0.013178629
0.013163346
0.013142919
0.013117408
0.013086882
0.013051409
0.013011065
0.01296593
0.012916087
0.012861625
0.012802638
0.012739223
0.012671483
0.012599525
0.012523461
0.012443405
0.012359478
0.012271803
0.01218051
0.012085731
0.011987612
0.011886358
0.011286311
0.011441443
0.011591034
0.011734992
0.011873273
0.012005844
0.012132681
0.012253765
0.012369079
0.012478613
0.01258236
0.012680318
0.012772485
0.012858867
0.012939468
0.013014299
0.01308337
0.013146696
0.013204294
0.013256181
0.013302379
0.01334291
0.013377796
0.013407051
0.013430309
0.013448314
0.013460788
0.013467877
0.013469641
0.013466102
0.013457209
0.013443011
0.013423598
0.013399029
0.013369369
0.013334688
0.013295058
0.013250555
0.013201262
0.013147265
0.013088654
0.013025525
0.012957977
0.012886114
0.012810045
0.012729883
0.012645745
0.012557753
0.012466033
0.012370715
0.012271934
0.012169839
0.012064637
0.011685147
0.011839062
0.011987151
0.012129341
0.012265601
0.012395917
0.012520279
0.01263868
0.012751121
0.012857604
0.012958136
0.013052726
0.013141386
0.013224132
0.013300981
0.013371952
0.013437067
0.013496348
0.01354982
0.01359751
0.013639445
0.013675654
0.013706168
0.013730636
0.013749609
0.013763287
0.013771278
0.013773897
0.013771162
0.013763036
0.01374953
0.013730744
0.013706736
0.013677571
0.013643314
0.013604038
0.013559817
0.013510731
0.013456863
0.013398301
0.013335137
0.013267469
0.013195397
0.013119027
0.013038469
0.012953838
0.012865253
0.012772835
0.012676713
0.012577018
0.012473888
0.012367476
0.012257997
0.012120348
0.012272436
0.012418404
0.012558195
0.0126918
0.012819221
0.012940465
0.013055543
0.013164471
0.013267266
0.013363949
0.013454545
0.013539078
0.013617576
0.013690068
0.013756585
0.013817158
0.01387182
0.013920603
0.013963544
0.014000676
0.014032039
0.014057271
0.014076911
0.014091214
0.014099799
0.014102913
0.014100613
0.014092877
0.014079697
0.014061178
0.014037381
0.014008367
0.013974202
0.013934956
0.013890701
0.013841516
0.01378748
0.013728679
0.013665203
0.013597145
0.013524603
0.013447681
0.013366484
0.013281125
0.013191718
0.013098384
0.013001246
0.012900431
0.012796074
0.012688312
0.012577312
0.012463363
0.012587931
0.012737498
0.012880646
0.013017341
0.013147593
0.013271425
0.013388862
0.013499935
0.013604674
0.013703116
0.013795297
0.013881255
0.013961029
0.01403466
0.014102191
0.014163663
0.014219119
0.0142686
0.01431215
0.014349809
0.01438162
0.014407209
0.014427147
0.014441686
0.014450458
0.01445371
0.014451491
0.014443786
0.014430585
0.014411997
0.014388081
0.014358899
0.014324516
0.014285001
0.014240424
0.014190861
0.014136391
0.014077094
0.014013059
0.013944376
0.013871139
0.013793448
0.013711407
0.013625122
0.013534707
0.013440278
0.013341955
0.013239863
0.013134128
0.013024884
0.012912266
0.013084101
0.013230379
0.013369945
0.013502787
0.013628939
0.013748445
0.013861351
0.013967705
0.01406756
0.014160967
0.014247978
0.014328648
0.014403031
0.014471181
0.014533153
0.014589001
0.014638779
0.014682539
0.014720332
0.014752205
0.014777772
0.014797594
0.014811994
0.014820586
0.014823611
0.014821122
0.014813098
0.014799542
0.014780559
0.01475621
0.014726557
0.014691664
0.014651599
0.014606431
0.014556234
0.014501083
0.014441058
0.014376242
0.014306723
0.014232593
0.014153946
0.014070883
0.013983508
0.013891929
0.013796258
0.013696614
0.013593117
0.013485892
0.013375069
0.01326079
0.013143248
0.013605211
0.013747375
0.013882543
0.014010733
0.014132001
0.014246414
0.014354041
0.01445495
0.014549211
0.014636894
0.01471807
0.014792806
0.014861172
0.014923236
0.014979065
0.015028729
0.015072292
0.015109817
0.015141363
0.015166548
0.015185958
0.015199661
0.015207747
0.015210208
0.015207105
0.015198415
0.015184174
0.015164479
0.015139391
0.015108973
0.015073289
0.015032405
0.01498639
0.014935315
0.014879254
0.014818283
0.014752483
0.014681938
0.014606736
0.014526967
0.014442728
0.014354119
0.014261244
0.014164212
0.014063136
0.013958133
0.013849325
0.013736838
0.013620803
0.013501365
0.013378726
0.014147741
0.01428492
0.014414841
0.01453755
0.014653128
0.014761667
0.014863256
0.014957986
0.015045945
0.015127223
0.015201904
0.015270074
0.015331814
0.015387207
0.015436332
0.015479275
0.015516113
0.01554692
0.015571332
0.015589906
0.015602722
0.015609847
0.015611363
0.015607295
0.015597591
0.015582336
0.015561613
0.015535483
0.015504011
0.01546726
0.015425296
0.015378186
0.015325999
0.015268808
0.015206686
0.01513971
0.01506796
0.014991521
0.01491048
0.014824928
0.01473496
0.014640677
0.014542182
0.014439584
0.014332996
0.014222534
0.014108321
0.013990483
0.013869152
0.013744473
0.013616645
0.014708285
0.01483958
0.014963383
0.015079768
0.015188843
0.015290722
0.015385519
0.015473344
0.015554306
0.015628511
0.01569606
0.015757053
0.015811587
0.01585975
0.015901631
0.015937349
0.015966982
0.015990197
0.016007625
0.016019159
0.016024986
0.016025168
0.016019784
0.016008714
0.015992115
0.015970046
0.015942572
0.015909757
0.015871665
0.015828362
0.015779912
0.015726385
0.015667849
0.015604376
0.015536039
0.015462915
0.015385085
0.01530263
0.015215638
0.015124199
0.015028408
0.014928364
0.01482417
0.014715934
0.014603767
0.014487787
0.014368115
0.014244876
0.014118203
0.01398824
0.013855184
0.015283547
0.015408048
0.015524857
0.015634074
0.015735837
0.015830283
0.015917547
0.015997761
0.016071053
0.016137544
0.016197352
0.016250591
0.016297375
0.016337792
0.01637189
0.016399933
0.016421508
0.016437386
0.016447282
0.016451447
0.016449955
0.01644285
0.016430094
0.016411815
0.016388081
0.016358958
0.01632451
0.016284802
0.016239899
0.016189867
0.01613477
0.016074676
0.016009655
0.015939775
0.015865112
0.015785739
0.015701736
0.015613184
0.015520168
0.015422779
0.015321109
0.015215256
0.015105321
0.014991412
0.014873638
0.014752115
0.014626965
0.014498311
0.014366286
0.014231032
0.014092745
0.015870346
0.015987145
0.016096091
0.016197313
0.016290973
0.016377234
0.016456251
0.016528178
0.016593158
0.016651332
0.016702826
0.016747765
0.016786313
0.01681858
0.01684421
0.01686393
0.016877668
0.016885589
0.016887743
0.016884223
0.016875028
0.016860236
0.016839943
0.016814222
0.016783141
0.016746767
0.016705165
0.0166584
0.016606537
0.01654964
0.016487775
0.016421007
0.016349403
0.016273034
0.01619197
0.016106284
0.016016055
0.015921361
0.015822287
0.015718919
0.01561135
0.015499674
0.015383991
0.015264407
0.01514103
0.015013975
0.014883359
0.014749308
0.01461195
0.014471429
0.014327939
0.016465619
0.016573827
0.016674063
0.016766488
0.016851287
0.016928645
0.016998737
0.017061737
0.017117807
0.017167106
0.017209762
0.017245851
0.01727571
0.017298905
0.017316178
0.017327453
0.017332898
0.017332606
0.017326682
0.017315029
0.017297847
0.017275199
0.017247163
0.017213811
0.017175212
0.017131433
0.017082539
0.017028595
0.016969663
0.016905808
0.016837092
0.01676358
0.016685337
0.01660243
0.016514928
0.016422903
0.016326429
0.016225584
0.016120448
0.016011107
0.015897649
0.015780168
0.015658762
0.015533532
0.015404586
0.015272036
0.015135998
0.014996594
0.014853952
0.014708213
0.014559572
0.017066434
0.017165191
0.017255908
0.017338773
0.017413994
0.017481773
0.017542306
0.017595787
0.017642387
0.017682322
0.017715736
0.017742276
0.017762754
0.017777092
0.017785584
0.017788154
0.017785019
0.017776195
0.017761758
0.017741817
0.017716463
0.017685777
0.017649834
0.017608705
0.01756246
0.017511164
0.017454882
0.017393677
0.017327608
0.017256738
0.017181128
0.017100839
0.017015934
0.016926477
0.016832534
0.016734174
0.016631469
0.016524493
0.016413324
0.016298044
0.016178739
0.0160555
0.015928421
0.015797602
0.015663148
0.015525168
0.015383775
0.015239089
0.015091233
0.014940346
0.014786623
0.017669996
0.017758486
0.01783892
0.017911511
0.01797649
0.018034071
0.018084455
0.018127883
0.018164461
0.018194589
0.018217824
0.018234966
0.018245983
0.018251083
0.01825039
0.018244009
0.018231895
0.018214265
0.018191198
0.018162781
0.018129102
0.01809024
0.01804627
0.017997263
0.017943287
0.017884404
0.017820677
0.017752166
0.017678929
0.017601025
0.017518511
0.017431446
0.017339889
0.017243902
0.017143546
0.017038888
0.016929994
0.016816937
0.01669979
0.016578632
0.016453547
0.016324621
0.016191947
0.01605562
0.015915742
0.015772419
0.015625763
0.015475888
0.015322916
0.01516697
0.018273664
0.018351124
0.018420565
0.018482226
0.018536363
0.018583194
0.018622863
0.018655857
0.018681721
0.018701382
0.018714712
0.018721977
0.018723318
0.018718909
0.018708743
0.018692998
0.018671778
0.018645197
0.018613351
0.018576328
0.018534212
0.018487082
0.018435011
0.018378066
0.018316311
0.01824981
0.018178618
0.018102795
0.018022393
0.017937469
0.017848076
0.017754268
0.017656101
0.017553632
0.01744692
0.017336026
0.017221013
0.017101949
0.016978905
0.016851956
0.01672118
0.016586662
0.016448489
0.016306755
0.016161558
0.016013001
0.015861192
0.015706246
0.015548287
0.015387481
0.018874953
0.018940681
0.018998484
0.019048611
0.019091387
0.019127055
0.019155261
0.019177064
0.019192322
0.019201525
0.019204513
0.019201645
0.019192997
0.019178675
0.019158851
0.019133644
0.019103162
0.01906751
0.019026784
0.018981072
0.018930455
0.018875007
0.018814799
0.018749895
0.018680357
0.018606241
0.018527602
0.018444493
0.018356964
0.018265065
0.018168846
0.018068358
0.01796365
0.017854776
0.017741789
0.017624746
0.017503708
0.017378736
0.017249897
0.017117262
0.016980907
0.016840909
0.016697355
0.016550334
0.01639994
0.016246273
0.016089438
0.015929548
0.015766728
0.015601153
0.019471552
0.019524908
0.019570503
0.019608518
0.019639467
0.019663022
0.019679876
0.019690521
0.019694792
0.0196931
0.019685538
0.01967218
0.019653279
0.019628955
0.019599342
0.019564561
0.019524723
0.019479927
0.019430267
0.019375827
0.019316685
0.019252911
0.019184572
0.019111728
0.019034434
0.018952744
0.018866707
0.018776371
0.018681781
0.018582982
0.01848002
0.018372939
0.018261785
0.018146605
0.018027449
0.017904368
0.017777418
0.017646655
0.017512144
0.017373948
0.01723214
0.017086795
0.016937993
0.016785819
0.016630364
0.016471725
0.016310004
0.016145307
0.015977757
0.015807526
0.020061329
0.020101719
0.020134693
0.020159922
0.020178308
0.020190111
0.020195289
0.020194333
0.020187408
0.020174566
0.020156109
0.020132166
0.020102906
0.020068468
0.020028982
0.019984566
0.019935326
0.019881359
0.019822754
0.019759591
0.019691942
0.019619873
0.019543445
0.019462713
0.019377727
0.019288534
0.019195179
0.019097704
0.018996148
0.018890551
0.018780952
0.018667391
0.018549907
0.018428544
0.018303344
0.018174354
0.018041624
0.017905207
0.017765161
0.017621546
0.017474428
0.017323879
0.017169975
0.017012797
0.016852432
0.016688971
0.016522513
0.016353161
0.016181024
0.020642379
0.020669096
0.020688638
0.02070134
0.02070715
0.020706583
0.020699865
0.02068707
0.020668563
0.020644491
0.020615055
0.020580413
0.02054072
0.020496115
0.020446722
0.020392655
0.020334015
0.020270895
0.020203376
0.020131533
0.020055433
0.019975136
0.019890696
0.019802161
0.019709577
0.019612983
0.019512419
0.019407918
0.019299516
0.019187245
0.019071139
0.018951231
0.018827556
0.018700149
0.018569048
0.018434296
0.018295935
0.018154015
0.018008586
0.017859705
0.017707434
0.017551838
0.01739299
0.017230966
0.017065849
0.016897727
0.016726696
0.016552859
0.016376357
0.021212269
0.0212256
0.021231694
0.021231162
0.021224261
0.021211081
0.021192043
0.021167324
0.021137166
0.021101757
0.021061278
0.021015891
0.020965744
0.020910968
0.020851683
0.020787995
0.020720001
0.020647785
0.020571423
0.020490983
0.020406523
0.020318098
0.020225754
0.020129533
0.020029472
0.019925605
0.019817963
0.019706576
0.01959147
0.019472671
0.019350207
0.019224105
0.019094392
0.018961098
0.018824257
0.018683902
0.018540073
0.018392811
0.018242165
0.018088183
0.017930924
0.017770448
0.017606823
0.01744012
0.017270419
0.017097804
0.016922366
0.016744208
0.016563478
0.021770452
0.02176961
0.02176212
0.021748125
0.021728086
0.021702213
0.021670789
0.021634038
0.021592175
0.021545392
0.021493861
0.021437739
0.021377164
0.021312261
0.021243144
0.02116991
0.021092647
0.021011432
0.020926334
0.020837412
0.020744717
0.020648294
0.020548183
0.020444418
0.020337028
0.02022604
0.020111478
0.019993362
0.019871713
0.019746552
0.019617896
0.019485767
0.019350186
0.019211178
0.019068767
0.018922983
0.018773858
0.01862143
0.018465739
0.018306832
0.018144759
0.017979577
0.017811349
0.017640142
0.01746603
0.017289093
0.017109418
0.016927102
0.016742287
0.022315149
0.022299907
0.022278397
0.022250861
0.022217627
0.022178956
0.022135102
0.02208629
0.022032724
0.021974588
0.021912047
0.021845247
0.02177432
0.021699381
0.021620533
0.021537866
0.021451458
0.021361377
0.021267683
0.021170426
0.021069648
0.020965386
0.020857672
0.020746529
0.020631981
0.020514045
0.020392737
0.02026807
0.020140058
0.020008713
0.019874048
0.019736074
0.019594808
0.019450267
0.019302469
0.019151439
0.018997201
0.018839789
0.018679236
0.018515584
0.018348878
0.018179171
0.018006518
0.017830985
0.017652641
0.017471561
0.017287825
0.01710152
0.022844863
0.022815148
0.022779556
0.02273838
0.022691916
0.022640427
0.022584155
0.022523315
0.022458101
0.022388687
0.022315227
0.022237856
0.022156696
0.022071851
0.021983414
0.021891464
0.021796069
0.021697287
0.021595167
0.02148975
0.021381069
0.021269151
0.021154018
0.021035687
0.02091417
0.020789477
0.020661616
0.020530592
0.02039641
0.020259076
0.020118593
0.019974969
0.019828211
0.019678329
0.019525336
0.01936925
0.01921009
0.019047882
0.018882655
0.018714444
0.018543291
0.018369242
0.018192349
0.018012673
0.017830277
0.017645234
0.017457624
0.017267552
0.023358636
0.023314352
0.023264649
0.023209822
0.023150152
0.023085893
0.023017272
0.022944495
0.022867742
0.022787174
0.022702932
0.02261514
0.022523907
0.022429325
0.022331475
0.022230425
0.022126232
0.022018942
0.021908593
0.021795217
0.021678835
0.021559466
0.021437121
0.021311807
0.021183528
0.021052286
0.020918078
0.020780903
0.020640758
0.020497639
0.020351544
0.020202471
0.020050422
0.019895399
0.01973741
0.019576465
0.019412578
0.019245767
0.019076058
0.01890348
0.018728068
0.018549864
0.018368916
0.018185279
0.017999015
0.01781019
0.017618885
0.017425206
0.023855534
0.023796677
0.023732898
0.02366448
0.023591689
0.023514766
0.023433924
0.023349352
0.023261216
0.023169662
0.023074819
0.022976795
0.022875686
0.022771571
0.022664517
0.02255458
0.022441805
0.022326225
0.022207869
0.022086756
0.021962896
0.021836299
0.021706964
0.02157489
0.021440071
0.021302499
0.021162165
0.021019056
0.020873163
0.020724473
0.020572977
0.020418666
0.020261534
0.020101576
0.019938795
0.019773192
0.019604776
0.01943356
0.019259563
0.01908281
0.018903329
0.018721159
0.018536342
0.018348929
0.018158977
0.017966551
0.017771726
0.017574606
0.024334786
0.02426143
0.024183675
0.02410179
0.024016023
0.023926599
0.023833712
0.023737535
0.023638218
0.02353589
0.023430664
0.023322633
0.023211878
0.023098463
0.022982443
0.022863858
0.022742741
0.022619114
0.022492992
0.022364382
0.022233285
0.022099697
0.02196361
0.021825012
0.021683886
0.021540216
0.021393983
0.021245168
0.02109375
0.02093971
0.020783031
0.020623697
0.020461694
0.020297012
0.020129644
0.019959587
0.019786844
0.019611422
0.019433334
0.019252598
0.019069239
0.018883291
0.01869479
0.018503784
0.018310326
0.018114476
0.017916306
0.017715914
0.024795775
0.024708061
0.024616494
0.024521324
0.024422781
0.024321068
0.024216361
0.024108814
0.023998558
0.023885704
0.023770348
0.023652567
0.023532426
0.023409973
0.023285247
0.023158277
0.02302908
0.022897665
0.022764035
0.022628186
0.022490105
0.02234978
0.02220719
0.022062313
0.021915123
0.021765595
0.0216137
0.02145941
0.021302696
0.021143533
0.020981893
0.020817755
0.020651097
0.020481902
0.020310156
0.020135852
0.019958984
0.019779554
0.01959757
0.019413045
0.019225999
0.019036459
0.01884446
0.018650042
0.018453256
0.018254158
0.018052816
0.017849321
0.025238025
0.025136156
0.025031
0.024922783
0.024811713
0.024697971
0.024581712
0.024463067
0.02434215
0.024219052
0.02409385
0.023966604
0.023837361
0.023706154
0.023573007
0.023437932
0.023300934
0.023162008
0.023021143
0.022878324
0.022733526
0.022586725
0.02243789
0.022286989
0.022133986
0.021978845
0.021821529
0.021662002
0.021500227
0.021336168
0.021169794
0.021001072
0.020829976
0.020656481
0.020480568
0.02030222
0.02012143
0.019938191
0.019752506
0.019564384
0.019373838
0.019180893
0.018985576
0.018787926
0.018587988
0.018385815
0.018181471
0.017975042
0.025661191
0.025545432
0.025426962
0.025305985
0.025182683
0.025057212
0.024929705
0.024800273
0.024669005
0.024535973
0.024401236
0.024264833
0.024126795
0.023987138
0.02384587
0.023702988
0.023558482
0.023412334
0.02326452
0.02311501
0.022963771
0.022810765
0.02265595
0.022499285
0.022340723
0.02218022
0.022017729
0.021853205
0.021686604
0.021517882
0.021346998
0.021173915
0.020998597
0.020821016
0.020641143
0.020458958
0.020274445
0.020087594
0.019898401
0.019706871
0.019513012
0.019316842
0.019118388
0.018917681
0.018714764
0.018509687
0.018302507
0.018093307
0.026065053
0.025935721
0.025804262
0.025670855
0.025535656
0.025398795
0.02526038
0.025120498
0.024979216
0.024836587
0.024692646
0.024547416
0.024400908
0.024253122
0.024104049
0.023953671
0.023801962
0.02364889
0.02349442
0.023338508
0.023181109
0.023022173
0.022861649
0.022699484
0.022535623
0.02237001
0.022202592
0.022033313
0.021862121
0.021688966
0.021513799
0.021336576
0.021157254
0.020975796
0.020792171
0.02060635
0.020418313
0.020228044
0.020035534
0.019840782
0.019643792
0.019444578
0.019243161
0.01903957
0.018833843
0.018626026
0.018416175
0.018204364
0.026449508
0.026306966
0.026162886
0.026017419
0.025870693
0.025722812
0.025573856
0.02542389
0.025272956
0.025121085
0.024968292
0.024814581
0.024659943
0.024504361
0.02434781
0.024190255
0.024031657
0.02387197
0.023711143
0.023549122
0.023385849
0.023221264
0.023055304
0.022887905
0.022719004
0.022548535
0.022376436
0.022202644
0.022027099
0.021849741
0.021670515
0.02148937
0.021306257
0.021121133
0.02093396
0.020744704
0.020553338
0.020359841
0.0201642
0.019966409
0.019766467
0.019564383
0.019360175
0.019153868
0.018945496
0.018735101
0.018522735
0.018308471
0.026814558
0.026659212
0.026502916
0.026345793
0.026187941
0.026029436
0.025870333
0.025710668
0.025550463
0.025389724
0.025228445
0.025066611
0.024904195
0.024741161
0.024577467
0.024413064
0.024247896
0.024081905
0.023915026
0.023747192
0.023578334
0.02340838
0.023237257
0.023064892
0.022891211
0.02271614
0.022539607
0.022361542
0.022181876
0.022000543
0.021817481
0.02163263
0.021445938
0.021257353
0.021066832
0.020874336
0.020679832
0.020483295
0.020284706
0.020084053
0.019881333
0.019676551
0.019469718
0.019260858
0.01905
0.018837184
0.018622459
0.018405892
0.027660029
0.027494184
0.027327546
0.027160309
0.026992594
0.026824518
0.026656172
0.026487621
0.026318913
0.026150074
0.025981115
0.025812033
0.025642813
0.025473427
0.02530384
0.025134004
0.024963869
0.024793373
0.024622454
0.02445104
0.024279059
0.024106434
0.023933085
0.023758931
0.02358389
0.023407878
0.023230812
0.023052609
0.022873186
0.022692464
0.022510363
0.022326807
0.022141724
0.021955043
0.021766701
0.021576636
0.021384792
0.02119112
0.020995575
0.02079812
0.020598724
0.020397365
0.020194024
0.019988696
0.01978138
0.019572086
0.01936083
0.019147641
0.018932555
0.018715619
0.018496895
0.028026198
0.027846494
0.027666694
0.027486939
0.027307327
0.027127937
0.026948824
0.026770023
0.026591549
0.026413402
0.026235567
0.026058017
0.025880712
0.025703605
0.025526639
0.02534975
0.025172868
0.024995916
0.024818815
0.02464148
0.024463825
0.024285759
0.024107192
0.023928031
0.023748182
0.023567552
0.023386049
0.023203579
0.023020052
0.022835381
0.022649477
0.022462259
0.022273645
0.022083561
0.021891935
0.021698699
0.021503793
0.021307162
0.021108755
0.020908531
0.020706454
0.020502496
0.020296637
0.020088865
0.019879176
0.019667575
0.019454077
0.019238705
0.019021496
0.018802492
0.018581753
0.028371958
0.028178918
0.027986471
0.02779471
0.027603701
0.027413484
0.027224081
0.027035493
0.026847706
0.026660691
0.026474408
0.026288805
0.02610382
0.025919383
0.025735419
0.025551844
0.025368571
0.025185508
0.02500256
0.024819629
0.024636613
0.024453412
0.024269921
0.024086038
0.023901658
0.023716678
0.023530996
0.023344511
0.023157125
0.02296874
0.022779263
0.022588604
0.022396677
0.022203398
0.02200869
0.021812482
0.021614705
0.021415301
0.021214213
0.021011396
0.02080681
0.020600421
0.020392206
0.020182148
0.019970241
0.019756485
0.019540892
0.019323481
0.019104288
0.018883355
0.018660737
0.028697557
0.028491739
0.028287188
0.028083956
0.027882069
0.027681531
0.027482329
0.027284431
0.027087793
0.02689236
0.026698063
0.026504827
0.026312568
0.026121196
0.025930614
0.025740722
0.025551415
0.025362586
0.025174124
0.024985918
0.024797853
0.024609817
0.024421694
0.024233369
0.02404473
0.023855663
0.023666058
0.023475805
0.023284797
0.02309293
0.022900104
0.022706221
0.022511189
0.022314919
0.022117328
0.021918338
0.021717877
0.02151588
0.021312288
0.021107048
0.020900118
0.020691459
0.020481046
0.020268856
0.02005488
0.019839115
0.019621567
0.019402255
0.019181212
0.018958483
0.018734116
0.029003324
0.028785311
0.028569224
0.028355073
0.028142843
0.027932502
0.027724002
0.027517279
0.02731226
0.027108861
0.026906988
0.026706542
0.026507417
0.026309502
0.026112683
0.02591684
0.025721854
0.025527599
0.025333954
0.02514079
0.024947984
0.024755409
0.024562939
0.02437045
0.024177818
0.023984923
0.023791643
0.023597862
0.023403465
0.023208341
0.023012383
0.022815487
0.022617555
0.022418491
0.022218208
0.022016622
0.021813657
0.021609242
0.021403313
0.021195816
0.020986702
0.02077593
0.020563469
0.020349295
0.020133393
0.019915758
0.019696392
0.019475309
0.019252543
0.019028147
0.018802157
0.029289659
0.029060055
0.028833015
0.028608509
0.028386483
0.028166866
0.027949576
0.027734518
0.027521589
0.027310678
0.027101667
0.026894433
0.026688848
0.026484783
0.026282103
0.026080672
0.025880355
0.025681013
0.025482507
0.0252847
0.025087453
0.024890629
0.024694093
0.024497709
0.024301346
0.024104872
0.02390816
0.023711085
0.023513526
0.023315364
0.023116485
0.02291678
0.022716144
0.022514478
0.022311688
0.022107685
0.021902389
0.021695724
0.021487623
0.021278027
0.021066882
0.020854146
0.020639783
0.020423765
0.020206076
0.019986706
0.019765653
0.019542923
0.029557023
0.029316443
0.029079047
0.02884476
0.028613489
0.028385126
0.028159557
0.027936655
0.027716288
0.027498319
0.027282605
0.027069001
0.02685736
0.02664753
0.026439361
0.0262327
0.026027396
0.025823296
0.025620249
0.025418103
0.02521671
0.025015922
0.024815592
0.024615576
0.024415734
0.024215927
0.024016019
0.023815877
0.023615374
0.023414385
0.023212789
0.023010473
0.022807325
0.02260324
0.022398121
0.022191874
0.021984413
0.02177566
0.021565544
0.021354
0.021140973
0.020926416
0.02071029
0.020492565
0.02027322
0.020052244
0.01982963
0.029805928
0.029555
0.029307849
0.029064358
0.028824396
0.02858782
0.028354481
0.028124223
0.027896886
0.027672308
0.027450323
0.027230763
0.02701346
0.026798247
0.026584954
0.026373413
0.026163459
0.025954924
0.025747646
0.02554146
0.025336208
0.02513173
0.024927872
0.02472448
0.024521405
0.024318501
0.024115623
0.023912635
0.0237094
0.023505787
0.023301672
0.023096934
0.022891457
0.022685131
0.022477854
0.022269528
0.022060064
0.021849378
0.021637397
0.021424051
0.021209283
0.020993042
0.020775286
0.020555983
0.020335109
0.02011265
0.0198886
0.030036931
0.029776285
0.029519983
0.029267867
0.029019767
0.028775506
0.028534903
0.028297773
0.02806393
0.027833186
0.027605352
0.027380242
0.027157667
0.026937442
0.026719382
0.026503304
0.026289027
0.026076373
0.025865165
0.025655229
0.025446395
0.025238496
0.025031366
0.024824845
0.024618774
0.024413001
0.024207375
0.02400175
0.023795987
0.023589948
0.023383503
0.023176525
0.022968895
0.022760498
0.022551227
0.022340982
0.022129667
0.021917197
0.021703494
0.021488486
0.021272111
0.021054317
0.020835059
0.020614301
0.020392018
0.020168193
0.019942821
0.030250626
0.029980892
0.029716041
0.029455874
0.029200185
0.028948762
0.028701394
0.028457869
0.028217973
0.027981498
0.027748232
0.027517968
0.027290501
0.027065627
0.026843148
0.026622865
0.026404584
0.026188115
0.02597327
0.025759864
0.025547718
0.025336655
0.025126502
0.024917089
0.024708251
0.024499829
0.024291665
0.024083609
0.023875513
0.023667236
0.023458641
0.023249599
0.023039985
0.02282968
0.022618573
0.022406559
0.022193541
0.021979428
0.02176414
0.021547602
0.02132975
0.021110528
0.020889888
0.020667793
0.020444214
0.020219135
0.019992547
0.030447638
0.03016944
0.029896637
0.029628987
0.029366248
0.029108178
0.028854535
0.028605081
0.028359579
0.028117796
0.027879503
0.027644472
0.027412481
0.027183312
0.02695675
0.026732584
0.026510607
0.026290618
0.026072419
0.025855814
0.025640616
0.025426637
0.025213699
0.025001623
0.024790238
0.024579378
0.024368879
0.024158586
0.023948345
0.02373801
0.02352744
0.023316501
0.023105064
0.022893006
0.022680212
0.022466575
0.022251993
0.022036373
0.021819631
0.02160169
0.021382483
0.021161951
0.020940044
0.020716723
0.020491958
0.020265729
0.020038027
0.030628609
0.030342567
0.030062399
0.029787824
0.029518566
0.029254352
0.028994913
0.028739986
0.028489311
0.028242633
0.027999705
0.027760282
0.027524125
0.027291001
0.027060682
0.026832944
0.02660757
0.026384345
0.026163063
0.02594352
0.025725518
0.025508863
0.025293368
0.025078849
0.024865128
0.024652032
0.024439392
0.024227048
0.024014841
0.02380262
0.023590241
0.023377565
0.023164458
0.022950796
0.022736459
0.022521336
0.022305323
0.022088324
0.021870253
0.021651029
0.021430582
0.021208853
0.020985789
0.020761348
0.020535498
0.020308219
0.020079499
0.030794201