/*--------------------------------*- C++ -*----------------------------------*\
| =========                 |                                                 |
| \\      /  F ield         | OpenFOAM: The Open Source CFD Toolbox           |
|  \\    /   O peration     | Version:  2312                                  |
|   \\  /    A nd           | Website:  www.openfoam.com                      |
|    \\/     M anipulation  |                                                 |
\*---------------------------------------------------------------------------*/
FoamFile
{
    version     2.0;
    format      ascii;
    arch        "LSB;label=32;scalar=64";
    class       volScalarField;
    location    "0.1";
    object      k;
}
// * * * * * * * * * * * * * * * * * * * * * * * * * * * * * * * * * * * * * //

dimensions      [0 2 -2 0 0 0 0];

internalField   nonuniform List<scalar> 
3272
(
9.3286637
9.3471293
9.3648759
9.3818505
9.3980128
9.4133292
9.4277718
9.4413176
9.4539487
9.4656517
9.4764169
9.486239
9.4951158
9.5030483
9.5100407
9.5160994
9.5212334
9.5254537
9.528773
9.5312059
9.5327681
9.5334765
9.5333516
9.5324186
9.5306752
9.5281546
9.5248762
9.5208601
9.5161275
9.5106999
9.5045985
9.4978443
9.4904586
9.4824621
9.4738745
9.464716
9.4550069
9.4447675
9.4340177
9.4227777
9.4110672
9.3989061
9.3863144
9.3733119
9.3599187
9.346155
9.332041
9.3175976
9.3028455
9.2878065
9.2725026
9.2569571
9.2411949
9.361723
9.3801863
9.3978917
9.4147884
9.4308379
9.4460081
9.4602728
9.4736107
9.4860053
9.4974448
9.5079213
9.5174308
9.5259728
9.5335499
9.5401677
9.5458343
9.5505599
9.554357
9.5572399
9.5592242
9.560327
9.5605666
9.559971
9.5585453
9.5563114
9.5532945
9.5495158
9.5449961
9.5397575
9.5338221
9.5272119
9.5199487
9.5120543
9.5035499
9.4944557
9.4847927
9.4745817
9.4638433
9.4525979
9.4408658
9.4286674
9.4160228
9.4029522
9.3894757
9.3756136
9.3613863
9.3468142
9.331918
9.3167187
9.3012374
9.2854955
9.2695157
9.2533277
9.424479
9.4428629
9.4604168
9.4770923
9.4928536
9.507672
9.5215241
9.5343917
9.5462617
9.5571252
9.5669777
9.5758183
9.5836496
9.5904773
9.59631
9.6011587
9.6050367
9.6079591
9.6099429
9.6110065
9.6111687
9.6104614
9.6088875
9.6064752
9.6032483
9.599229
9.5944425
9.5889112
9.5826582
9.5757071
9.5680816
9.5598051
9.5509005
9.5413897
9.5312947
9.5206372
9.5094392
9.4977222
9.4855073
9.4728157
9.4596683
9.4460859
9.4320892
9.417699
9.4029358
9.3878204
9.3723737
9.3566168
9.3405706
9.3242567
9.3076967
9.2909137
9.2739381
9.5146177
9.5327896
9.5500292
9.5662922
9.5815474
9.5957703
9.6089424
9.6210503
9.6320856
9.6420442
9.6509263
9.6587356
9.6654793
9.6711677
9.6758137
9.6794326
9.6820419
9.6836607
9.68431
9.684014
9.682799
9.6806753
9.6776771
9.673829
9.6691549
9.6636747
9.6574265
9.6504309
9.6427126
9.6342973
9.6252107
9.6154783
9.6051246
9.5941731
9.5826473
9.5705707
9.5579662
9.5448565
9.5312639
9.5172105
9.502718
9.4878081
9.4725022
9.4568215
9.4407873
9.4244209
9.4077435
9.3907766
9.3735416
9.3560601
9.3383543
9.3204475
9.3023707
9.6301234
9.6478817
9.6645792
9.6801773
9.694651
9.7079824
9.7201593
9.7311746
9.7410263
9.7497167
9.7572521
9.7636425
9.768901
9.7730438
9.7760894
9.7780585
9.7789745
9.7788595
9.7777534
9.7756565
9.7726128
9.7686478
9.7637907
9.7580703
9.7515152
9.7441527
9.7360145
9.727129
9.7175243
9.7072286
9.69627
9.6846758
9.6724722
9.6596848
9.646339
9.6324599
9.6180718
9.6031988
9.5878644
9.5720916
9.5559033
9.5393218
9.5223694
9.505068
9.4874394
9.4695054
9.4512877
9.4328081
9.4140884
9.3951505
9.3760168
9.3567109
9.3372641
9.7693015
9.7863727
9.8022324
9.8168499
9.8302085
9.8422982
9.8531151
9.8626602
9.8709395
9.8779632
9.8837453
9.8883033
9.8916575
9.8938311
9.8948499
9.8947386
9.8935431
9.8912629
9.8879491
9.8836296
9.8783381
9.8721075
9.8649713
9.8569627
9.8481144
9.8384585
9.8280285
9.8168566
9.8049747
9.7924135
9.7792037
9.7653748
9.7509551
9.7359725
9.7204543
9.7044271
9.6879171
9.6709493
9.6535487
9.6357394
9.6175451
9.5989891
9.5800942
9.5608831
9.5413781
9.5216015
9.5015753
9.4813216
9.4608625
9.4402202
9.4194171
9.3984769
9.3774312
9.9306729
9.9467112
9.9613699
9.9746284
9.98648
9.9969248
10.005969
10.013623
10.019903
10.024828
10.028421
10.030709
10.031719
10.031484
10.03005
10.027421
10.023655
10.018784
10.012847
10.005881
9.9979252
9.9890177
9.979197
9.968501
9.9569667
9.944631
9.9315305
9.9177013
9.9031781
9.8879952
9.8721854
9.8557804
9.838811
9.8213073
9.8032986
9.7848131
9.7658783
9.7465207
9.7267664
9.7066404
9.6861673
9.6653713
9.6442757
9.6229037
9.601278
9.5794214
9.5573559
9.535104
9.5126879
9.4901297
9.4674521
9.4446786
9.4218411
10.112891
10.12748
10.140509
10.151969
10.161867
10.170214
10.177027
10.18233
10.186148
10.188512
10.189454
10.189015
10.187237
10.184139
10.17978
10.174198
10.167439
10.159546
10.150564
10.140538
10.129512
10.11753
10.104635
10.090871
10.076278
10.060899
10.044773
10.02794
10.010439
9.9923058
9.9735759
9.9542836
9.9344621
9.9141434
9.8933586
9.8721373
9.8505084
9.8284997
9.8061382
9.7834497
9.7604597
9.7371927
9.7136726
9.689923
9.6659669
9.641827
9.6175256
9.5930852
9.5685277
9.5438756
9.5191511
9.4943781
9.469589
10.314675
10.327332
10.338242
10.34741
10.354856
10.360606
10.364692
10.367148
10.368011
10.367333
10.365153
10.361503
10.356448
10.350033
10.34231
10.33333
10.323146
10.311808
10.299369
10.28588
10.271391
10.255952
10.239612
10.222417
10.204415
10.185652
10.166171
10.146015
10.125225
10.10384
10.081899
10.059438
10.036492
10.013094
9.9892789
9.9650759
9.9405154
9.9156263
9.890436
9.8649715
9.8392583
9.8133215
9.7871852
9.7608731
9.7344083
9.7078133
9.6811105
9.6543219
9.6274695
9.600575
9.573661
9.5467525
9.5198917
10.534764
10.544945
10.55319
10.559522
10.563976
10.566595
10.567419
10.566514
10.563918
10.559677
10.553861
10.546525
10.537729
10.527532
10.515996
10.50318
10.489145
10.473949
10.457653
10.440312
10.421985
10.402726
10.382588
10.361624
10.339886
10.317422
10.294281
10.270507
10.246145
10.221236
10.195821
10.169938
10.143625
10.116916
10.089845
10.062444
10.034745
10.006776
9.9785665
9.9501423
9.92153
9.8927544
9.8638399
9.83481
9.8056874
9.7764945
9.7472533
9.7179853
9.6887118
9.6594543
9.6302341
10.771873
10.778981
10.78397
10.786882
10.787765
10.786697
10.783719
10.778889
10.772287
10.763978
10.754033
10.74252
10.729511
10.715075
10.699283
10.682203
10.663903
10.644451
10.623913
10.602352
10.57983
10.556408
10.532144
10.507096
10.481319
10.454865
10.427785
10.400127
10.371937
10.34326
10.314137
10.284609
10.254714
10.224489
10.193967
10.163183
10.132167
10.100948
10.069556
10.038018
10.006359
9.9746036
9.9427766
9.9109008
9.8789985
9.8470915
9.8152011
9.7833483
9.7515538
9.7198393
9.6882332
11.024672
11.028069
11.029171
11.028059
11.024788
11.019419
11.012049
11.002756
10.99162
10.978724
10.964149
10.947977
10.93029
10.911167
10.890688
10.868931
10.845971
10.821883
10.79674
10.77061
10.743561
10.71566
10.686968
10.657547
10.627455
10.596748
10.565478
10.533697
10.501453
10.468791
10.435756
10.402388
10.368726
10.334809
10.30067
10.266344
10.23186
10.19725
10.162541
10.127761
10.092934
10.058084
10.023237
9.9884125
9.9536336
9.9189209
9.8842949
9.8497756
9.8153829
9.7811374
9.7470682
11.291767
11.290789
11.287375
11.281574
11.273507
11.263261
11.250934
11.236622
11.22042
11.202424
11.182728
11.161427
11.138611
11.114371
11.088795
11.061969
11.033975
11.004896
10.974809
10.943788
10.911908
10.879236
10.845841
10.811786
10.777133
10.741939
10.706259
10.670145
10.633649
10.596816
10.559692
10.522317
10.484733
10.446975
10.40908
10.37108
10.333007
10.294889
10.256755
10.21863
10.180539
10.142506
10.104553
10.066702
10.028973
9.9913855
9.9539595
9.9167136
9.8796664
9.8428374
9.8062546
11.571731
11.565662
11.557026
11.545915
11.532445
11.516726
11.498873
11.478996
11.457207
11.433615
11.408325
11.381443
11.353071
11.323307
11.292248
11.259986
11.226613
11.192214
11.156873
11.12067
11.083682
11.045981
11.007638
10.968719
10.929287
10.889401
10.849119
10.808494
10.767577
10.726415
10.685054
10.643536
10.601899
10.560181
10.518417
10.47664
10.434879
10.393163
10.351519
10.309972
10.268546
10.227262
10.186143
10.145208
10.104476
10.063966
10.023696
9.9836828
9.9439444
9.9044983
9.8653713
11.86296
11.85113
11.836621
11.819559
11.800076
11.778303
11.754369
11.728402
11.700526
11.670863
11.639531
11.606645
11.572315
11.536649
11.499751
11.46172
11.422651
11.382637
11.341765
11.300119
11.257779
11.214821
11.171316
11.127333
11.082936
11.038187
10.993141
10.947855
10.902379
10.856759
10.811042
10.765269
10.719478
10.673707
10.627988
10.582353
10.536832
10.491452
10.446237
10.401213
10.356401
10.311822
10.267496
10.22344
10.179673
10.136212
10.093072
10.05027
10.007821
9.9657416
9.9240564
12.163907
12.145622
12.124588
12.100952
12.074866
12.046478
12.015935
11.983378
11.948945
11.912768
11.874977
11.835695
11.795041
11.75313
11.710071
11.665969
11.620925
11.575034
11.528388
11.481074
11.433173
11.384763
11.335916
11.286702
11.237187
11.187431
11.137492
11.087425
11.037279
10.987102
10.936937
10.886826
10.836805
10.786911
10.737176
10.687629
10.638298
10.58921
10.540387
10.491852
10.443625
10.395725
10.34817
10.300976
10.25416
10.207736
10.161718
10.116122
10.070959
10.026245
9.9820023
12.472933
12.447525
12.419334
12.388529
12.355279
12.31975
12.282102
12.242491
12.201066
12.15797
12.113341
12.06731
12.020003
11.971542
11.922039
11.871604
11.820343
11.768352
11.715726
11.662553
11.608915
11.554891
11.500556
11.445977
11.391221
11.336349
11.281416
11.226477
11.171581
11.116773
11.062096
11.00759
10.953289
10.899229
10.845439
10.791947
10.73878
10.685961
10.633511
10.581451
10.529799
10.478572
10.427785
10.377453
10.32759
10.278207
10.229319
10.180936
10.13307
10.085735
10.03895
12.788373
12.755207
12.719264
12.680731
12.639795
12.596638
12.551433
12.504346
12.455538
12.405159
12.353356
12.300265
12.246019
12.190743
12.134554
12.077565
12.019883
11.961607
11.902831
11.843645
11.784131
11.724369
11.664431
11.604387
11.544301
11.484231
11.424235
11.364362
11.304662
11.245177
11.18595
11.127015
11.068409
11.010161
10.952301
10.894854
10.837843
10.781291
10.725216
10.669635
10.614566
10.560021
10.506015
10.45256
10.399666
10.347345
10.295607
10.24446
10.193915
10.143982
10.094682
13.108556
13.06704
13.022793
12.976021
12.926925
12.875701
12.822532
12.767596
12.711059
12.653082
12.593815
12.5334
12.471973
12.409663
12.346589
12.282865
12.218599
12.153891
12.088834
12.023518
11.958025
11.892434
11.826815
11.761236
11.695759
11.630443
11.56534
11.5005
11.435969
11.371787
11.307994
11.244623
11.181707
11.119273
11.057347
10.995954
10.935112
10.874842
10.81516
10.756081
10.697617
10.639781
10.582584
10.526034
10.470142
10.414914
10.360358
10.306482
10.253292
10.200796
13.431821
13.381416
13.328369
13.272899
13.215223
13.155545
13.09406
13.030952
12.966395
12.900553
12.833581
12.765625
12.696823
12.627304
12.557189
12.486592
12.41562
12.344372
12.272941
12.201415
12.129875
12.058397
11.987049
11.915897
11.845001
11.774416
11.704193
11.634378
11.565014
11.496139
11.427789
11.359995
11.292786
11.226187
11.160221
11.094908
11.030266
10.966311
10.903056
10.840514
10.778695
10.717607
10.657259
10.597658
10.538809
10.480718
10.42339
10.366829
10.31104
10.256035
13.756544
13.696772
13.634486
13.569921
13.503302
13.434843
13.364745
13.293199
13.220381
13.146461
13.071594
12.995929
12.919603
12.842746
12.765477
12.68791
12.61015
12.532294
12.454434
12.376653
12.299032
12.221642
12.144549
12.067817
11.991501
11.915653
11.840321
11.765548
11.691373
11.617831
11.544954
11.47277
11.401305
11.33058
11.260615
11.191428
11.123031
11.055439
10.988661
10.922707
10.857583
10.793296
10.72985
10.66725
10.605498
10.544598
10.484551
10.425359
10.367026
10.309561
14.081154
14.011602
13.939706
13.86571
13.789848
13.71234
13.633392
13.553196
13.471934
13.389774
13.306874
13.22338
13.139429
13.055148
12.970656
12.886064
12.801473
12.716978
12.632668
12.548623
12.464918
12.381623
12.298799
12.216506
12.134795
12.053716
11.973311
11.89362
11.814677
11.736515
11.659162
11.582641
11.506974
11.43218
11.358275
11.285271
11.213181
11.142013
11.071774
11.00247
10.934104
10.866681
10.800201
10.734665
10.670073
10.606426
10.543723
10.481962
10.421144
10.361279
14.404154
14.324478
14.242667
14.158972
14.073631
13.986868
13.89889
13.809893
13.720057
13.629549
13.538525
13.447129
13.355497
13.263751
13.172009
13.080375
12.988949
12.89782
12.807074
12.716786
12.627027
12.537862
12.449348
12.36154
12.274486
12.18823
12.10281
12.018261
11.934615
11.851899
11.770136
11.689347
11.60955
11.530758
11.452985
11.376239
11.300528
11.225857
11.152231
11.07965
11.008117
10.937629
10.868187
10.799787
10.732427
10.666104
10.600813
10.536552
10.473316
14.724131
14.634062
14.542102
14.448506
14.353514
14.257351
14.160226
14.062331
13.963843
13.864928
13.765739
13.666416
13.56709
13.467881
13.368899
13.270245
13.172014
13.074291
12.977154
12.880675
12.78492
12.689946
12.595809
12.502557
12.410233
12.318875
12.228518
12.139193
12.050925
11.963738
11.87765
11.792677
11.708834
11.62613
11.544573
11.46417
11.384923
11.306834
11.229903
11.154129
11.079509
11.00604
10.933715
10.862531
10.79248
10.723557
10.655755
10.589068
10.523494
15.039777
14.939118
14.836844
14.733211
14.62846
14.522814
14.416478
14.309641
14.202477
14.095146
13.987798
13.880566
13.773576
13.666942
13.560769
13.455153
13.350181
13.245932
13.142479
13.039889
12.93822
12.837526
12.737855
12.639251
12.54175
12.445387
12.35019
12.256185
12.163393
12.071832
11.981517
11.892459
11.804667
11.718148
11.632904
11.548938
11.46625
11.384836
11.304693
11.225817
11.1482
11.071836
10.996716
10.922832
10.850174
10.778734
10.708501
10.639467
10.57163
15.349893
15.238518
15.125834
15.012094
14.897537
14.782381
14.666826
14.551056
14.43524
14.319531
14.204071
14.08899
13.974405
13.860422
13.747141
13.634651
13.523031
13.412354
13.302688
13.194091
13.086616
12.98031
12.875216
12.77137
12.668805
12.567549
12.467624
12.369052
12.271848
12.176025
12.081593
11.98856
11.896928
11.8067
11.717875
11.630451
11.544423
11.459785
11.37653
11.294648
11.214131
11.134966
11.057143
10.980649
10.905473
10.831602
10.759023
10.687724
10.617705
15.653398
15.531251
15.408125
15.28427
15.159918
15.03528
14.91055
14.785905
14.661506
14.5375
14.414019
14.291184
14.169107
14.047885
13.92761
13.808363
13.690216
13.573236
13.457482
13.343005
13.229851
13.118062
13.007674
12.898716
12.791215
12.685192
12.580667
12.477653
12.376161
12.276199
12.177771
12.080881
11.985526
11.891705
11.799413
11.708642
11.619385
11.53163
11.445368
11.360584
11.277266
11.1954
11.11497
11.035962
10.958359
10.882147
10.807309
10.733831
15.949331
15.816422
15.682886
15.548964
15.414882
15.280843
15.147031
15.013614
14.880745
14.748559
14.617182
14.486726
14.357292
14.22897
14.101843
13.975983
13.851455
13.728318
13.606621
13.486411
13.367726
13.2506
13.135061
13.021134
12.908839
12.798191
12.689203
12.581884
12.476238
12.372269
12.269976
12.169356
12.070404
11.973113
11.877473
11.783473
11.691102
11.600343
11.511183
11.423605
11.337592
11.253126
11.17019
11.088764
11.008829
10.930369
10.853363
10.777798
16.236854
16.093254
15.949397
15.805514
15.661819
15.518505
15.375747
15.233701
15.09251
14.952301
14.813187
14.67527
14.538644
14.403387
14.269574
14.137268
14.006526
13.877397
13.749924
13.624145
13.50009
13.377786
13.257256
13.138516
13.02158
12.906458
12.793156
12.681677
12.572021
12.464184
12.358163
12.253948
12.15153
12.050897
11.952035
11.854928
11.759561
11.665916
11.573972
11.48371
11.39511
11.30815
11.222809
11.139065
11.056896
10.976281
10.897199
10.819634
16.51525
16.36109
16.207054
16.053361
15.900215
15.747797
15.596268
15.445774
15.296445
15.148398
15.001734
14.856547
14.712916
14.570914
14.430603
14.292037
14.155265
14.020328
13.887259
13.756088
13.626838
13.49953
13.374177
13.250791
13.129378
13.009942
12.892482
12.776996
12.663479
12.551922
12.442314
12.334644
12.228896
12.125053
12.023098
11.923012
11.824772
11.728358
11.633747
11.540914
11.449837
11.36049
11.272848
11.186887
11.102582
11.019909
10.938843
10.859367
16.783923
16.619383
16.455359
16.292055
16.129661
15.968345
15.808255
15.649525
15.492272
15.3366
15.1826
15.030353
14.879929
14.731388
14.584785
14.440163
14.297562
14.157012
14.01854
13.882168
13.74791
13.61578
13.485784
13.357926
13.232206
13.108622
12.987167
12.867834
12.750611
12.635484
12.522438
12.411455
12.302516
12.1956
12.090684
11.987745
11.886758
11.787698
11.690537
11.595248
11.501804
11.410178
11.32034
11.232264
11.145922
11.061286
10.978329
10.897032
17.04239
16.867699
16.693918
16.521239
16.349837
16.179863
16.011453
15.844727
15.679788
15.516727
15.355625
15.19655
15.03956
14.884707
14.732032
14.581571
14.433352
14.287399
14.143728
14.002354
13.863283
13.726521
13.592066
13.459918
13.330068
13.202508
13.077227
12.954209
12.833438
12.714896
12.598561
12.484412
12.372424
12.262572
12.154829
12.049168
11.945559
11.843974
11.744382
11.646752
11.551054
11.457257
11.365329
11.275239
11.186958
11.100455
11.0157
10.93267
17.290276
17.105701
16.922434
16.740651
16.560509
16.382146
16.205683
16.031223
15.858858
15.688666
15.520714
15.355058
15.191746
15.030817
14.872304
14.716231
14.562617
14.411478
14.262821
14.116651
13.972968
13.83177
13.693048
13.556795
13.422995
13.291636
13.162697
13.036161
12.912004
12.790202
12.670731
12.553563
12.438669
12.32602
12.215584
12.107331
12.001227
11.89724
11.795336
11.69548
11.597639
11.501778
11.407864
11.315862
11.22574
11.137465
11.051003
10.966331
17.527309
17.333154
17.140702
16.950114
16.761528
16.575068
16.390838
16.208928
16.029414
15.852363
15.677826
15.50585
15.33647
15.169714
15.005604
14.844155
14.685377
14.529275
14.375849
14.225095
14.077007
13.931572
13.788779
13.648609
13.511043
13.376061
13.243639
13.113751
12.98637
12.861467
12.739011
12.618972
12.501315
12.386007
12.273014
12.162298
12.053826
11.947558
11.84346
11.741492
11.641619
11.543802
11.448005
11.354191
11.262325
11.172371
11.084294
10.998066
17.753311
17.549907
17.348598
17.149526
16.952814
16.758568
16.566876
16.377814
16.191443
16.007816
15.826973
15.648946
15.473761
15.301434
15.131976
14.965394
14.801686
14.64085
14.482876
14.327754
14.175468
14.026001
13.87933
13.735434
13.594287
13.455862
13.320129
13.187057
13.056614
12.928767
12.803479
12.680715
12.560438
12.44261
12.327191
12.214143
12.103426
11.995
11.888824
11.784857
11.683061
11.583393
11.485816
11.390289
11.296774
11.205234
11.11563
11.027933
17.968187
17.75589
17.546074
17.33886
17.134356
16.93265
16.733814
16.537909
16.344983
16.155073
15.968208
15.784409
15.603688
15.426051
15.251499
15.080028
14.911629
14.746289
14.583993
14.424719
14.268445
14.115147
13.964798
13.817366
13.672822
13.531131
13.392259
13.256171
13.122828
12.992192
12.864223
12.738881
12.616125
12.495913
12.378201
12.262948
12.15011
12.039643
11.931504
11.82565
11.722038
11.620624
11.521366
11.424223
11.329153
11.236117
11.145074
11.055991
18.171922
17.951108
17.733149
17.518151
17.306201
17.097372
16.89172
16.68929
16.490117
16.294225
16.101629
15.912338
15.726353
15.54367
15.36428
15.188168
15.015317
14.845706
14.67931
14.516101
14.35605
14.199125
14.045291
13.894514
13.746755
13.601976
13.460137
13.321197
13.185113
13.051843
12.921343
12.793567
12.668471
12.546008
12.426134
12.308801
12.193962
12.081572
11.971584
11.863951
11.758628
11.655569
11.554729
11.456064
11.359531
11.265086
11.172689
11.082303
19.069544
18.831672
18.596628
18.364571
18.135628
17.909905
17.687489
17.468449
17.252841
17.040707
16.832077
16.62697
16.425398
16.227364
16.032865
15.84189
15.654426
15.470454
15.289949
15.112885
14.939233
14.768961
14.602032
14.438412
14.27806
14.120937
13.967001
13.816209
13.668516
13.523879
13.38225
13.243583
13.107831
12.974945
12.844877
12.717577
12.592996
12.471086
12.351795
12.235075
12.120876
12.009148
11.899843
11.792912
11.688306
11.58598
11.485885
11.387977
11.292211
11.198542
11.106933
19.27673
19.029947
18.78641
18.546251
18.309577
18.076475
17.847013
17.621245
17.399208
17.18093
16.966424
16.755699
16.548751
16.345573
16.146149
15.950458
15.758477
15.570177
15.385525
15.204486
15.027022
14.853094
14.682659
14.515674
14.352094
14.191873
14.034963
13.881316
13.730882
13.583611
13.439454
13.298358
13.160272
13.025143
12.892921
12.763551
12.636981
12.513158
12.39203
12.273543
12.157646
12.044286
11.933412
11.824973
11.718918
11.615197
11.513763
11.414566
11.317561
11.222701
11.129946
19.471814
19.216569
18.96497
18.717127
18.473127
18.233037
17.996908
17.764775
17.53666
17.312575
17.09252
16.87649
16.66447
16.456439
16.252372
16.052237
15.856001
15.663625
15.475068
15.290288
15.109238
14.931871
14.75814
14.587993
14.42138
14.258248
14.098544
13.942216
13.789208
13.639467
13.492937
13.349562
13.209287
13.072057
12.937814
12.806504
12.67807
12.552456
12.429606
12.309465
12.191978
12.07709
11.964748
11.854897
11.747485
11.64246
11.539772
11.439371
11.341208
11.245233
11.151408
19.654997
19.391744
19.132522
18.877417
18.626498
18.379812
18.137392
17.899256
17.665413
17.435858
17.210579
16.989556
16.772764
16.560169
16.351737
16.147425
15.947191
15.750987
15.558765
15.370473
15.186058
15.005467
14.828644
14.655532
14.486076
14.320216
14.157896
13.999057
13.84364
13.691585
13.542834
13.397326
13.255004
13.115807
12.979676
12.846551
12.716374
12.589086
12.464627
12.342941
12.223968
12.107653
11.993939
11.882769
11.774091
11.667849
11.563991
11.462466
11.363223
11.266209
11.171384
19.826529
19.555725
19.289318
19.027374
18.769941
18.517049
18.268713
18.024937
17.785711
17.551019
17.320835
17.095127
16.873858
16.656984
16.44446
16.236234
16.032254
15.832466
15.636812
15.445233
15.25767
15.074061
14.894347
14.718463
14.546349
14.377941
14.213176
14.051991
13.894322
13.740107
13.589282
13.441785
13.297551
13.156519
13.018626
12.883809
12.752006
12.623156
12.497198
12.37407
12.253713
12.136068
12.021075
11.908678
11.798819
11.691444
11.586497
11.483926
11.383677
11.285695
11.18994
19.986702
19.708803
19.435648
19.167285
18.90374
18.645028
18.391147
18.142085
17.897818
17.658316
17.423542
17.193451
16.967994
16.74712
16.53077
16.318887
16.111409
15.908273
15.709414
15.514767
15.324266
15.137843
14.955431
14.776963
14.602371
14.431586
14.264542
14.101171
13.941406
13.785179
13.632423
13.483072
13.337059
13.194319
13.054786
12.918394
12.785079
12.654776
12.527423
12.402955
12.281311
12.162429
12.046248
11.93271
11.821754
11.713325
11.607365
11.503823
20.135845
19.851301
19.571831
19.297461
19.028202
18.76405
18.504988
18.250988
18.002015
17.758024
17.518966
17.284787
17.055426
16.830821
16.610907
16.395617
16.18488
15.978626
15.776784
15.579281
15.386046
15.197004
15.012083
14.831211
14.654314
14.481321
14.312159
14.146757
13.985043
13.826946
13.672397
13.521325
13.37366
13.229334
13.088278
12.950424
12.815706
12.684055
12.555408
12.429697
12.306858
12.186829
12.069547
11.95495
11.842977
11.733571
11.626673
20.274312
19.983568
19.698207
19.418238
19.143653
18.874432
18.610545
18.351948
18.098594
17.850427
17.607385
17.369403
17.136413
16.908342
16.685116
16.46666
16.252896
16.043748
15.839136
15.638983
15.44321
15.251739
15.064491
14.881389
14.702356
14.527314
14.356189
14.188904
14.025385
13.865556
13.709345
13.556678
13.407484
13.261689
13.119224
12.980017
12.843999
12.711101
12.581256
12.454394
12.330452
12.209361
12.09106
11.975483
11.86257
11.75226
11.644494
20.402483
20.105973
19.815136
19.529964
19.250432
18.976506
18.708138
18.445276
18.187858
17.935817
17.689081
17.447576
17.211221
16.979938
16.753645
16.532257
16.315691
16.103863
15.896688
15.694082
15.495962
15.302243
15.112842
14.927679
14.74667
14.569736
14.396796
14.227771
14.062583
13.901154
13.743408
13.589269
13.438661
13.29151
13.147743
13.007287
12.87007
12.736021
12.60507
12.477147
12.352185
12.230116
12.110874
11.994395
11.880614
11.76947
11.660903
20.520751
20.218899
19.922991
19.633001
19.34889
19.070609
18.798098
18.531291
18.270116
18.014494
17.764344
17.519582
17.280121
17.045872
16.816745
16.592651
16.373498
16.159197
15.949658
15.744789
15.544503
15.348712
15.157327
14.970262
14.787432
14.608753
14.434141
14.263513
14.096788
13.933885
13.774725
13.619229
13.46732
13.318921
13.173956
13.03235
12.894029
12.75892
12.626952
12.498052
12.372152
12.249182
12.129076
12.011765
11.897187
11.785276
11.675972
20.629524
20.322741
20.022153
19.727718
19.439384
19.157088
18.880757
18.610315
18.345677
18.086757
17.833463
17.585703
17.343381
17.106402
16.874668
16.648084
16.426552
16.209976
15.998261
15.791313
15.589036
15.391339
15.19813
15.009319
14.824816
14.644533
14.468384
14.296284
14.128147
13.963891
13.803433
13.646692
13.493588
13.344043
13.197978
13.055317
12.915983
12.779902
12.647
12.517204
12.390444
12.266648
12.145748
12.027676
11.912365
11.799751
11.689772
20.729214
20.417897
20.113007
19.814488
19.522274
19.236289
18.95645
18.68267
18.414854
18.152907
17.896728
17.646217
17.401271
17.161788
16.927663
16.698796
16.475083
16.256422
16.042714
15.833859
15.629759
15.430316
15.235436
15.045025
14.85899
14.677239
14.499684
14.326236
14.156806
13.991311
13.829665
13.671785
13.517588
13.366994
13.219923
13.076297
12.936036
12.799066
12.66531
12.534696
12.407148
12.282597
12.160972
12.042203
11.926224
11.812968
11.702372
20.820239
20.50477
20.195942
19.893684
19.597919
19.30856
19.025512
18.748679
18.477957
18.213242
17.954426
17.701401
17.454057
17.212286
16.975978
16.745025
16.51932
16.298756
16.083227
15.872632
15.666866
15.465831
15.269426
15.077555
14.890122
14.707032
14.528194
14.353516
14.182908
14.016283
13.853554
13.694634
13.539441
13.387892
13.239904
13.095397
12.954292
12.816511
12.681978
12.550616
12.422352
12.297113
12.174827
12.055424
11.938836
11.824994
11.713836
22.603661
22.249527
21.902401
21.56229
21.229174
20.903016
20.583762
20.271344
19.965679
19.666679
19.374245
19.088275
18.808661
18.535293
18.268058
18.006841
17.751528
17.502002
17.258149
17.019854
16.787004
16.559487
16.337191
16.120008
15.90783
15.700551
15.498067
15.300277
15.107079
14.918375
14.734069
14.554064
14.378269
14.206591
14.038939
13.875226
13.715363
13.559265
13.406847
13.258026
13.11272
12.970849
12.832333
12.697093
12.565054
12.436139
12.310275
12.18739
12.067411
11.95027
11.835898
11.72423
22.6989
22.340241
21.988839
21.644684
21.307742
20.977961
20.655273
20.339597
20.030842
19.728906
19.433685
19.145064
18.86293
18.587164
18.317645
18.054252
17.796866
17.545363
17.299624
17.05953
16.824962
16.595804
16.371941
16.153259
15.939648
15.730999
15.527205
15.32816
15.133761
14.943908
14.7585
14.577441
14.400635
14.227989
14.059409
13.894805
13.734089
13.577173
13.42397
13.274396
13.128368
12.985803
12.846622
12.710744
12.578092
12.44859
12.322161
12.198734
12.078235
11.960594
11.845742
11.733614
22.784752
22.422006
22.066741
21.718934
21.378536
21.045482
20.719694
20.401078
20.089534
19.78495
19.487213
19.196202
18.911795
18.633865
18.362286
18.096932
17.837676
17.584392
17.336953
17.095237
16.859121
16.628484
16.403208
16.183177
15.968276
15.758392
15.553417
15.353243
15.157763
14.966874
14.780475
14.598466
14.420751
14.247232
14.077816
13.912412
13.750928
13.593275
13.439366
13.289114
13.142436
12.999248
12.859468
12.723016
12.589813
12.459781
12.332845
12.20893
12.087964
11.969874
11.85459
11.742048
22.861716
22.495297
22.136564
21.785476
21.441975
21.105984
20.777412
20.456158
20.142111
19.835152
19.535158
19.242002
18.955555
18.675685
18.40226
18.135147
17.874215
17.619333
17.370371
17.127201
16.889697
16.657735
16.431194
16.209953
15.993895
15.782906
15.576874
15.375687
15.179238
14.987423
14.800136
14.617277
14.438746
14.264447
14.094283
13.928161
13.76599
13.607677
13.453136
13.302278
13.155018
13.011272
12.870956
12.73399
12.600294
12.469789
12.342399
12.218048
12.096663
11.978171
11.862502
11.749589
22.930279
22.560583
22.198754
21.84474
21.498471
21.15986
20.828806
20.505199
20.188919
19.879842
19.577836
19.282769
18.994504
18.712905
18.437834
18.169154
17.906729
17.650424
17.400104
17.155639
16.9169
16.683758
16.456089
16.233771
16.016684
15.804711
15.597737
15.395649
15.198338
15.005697
14.81762
14.634004
14.454749
14.279755
14.108925
13.942165
13.779381
13.620482
13.465378
13.313981
13.166204
13.021961
12.881169
12.743746
12.609611
12.478685
12.350891
12.226152
12.104395
11.985545
11.869533
11.756291
22.990919
22.61832
22.253749
21.897144
21.548424
21.207492
20.874241
20.548551
20.230296
19.919344
19.615558
19.318799
19.028926
18.745797
18.46927
18.199204
17.935458
17.677894
17.426374
17.180764
16.940931
16.706746
16.478081
16.25481
16.036813
15.82397
15.616163
15.413279
15.215207
15.021836
14.833061
14.648776
14.46888
14.293272
14.121854
13.95453
13.791206
13.631788
13.476187
13.324313
13.176079
13.031397
12.890185
12.752358
12.617836
12.486538
12.358387
12.233306
12.11122
11.992055
11.87574
11.762207
23.044102
22.668954
22.301976
21.943095
21.592223
21.249254
20.914074
20.586556
20.266567
19.95397
19.648622
19.350379
19.059095
18.774624
18.49682
18.225537
17.960633
17.701964
17.449392
17.202778
16.961987
16.726886
16.497347
16.273242
16.054447
15.840841
15.632304
15.428723
15.229982
15.035972
14.846584
14.661713
14.481256
14.30511
14.133176
13.965358
13.80156
13.641689
13.485653
13.333361
13.184726
13.03966
12.898079
12.759899
12.625037
12.493414
12.36495
12.239569
12.117195
11.997754
11.881174
11.767386
23.090279
22.712916
22.343844
21.982986
21.630244
21.285505
20.948649
20.619543
20.298048
19.984021
19.677316
19.377783
19.085274
18.799637
18.520724
18.248386
17.982475
17.722848
17.469362
17.221876
16.980253
16.744358
16.51406
16.28923
16.069743
15.855474
15.646305
15.442117
15.242797
15.048232
14.858313
14.672934
14.491989
14.315376
14.142995
13.974749
13.81054
13.650275
13.49386
13.341207
13.192224
13.046825
12.904924
12.766437
12.631281
12.499376
12.370641
12.245
12.122376
12.002695
11.885885
11.771877
23.129888
22.750621
22.379753
22.017197
21.662849
21.316592
20.978297
20.647828
20.32504
20.009787
19.701917
19.401279
19.107718
18.821081
18.541217
18.267972
18.001199
17.74075
17.486479
17.238245
16.995909
16.759333
16.528384
16.302933
16.082852
15.868015
15.658303
15.453596
15.253779
15.058738
14.868364
14.682548
14.501185
14.324173