/*--------------------------------*- C++ -*----------------------------------*\
| =========                 |                                                 |
| \\      /  F ield         | OpenFOAM: The Open Source CFD Toolbox           |
|  \\    /   O peration     | Version:  2312                                  |
|   \\  /    A nd           | Website:  www.openfoam.com                      |
|    \\/     M anipulation  |                                                 |
\*---------------------------------------------------------------------------*/
FoamFile
{
    version     2.0;
    format      ascii;
    arch        "LSB;label=32;scalar=64";
    class       volScalarField;
    location    "0.1";
    object      nut;
}
// * * * * * * * * * * * * * * * * * * * * * * * * * * * * * * * * * * * * * //

dimensions      [0 2 -1 0 0 0 0];

internalField   nonuniform List<scalar> 
3272
(
0.027483562
0.027574801
0.02766702
0.027760212
0.027854394
0.027949588
0.02804582
0.028143122
0.028241527
0.028341073
0.028441804
0.028543764
0.028647001
0.028751569
0.028857523
0.028964921
0.029073823
0.029184294
0.029296398
0.029410205
0.029525784
0.029643208
0.029762557
0.029883928
0.030007329
0.03013288
0.030260658
0.030390741
0.030523211
0.03065815
0.030795641
0.030935764
0.031078602
0.031224235
0.031372742
0.031524202
0.031678693
0.031836292
0.031997076
0.032161118
0.032328491
0.032499267
0.032673514
0.0328513
0.03303269
0.033217747
0.033406535
0.033599112
0.033795538
0.033995871
0.034200168
0.034408487
0.03462089
0.02747653
0.027568121
0.027660682
0.027754206
0.027848708
0.027944209
0.028040734
0.028138312
0.028236976
0.028336764
0.028437716
0.028539878
0.028643298
0.028748027
0.028854122
0.02896164
0.029070642
0.029181192
0.029293356
0.029407202
0.029522802
0.029640228
0.029759582
0.029880895
0.030004247
0.030129733
0.030257431
0.030387419
0.030519782
0.030654601
0.03079196
0.03093194
0.031074625
0.031220096
0.031368432
0.031519713
0.031674018
0.031831425
0.031992011
0.032155851
0.032323019
0.032493586
0.032667622
0.032845194
0.03302637
0.033211214
0.033399787
0.03359215
0.033788363
0.033988482
0.034192563
0.034400665
0.034612871
0.027464687
0.027556911
0.027650084
0.027744196
0.027839257
0.027935286
0.028032305
0.02813034
0.028229423
0.028329589
0.028430879
0.028533336
0.028637009
0.028741949
0.028848211
0.028955853
0.029064938
0.02917553
0.029287696
0.029401505
0.029517027
0.029634371
0.029753555
0.029874676
0.029997818
0.03012306
0.030250487
0.030380179
0.03051222
0.030646694
0.030783686
0.03092328
0.031065562
0.031210612
0.031358514
0.031509348
0.031663195
0.031820135
0.031980247
0.032143608
0.032310291
0.032480371
0.032653918
0.032831003
0.033011693
0.033196054
0.033384149
0.03357604
0.033771789
0.033971453
0.03417509
0.034382761
0.034594549
0.027451397
0.027544491
0.027638497
0.027733399
0.027829202
0.027925922
0.028023576
0.02812219
0.028221792
0.028322416
0.028424103
0.028526894
0.028630837
0.028735986
0.028842395
0.028950123
0.029059234
0.029169794
0.029281871
0.029395543
0.029510895
0.02962796
0.029746844
0.029867627
0.029990386
0.030115196
0.03024216
0.030371354
0.030502864
0.030636777
0.030773179
0.030912159
0.031053802
0.031198193
0.031345418
0.031495559
0.031648701
0.031804926
0.031964313
0.032126943
0.032292891
0.032462235
0.032635046
0.032811397
0.032991357
0.033174994
0.033362374
0.033553562
0.033748619
0.033947607
0.034150586
0.034357617
0.034568787
0.027440041
0.027534172
0.027629155
0.027724967
0.027821611
0.027919097
0.02801744
0.028116663
0.028216794
0.028317866
0.028419918
0.028522993
0.02862714
0.028732411
0.028838864
0.028946559
0.029055565
0.029165941
0.029277802
0.029391144
0.029506091
0.029622716
0.029741101
0.029861327
0.029983481
0.030107644
0.030233908
0.030362362
0.030493095
0.030626195
0.030761755
0.030899863
0.03104061
0.031184082
0.031330369
0.031479557
0.031631732
0.03178698
0.031945383
0.032107024
0.032271982
0.032440335
0.032612159
0.032787528
0.032966514
0.033149188
0.033335618
0.033525871
0.033720012
0.033918106
0.034120215
0.034326403
0.03453676
0.027433989
0.027529237
0.02762525
0.027722
0.027819486
0.027917715
0.028016703
0.02811647
0.028217043
0.028318456
0.028420748
0.028523965
0.028628156
0.028733377
0.028839689
0.028947148
0.029055872
0.029165841
0.029277189
0.029389982
0.029504302
0.029620232
0.029737858
0.029857266
0.029978546
0.030101785
0.030227077
0.030354515
0.030484192
0.030616202
0.030750639
0.030887597
0.031027167
0.031169443
0.031314515
0.031462474
0.03161341
0.031767412
0.031924564
0.032084953
0.03224866
0.032415767
0.032586352
0.032760491
0.032938261
0.033119733
0.033304979
0.033494069
0.033687072
0.033884056
0.034085088
0.034290236
0.034499592
0.027436414
0.027532758
0.027629751
0.027727363
0.02782559
0.027924438
0.028023922
0.028124065
0.028224893
0.028326444
0.028428759
0.028531886
0.028635876
0.02874079
0.028846728
0.028953676
0.029061763
0.029171052
0.029281625
0.029393565
0.029506956
0.029621887
0.029738448
0.02985673
0.029976828
0.030098834
0.030222846
0.030348961
0.030477278
0.030607895
0.030740909
0.030876418
0.031014517
0.031155304
0.031298875
0.031445323
0.031594741
0.031747221
0.031902853
0.032061725
0.032223922
0.032389528
0.032558624
0.032731291
0.032907605
0.033087641
0.033271475
0.033459178
0.033650824
0.033846485
0.034046236
0.034250154
0.034458338
0.027450154
0.027547465
0.02764528
0.027743568
0.027842327
0.027941563
0.028041295
0.028141546
0.028242347
0.028343742
0.028445768
0.028548493
0.028651989
0.028756255
0.028861412
0.02896752
0.02907466
0.029182913
0.029292364
0.029403101
0.029515215
0.0296288
0.029743951
0.029860764
0.029979338
0.030099774
0.030222173
0.030346638
0.030473271
0.030602174
0.03073345
0.0308672
0.031003525
0.031142526
0.031284302
0.031428952
0.031576572
0.031727257
0.0318811
0.032038193
0.032198625
0.032362481
0.032529846
0.032700803
0.032875431
0.033053807
0.033236008
0.033422108
0.033612182
0.033806308
0.034004571
0.034207073
0.034413946
0.027477624
0.027575658
0.027674024
0.027772695
0.027871671
0.027970963
0.028070593
0.028170594
0.028270992
0.028371863
0.028473245
0.028575152
0.028677696
0.028780933
0.028884942
0.028989803
0.0290956
0.02920242
0.029310356
0.029419502
0.029529955
0.029641813
0.029755179
0.029870153
0.029986843
0.030105352
0.030225789
0.030348261
0.030472874
0.030599735
0.030728951
0.030860629
0.030994873
0.031131789
0.03127148
0.031414047
0.031559592
0.031708213
0.031860007
0.032015067
0.032173485
0.032335352
0.032500755
0.032669776
0.0328425
0.033019004
0.033199365
0.033383658
0.033571955
0.033764331
0.033960874
0.034161728
0.034367279
0.027520755
0.027619155
0.027717693
0.027816348
0.027915126
0.028014051
0.028113135
0.028212463
0.028312039
0.028411891
0.028512119
0.028612777
0.028713942
0.028815691
0.028918107
0.029021277
0.029125293
0.02923025
0.029336246
0.029443383
0.029551765
0.029661496
0.029772683
0.029885437
0.029999867
0.030116085
0.030234203
0.030354333
0.030476588
0.030601077
0.030727914
0.030857208
0.030989069
0.031123607
0.031260928
0.031401138
0.031544341
0.031690639
0.031840131
0.031992916
0.032149088
0.032308739
0.032471959
0.032638836
0.032809452
0.032983889
0.033162224
0.033344528
0.033530869
0.033721298
0.033915836
0.027580965
0.027679266
0.027777495
0.027875644
0.027973714
0.028071788
0.02816985
0.028267929
0.028366119
0.028464472
0.028563061
0.02866196
0.02876125
0.028861019
0.028961359
0.029062364
0.029164135
0.029266774
0.029370388
0.029475084
0.029580972
0.029688164
0.029796775
0.029906919
0.030018713
0.030132274
0.030247718
0.030365163
0.030484726
0.030606521
0.030730666
0.030857275
0.030986462
0.03111834
0.031253019
0.031390608
0.031531216
0.031674946
0.031821902
0.031972185
0.032125891
0.032283117
0.032443953
0.032608491
0.032776815
0.032949009
0.033125153
0.033305321
0.033489586
0.033678016
0.033870701
0.027659149
0.027756793
0.027854138
0.027951232
0.028048062
0.028144635
0.02824105
0.028337353
0.028433614
0.028529906
0.02862631
0.028722911
0.0288198
0.028917075
0.029014836
0.029113187
0.029212236
0.029312094
0.029412874
0.029514692
0.029617663
0.029721908
0.029827546
0.029934697
0.030043486
0.030154032
0.030266458
0.030380885
0.030497435
0.030616227
0.030737383
0.030861021
0.030987258
0.031116211
0.031247993
0.031382717
0.031520494
0.03166143
0.031805633
0.031953205
0.032104246
0.032258854
0.032417123
0.032579146
0.032745012
0.032914805
0.033088608
0.033266502
0.033448563
0.033634869
0.033825529
0.027755693
0.027852056
0.027947936
0.028043262
0.028138154
0.02823265
0.028326819
0.028420733
0.02851447
0.028608118
0.028701768
0.028795516
0.028889466
0.028983722
0.029078396
0.0291736
0.02926945
0.029366066
0.029463568
0.029562078
0.029661719
0.029762618
0.0298649
0.029968691
0.030074119
0.030181309
0.030290389
0.030401483
0.030514719
0.030630219
0.030748109
0.03086851
0.030991542
0.031117326
0.031245977
0.031377612
0.031512343
0.031650281
0.031791534
0.031936207
0.032084404
0.032236223
0.032391762
0.032551115
0.032714372
0.032881623
0.033052952
0.033228443
0.033408176
0.033592236
0.033780733
0.027870591
0.027964912
0.028058535
0.028151466
0.028243774
0.028335529
0.028426811
0.028517707
0.028608311
0.028698722
0.028789042
0.028879382
0.028969852
0.029060571
0.029151656
0.02924323
0.029335417
0.029428344
0.029522138
0.029616928
0.029712846
0.02981002
0.029908583
0.030008667
0.030110401
0.030213917
0.030319346
0.030426818
0.030536462
0.030648405
0.030762775
0.030879697
0.030999295
0.031121689
0.031247001
0.031375346
0.031506842
0.031641599
0.031779729
0.031921339
0.032066534
0.032215415
0.032368081
0.032524627
0.032685148
0.032849734
0.033018471
0.033191447
0.033368744
0.033550448
0.033736674
0.028003145
0.028094744
0.028185426
0.028275245
0.028364281
0.028452623
0.028540367
0.028627616
0.028714477
0.028801063
0.028887488
0.028973874
0.029060342
0.02914702
0.029234035
0.029321517
0.029409599
0.029498414
0.029588097
0.029678782
0.029770607
0.029863706
0.029958215
0.03005427
0.030152006
0.030251559
0.030353062
0.030456648
0.030562451
0.0306706
0.030781226
0.030894455
0.031010414
0.031129226
0.031251014
0.031375896
0.031503991
0.031635411
0.03177027
0.031908676
0.032050735
0.03219655
0.032346222
0.032499849
0.032657524
0.032819341
0.032985387
0.033155752
0.033330521
0.033509782
0.03369365
0.028152564
0.028240666
0.028327675
0.028413666
0.02849874
0.028583003
0.028666568
0.028749553
0.028832079
0.028914272
0.028996258
0.02907817
0.029160139
0.029242302
0.029324794
0.029407753
0.029491319
0.029575632
0.029660831
0.029747059
0.029834455
0.02992316
0.030013312
0.030105052
0.030198519
0.03029385
0.030391183
0.030490654
0.030592397
0.030696546
0.030803231
0.030912583
0.031024729
0.031139794
0.031257903
0.031379175
0.03150373
0.031631682
0.031763146
0.031898231
0.032037044
0.032179691
0.032326271
0.032476885
0.032631626
0.03279059
0.032953866
0.033121543
0.033293709
0.033470455
0.0336519
0.028317625
0.028401471
0.028484076
0.028565539
0.028645977
0.028725517
0.028804287
0.028882419
0.028960048
0.029037312
0.02911435
0.029191302
0.029268312
0.029345522
0.029423076
0.029501119
0.029579797
0.029659255
0.029739639
0.029821094
0.029903763
0.029987791
0.030073321
0.030160496
0.030249457
0.030340345
0.030433299
0.030528457
0.030625955
0.030725928
0.03082851
0.03093383
0.031042019
0.031153202
0.031267503
0.031385046
0.031505949
0.031630329
0.031758299
0.031889971
0.032025453
0.032164849
0.032308262
0.032455791
0.032607532
0.032763579
0.032924023
0.033088954
0.033258459
0.033432633
0.033611606
0.028496862
0.028575716
0.028653213
0.028729475
0.028804638
0.028878845
0.028952241
0.029024971
0.029097182
0.029169025
0.029240648
0.0293122
0.029383833
0.029455697
0.029527943
0.029600721
0.029674183
0.029748477
0.029823753
0.029900161
0.029977846
0.030056957
0.030137639
0.030220036
0.030304294
0.030390552
0.030478953
0.030569636
0.030662738
0.030758395
0.030856741
0.030957907
0.031062024
0.031169218
0.031279614
0.031393335
0.031510501
0.031631229
0.031755633
0.031883824
0.032015911
0.032151999
0.03229219
0.032436584
0.032585278
0.032738365
0.032895936
0.033058078
0.033224879
0.03339643
0.033572877
0.028688626
0.028761787
0.028833514
0.028903946
0.02897324
0.029041553
0.029109044
0.029175873
0.029242196
0.029308175
0.029373966
0.029439728
0.029505617
0.029571792
0.029638408
0.02970562
0.029773583
0.02984245
0.029912373
0.029983503
0.030055991
0.030129985
0.030205633
0.030283082
0.030362475
0.030443956
0.030527667
0.030613748
0.030702336
0.030793568
0.030887578
0.030984498
0.031084458
0.031187586
0.031294006
0.031403841
0.03151721
0.031634232
0.03175502
0.031879686
0.032008337
0.03214108
0.032278017
0.032419247
0.032564866
0.032714969
0.032869644
0.033028978
0.033193052
0.033361929
0.028891142
0.028957962
0.029023308
0.029087338
0.029150224
0.029212138
0.029273253
0.029333737
0.029393759
0.029453486
0.029513085
0.029572721
0.029632554
0.029692749
0.029753465
0.029814859
0.02987709
0.029940313
0.030004682
0.030070351
0.030137472
0.030206193
0.030276663
0.030349029
0.030423437
0.03050003
0.030578949
0.030660335
0.030744325
0.030831056
0.030920662
0.031013274
0.031109022
0.031208033
0.031310432
0.031416342
0.031525881
0.031639166
0.031756312
0.03187743
0.032002627
0.032132009
0.032265678
0.032403733
0.03254627
0.032693382
0.032845159
0.033001689
0.033163058
0.033329369
0.029102567
0.029162461
0.029220879
0.029277997
0.029334
0.029389075
0.029443403
0.029497161
0.029550529
0.02960368
0.029656785
0.029710015
0.029763537
0.029817514
0.02987211
0.029927486
0.029983801
0.030041213
0.030099875
0.030159944
0.030221569
0.030284902
0.03035009
0.030417281
0.030486619
0.030558248
0.030632309
0.030708941
0.030788281
0.030870466
0.030955628
0.031043899
0.031135406
0.031230278
0.031328638
0.031430607
0.031536305
0.031645847
0.031759346
0.031876914
0.031998658
0.032124682
0.032255089
0.032389976
0.032529439
0.032673571
0.032822461
0.032976199
0.033134875
0.03329861
0.029321039
0.029373493
0.029424507
0.029474273
0.029522989
0.02957085
0.029618047
0.029664765
0.029711189
0.029757499
0.029803869
0.029850472
0.029897479
0.029945055
0.029993367
0.030042575
0.03009284
0.030144318
0.030197167
0.030251538
0.030307583
0.030365453
0.030425294
0.030487253
0.030551474
0.030618098
0.030687267
0.030759118
0.030833787
0.030911409
0.030992117
0.031076039
0.031163305
0.031254039
0.031348364
0.031446401
0.031548268
0.03165408
0.031763949
0.031877985
0.031996295
0.032118983
0.032246149
0.032377891
0.032514305
0.032655481
0.032801509
0.032952476
0.03310847
0.033269625
0.029544723
0.029589299
0.029632509
0.029674557
0.029715651
0.029755994
0.029795784
0.029835213
0.029874468
0.029913732
0.029953183
0.029992995
0.030033341
0.030074388
0.0301163
0.03015924
0.030203366
0.030248837
0.030295806
0.030344425
0.030394846
0.030447217
0.030501682
0.030558388
0.030617477
0.030679089
0.030743362
0.030810434
0.030880439
0.030953511
0.031029779
0.031109372
0.031192417
0.031279038
0.031369355
0.03146349
0.031561557
0.031663671
0.031769944
0.031880484
0.031995396
0.032114784
0.032238748
0.032367383
0.032500786
0.032639045
0.03278225
0.032930481
0.033083812
0.029771848
0.029808185
0.029843267
0.029877305
0.029910515
0.029943107
0.029975282
0.030007236
0.030039158
0.030071232
0.030103638
0.030136552
0.030170144
0.030204581
0.030240028
0.030276646
0.030314591
0.030354021
0.030395087
0.03043794
0.030482729
0.030529599
0.030578695
0.03063016
0.030684133
0.030740754
0.030800158
0.030862481
0.030927856
0.030996412
0.03106828
0.031143585
0.031222453
0.031305006
0.031391363
0.031481642
0.031575959
0.031674426
0.031777154
0.031884248
0.031995815
0.032111955
0.032232767
0.032358348
0.032488791
0.032624185
0.032764618
0.032910176
0.033060957
0.030000729
0.030028548
0.030055253
0.030081064
0.030106201
0.030130876
0.030155292
0.030179648
0.030204132
0.03022893
0.030254222
0.03028018
0.030306975
0.030334773
0.030363735
0.03039402
0.030425784
0.030459179
0.030494357
0.030531464
0.030570648
0.030612051
0.030655814
0.030702079
0.030750983
0.030802661
0.030857248
0.030914877
0.030975677
0.031039778
0.031107306
0.031178386
0.031253139
0.031331688
0.031414149
0.031500639
0.031591271
0.031686157
0.031785404
0.031889119
0.031997404
0.032110361
0.032228086
0.032350676
0.032478221
0.032610811
0.032748533
0.032891474
0.033039747
0.030229796
0.030248896
0.030267053
0.03028449
0.03030143
0.030318086
0.030334662
0.030351356
0.030368356
0.030385847
0.030404004
0.030423
0.030443002
0.030464173
0.030486672
0.030510655
0.030536274
0.030563679
0.030593017
0.030624433
0.030658069
0.030694067
0.030732564
0.030773698
0.030817603
0.030864412
0.030914258
0.030967269
0.031023573
0.031083297
0.031146565
0.031213498
0.031284219
0.031358844
0.03143749
0.03152027
0.031607298
0.031698681
0.031794526
0.031894939
0.03200002
0.032109869
0.032224583
0.032344254
0.032468973
0.032598829
0.032733907
0.032874292
0.033020103
0.030457609
0.030467862
0.030477368
0.030486352
0.030495036
0.030503634
0.030512347
0.030521371
0.030530893
0.030541093
0.030552145
0.030564216
0.030577471
0.03059207
0.030608167
0.030625913
0.030645459
0.03066695
0.030690528
0.030716336
0.030744512
0.030775194
0.030808515
0.03084461
0.030883611
0.030925646
0.030970846
0.031019335
0.03107124
0.031126684
0.031185788
0.031248672
0.031315454
0.031386251
0.031461176
0.03154034
0.031623855
0.031711827
0.031804361
0.03190156
0.032003524
0.032110351
0.032222136
0.03233897
0.032460945
0.032588145
0.032720654
0.032858549
0.03068286
0.030684209
0.030685029
0.030685544
0.030685975
0.030686531
0.030687412
0.03068881
0.030690907
0.030693879
0.030697896
0.030703121
0.030709714
0.03071783
0.03072762
0.030739229
0.030752804
0.030768486
0.030786412
0.030806722
0.030829549
0.030855026
0.030883285
0.030914455
0.030948665
0.03098604
0.031026707
0.031070788
0.031118406
0.031169682
0.031224733
0.031283677
0.03134663
0.031413706
0.031485015
0.031560668
0.031640773
0.031725434
0.031814756
0.031908839
0.032007781
0.03211168
0.032220627
0.032334715
0.032454032
0.032578663
0.032708692
0.032844209
0.030904385
0.030896838
0.030888999
0.030881088
0.030873321
0.030865905
0.030859033
0.030852893
0.030847661
0.030843509
0.0308406
0.030839094
0.030839144
0.0308409
0.030844507
0.030850107
0.03085784
0.030867843
0.030880249
0.030895192
0.030912802
0.030933208
0.030956536
0.030982913
0.031012463
0.031045308
0.031081571
0.031121372
0.03116483
0.031212061
0.031263183
0.031318309
0.031377552
0.031441024
0.031508833
0.031581088
0.031657894
0.031739355
0.031825571
0.031916643
0.032012667
0.032113736
0.032219945
0.032331382
0.032448134
0.032570287
0.032697922
0.032831138
0.031121164
0.03110479
0.031088373
0.03107213
0.031056272
0.031040998
0.031026496
0.031012946
0.031000521
0.030989383
0.030979692
0.030971601
0.030965255
0.030960801
0.030958376
0.030958119
0.030960163
0.030964639
0.030971677
0.030981405
0.030993949
0.031009432
0.031027978
0.031049708
0.031074743
0.031103202
0.031135203
0.031170863
0.031210297
0.03125362
0.031300945
0.031352383
0.031408045
0.03146804
0.031532473
0.031601451
0.031675078
0.031753453
0.031836678
0.031924849
0.032018062
0.032116409
0.032219981
0.032328867
0.032443152
0.03256292
0.032688253
0.03281925
0.031332316
0.031307236
0.031282374
0.031257941
0.03123414
0.031211163
0.031189191
0.031168397
0.031148945
0.031130993
0.031114691
0.031100187
0.03108762
0.031077128
0.031068846
0.031062904
0.03105943
0.031058551
0.03106039
0.031065071
0.031072713
0.031083438
0.031097363
0.031114606
0.031135283
0.03115951
0.0311874
0.031219068
0.031254626
0.031294184
0.031337854
0.031385743
0.031437959
0.031494608
0.031555796
0.031621624
0.031692194
0.031767606
0.031847958
0.031933344
0.032023858
0.032119593
0.032220635
0.032327074
0.032438992
0.032556473
0.032679597
0.032808463
0.031537098
0.03150348
0.031470349
0.031437908
0.031406351
0.031375861
0.031346612
0.031318768
0.031292486
0.031267915
0.031245199
0.031224477
0.031205883
0.031189549
0.0311756
0.031164163
0.03115536
0.031149311
0.031146134
0.031145947
0.031148867
0.031155008
0.031164484
0.031177409
0.031193894
0.031214052
0.031237992
0.031265825
0.03129766
0.031333604
0.031373765
0.031418249
0.03146716
0.031520603
0.031578678
0.031641488
0.031709131
0.031781705
0.031859305
0.031942025
0.032029957
0.032123191
0.032221813
0.03232591
0.032435565
0.032550858
0.032671869
0.032798695
0.031734892
0.031692946
0.03165176
0.031611528
0.031572433
0.03153465
0.031498345
0.031463671
0.031430778
0.031399806
0.031370893
0.031344168
0.03131976
0.031297792
0.031278384
0.031261656
0.031247724
0.031236702
0.031228704
0.031223841
0.031222225
0.031223966
0.031229174
0.031237957
0.031250424
0.031266682
0.031286837
0.031310998
0.031339269
0.031371754
0.031408559
0.031449786
0.031495537
0.031545914
0.031601016
0.031660942
0.031725788
0.031795651
0.031870624
0.031950799
0.032036267
0.032127115
0.032223429
0.032325292
0.032432788
0.032545994
0.032664989
0.032789868
0.031925205
0.031875175
0.031826179
0.031778401
0.031732014
0.031687184
0.031644064
0.031602802
0.031563537
0.031526401
0.031491522
0.031459024
0.031429027
0.031401648
0.031377
0.031355196
0.031336345
0.031320558
0.03130794
0.0312986
0.031292643
0.031290175
0.0312913
0.031296124
0.03130475
0.031317283
0.031333824
0.031354479
0.031379348
0.031408533
0.031442136
0.031480257
0.031522996
0.031570451
0.031622719
0.031679897
0.03174208
0.031809361
0.031881833
0.031959585
0.032042707
0.032131285
0.032225402
0.032325142
0.032430583
0.032541804
0.032658881
0.032781907
0.032107651
0.03204981
0.031993277
0.031938222
0.031884811
0.031833198
0.031783526
0.031735933
0.031690549
0.031647498
0.0316069
0.031568871
0.031533522
0.031500963
0.031471302
0.031444644
0.031421093
0.031400753
0.031383725
0.031370111
0.031360012
0.031353529
0.031350763
0.031351813
0.031356781
0.031365765
0.031378865
0.031396182
0.031417814
0.03144386
0.031474418
0.031509585
0.03154946
0.031594137
0.031643712
0.031698279
0.031757932
0.031822761
0.031892858
0.03196831
0.032049205
0.032135629
0.032227662
0.032325386
0.032428879
0.032538216
0.032653473
0.032774739
0.032281949
0.032216594
0.032152815
0.032090773
0.032030623
0.031972506
0.031916558
0.031862905
0.031811668
0.031762962
0.0317169
0.031673588
0.031633131
0.031595631
0.03156119
0.031529907
0.031501878
0.031477203
0.031455977
0.031438296
0.031424258
0.031413958
0.031407492
0.031404957
0.031406449
0.031412063
0.031421897
0.031436046
0.031454606
0.031477673
0.031505342
0.031537709
0.031574867
0.031616911
0.031663934
0.031716027
0.031773283
0.031835789
0.031903636
0.031976911
0.032055699
0.032140083
0.032230144
0.032325962
0.032427611
0.032535166
0.032648698
0.032768298
0.032447907
0.032375353
0.032304637
0.032235912
0.03216932
0.032104993
0.032043054
0.03198362
0.031926804
0.031872711
0.031821445
0.031773105
0.031727789
0.031685592
0.031646608
0.03161093
0.031578649
0.031549858
0.031524648
0.031503111
0.031485337
0.031471418
0.031461446
0.031455514
0.031453713
0.031456136
0.031462876
0.031474026
0.031489679
0.031509928
0.031534865
0.031564582
0.031599173
0.031638728
0.031683337
0.031733093
0.031788082
0.031848394
0.031914116
0.031985334
0.032062131
0.03214459
0.03223279
0.032326809
0.03242672
0.032532592
0.032644497
0.032762521
0.032854763
0.03276998
0.032686802
0.032605424
0.032525993
0.032448662
0.032373567
0.032300841
0.032230602
0.032162965
0.032098037
0.032035919
0.031976711
0.031920506
0.031867397
0.031817473
0.031770823
0.031727535
0.031687694
0.031651388
0.031618702
0.031589723
0.031564536
0.031543229
0.031525889
0.031512604
0.031503462
0.03149855
0.03149796
0.031501779
0.031510099
0.031523008
0.031540597
0.031562956
0.031590175
0.031622343
0.03165955
0.031701885
0.031749436
0.03180229
0.031860534
0.031924253
0.031993532
0.032068454
0.0321491
0.032235549
0.032327876
0.032426151
0.032530441
0.03264081
0.032757348
0.033025038
0.032932888
0.032842638
0.032754456
0.032668488
0.032584869
0.032503726
0.032425178
0.032349333
0.032276294
0.03220616
0.032139023
0.032074972
0.032014095
0.031956475
0.031902196
0.031851338
0.031803984
0.031760213
0.031720106
0.031683744
0.031651208
0.03162258
0.031597942
0.031577377
0.031560968
0.031548801
0.03154096
0.031537531
0.0315386
0.031544254
0.03155458
0.031569666
0.031589599
0.031614466
0.031644356
0.031679355
0.031719551
0.031765028
0.031815875
0.031872174
0.031934011
0.032001469
0.032074629
0.032153572
0.032238376
0.032329115
0.032425857
0.032528661
0.032637588
0.032752725
0.033185769
0.033086624
0.032989661
0.032895031
0.032802868
0.032713296
0.03262643
0.032542375
0.032461231
0.032383089
0.032308038
0.032236163
0.032167543
0.032102259
0.032040386
0.031982001
0.031927179
0.031875995
0.031828523
0.031784839
0.031745018
0.031709136
0.03167727
0.0316495
0.031625903
0.031606559
0.031591549
0.031580955
0.031574859
0.031573345
0.031576496
0.031584397
0.031597133
0.031614789
0.03163745
0.031665202
0.031698129
0.031736317
0.031779851
0.031828814
0.03188329
0.031943361
0.032009111
0.032080619
0.032157966
0.03224123
0.032330484
0.032425795
0.032527211
0.032634783
0.032748602
0.033337025
0.033231262
0.033127952
0.03302723
0.03292922
0.032834031
0.032741766
0.032652521
0.032566383
0.032483435
0.032403755
0.032327421
0.032254504
0.032185075
0.032119205
0.032056962
0.031998416
0.031943634
0.031892688
0.031845645
0.031802577
0.031763557
0.031728655
0.031697947
0.031671506
0.031649411
0.031631737
0.031618563
0.031609969
0.031606035
0.031606842
0.031612472
0.031623008
0.031638532
0.031659128
0.031684878
0.031715867
0.031752177
0.031793891
0.031841092
0.031893862
0.031952282
0.032016434
0.032086398
0.032162253
0.032244077
0.032331947
0.032425927
0.032526052
0.032632352
0.032744932
0.033478932
0.033366929
0.03325764
0.033151184
0.033047671
0.0329472
0.032849861
0.032755738
0.03266491
0.032577449
0.032493426
0.032412908
0.032335961
0.032262647
0.03219303
0.032127172
0.032065137
0.032006987
0.031952787
0.031902601
0.031856496
0.031814538
0.031776796
0.031743341
0.031714242
0.031689574
0.03166941
0.031653825
0.031642897
0.031636702
0.03163532
0.031638829
0.03164731
0.031660843
0.03167951
0.031703393
0.031732571
0.031767128
0.031807144
0.031852701
0.031903879
0.031960759
0.03202342
0.032091942
0.032166404
0.032246887
0.032333469
0.032426221
0.032525153
0.032630259
0.032741678
0.033611663
0.0334938
0.033378898
0.033267062
0.033158389
0.033052966
0.032950872
0.032852181
0.032756962
0.032665278
0.032577191
0.032492761
0.032412044
0.032335098
0.03226198
0.032192746
0.032127452
0.032066157
0.03200892
0.0319558
0.03190686
0.031862162
0.031821771
0.031785753
0.031754176
0.031727109
0.031704624
0.031686792
0.031673688
0.031665387
0.031661964
0.031663497
0.031670065
0.031681744
0.031698616
0.031720758
0.031748252
0.031781177
0.031819612
0.031863638
0.031913334
0.03196878
0.032030053
0.032097233
0.032170399
0.032249632
0.032335017
0.032426648
0.033735433
0.033612086
0.033491933
0.033375066
0.03326157
0.03315152
0.033044986
0.03294203
0.032842712
0.032747088
0.032655211
0.032567133
0.032482903
0.032402573
0.032326192
0.032253812
0.032185484
0.032121261
0.032061196
0.032005346
0.031953768
0.031906521
0.031863665
0.031825264
0.031791382
0.031762085
0.031737442
0.031717522
0.031702396
0.031692138
0.031686819
0.031686517
0.031691306
0.031701264
0.031716468
0.031736995
0.031762924
0.031794333
0.031831301
0.031873906
0.031922227
0.03197634
0.032036325
0.032102259
0.032174221
0.03225229
0.03233656
0.033850492
0.033722029
0.03359698
0.033475425
0.033357436
0.033243078
0.03313241
0.033025486
0.032922355
0.032823067
0.032727665
0.032636195
0.032548701
0.032465226
0.032385816
0.032310514
0.032239369
0.032172427
0.032109738
0.032051355
0.031997329
0.031947717
0.031902576
0.031861965
0.031825945
0.031794581
0.031767938
0.031746082
0.031729082
0.03171701
0.031709935
0.031707932
0.031711075
0.031719437
0.031733096
0.031752127
0.031776607
0.031806613
0.031842223
0.031883512
0.031930558
0.031983439
0.032042231
0.03210701
0.032177855
0.032254843
0.032338058
0.033957114
0.033823897
0.033694299
0.03356839
0.033446229
0.033327873
0.033213369
0.033102764
0.032996098
0.032893412
0.032794745
0.032700133
0.032609614
0.032523227
0.03244101
0.032363004
0.032289251
0.032219793
0.032154677
0.032093949
0.032037659
0.03198586
0.031938605
0.03189595
0.031857955
0.03182468
0.031796188
0.031772543
0.031753812
0.031740063
0.031731366
0.031727792
0.031729413
0.031736303
0.031748535
0.031766185
0.031789327
0.031818037
0.031852391
0.031892466
0.031938336
0.031990079
0.032047769
0.032111482
0.032181294
0.032257281
0.03233952
0.034055594
0.033917974
0.033784167
0.033654227
0.033528208
0.033406153
0.033288103
0.033174094
0.033064162
0.032958337
0.032856652
0.032759137
0.032665826
0.03257675
0.032491944
0.032411442
0.032335282
0.032263503
0.032196147
0.032133257
0.03207488
0.032021064
0.03197186
0.031927323
0.031887506
0.03185247
0.031822274
0.031796981
0.031776655
0.031761362
0.031751171
0.03174615
0.03174637
0.031751903
0.031762822
0.031779199
0.03180111
0.031828627
0.031861826
0.031900783
0.03194557
0.031996265
0.03205294
0.032115672
0.032184533
0.032259597
0.032340939
0.034146244
0.034004564
0.033866872
0.033733216
0.033603639
0.033478176
0.033356858
0.033239715
0.033126773
0.033018058
0.032913595
0.03281341
0.032717529
0.032625979
0.03253879
0.032455993
0.03237762
0.032303707
0.032234292
0.032169415
0.032109119
0.032053449
0.032002455
0.031956186
0.031914697
0.031878043
0.031846282
0.031819475
0.031797685
0.031780974
0.031769411
0.031763062
0.031761996
0.031766284
0.031775997
0.031791206
0.031811986
0.031838409
0.031870548
0.031908478
0.031952273
0.032002005
0.03205775
0.03211958
0.032187568
0.032261785
0.032342306
0.034229389
0.034083975
0.033942714
0.033805645
0.0336728
0.033544207
0.03341989
0.033299869
0.033184166
0.0330728
0.032965789
0.032863154
0.032764917
0.032671099
0.032581726
0.032496825
0.032416424
0.032340556
0.032269254
0.032202556
0.032140503
0.032083136
0.032030502
0.031982649
0.031939628
0.031901493
0.0318683
0.031840108
0.031816976
0.031798969
0.03178615
0.031778585
0.031776343
0.031779492
0.031788101
0.031802243
0.031821989
0.031847411
0.031878581
0.031915572
0.031958458
0.032007311
0.032062204
0.03212321
0.032190399
0.032263842
0.032343612
0.034305357
0.034156526
0.034011997