/*--------------------------------*- C++ -*----------------------------------*\
| =========                 |                                                 |
| \\      /  F ield         | OpenFOAM: The Open Source CFD Toolbox           |
|  \\    /   O peration     | Version:  2312                                  |
|   \\  /    A nd           | Website:  www.openfoam.com                      |
|    \\/     M anipulation  |                                                 |
\*---------------------------------------------------------------------------*/
FoamFile
{
    version     2.0;
    format      ascii;
    arch        "LSB;label=32;scalar=64";
    class       surfaceScalarField;
    location    "0.1";
    object      phi;
}
// * * * * * * * * * * * * * * * * * * * * * * * * * * * * * * * * * * * * * //

dimensions      [1 0 -1 0 0 0 0];

oriented        oriented;

internalField   nonuniform List<scalar> 
6418
(
3.4719114e-07
-9.1015811e-08
3.4711263e-07
-9.3830239e-08
3.4701514e-07
-9.6613341e-08
3.4689353e-07
-9.9363852e-08
3.467429e-07
-1.0208047e-07
3.4655864e-07
-1.04762e-07
3.4633647e-07
-1.0740738e-07
3.4607242e-07
-1.1001564e-07
3.4576283e-07
-1.1258584e-07
3.4540435e-07
-1.1511715e-07
3.4499391e-07
-1.1760875e-07
3.4452874e-07
-1.2005987e-07
3.4400634e-07
-1.2246978e-07
3.434245e-07
-1.2483776e-07
3.4278125e-07
-1.2716311e-07
3.4207487e-07
-1.2944513e-07
3.4130391e-07
-1.3168314e-07
3.4046712e-07
-1.3387645e-07
3.395635e-07
-1.3602437e-07
3.3859225e-07
-1.3812619e-07
3.3755279e-07
-1.4018121e-07
3.3644472e-07
-1.4218872e-07
3.3526785e-07
-1.4414798e-07
3.340222e-07
-1.4605832e-07
3.3270808e-07
-1.4791905e-07
3.3132605e-07
-1.4972936e-07
3.2987632e-07
-1.5148927e-07
3.2835917e-07
-1.5319669e-07
3.2677533e-07
-1.5485072e-07
3.251258e-07
-1.5645082e-07
3.2341168e-07
-1.5799594e-07
3.2163412e-07
-1.5948577e-07
3.1979467e-07
-1.609185e-07
3.1789476e-07
-1.6229519e-07
3.1593579e-07
-1.636143e-07
3.1391924e-07
-1.6487489e-07
3.1184671e-07
-1.6607619e-07
3.0971992e-07
-1.6721743e-07
3.0754068e-07
-1.6829787e-07
3.0531082e-07
-1.6931683e-07
3.0303227e-07
-1.7027363e-07
3.0070699e-07
-1.7116764e-07
2.9833699e-07
-1.7199828e-07
2.9592433e-07
-1.7276499e-07
2.934711e-07
-1.7346728e-07
2.9097941e-07
-1.7410471e-07
2.8845139e-07
-1.7467687e-07
2.8588921e-07
-1.7518342e-07
2.8329501e-07
-1.7562407e-07
2.8067099e-07
-1.759986e-07
2.7801936e-07
-1.7630681e-07
2.753425e-07
-1.7654857e-07
-1.7672363e-07
3.398133e-07
-8.8040171e-08
3.3976714e-07
-9.0816146e-08
3.3969926e-07
-9.3556763e-08
3.3960469e-07
-9.6261035e-08
3.3947871e-07
-9.8927974e-08
3.3931694e-07
-1.0155668e-07
3.3911531e-07
-1.0414635e-07
3.3887006e-07
-1.0669625e-07
3.3857775e-07
-1.0920573e-07
3.3823524e-07
-1.1167416e-07
3.3783966e-07
-1.1410099e-07
3.3738844e-07
-1.1648567e-07
3.3687926e-07
-1.188277e-07
3.3631008e-07
-1.2112657e-07
3.3567909e-07
-1.2338179e-07
3.3498476e-07
-1.2559289e-07
3.3422577e-07
-1.2775936e-07
3.3340101e-07
-1.2988071e-07
3.3250961e-07
-1.3195643e-07
3.315509e-07
-1.3398599e-07
3.3052438e-07
-1.3596884e-07
3.2942975e-07
-1.3790443e-07
3.2826682e-07
-1.3979216e-07
3.2703571e-07
-1.4163159e-07
3.2573703e-07
-1.4342242e-07
3.2437178e-07
-1.4516398e-07
3.2293978e-07
-1.4685581e-07
3.2144123e-07
-1.4849591e-07
3.1987699e-07
-1.5008383e-07
3.1824809e-07
-1.5161922e-07
3.1655579e-07
-1.5310126e-07
3.1480102e-07
-1.5452935e-07
3.1298565e-07
-1.5590252e-07
3.1111096e-07
-1.5722152e-07
3.0917838e-07
-1.5848468e-07
3.0718941e-07
-1.5969121e-07
3.0514569e-07
-1.6084046e-07
3.0304891e-07
-1.6193173e-07
3.0090085e-07
-1.6296438e-07
2.9870336e-07
-1.6393777e-07
2.9645832e-07
-1.6485129e-07
2.9416769e-07
-1.6570436e-07
2.9183346e-07
-1.6649644e-07
2.8945766e-07
-1.6722704e-07
2.8704234e-07
-1.6789568e-07
2.845896e-07
-1.6850196e-07
2.8210154e-07
-1.6904551e-07
2.795803e-07
-1.69526e-07
2.7702801e-07
-1.6994317e-07
2.7444684e-07
-1.7029683e-07
2.7183896e-07
-1.7058682e-07
2.6920667e-07
-1.7081302e-07
-1.7097517e-07
3.3425367e-07
-8.5260592e-08
3.3425113e-07
-8.7994148e-08
3.3422202e-07
-9.0688583e-08
3.3416169e-07
-9.3343173e-08
3.3406573e-07
-9.5957216e-08
3.3393006e-07
-9.8530091e-08
3.3375089e-07
-1.0106126e-07
3.3352479e-07
-1.0355024e-07
3.3324859e-07
-1.0599664e-07
3.3291943e-07
-1.0840007e-07
3.3253475e-07
-1.107602e-07
3.3209223e-07
-1.1307673e-07
3.3158983e-07
-1.1534937e-07
3.3102576e-07
-1.1757782e-07
3.3039846e-07
-1.197618e-07
3.2970662e-07
-1.2190102e-07
3.2894914e-07
-1.2399518e-07
3.2812514e-07
-1.2604396e-07
3.2723395e-07
-1.2804702e-07
3.2627507e-07
-1.3000402e-07
3.2524818e-07
-1.3191455e-07
3.2415309e-07
-1.3377819e-07
3.2298958e-07
-1.3559445e-07
3.2175741e-07
-1.3736287e-07
3.2045745e-07
-1.3908365e-07
3.1909427e-07
-1.4075733e-07
3.1766442e-07
-1.4238108e-07
3.1616794e-07
-1.4395404e-07
3.1460636e-07
-1.4547637e-07
3.1298085e-07
-1.4694755e-07
3.1129284e-07
-1.4836706e-07
3.0954337e-07
-1.4973397e-07
3.0773452e-07
-1.5104852e-07
3.0586736e-07
-1.523103e-07
3.0394333e-07
-1.5351803e-07
3.0196401e-07
-1.5467107e-07
2.9993105e-07
-1.5576883e-07
2.9784617e-07
-1.568107e-07
2.9571116e-07
-1.5779609e-07
2.9352786e-07
-1.5872442e-07
2.9129816e-07
-1.5959513e-07
2.89024e-07
-1.6040771e-07
2.8670737e-07
-1.6116165e-07
2.8435026e-07
-1.618565e-07
2.8195473e-07
-1.6249182e-07
2.7952285e-07
-1.6306722e-07
2.7705669e-07
-1.6358238e-07
2.7455838e-07
-1.64037e-07
2.7203001e-07
-1.6443083e-07
2.6947372e-07
-1.6476369e-07
2.6689164e-07
-1.6503544e-07
2.6428596e-07
-1.65246e-07
-1.6539509e-07
3.3020186e-07
-8.2702567e-08
3.3024753e-07
-8.538844e-08
3.3026032e-07
-8.8031693e-08
3.3023597e-07
-9.0631882e-08
3.3017043e-07
-9.3188586e-08
3.3005998e-07
-9.5701459e-08
3.2990122e-07
-9.8170227e-08
3.2969106e-07
-1.0059468e-07
3.2942671e-07
-1.0297464e-07
3.2910566e-07
-1.0531e-07
3.2872568e-07
-1.0760063e-07
3.282848e-07
-1.0984646e-07
3.277813e-07
-1.120474e-07
3.2721369e-07
-1.1420337e-07
3.2658072e-07
-1.1631428e-07
3.2588137e-07
-1.1838003e-07
3.2511482e-07
-1.2040049e-07
3.2428044e-07
-1.2237553e-07
3.2337782e-07
-1.2430497e-07
3.2240672e-07
-1.2618862e-07
3.2136704e-07
-1.2802627e-07
3.2025875e-07
-1.2981768e-07
3.190816e-07
-1.3156263e-07
3.1783463e-07
-1.3326081e-07
3.1651716e-07
-1.3491132e-07
3.1514425e-07
-1.3651331e-07
3.1370241e-07
-1.3806869e-07
3.1219333e-07
-1.3957553e-07
3.1061946e-07
-1.4103299e-07
3.0898249e-07
-1.4244057e-07
3.072837e-07
-1.4379782e-07
3.0552472e-07
-1.4510434e-07
3.0370725e-07
-1.4636061e-07
3.0183238e-07
-1.475655e-07
2.9990166e-07
-1.4871819e-07
2.979167e-07
-1.4981815e-07
2.9587921e-07
-1.5086484e-07
2.9379093e-07
-1.5185771e-07
2.9165366e-07
-1.5279623e-07
2.8946925e-07
-1.5367987e-07
2.8723961e-07
-1.5450814e-07
2.8496668e-07
-1.5528055e-07
2.8265243e-07
-1.5599663e-07
2.8029885e-07
-1.5665598e-07
2.77908e-07
-1.5725818e-07
2.754819e-07
-1.5780289e-07
2.7302265e-07
-1.5828978e-07
2.705323e-07
-1.5871859e-07
2.6801297e-07
-1.590891e-07
2.6546673e-07
-1.5940112e-07
2.6289569e-07
-1.5965455e-07
2.6030197e-07
-1.5984928e-07
-1.5998508e-07
3.2737917e-07
-8.0379435e-08
3.274728e-07
-8.3011395e-08
3.2752626e-07
-8.5597542e-08
3.2753568e-07
-8.8137721e-08
3.2749746e-07
-9.06318e-08
3.274083e-07
-9.3079711e-08
3.2726522e-07
-9.5481447e-08
3.2706555e-07
-9.7837049e-08
3.2680693e-07
-1.001466e-07
3.2648723e-07
-1.024102e-07
3.2610462e-07
-1.0462796e-07
3.2565751e-07
-1.0680002e-07
3.2514455e-07
-1.0892649e-07
3.245646e-07
-1.1100748e-07
3.2391675e-07
-1.1304308e-07
3.2320029e-07
-1.1503336e-07
3.2241471e-07
-1.1697836e-07
3.2155966e-07
-1.1887811e-07
3.2063499e-07
-1.2073258e-07
3.196407e-07
-1.2254172e-07
3.1857691e-07
-1.2430545e-07
3.1744388e-07
-1.2602364e-07
3.1624179e-07
-1.2769613e-07
3.149707e-07
-1.2932252e-07
3.1363214e-07
-1.3090284e-07
3.122304e-07
-1.3243664e-07
3.1076236e-07
-1.3392354e-07
3.092287e-07
-1.3536331e-07
3.0763093e-07
-1.367553e-07
3.0597079e-07
-1.3809926e-07
3.0424952e-07
-1.3939433e-07
3.0246927e-07
-1.4064111e-07
3.006312e-07
-1.4183912e-07
2.9873665e-07
-1.4298736e-07
2.9678724e-07
-1.4408533e-07
2.9478466e-07
-1.4513255e-07
2.9273065e-07
-1.4612851e-07
2.9062699e-07
-1.4707273e-07
2.8847552e-07
-1.4796472e-07
2.8627811e-07
-1.4880402e-07
2.8403667e-07
-1.4959014e-07
2.8175313e-07
-1.5032266e-07
2.7942949e-07
-1.5100114e-07
2.7706773e-07
-1.516252e-07
2.7466987e-07
-1.5219446e-07
2.7223795e-07
-1.5270859e-07
2.6977403e-07
-1.5316731e-07
2.6728016e-07
-1.5357035e-07
2.6475841e-07
-1.5391752e-07
2.6221084e-07
-1.5420864e-07
2.596395e-07
-1.544436e-07
2.5704649e-07
-1.5462231e-07
-1.5474455e-07
3.2553665e-07
-7.829424e-08
3.2567411e-07
-8.086541e-08
3.2576347e-07
-8.3387923e-08
3.2580133e-07
-8.586193e-08
3.2578456e-07
-8.828759e-08
3.2571034e-07
-9.0665116e-08
3.2557617e-07
-9.2994764e-08
3.2537984e-07
-9.5276829e-08
3.2511943e-07
-9.7511629e-08
3.2479327e-07
-9.9699491e-08
3.2439995e-07
-1.0184075e-07
3.2393829e-07
-1.0393572e-07
3.2340734e-07
-1.0598472e-07
3.2280634e-07
-1.0798803e-07
3.2213474e-07
-1.0994591e-07
3.2139217e-07
-1.1185859e-07
3.2057845e-07
-1.1372627e-07
3.1969354e-07
-1.1554908e-07
3.1873756e-07
-1.1732716e-07
3.1771078e-07
-1.1906056e-07
3.166136e-07
-1.2074932e-07
3.1544652e-07
-1.2239342e-07
3.1421018e-07
-1.239928e-07
3.1290555e-07
-1.2554737e-07
3.1153382e-07
-1.2705739e-07
3.1009592e-07
-1.2852179e-07
3.0859254e-07
-1.2994052e-07
3.0702462e-07
-1.313134e-07
3.053936e-07
-1.3264019e-07
3.0370076e-07
-1.339204e-07
3.01948e-07
-1.3515392e-07
3.0013706e-07
-1.3634114e-07
2.9826903e-07
-1.3748098e-07
2.9634553e-07
-1.3857293e-07
2.9436826e-07
-1.3961653e-07
2.9233893e-07
-1.4061137e-07
2.9025934e-07
-1.4155698e-07
2.881313e-07
-1.4245293e-07
2.8595668e-07
-1.4329877e-07
2.8373736e-07
-1.4409407e-07
2.8147526e-07
-1.4483839e-07
2.7917234e-07
-1.4553133e-07
2.7683056e-07
-1.4617248e-07
2.7445193e-07
-1.467615e-07
2.7203844e-07
-1.4729802e-07
2.6959214e-07
-1.4778175e-07
2.6711503e-07
-1.482124e-07
2.6460918e-07
-1.4858973e-07
2.620766e-07
-1.4891356e-07
2.5951935e-07
-1.4918372e-07
2.5693942e-07
-1.494001e-07
2.5433887e-07
-1.4956261e-07
-1.4967103e-07
3.2445502e-07
-7.6441653e-08
3.2462918e-07
-7.8944785e-08
3.24747e-07
-8.1396823e-08
3.2480562e-07
-8.3798224e-08
3.2480241e-07
-8.6149446e-08
3.2473507e-07
-8.8450976e-08
3.2460162e-07
-9.0703334e-08
3.2440033e-07
-9.2907057e-08
3.2412977e-07
-9.5062691e-08
3.2378874e-07
-9.7170779e-08
3.2337628e-07
-9.923185e-08
3.2289164e-07
-1.0124641e-07
3.2233428e-07
-1.0321495e-07
3.2170385e-07
-1.0513792e-07
3.2100017e-07
-1.0701571e-07
3.2022323e-07
-1.0884872e-07
3.1937317e-07
-1.1063724e-07
3.1845028e-07
-1.1238157e-07
3.1745497e-07
-1.1408192e-07
3.163878e-07
-1.1573848e-07
3.1524944e-07
-1.1735138e-07
3.1404068e-07
-1.1892071e-07
3.1276241e-07
-1.2044651e-07
3.1141597e-07
-1.2192908e-07
3.1000201e-07
-1.2336811e-07
3.0852168e-07
-1.2476289e-07
3.0697624e-07
-1.2611342e-07
3.0536697e-07
-1.2741965e-07
3.0369524e-07
-1.2868125e-07
3.0196273e-07
-1.2989827e-07
3.0017161e-07
-1.3107096e-07
2.9832285e-07
-1.3219862e-07
2.9641803e-07
-1.3328068e-07
2.9445883e-07
-1.3431675e-07
2.9244701e-07
-1.3530644e-07
2.9038434e-07
-1.3624937e-07
2.8827265e-07
-1.371451e-07
2.8611378e-07
-1.3799325e-07
2.8390961e-07
-1.387934e-07
2.8166207e-07
-1.3954514e-07
2.7937306e-07
-1.4024808e-07
2.7704456e-07
-1.4090182e-07
2.7467853e-07
-1.4150602e-07
2.7227696e-07
-1.4206031e-07
2.6984184e-07
-1.4256437e-07
2.6737518e-07
-1.4301792e-07
2.6487899e-07
-1.4342068e-07
2.6235528e-07
-1.4377244e-07
2.5980608e-07
-1.44073e-07
2.5723337e-07
-1.4432222e-07
2.5463914e-07
-1.4451998e-07
2.5202537e-07
-1.4466617e-07
-1.4476055e-07
3.2394322e-07
-7.4809754e-08
3.2414475e-07
-7.7237484e-08
3.242817e-07
-7.9612134e-08
3.2435174e-07
-8.1934475e-08
3.2435281e-07
-8.4205254e-08
3.2428318e-07
-8.642523e-08
3.2414137e-07
-8.8595175e-08
3.2392619e-07
-9.0715858e-08
3.2363671e-07
-9.2788039e-08
3.232722e-07
-9.4812459e-08
3.2283217e-07
-9.6789832e-08
3.2231632e-07
-9.8720837e-08
3.2172452e-07
-1.0060611e-07
3.2105682e-07
-1.0244625e-07
3.2031343e-07
-1.0424179e-07
3.1949469e-07
-1.0599323e-07
3.1860107e-07
-1.0770099e-07
3.1763318e-07
-1.0936547e-07
3.1659172e-07
-1.1098698e-07
3.1547753e-07
-1.125658e-07
3.1429153e-07
-1.1410214e-07
3.1303473e-07
-1.1559618e-07
3.1170861e-07
-1.1704836e-07
3.1031413e-07
-1.1845859e-07
3.0885197e-07
-1.1982631e-07
3.0732377e-07
-1.2115141e-07
3.0573088e-07
-1.2243384e-07
3.0407486e-07
-1.2367353e-07
3.0235742e-07
-1.2487065e-07
3.0058071e-07
-1.2602544e-07
2.987459e-07
-1.2713738e-07
2.9685447e-07
-1.2820593e-07
2.9490811e-07
-1.2923076e-07
2.9290859e-07
-1.3021154e-07
2.908577e-07
-1.3114792e-07
2.8875726e-07
-1.3203953e-07
2.8660912e-07
-1.32886e-07
2.8441517e-07
-1.3368695e-07
2.8217729e-07
-1.3444198e-07
2.7989741e-07
-1.3515074e-07
2.7757747e-07
-1.3581283e-07
2.7521942e-07
-1.364279e-07
2.7282522e-07
-1.369956e-07
2.7039685e-07
-1.375156e-07
2.6793628e-07
-1.3798759e-07
2.6544552e-07
-1.3841129e-07
2.6292653e-07
-1.3878646e-07
2.6038131e-07
-1.3911286e-07
2.5781185e-07
-1.3939033e-07
2.552201e-07
-1.3961873e-07
2.5260803e-07
-1.3979792e-07
2.4997755e-07
-1.3992776e-07
-1.4000789e-07
3.2383638e-07
-7.3381633e-08
3.2405442e-07
-7.5726703e-08
3.2419985e-07
-7.8017207e-08
3.2427092e-07
-8.0254223e-08
3.2426618e-07
-8.2438778e-08
3.2418444e-07
-8.4571893e-08
3.2402479e-07
-8.6654574e-08
3.2378656e-07
-8.8687807e-08
3.2346933e-07
-9.0672549e-08
3.2307286e-07
-9.2609721e-08
3.2259713e-07
-9.4500201e-08
3.2204226e-07
-9.6344816e-08
3.2140856e-07
-9.8144342e-08
3.2069647e-07
-9.9899494e-08
3.1990656e-07
-1.0161093e-07
3.1903953e-07
-1.0327924e-07
3.1809617e-07
-1.0490495e-07
3.170774e-07
-1.0648852e-07
3.159842e-07
-1.0803036e-07
3.1481765e-07
-1.0953082e-07
3.1357891e-07
-1.1099017e-07
3.122696e-07
-1.1240903e-07
3.1089082e-07
-1.1378742e-07
3.0944343e-07
-1.1512489e-07
3.0792892e-07
-1.1642143e-07
3.0634882e-07
-1.1767706e-07
3.0470474e-07
-1.1889174e-07
3.0299865e-07
-1.2006578e-07
3.0123267e-07
-1.2119943e-07
2.994081e-07
-1.2229234e-07
2.9752638e-07
-1.2334399e-07
2.9558924e-07
-1.2435413e-07
2.9359846e-07
-1.2532249e-07
2.9155583e-07
-1.2624874e-07
2.894632e-07
-1.2713258e-07
2.8732242e-07
-1.2797366e-07
2.8513536e-07
-1.2877162e-07
2.8290392e-07
-1.2952612e-07
2.8063002e-07
-1.3023679e-07
2.7831557e-07
-1.3090326e-07
2.7596252e-07
-1.3152519e-07
2.735728e-07
-1.3210224e-07
2.7114837e-07
-1.3263405e-07
2.686912e-07
-1.3312032e-07
2.6620323e-07
-1.3356076e-07
2.6368644e-07
-1.3395508e-07
2.6114278e-07
-1.3430306e-07
2.5857421e-07
-1.3460446e-07
2.5598268e-07
-1.3485913e-07
2.5337012e-07
-1.3506694e-07
2.507385e-07
-1.3522779e-07
2.4808932e-07
3.2399366e-07
-7.2136806e-08
3.2421638e-07
-7.4392264e-08
3.2435888e-07
-7.659221e-08
3.2442004e-07
-7.8738012e-08
3.2439899e-07
-8.0830964e-08
3.2429513e-07
-8.2872327e-08
3.241081e-07
-8.4863322e-08
3.2383778e-07
-8.6805133e-08
3.2348423e-07
-8.8698892e-08
3.2304772e-07
-9.0545676e-08
3.2252865e-07
-9.2346506e-08
3.219276e-07
-9.4102336e-08
3.2124527e-07
-9.5814055e-08
3.2048248e-07
-9.7482483e-08
3.1964017e-07
-9.9108366e-08
3.1871935e-07
-1.0069238e-07
3.1772115e-07
-1.0223511e-07
3.1664675e-07
-1.037371e-07
3.1549739e-07
-1.0519881e-07
3.1427439e-07
-1.0662063e-07
3.1297951e-07
-1.0800327e-07
3.1161397e-07
-1.093469e-07
3.1017878e-07
-1.1065118e-07
3.0867555e-07
-1.1191622e-07
3.0710585e-07
-1.1314208e-07
3.0547136e-07
-1.1432879e-07
3.0377417e-07
-1.1547674e-07
3.0201653e-07
-1.1658625e-07
3.0019979e-07
-1.1765703e-07
2.9832542e-07
-1.1868864e-07
2.9639518e-07
-1.196809e-07
2.9441087e-07
-1.2063356e-07
2.9237432e-07
-1.2154637e-07
2.9028738e-07
-1.2241906e-07
2.881519e-07
-1.2325131e-07
2.8596977e-07
-1.240428e-07
2.8374288e-07
-1.247932e-07
2.8147313e-07
-1.2550217e-07
2.7916244e-07
-1.2616937e-07
2.7681273e-07
-1.2679444e-07
2.7442593e-07
-1.2737705e-07
2.7200398e-07
-1.2791685e-07
2.695488e-07
-1.2841353e-07
2.6706233e-07
-1.2886678e-07
2.6454652e-07
-1.2927631e-07
2.6200328e-07
-1.2964186e-07
2.5943456e-07
-1.2996318e-07
2.5684227e-07
-1.3024007e-07
2.5422833e-07
-1.3047236e-07
2.515946e-07
-1.3065991e-07
-1.3080239e-07
3.2429598e-07
-7.1052445e-08
3.2451106e-07
-7.3211827e-08
3.2463891e-07
-7.5315315e-08
3.2467904e-07
-7.7364547e-08
3.2463119e-07
-7.936106e-08
3.2449534e-07
-8.1306331e-08
3.2427168e-07
-8.3201775e-08
3.239606e-07
-8.5048745e-08
3.2356268e-07
-8.6848523e-08
3.2307862e-07
-8.860232e-08
3.2250928e-07
-9.0311272e-08
3.2185564e-07
-9.1976437e-08
3.2111879e-07
-9.3598794e-08
3.2029991e-07
-9.5179242e-08
3.1940027e-07
-9.6718599e-08
3.184212e-07
-9.8217596e-08
3.1736411e-07
-9.9676878e-08
3.1623043e-07
-1.0109702e-07
3.1502165e-07
-1.0247852e-07
3.1373966e-07
-1.0382217e-07
3.1238582e-07
-1.0512825e-07
3.1096124e-07
-1.0639653e-07
3.0946767e-07
-1.0762724e-07
3.0790689e-07
-1.0882055e-07
3.0628053e-07
-1.0997647e-07
3.0459085e-07
-1.1109555e-07
3.0284016e-07
-1.1217809e-07
3.0102988e-07
-1.1322385e-07
2.9916152e-07
-1.1423251e-07
2.972369e-07
-1.1520391e-07
2.9525786e-07
-1.1613787e-07
2.9322624e-07
-1.1703419e-07
2.911439e-07
-1.1789261e-07
2.8901273e-07
-1.1871287e-07
2.868346e-07
-1.1949468e-07
2.8461142e-07
-1.2023772e-07
2.8234507e-07
-1.2094167e-07
2.8003746e-07
-1.2160621e-07
2.7769051e-07
-1.2223099e-07
2.7530612e-07
-1.2281569e-07
2.7288621e-07
-1.2335995e-07
2.704327e-07
-1.2386346e-07
2.6794748e-07
-1.243259e-07
2.6543247e-07
-1.2474697e-07
2.6288958e-07
-1.2512638e-07
2.6032069e-07
-1.2546386e-07
2.5772771e-07
-1.2575919e-07
2.551125e-07
-1.2601215e-07
2.524769e-07
-1.2622256e-07
2.4982274e-07
-1.2639025e-07
-1.2651487e-07
3.2464374e-07
-7.0104437e-08
3.2483878e-07
-7.2161916e-08
3.2494033e-07
-7.4163699e-08
3.2494852e-07
-7.6111663e-08
3.248637e-07
-7.8007563e-08
3.2468641e-07
-7.9853062e-08
3.2441738e-07
-8.1649739e-08
3.2405749e-07
-8.3399088e-08
3.236078e-07
-8.5102514e-08
3.2306945e-07
-8.6761332e-08
3.2244372e-07
-8.8376769e-08
3.2173196e-07
-8.9949958e-08
3.2093562e-07
-9.1481945e-08
3.2005621e-07
-9.2973684e-08
3.190953e-07
-9.4426048e-08
3.1805453e-07
-9.5839797e-08
3.1693553e-07
-9.7215604e-08
3.1574e-07
-9.855407e-08
3.1446996e-07
-9.9856059e-08
3.1312691e-07
-1.0112192e-07
3.1171207e-07
-1.0235152e-07
3.1022729e-07
-1.0354524e-07
3.086745e-07
-1.0470339e-07
3.0705562e-07
-1.0582585e-07
3.0537279e-07
-1.0691341e-07
3.0362843e-07
-1.0796636e-07
3.0182399e-07
-1.0898444e-07
2.999611e-07
-1.0996743e-07
2.9804162e-07
-1.1091524e-07
2.9606743e-07
-1.1182774e-07
2.940404e-07
-1.1270475e-07
2.9196241e-07
-1.1354607e-07
2.8983536e-07
-1.1435144e-07
2.8766114e-07
-1.1512061e-07
2.8544163e-07
-1.158533e-07
2.8317874e-07
-1.1654919e-07
2.8087436e-07
-1.1720798e-07
2.785304e-07
-1.1782933e-07
2.7614874e-07
-1.1841292e-07
2.7373128e-07
-1.189584e-07
2.712799e-07
-1.1946545e-07
2.6879651e-07
-1.1993374e-07
2.6628296e-07
-1.2036297e-07
2.6374115e-07
-1.2075282e-07
2.6117292e-07
-1.2110301e-07
2.5858014e-07
-1.2141329e-07
2.5596466e-07
-1.216834e-07
2.533283e-07
-1.2191315e-07
2.5067286e-07
-1.2210233e-07
2.4800014e-07
-1.2225076e-07
-1.2235813e-07
3.2495462e-07
-6.9268273e-08
3.251175e-07
-7.1218785e-08
3.2518148e-07
-7.3114376e-08
3.2514732e-07
-7.4957135e-08
3.2501593e-07
-7.6748995e-08
3.247884e-07
-7.8491775e-08
3.2446596e-07
-8.0187187e-08
3.2405e-07
-8.1836833e-08
3.2354197e-07
-8.344221e-08
3.2294346e-07
-8.500471e-08
3.2225611e-07
-8.652562e-08
3.2148163e-07
-8.8006126e-08
3.2062178e-07
-8.9447307e-08
3.1967836e-07
-9.0850154e-08
3.1865325e-07
-9.2215582e-08
3.1754831e-07
-9.3544344e-08
3.163654e-07
-9.4837114e-08
3.1510674e-07
-9.6094833e-08
3.1377396e-07
-9.731792e-08
3.1236847e-07
-9.8506358e-08
3.1089211e-07
-9.966047e-08
3.0934714e-07
-1.0078101e-07
3.0773541e-07
-1.0186761e-07
3.0605929e-07
-1.0292116e-07
3.043212e-07
-1.0394207e-07
3.0252258e-07
-1.0492998e-07
3.0066519e-07
-1.0588481e-07
2.9875096e-07
-1.0680652e-07
2.967818e-07
-1.0769501e-07
2.9475963e-07
-1.0855013e-07
2.9268634e-07
-1.0937172e-07
2.9056384e-07
-1.1015956e-07
2.8839402e-07
-1.1091341e-07
2.8617879e-07
-1.1163301e-07
2.8392004e-07
-1.1231807e-07
2.8161966e-07
-1.1296828e-07
2.7927952e-07
-1.1358333e-07
2.7690152e-07
-1.1416289e-07
2.7448753e-07
-1.1470662e-07
2.720394e-07
-1.152142e-07
2.6955901e-07
-1.1568529e-07
2.670482e-07
-1.1611958e-07
2.6450881e-07
-1.1651673e-07
2.6194268e-07
-1.1687645e-07
2.5935163e-07
-1.1719846e-07
2.5673748e-07
-1.1748248e-07
2.5410202e-07
-1.1772828e-07
2.5144703e-07
-1.1793564e-07
2.4877428e-07
-1.1810436e-07
2.4608553e-07
-1.1823426e-07
-1.1832504e-07
3.2516151e-07
-6.8519774e-08
3.2528068e-07
-7.0359111e-08
3.2529648e-07
-7.2144873e-08
3.2521026e-07
-7.3879317e-08
3.2502348e-07
-7.556452e-08
3.2473773e-07
-7.7202421e-08
3.2435474e-07
-7.8794826e-08
3.238763e-07
-8.0343417e-08
3.2330431e-07
-8.184975e-08
3.226407e-07
-8.3315262e-08
3.2188746e-07
-8.4741275e-08
3.2104661e-07
-8.6129001e-08
3.201202e-07
-8.7479523e-08
3.1911028e-07
-8.8793833e-08
3.1801898e-07
-9.007292e-08
3.1684837e-07
-9.1317442e-08
3.1560075e-07
-9.2528329e-08
3.1427797e-07
-9.3706144e-08
3.1288163e-07
-9.4851009e-08
3.1141378e-07
-9.5963345e-08
3.0987657e-07
-9.7043582e-08
3.0827223e-07
-9.8092194e-08
3.0660303e-07
-9.9109454e-08
3.0487153e-07
-1.0009604e-07
3.0307909e-07
-1.0105147e-07
3.0122766e-07
-1.0197584e-07
2.9931922e-07
-1.0286913e-07
2.9735571e-07
-1.0373127e-07
2.9533909e-07
-1.0456215e-07
2.9327128e-07
-1.0536164e-07
2.9115419e-07
-1.0612952e-07
2.8898974e-07
-1.068656e-07
2.8677982e-07
-1.0756962e-07
2.8452633e-07
-1.0824131e-07
2.8223115e-07
-1.0888037e-07
2.7989614e-07
-1.094865e-07
2.7752318e-07
-1.1005938e-07
2.7511411e-07
-1.1059866e-07
2.7267077e-07
-1.1110402e-07
2.7019501e-07
-1.1157512e-07
2.6768864e-07
-1.1201162e-07
2.6515348e-07
-1.124132e-07
2.6259132e-07
-1.1277953e-07
2.6000395e-07
-1.1311031e-07
2.5739316e-07
-1.1340526e-07
2.547607e-07
-1.1366409e-07
2.5210833e-07
-1.1388657e-07
2.4943778e-07
-1.1407247e-07
2.4675077e-07
-1.142216e-07
2.4404901e-07
-1.1433377e-07
-1.1440868e-07
3.2521056e-07
-6.7835671e-08
3.2527529e-07
-6.9560554e-08
3.2523317e-07
-7.1233751e-08
3.2508608e-07
-7.2857646e-08
3.2483602e-07
-7.4434418e-08
3.2448504e-07
-7.5966086e-08
3.240353e-07
-7.7454521e-08
3.23489e-07
-7.8901445e-08
3.2284837e-07
-8.0308445e-08
3.221157e-07
-8.1676965e-08
3.2129326e-07
-8.3008339e-08
3.2038336e-07
-8.4303799e-08
3.1938831e-07
-8.5564393e-08
3.1831032e-07
-8.6791036e-08
3.171518e-07
-8.7984913e-08
3.1591512e-07
-8.9146602e-08
3.1460224e-07
-9.0276733e-08
3.1321505e-07
-9.1375636e-08
3.1175584e-07
-9.24439e-08
3.102266e-07
-9.348174e-08
3.0862981e-07
-9.4490002e-08
3.0696825e-07
-9.5469081e-08
3.0524387e-07
-9.6419079e-08
3.0345826e-07
-9.7339938e-08
3.0161352e-07
-9.8231731e-08
2.9971167e-07
-9.9094474e-08
2.9775472e-07
-9.9928132e-08
2.9574463e-07
-1.0073262e-07
2.9368337e-07
-1.0150782e-07
2.9157287e-07
-1.0225355e-07
2.8941503e-07
-1.0296962e-07
2.8721177e-07
-1.036558e-07
2.8496497e-07
-1.0431182e-07
2.826765e-07
-1.049374e-07
2.8034822e-07
-1.0553223e-07
2.7798197e-07
-1.0609599e-07
2.7557959e-07
-1.0662836e-07
2.731429e-07
-1.07129e-07
2.706737e-07
-1.0759755e-07
2.6817378e-07
-1.0803369e-07
2.6564493e-07
-1.0843706e-07
2.630889e-07
-1.0880733e-07
2.6050746e-07
-1.0914418e-07
2.5790235e-07
-1.094473e-07
2.5527529e-07
-1.0971639e-07
2.5262799e-07
-1.0995118e-07
2.4996216e-07
-1.1015142e-07
2.4727948e-07
-1.1031687e-07
2.4458162e-07
-1.1044734e-07
2.4187023e-07
-1.1054265e-07
-1.106025e-07
3.2505944e-07
-6.7194065e-08
3.2505999e-07
-6.8802181e-08
3.2495122e-07
-7.0361009e-08
3.2473552e-07
-7.1873012e-08
3.2441534e-07
-7.3340433e-08
3.2399316e-07
-7.4765329e-08
3.2347151e-07
-7.6149599e-08
3.2285296e-07
-7.7494976e-08
3.2214006e-07
-7.8803044e-08
3.2133535e-07
-8.0075222e-08
3.2044136e-07
-8.1312808e-08
3.1946065e-07
-8.251708e-08
3.1839568e-07
-8.3688957e-08
3.1724917e-07
-8.4829617e-08
3.1602342e-07
-8.5939883e-08
3.1472045e-07
-8.701999e-08
3.1334244e-07
-8.8070742e-08
3.1189179e-07
-8.909271e-08
3.1037103e-07
-9.0086152e-08
3.0878255e-07
-9.1052048e-08
3.071291e-07
-9.1990816e-08
3.0541242e-07
-9.2902294e-08
3.0363444e-07
-9.3786611e-08
3.0179729e-07
-9.4643878e-08
2.9990302e-07
-9.5474128e-08
2.9795369e-07
-9.6277349e-08
2.9595132e-07
-9.7053477e-08
2.9389786e-07
-9.7802405e-08
2.9179528e-07
-9.8523981e-08
2.896455e-07
-9.9218017e-08
2.8745042e-07
-9.9884291e-08
2.8521192e-07
-1.0052255e-07
2.8293186e-07
-1.0113251e-07
2.806121e-07
-1.0171389e-07
2.7825444e-07
-1.0226635e-07
2.758607e-07
-1.0278956e-07
2.7343268e-07
-1.0328319e-07
2.7097215e-07
-1.0374689e-07
2.6848088e-07
-1.0418029e-07
2.6596061e-07
-1.0458305e-07
2.6341307e-07
-1.0495482e-07
2.6083998e-07
-1.0529526e-07
2.5824304e-07
-1.0560404e-07
2.5562394e-07
-1.0588083e-07
2.5298436e-07
-1.0612534e-07
2.5032596e-07
-1.0633729e-07
2.4765037e-07
-1.0651642e-07
2.4495924e-07
-1.066625e-07
2.4225416e-07
-1.0677531e-07
2.3953676e-07
-1.0685468e-07
-1.0690032e-07
3.2467574e-07
-6.657475e-08
3.2460353e-07
-6.806477e-08
3.2442054e-07
-6.950836e-08
3.2412961e-07
-7.0908022e-08
3.2373358e-07
-7.2266012e-08
3.2323533e-07
-7.3584391e-08
3.226377e-07
-7.4865052e-08
3.2194357e-07
-7.6109705e-08
3.2115575e-07
-7.731991e-08
3.2027705e-07
-7.8497033e-08
3.1931013e-07
-7.9642254e-08
3.1825781e-07
-8.0756997e-08
3.1712293e-07
-8.1842144e-08
3.1590779e-07
-8.2898454e-08
3.1461469e-07
-8.3926628e-08
3.1324617e-07
-8.4927181e-08
3.1180449e-07
-8.5900676e-08
3.1029224e-07
-8.6847965e-08
3.0871274e-07
-8.7769554e-08
3.0706796e-07
-8.8666047e-08
3.0535973e-07
-8.9537124e-08
3.0359021e-07
-9.0383074e-08
3.0176159e-07
-9.1204006e-08
2.9987596e-07
-9.1999971e-08
2.9793542e-07
-9.2770965e-08
2.95942e-07
-9.3516937e-08
2.938977e-07
-9.4237791e-08
2.9180448e-07
-9.4933387e-08
2.8966429e-07
-9.5603543e-08
2.8747901e-07
-9.6248046e-08
2.8525052e-07
-9.6866647e-08
2.8298067e-07
-9.7459071e-08
2.8067129e-07
-9.802502e-08
2.7832419e-07
-9.8564176e-08
2.7594114e-07
-9.9076202e-08
2.7352392e-07
-9.9560751e-08
2.7107427e-07
-1.0001747e-07
2.6859392e-07
-1.0044599e-07
2.6608459e-07
-1.0084595e-07
2.6354796e-07
-1.0121699e-07
2.6098573e-07
-1.0155874e-07
2.5839954e-07
-1.0187087e-07
2.5579106e-07
-1.0215302e-07
2.5316191e-07
-1.0240488e-07
2.5051371e-07
-1.0262613e-07
2.4784807e-07
-1.0281649e-07
2.4516658e-07
-1.029757e-07
2.4247081e-07
-1.0310351e-07
2.3976231e-07
-1.0319972e-07
2.3704264e-07
-1.0326414e-07
-1.0329645e-07
3.2403558e-07
-6.5959452e-08
3.2388328e-07
-6.7331017e-08
3.2361971e-07
-6.8659422e-08
3.2324812e-07
-6.9947159e-08
3.2277169e-07
-7.1196453e-08
3.2219361e-07
-7.2409333e-08
3.2151702e-07
-7.3587658e-08
3.2074499e-07
-7.4733061e-08
3.1988059e-07
-7.5847076e-08
3.1892676e-07
-7.693095e-08
3.1788667e-07
-7.7986071e-08
3.1676297e-07
-7.9013429e-08
3.1555816e-07
-8.0013642e-08
3.142748e-07
-8.0987611e-08
3.1291568e-07
-8.1936035e-08
3.1148319e-07
-8.285931e-08
3.099803e-07
-8.3758569e-08
3.0840999e-07
-8.4634275e-08
3.0677434e-07
-8.5486463e-08
3.0507522e-07
-8.6315451e-08
3.0331499e-07
-8.7121344e-08
3.0149583e-07
-8.7904267e-08
2.996199e-07
-8.8664288e-08
2.9768931e-07
-8.9401411e-08
2.9570611e-07
-9.0115586e-08
2.9367232e-07
-9.0806721e-08
2.9158993e-07
-9.1474678e-08
2.8946086e-07
-9.2119281e-08
2.8728702e-07
-9.2740317e-08
2.8507027e-07
-9.3337539e-08
2.8281245e-07
-9.3910673e-08
2.8051536e-07
-9.4459419e-08
2.781808e-07
-9.4983454e-08
2.7581051e-07
-9.548244e-08
2.7340623e-07
-9.5956021e-08
2.7096968e-07
-9.6403835e-08
2.6850255e-07
-9.6825507e-08
2.6600653e-07
-9.7220663e-08
2.6348326e-07
-9.7588925e-08
2.6093439e-07
-9.792992e-08
2.5836154e-07
-9.8243277e-08
2.5576632e-07
-9.8528637e-08
2.5315032e-07
-9.8785653e-08
2.5051512e-07
-9.901399e-08
2.4786227e-07
-9.9213335e-08
2.4519333e-07
-9.9383394e-08
2.4250983e-07
-9.9523897e-08
2.398133e-07
-9.96346e-08
2.3710521e-07
-9.9715292e-08
2.343871e-07
-9.97658e-08
3.2312235e-07
-6.5331968e-08
3.2288392e-07
-6.6585661e-08
3.2253469e-07
-6.7799814e-08
3.2207822e-07
-6.897687e-08
3.2151801e-07
-7.0118977e-08
3.2085746e-07
-7.1228082e-08
3.2009999e-07
-7.2306041e-08
3.1924881e-07
-7.3354285e-08
3.1830719e-07
-7.4374376e-08
3.172784e-07
-7.5367581e-08
3.1616524e-07
-7.6334875e-08
3.1497024e-07
-7.7276885e-08
3.1369656e-07
-7.8194828e-08
3.1234665e-07
-7.908901e-08
3.1092343e-07
-7.9960553e-08
3.0943035e-07
-8.0810016e-08
3.0786965e-07
-8.1638011e-08
3.0624344e-07
-8.2444412e-08
3.045541e-07
-8.3229636e-08
3.0280389e-07
-8.3993892e-08
3.0099507e-07
-8.4737269e-08
2.9912982e-07
-8.5459825e-08
2.9721027e-07
-8.6161565e-08
2.9523851e-07
-8.684244e-08
2.9321656e-07
-8.7502353e-08
2.911464e-07
-8.8141163e-08
2.8902998e-07
-8.8758692e-08
2.8686918e-07
-8.9354722e-08
2.8466586e-07
-8.9929005e-08
2.8242184e-07
-9.0481263e-08
2.8013891e-07
-9.1011189e-08
2.7781882e-07
-9.1518457e-08
2.7546331e-07
-9.2002721e-08
2.7307408e-07
-9.2463618e-08
2.7065282e-07
-9.2900775e-08
2.6820117e-07
-9.3313809e-08
2.6572078e-07
-9.3702331e-08
2.6321327e-07
-9.406595e-08
2.6068023e-07
-9.4404277e-08
2.5812325e-07
-9.4716924e-08
2.555439e-07
-9.5003511e-08
2.5294371e-07
-9.526367e-08
2.5032423e-07
-9.5497044e-08
2.4768696e-07
-9.570329e-08
2.4503341e-07
-9.5882088e-08
2.4236508e-07
-9.6033137e-08
2.3968344e-07
-9.6156165e-08
2.3698995e-07
-9.6250933e-08
2.3428607e-07
-9.6317226e-08
-9.6354721e-08
3.2192564e-07
-6.4678232e-08
3.2159638e-07
-6.581553e-08
3.2115765e-07
-6.6917191e-08
3.206133e-07
-6.7985581e-08
3.1996706e-07
-6.9022731e-08
3.1922248e-07
-7.0030424e-08
3.1838316e-07
-7.1010546e-08
3.1745273e-07
-7.1964538e-08
3.1643422e-07
-7.2893438e-08
3.1533067e-07
-7.3798418e-08
3.1414505e-07
-7.4680463e-08
3.1288032e-07
-7.5540213e-08
3.1153968e-07
-7.6378681e-08
3.1012605e-07
-7.7196671e-08
3.0864263e-07
-7.7994899e-08
3.0709164e-07
-7.8773313e-08
3.0547531e-07
-7.953247e-08
3.037962e-07
-8.0272524e-08
3.0205665e-07
-8.0993686e-08
3.0025892e-07
-8.1696094e-08
2.9840524e-07
-8.237979e-08
2.9649775e-07
-8.3044767e-08
2.9453854e-07
-8.3690969e-08
2.9252966e-07
-8.4318291e-08
2.9047307e-07
-8.4926582e-08
2.8837071e-07
-8.5515656e-08
2.8622447e-07
-8.6085286e-08
2.8403619e-07
-8.6635216e-08
2.8180767e-07
-8.7165159e-08
2.7954068e-07
-8.7674802e-08
2.7723693e-07
-8.8163809e-08
2.7489815e-07
-8.8631824e-08
2.7252598e-07
-8.9078477e-08
2.7012209e-07
-8.9503381e-08
2.6768809e-07
-8.9906142e-08