/*--------------------------------*- C++ -*----------------------------------*\
| =========                 |                                                 |
| \\      /  F ield         | OpenFOAM: The Open Source CFD Toolbox           |
|  \\    /   O peration     | Version:  2312                                  |
|   \\  /    A nd           | Website:  www.openfoam.com                      |
|    \\/     M anipulation  |                                                 |
\*---------------------------------------------------------------------------*/
FoamFile
{
    version     2.0;
    format      ascii;
    arch        "LSB;label=32;scalar=64";
    class       volScalarField;
    location    "0.1";
    object      T;
}
// * * * * * * * * * * * * * * * * * * * * * * * * * * * * * * * * * * * * * //

dimensions      [0 0 0 1 0 0 0];

internalField   nonuniform List<scalar> 
3272
(
397.56212
398.87434
400.1411
401.36158
402.53541
403.66231
404.74207
405.7745
406.75949
407.69692
408.58672
409.42885
410.22329
410.97004
411.66913
412.32062
412.92457
413.48107
413.99024
414.4522
414.8671
415.2351
415.55641
415.83123
416.05979
416.24237
416.37664
416.46627
416.5122
416.51352
416.47119
416.38463
416.25612
416.08261
415.86591
415.6071
415.30672
414.96537
414.58369
414.16233
413.702
413.20344
412.66742
412.09477
411.48633
410.843
410.1657
409.4554
408.71311
407.93988
407.13683
406.30515
405.44611
398.26823
399.57978
400.84526
402.06394
403.23551
404.35971
405.43637
406.46534
407.44651
408.37978
409.26512
410.1025
410.89191
411.63338
412.32696
412.97271
413.57071
414.12107
414.62392
415.07939
415.48765
415.84887
416.16324
416.43099
416.65234
416.82759
416.95457
417.03684
417.07531
417.06914
417.01928
416.92496
416.78872
416.60705
416.38246
416.1157
415.80734
415.45798
415.06825
414.63882
414.1704
413.66373
413.11959
412.5388
411.92222
411.27073
410.58526
409.86678
409.11629
408.33479
407.52336
406.68314
405.81574
399.60143
400.91032
402.17226
403.38654
404.55289
405.67112
406.74109
407.76269
408.73585
409.66055
410.53675
411.36447
412.14376
412.87465
413.55724
414.19162
414.77789
415.3162
415.8067
416.24954
416.6449
416.99299
417.29401
417.54817
417.75568
417.91682
418.02987
418.09824
418.12243
418.10198
418.03758
417.92969
417.77793
417.58123
417.34179
417.06013
416.73682
416.37247
415.96772
415.52324
415.03974
414.51798
413.95873
413.36283
412.73113
412.06453
411.36396
410.63039
409.86481
409.06825
408.24179
407.38659
406.50432
401.49305
402.79659
404.05196
405.25852
406.41606
407.52445
408.58362
409.59353
410.55416
411.46554
412.3277
413.14071
413.90466
414.61966
415.28581
415.90327
416.47218
416.99271
417.46506
417.88941
418.26599
418.59502
418.87672
419.11131
419.29889
419.43951
419.5326
419.58143
419.58522
419.54469
419.45955
419.33144
419.15789
418.94034
418.67999
418.37736
418.03305
417.64766
417.22185
416.75629
416.2517
415.70885
415.12852
414.51155
413.8588
413.17118
412.44962
411.6951
410.90862
410.09122
409.24398
408.3681
407.46527
403.88128
405.17595
406.42098
407.6158
408.7603
409.85443
410.8982
411.89166
412.83486
413.7279
414.57089
415.36397
416.10728
416.80098
417.44527
418.04032
418.58634
419.08355
419.53218
419.93246
420.28465
420.589
420.8458
421.05527
421.21757
421.33137
421.39965
421.42312
421.40134
421.33497
421.22463
421.06969
420.8693
420.62554
420.33895
420.01006
419.63948
419.22782
418.77574
418.28393
417.75311
417.18406
416.57757
415.93448
415.25565
414.54202
413.79451
413.01411
412.20183
411.35873
410.4859
409.58454
408.65638
406.70998
407.99147
409.22164
410.40005
411.52668
412.60159
413.62491
414.59676
415.5173
416.38672
417.2052
417.97297
418.69025
419.35727
419.97427
420.54151
421.05925
421.52776
421.94731
422.3182
422.64071
422.91515
423.14189
423.32136
423.45137
423.53524
423.57383
423.56675
423.51478
423.41724
423.2766
423.08943
422.85816
422.58352
422.26606
421.90633
421.50495
421.06252
420.57973
420.05726
419.49585
418.89628
418.25933
417.58587
416.87677
416.13294
415.35534
414.54496
413.70282
412.82999
411.92757
410.99678
410.03935
409.92754
411.19078
412.4009
413.55761
414.66101
415.71129
416.70869
417.65345
418.54583
419.38613
420.17463
420.91163
421.59745
422.23238
422.81676
423.3509
423.83512
424.26975
424.65512
424.99155
425.27937
425.51892
425.71051
425.85443
425.94938
425.99883
426.00237
425.96062
425.87332
425.74198
425.56444
425.34195
425.07566
424.76608
424.41376
424.01926
423.58319
423.10619
422.58892
422.03209
421.43643
420.80272
420.13176
419.42441
418.68155
417.90409
417.093
416.24928
415.37395
414.46808
413.5328
412.56935
411.57947
413.48602
414.72526
415.90955
417.03875
418.11311
419.13296
420.09866
421.01059
421.86913
422.67468
423.42763
424.12837
424.77732
425.37485
425.92137
426.41727
426.86294
427.25876
427.6051
427.90235
428.15087
428.35104
428.50322
428.60617
428.66277
428.67345
428.63832
428.55765
428.43231
428.26079
428.04374
427.78254
427.47768
427.12969
426.73911
426.30651
425.83251
425.31774
424.76287
424.1686
423.53567
422.86486
422.15697
421.41286
420.63342
419.81956
418.97224
418.09247
417.18128
416.23974
415.26898
414.2703
413.24549
417.34047
418.54942
419.70161
420.79707
421.83622
422.81956
423.74757
424.62077
425.43968
426.2048
426.91663
427.57568
428.18244
428.73739
429.241
429.69374
430.09606
430.4484
430.7512
431.00487
431.20984
431.3665
431.47357
431.53392
431.54817
431.5163
431.43891
431.31637
431.14765
430.93298
430.6739
430.3709
430.02448
429.63516
429.20348
428.73003
428.2154
427.66024
427.0652
426.431
425.75837
425.04809
424.30095
423.51782
422.69957
421.84712
420.96144
420.04351
419.09438
418.1151
417.10684
416.07096
415.00998
421.44849
422.62041
423.73386
424.78906
425.78662
426.72719
427.6114
428.43993
429.2134
429.93245
430.5977
431.20975
431.76918
432.27656
432.73244
433.13737
433.49185
433.79638
434.05145
434.25752
434.41504
434.52267
434.58339
434.59784
434.56603
434.48857
434.36586
434.19686
433.98173
433.72204
433.41827
433.07089
432.68041
432.24735
431.77226
431.2557
430.69829
430.10064
429.46342
428.78733
428.07309
427.32149
426.53331
425.70941
424.85067
423.95799
423.03234
422.07471
421.08611
420.0676
419.02027
425.76987
426.89773
427.96557
428.97385
429.92333
430.81482
431.64915
432.4271
433.14944
433.81693
434.4303
434.99025
435.49744
435.95255
436.35618
436.70895
437.01144
437.26419
437.46773
437.62256
437.72737
437.78512
437.79648
437.76158
437.68101
437.55518
437.38292
437.16463
436.90174
436.59473
436.24405
435.85019
435.41364
434.93492
434.41457
433.85315
433.25126
432.60952
431.92857
431.20911
430.45185
429.65757
428.82704
427.96112
427.06067
426.1266
425.15987
424.16145
423.13239
422.07381
420.98734
430.26646
431.34306
432.35836
433.313
434.20793
435.04414
435.8226
436.54424
437.20996
437.82064
438.37709
438.88013
439.33051
439.72895
440.07617
440.37283
440.61955
440.81694
440.96557
441.06421
441.11581
441.12083
441.07978
440.99301
440.86128
440.68288
440.45881
440.19025
439.87763
439.52142
439.12207
438.68007
438.19588
437.67003
437.10303
436.49544
435.84784
435.16083
434.43505
433.67117
432.86992
432.03202
431.15827
430.24949
429.30655
428.33034
427.32182
426.28198
425.21184
424.11256
422.98582
434.90201
435.92019
436.87605
437.77045
438.60453
439.37944
440.09629
440.75616
441.36006
441.90897
442.40383
442.84551
443.23486
443.57266
443.85967
444.09665
444.28427
444.42316
444.51229
444.55448
444.55025
444.5
444.40391
444.26352
444.0762
443.84381
443.56714
443.24663
442.88274
442.4759
442.02655
441.53516
441.0022
440.42815
439.81352
439.15885
438.4647
437.73166
436.96034
436.15141
435.30555
434.42351
433.50603
432.55395
431.5681
430.54939
429.49874
428.41715
427.30564
426.16536
424.99797
439.64221
440.59493
441.48468
442.31249
443.07969
443.78758
444.43742
445.0304
445.56766
446.05027
446.47925
446.85555
447.18008
447.45367
447.67712
447.85131
447.97691
448.05311
448.08276
448.06612
448.00401
447.8954
447.74365
447.54466
447.3014
447.01424
446.68361
446.30993
445.89362
445.43512
444.93484
444.39322
443.81071
443.18779
442.52494
441.82266
441.08149
440.30201
439.48481
438.63053
437.73984
436.81344
435.85209
434.85658
433.82776
432.76648
431.67369
430.55035
429.39748
428.21623
427.00822
444.45469
445.33524
446.1525
446.90772
447.6024
448.23796
448.81581
449.33723
449.80348
450.2157
450.57498
450.88235
451.13877
451.34509
451.50194
451.61073
451.67068
451.68439
451.65215
451.57471
451.45249
451.28508
451.07223
450.81556
450.51553
450.17253
449.78698
449.35927
448.88981
448.37899
447.82721
447.23489
446.60244
445.93032
445.21897
444.46889
443.68058
442.85459
441.99148
441.09187
440.1564
439.18577
438.18069
437.14194
436.07034
434.96674
433.83206
432.66725
431.47332
430.2514
429.0031
449.30914
450.11117
450.85003
451.52713
452.14411
452.70253
453.20389
453.64959
454.04095
454.3792
454.66548
454.90084
455.08642
455.22314
455.31014
455.3509
455.34545
455.29464
455.19897
455.05938
454.87411
454.64474
454.37221
454.05695
453.69937
453.29987
452.85882
452.37661
451.8536
451.29017
450.68667
450.0435
449.36104
448.6397
447.87992
447.08215
446.24685
445.37456
444.4658
443.52116
442.54126
441.52676
440.47836
439.3968
438.28289
437.13745
435.96138
434.75562
433.52115
432.25911
430.97108
454.17731
454.89504
455.5501
456.14408
456.67874
457.15574
457.57667
457.94303
458.25618
458.51744
458.72794
458.88857
459.00104
459.06461
459.08197
459.05402
458.98135
458.86444
458.70436
458.4985
458.25003
457.95915
457.62632
457.25194
456.8364
456.38008
455.88333
455.34648
454.76987
454.15383
453.4987
452.80484
452.07258
451.30231
450.49443
449.64933
448.76749
447.84935
446.89545
445.90633
444.88257
443.82481
442.73372
441.61002
440.45447
439.26789
438.05115
436.80514
435.53087
434.22941
432.90239
459.03314
459.66137
460.22786
460.73433
461.18265
461.57456
461.91172
462.19567
462.42785
462.6097
462.74246
462.82549
462.86251
462.85376
462.7996
462.70207
462.56132
462.37612
462.14799
461.87772
461.56598
461.21319
460.81978
460.38612
459.91257
459.39945
458.84708
458.25576
457.6258
456.95747
456.25109
455.50696
454.72539
453.90671
453.05129
452.1595
451.23175
450.26847
449.27015
448.2373
447.17046
446.07025
444.9373
443.77229
442.57598
441.34914
440.0926
438.80726
437.49405
436.15404
434.78884
463.85282
464.38701
464.86081
465.27604
465.63465
465.93843
466.18905
466.38818
466.53704
466.63754
466.68947
466.69557
466.65671
466.57408
466.44799
466.27975
466.06727
465.8136
465.51898
465.18386
464.80875
464.39405
463.94015
463.44738
462.91605
462.34645
461.73887
461.09354
460.41074
459.6907
458.93369
458.13995
457.30978
456.44345
455.54128
454.60361
453.63081
452.62327
451.58144
450.50578
449.39682
448.25513
447.0813
445.876
444.63994
443.37387
442.07859
440.75496
439.40389
438.02631
468.61479
469.05111
469.42879
469.74973
470.01594
470.22922
470.39107
470.50378
470.5671
470.58439
470.55652
470.48469
470.36894
470.21235
470.01171
469.77026
469.48826
469.1665
468.80547
468.40561
467.96736
467.49107
466.97707
466.42566
465.8371
465.21164
464.54949
463.85087
463.11598
462.34503
461.53822
460.69577
459.8179
458.90486
457.95692
456.97437
455.95753
454.90678
453.82249
452.70511
451.55513
450.37306
449.15949
447.91503
446.64037
445.33622
444.00338
442.64267
441.25504
439.84182
473.29977
473.63513
473.91397
474.13822
474.31003
474.43128
474.5021
474.52642
474.50534
474.43894
474.33046
474.18011
473.98693
473.75281
473.47887
473.16585
472.8143
472.42478
471.99775
471.53364
471.03279
470.49553
469.92213
469.31282
468.66784
467.98735
467.27153
466.52055
465.73455
464.91369
464.05812
463.16801
462.24353
461.28488
460.2923
459.26601
458.20631
457.11351
455.98797
454.83008
453.64028
452.41907
451.16698
449.8846
448.57258
447.23161
445.86245
444.46591
443.04296
441.59499
477.89074
478.12277
478.30077
478.42652
478.50252
478.52938
478.51048
478.44605
478.33942
478.19048
478.00027
477.76848
477.49772
477.18851
476.84157
476.45754
476.03696
475.58032
475.08802
474.56043
473.99783
473.4005
472.76864
472.10244
471.40205
470.66761
469.89922
469.097
468.26105
467.39145
466.48831
465.55175
464.58189
463.57889
462.54292
461.47417
460.37288
459.23933
458.07382
456.87672
455.64841
454.38937
453.10008
451.7811
450.43305
449.05658
447.65241
446.22134
444.76428
443.28261
482.3729
482.4999
482.57593
482.60166
482.58127
482.51431
482.40494
482.25289
482.06046
481.82593
481.55336
481.24282
480.89536
480.51169
480.09247
479.63826
479.14954
478.62673
478.07017
477.48014
476.8569
476.20063
475.51149
474.7896
474.03504
473.24789
472.42822
471.57605
470.69144
469.77443
468.82506
467.8434
466.82952
465.78351
464.70551
463.59567
462.45417
461.28124
460.07715
458.84221
457.57679
456.28129
454.95618
453.60199
452.21928
450.80869
449.3709
447.90665
446.41676
486.73369
486.75424
486.72787
486.65387
486.53729
486.37745
486.17771
485.93543
485.65579
485.3386
484.9853
484.59664
484.17341
483.7163
483.22586
482.70259
482.14691
481.55914
480.93958
480.28843
479.60586
478.89201
478.14695
477.37075
476.56343
475.72499
474.85545
473.95477
473.02295
472.05996
471.06581
470.04049
468.98403
467.89648
466.77791
465.62842
464.44815
463.23728
461.99605
460.72472
459.42361
458.09309
456.73359
455.3456
453.92966
452.48636
451.01638
449.52046
447.99972
490.96239
490.87666
490.74814
490.57576
490.36346
490.10835
489.81634
489.4871
489.12244
488.72322
488.29041
487.82479
487.32706
486.7978
486.2375
485.64658
485.02535
484.3741
483.69301
482.98223
482.24186
481.47195
480.67252
479.84355
478.98501
478.09684
477.17897
476.23133
475.25384
474.24643
473.20903
472.14159
471.04408
469.91649
468.75886
467.57122
466.35369
465.10638
463.82949
462.52324
461.18792
459.82384
458.43142
457.01109
455.56335
454.08879
452.58803
451.06184
449.51137
495.0507
494.86083
494.63056
494.35742
494.04758
493.70077
493.31912
492.9036
492.45541
491.97548
491.46462
490.92355
490.35286
489.75303
489.12448
488.46753
487.78243
487.06935
486.32841
485.55968
484.76318
483.9389
483.08676
482.2067
481.29861
480.36236
479.39782
478.40486
477.38333
476.33311
475.25406
474.1461
473.00912
471.84308
470.64794
469.42372
468.17045
466.88823
465.57719
464.23753
462.86948
461.47333
460.04945
458.59824
457.12017
455.61578
454.08567
452.53054
450.95152
498.99336
498.69673
498.36343
497.99335
497.58889
497.15118
496.68165
496.18136
495.65133
495.09238
494.50522
493.89047
493.24862
492.58005
491.88508
491.16394
490.41679
489.64372
488.84477
488.01991
487.16911
486.29225
485.38921
484.45983
483.50394
482.52136
481.51188
480.4753
479.41143
478.32007
477.20104
476.05419
474.87937
473.67648
472.44543
471.18619
469.89875
468.58315
467.23951
465.86794
464.46867
463.04194
461.58808
460.10745
458.60051
457.06774
455.5097
453.927
502.77923
502.37989
501.94661
501.48062
500.98355
500.45668
499.90117
499.31803
498.70811
498.07212
497.41068
496.72426
496.01326
495.27797
494.5186
493.73528
492.92807
492.09699
491.24199
490.36295
489.45976
488.53223
487.58016
486.60332
485.60148
484.57437
483.52173
482.44331
481.33883
480.20805
479.05073
477.86667
476.65565
475.41754
474.15218
472.85951
471.53947
470.19205
468.81732
467.41538
465.98638
464.53055
463.04817
461.5396
460.00522
458.44552
456.86106
455.25263
506.40857
505.90785
505.37684
504.81689
504.22938
503.61548
502.97619
502.31239
501.6248
500.91401
500.18049
499.42462
498.64668
497.84685
497.02524
496.18188
495.31675
494.42975
493.52076
492.58958
491.63601
490.65979
489.66064
488.63826
487.59234
486.52257
485.4286
484.31012
483.1668
481.99835
480.80445
479.58486
478.33931
477.0676
475.76956
474.44504
473.09396
471.71627
470.31198
468.88116
467.42393
465.94047
464.43103
462.89594
461.33556
459.75035
458.14086
456.50792
509.87864
509.27874
508.65241
508.0009
507.32538
506.62689
505.90628
505.16427
504.40144
503.61826
502.81507
501.99213
501.1496
500.28755
499.40599
498.50485
497.584
496.64327
495.68244
494.70123
493.69935
492.67647
491.63223
490.56627
489.4782
488.36764
487.2342
486.07748
484.89711
483.69272
482.46397
481.21054
479.93212
478.62845
477.29932
475.94454
474.56398
473.15754
471.7252
470.26699
468.78298
467.27334
465.73828
464.17807
462.59309
460.98374
459.35058
457.69439
513.18818
512.49177
511.77283
511.03244
510.27162
509.49122
508.69195
507.87437
507.03892
506.18593
505.31562
504.42812
503.52347
502.60163
501.6625
500.70591
499.73165
498.73943
497.72896
496.69987
495.65179
494.58432
493.49702
492.38946
491.26118
490.11174
488.94068
487.74754
486.5319
485.29334
484.03144
482.74585
481.4362
480.1022
478.74358
477.36009
475.95158
474.5179
473.059
471.57485
470.06552
468.53111
466.97181
465.38788
463.77964
462.1475
460.49196
458.81379
516.33712
515.54716
514.73856
513.91224
513.06903
512.20961
511.33452
510.44418
509.53887
508.61879
507.68402
506.73456
505.77034
504.79122
503.79697
502.78734
501.76199
500.72059
499.66271
498.58793
497.49579
496.38581
495.25749
494.11032
492.94378
491.75735
490.55052
489.32279
488.07366
486.80265
485.50931
484.19322
482.85398
481.49124
480.10468
478.69403
477.25908
475.79964
474.31563
472.80698
471.27372
469.71593
468.13376
466.52744
464.89728
463.24364
461.56701
459.8681
519.32634
518.44604
517.55097
516.64186
515.71936
514.78396
513.83604
512.87586
511.90357
510.91919
509.9227
508.91397
507.89281
506.85895
505.81208
504.75183
503.67779
502.5895
501.48648
500.36821
499.23415
498.08375
496.91644
495.73164
494.52877
493.30725
492.06651
490.80597
489.5251
488.22337
486.90026
485.55531
484.18808
482.79817
481.38521
479.9489
478.48898
477.00524
475.49753
473.96578
472.40996
470.83013
469.22642
467.59901
465.9482
464.27433
462.57784
460.85943
522.15755
521.19035
520.21217
519.22357
518.225
517.21679
516.19913
515.17213
514.13579
513.09
512.0346
510.96932
509.89387
508.80787
507.7109
506.60248
505.48212
504.34927
503.20336
502.04379
500.86995
499.68122
498.47694
497.25649
496.01921
494.76446
493.49161
492.20005
490.88917
489.55839
488.20717
486.83497
485.44132
484.02576
482.58791
481.12741
479.64395
478.13731
476.60729
475.05378
473.47674
471.87617
470.25219
468.60497
466.93474
465.24185
463.52672
461.79
524.83322
523.78269
522.72491
521.66023
520.58893
519.51114
518.42691
517.33618
516.23879
515.1345
514.02301
512.90394
511.77688
510.64133
509.49678
508.34265
507.17835
506.00325
504.81669
503.61801
502.40651
501.18149
499.94225
498.68808
497.41828
496.13214
494.82898
493.50813
492.16893
490.81077
489.43302
488.03515
486.6166
485.1769
483.71562
482.23234
480.72676
479.19857
477.64758
476.07363
474.47665
472.85661
471.2136
469.54776
467.85933
466.1486
464.41598
462.66208
527.35642
526.22626
525.09247
523.95521
522.81457
521.67052
520.52293
519.37157
518.21615
517.05629
515.89156
514.72147
513.54546
512.36296
511.17334
509.97593
508.77005
507.55499
506.33001
505.09436
503.84728
502.588
501.31577
500.02979
498.72932
497.41359
496.08187
494.73343
493.36757
491.98362
490.58094
489.1589
487.71695
486.25456
484.77125
483.2666
481.74023
480.19183
478.62116
477.02803
475.41234
473.77405
472.11321
470.42993
468.72442
466.99698
465.24799
463.47802
529.73075
528.52474
527.31859
526.11229
524.90576
523.69877
522.49104
521.28219
520.07177
518.85927
517.64413
516.42574
515.20345
513.97657
512.74436
511.50608
510.26096
509.00819
507.74696
506.47646
505.19586
503.90431
502.601
501.28509
499.95575
498.61219
497.25361
495.87924
494.48833
493.08016
491.65405
490.20934
488.74543
487.26175
485.75779
484.23309
482.68724
481.1199
479.53079
477.91971
476.28651
474.63114
472.9536
471.254
469.53253
467.78946
466.02516
464.24019
535.81516
534.52684
533.24179
531.96031
530.6822
529.40736
528.1356
526.86662
525.60004
524.33539
523.07215
521.80974
520.54751
519.28477
518.02081
516.75486
515.48612
514.21378
512.937
511.65491
510.36665
509.07132
507.76804
506.45591
505.13403
503.80152
502.45748
501.10105
499.73136
498.34758
496.94888
495.53448
494.10361
492.65554
491.18959
489.7051
488.20149
486.6782
485.13474
483.57067
481.98562
480.37928
478.75141
477.10185
475.43051
473.73738
472.02253
470.28614
468.52848
466.74991
464.95094
538.13087
536.76315
535.40269
534.0494
532.70301
531.36319
530.02952
528.70153
527.37867
526.0603
524.74577
523.43434
522.12524
520.81768
519.51081
518.20377
516.89567
515.5856
514.27262
512.95581
511.63422
510.30687
508.97283
507.63112
506.2808
504.92091
503.55052
502.1687
500.77454
499.36716
497.94569
496.5093
495.05718
493.58858
492.10277
490.59906
489.07682
487.53547
485.97449
484.39341
482.79182
481.1694
479.52587
477.86105
476.17481
474.46713
472.73806
470.98776
469.21649
467.42462
465.61263
540.29838
538.85553
537.42373
536.00264
534.5918
533.19066
531.79863
530.41505
529.03918
527.67026
526.30747
524.94995
523.59681
522.24713
520.89998
519.55437
518.20933
516.86387
515.51697
514.16761
512.81478
511.45746
510.09461
508.72522
507.34828
505.96278
504.56774
503.16218
501.74515
500.31571
498.87297
497.41605
495.9441
494.45633
492.95198
491.43033
489.89072
488.33254
486.75522
485.15828
483.54129
481.90389
480.24578
478.56674
476.86664
475.14542
473.4031
471.63983
469.85589
468.05166
466.22759
542.32257
540.80885
539.30982
537.82488
536.35337
534.89457
533.44767
532.01184
530.5862
529.16982
527.76176
526.36102
524.96659
523.57746
522.19257
520.81085
519.43125
518.05267
516.67403
515.29425
513.91223
512.52688
511.13712
509.74188
508.34009
506.93069
505.51265
504.08494
502.64658
501.19658
499.73401
498.25795
496.76753
495.26191
493.74029
492.20194
490.64616
489.07231
487.4798
485.86811
484.2368
482.58546
480.9138
479.22155
477.50857
475.77476
474.02013
472.24479
470.44905
468.63336
466.7981
544.20858
542.62822
541.066
539.52111
537.99268
536.47978
534.98145
533.49667
532.02442
530.56362
529.11319
527.67203
526.23901
524.81299
523.39285
521.97741
520.56553
519.15605
517.74781
516.33964
514.9304
513.51893
512.1041
510.68477
509.25982
507.82816
506.3887
504.94039
503.48217
502.01304
500.53203
499.03817
497.53057
496.00836
494.4707
492.91684
491.34603
489.75763
488.15101
486.52563
484.88102
483.21676
481.53252
479.82803
478.10311
476.35763
474.59157
472.80499
470.99828
469.17203
467.32643
545.9617
544.31887
542.69745
541.09644
539.51475
537.95126
536.40485
534.87434
533.35856
531.85629
530.36633
528.88746
527.41845
525.95806
524.50507
523.05822
521.61629
520.17803
518.74223
517.30766
515.87309
514.43733
512.99918
511.55746
510.111
508.65866
507.19931
505.73185
504.2552
502.76832
501.27018
499.75982
498.23628
496.69867
495.14615
493.57789
491.99317
490.39128
488.77159
487.13353
485.4766
483.80038
482.1045
480.38868
478.6527
476.89643
475.11979
473.32277
547.58731
545.8861
544.20941
542.55601
540.92463
539.31398
537.72276
536.14965
534.59332
533.05245
531.52571
530.01177
528.50929
527.01695
525.53342
524.05739
522.58754
521.12257
519.66119
518.2021
516.74404
515.28575
513.82597
512.36349
510.89709
509.42558
507.9478
506.4626
504.96888
503.46555
501.95156
500.42591
498.88762
497.33577
495.76948
494.18792
492.59032
490.97596
489.34418
487.6944
486.0261
484.33882
482.63218
480.9059
479.15972
477.3935
475.60713
549.09087
547.33528
545.60713
543.90499
542.2274
540.57291
538.94005
537.32736
535.73339
534.15669
532.59582
531.04934
529.51582
527.99386
526.48204
524.97896
523.48326
521.99355
520.50848
519.02671
517.5469
516.06776
514.58798
513.10629
511.62145
510.13222
508.63739
507.13581
505.62631
504.10778
502.57916
501.03939
499.48748
497.92248
496.34349
494.74965
493.14016
491.51429
489.87137
488.21078
486.53198
484.83451
483.11797
481.38204
479.62648
477.85111
476.05589
550.47786
548.67178
546.89587
545.14851
543.42808
541.73296
540.06152
538.41219
536.78337
535.17352
533.58107
532.00449
530.44228
528.89293
527.35496
525.8269
524.30731
522.79475
521.28781
519.7851
518.28522
516.78684
515.2886
513.7892
512.28735
510.78178
509.27125
507.75455
506.23051
504.69799
503.15587
501.6031
500.03864
498.46153
496.87084
495.26569
493.64527
492.00882
490.35564
488.6851
486.99665
485.28981
483.56416
481.81936
480.05518
478.27142
476.46806
551.75372
549.90091
548.08083
546.29168
544.53166
542.799
541.09194
539.40878
537.74781
536.10736
534.48578
532.88146
531.29279
529.7182
528.15614
526.60507
525.06348
523.52988
522.00281
520.48081
518.96247
517.44638
515.93116
514.41547
512.89797
511.37737
509.8524
508.32181
506.78441
505.23902
503.6845
502.11978
500.54381
498.95558
497.35414
495.73861
494.10815
492.46198
490.79938
489.11972
487.42242
485.70697
483.97297
482.22005
480.44795
478.65651
476.84568
552.92384
551.02793
549.16715
547.33949
545.54302
543.7758
542.03596
540.32167
538.63112
536.96254
535.31419
533.68436
532.07139
530.47361
528.88942
527.31721
525.75542
524.20251
522.65695
521.11726
519.58197
518.04964
516.51885
514.98822
513.45638
511.922
510.38379
508.84047
507.29081
505.73363
504.16776
502.5921
501.00557
499.40715
497.79588
496.17084
494.53119
492.87612
491.20491
489.5169
487.81149
486.08818
484.34653
482.58618
480.80686
479.00839
477.19071
553.99354
552.05804
550.15987
548.29688
546.46694
544.66803
542.89813
541.1553
539.43764
537.74327
536.07039
534.41721
532.78197
531.16296
529.55851
527.96696
526.38668
524.8161
523.25364
521.69777
520.14698
518.5998
517.05477
515.51047
513.96552
512.41855
510.86824
509.31329
507.75244
506.18449
504.60825
503.02259
501.42642
499.8187
498.19845
496.56474
494.9167
493.25351
491.57444
489.8788
488.16601
486.43553
484.68691
482.91978
481.13387
479.32898
477.50507
554.96801
552.99629
551.06394
549.16863
547.30812
545.48024
543.68287
541.91398
540.17155
538.45365
536.75838
535.08388
533.42833
531.78995
530.16702
528.55783
526.9607
525.374
523.79613
522.22551
520.66059
519.09988
517.54188
515.98514
514.42824
512.8698
511.30847
509.74293
508.1719
506.59414
505.00846
503.4137
501.80876
500.19258
498.56416
496.92255
495.26687
493.5963
491.91008
490.20752
488.48801
486.751
484.99605
483.22277
481.43087
479.62015
477.79055
566.58298
564.33342
562.13844
559.99516
557.90074
555.85231
553.84764
551.88416
549.95944
548.07109
546.21684
544.39449
542.60188
540.83694
539.09764
537.38201
535.68812
534.01411
532.35814
530.71842
529.0932
527.48076
525.87943
524.28756
522.70355
521.12581
519.55281
517.98304
516.415
514.84727
513.27843
511.7071
510.13195
508.55168
506.96502
505.37078
503.76777
502.15487
500.53102
498.89519
497.24643
495.58384
493.90658
492.21387
490.50504
488.77943
487.03652
485.27583
483.49697
481.69965
479.88365
478.04891
567.56217
565.27189
563.03875
560.85962
558.7315
556.65145
554.61691
552.62522
550.67382
548.76025
546.88212
545.03713
543.22305
541.43772
539.67904
537.94499
536.23356
534.54285
532.87095
531.21604
529.57632
527.95004
526.33548
524.73096
523.13484
521.54551
519.96141
518.38099
516.80275
515.22522
513.64697
512.06661
510.48278
508.89416
507.29948
505.6975
504.08704
502.46696
500.83618
499.19366
497.53844
495.86961
494.1863
492.48775
490.77325
489.04216
487.29391
485.52804
483.74416
481.94194
480.12118
478.28179
568.4436
566.11653
563.84891
561.63742
559.47888
557.37026
555.30876
553.29163
551.31619
549.37987
547.48021
545.61482
543.78138
541.97768
540.20155
538.45089
536.72368
535.01791
533.33168
531.6631
530.01033
528.37158
526.74511
525.1292
523.52219
521.92243
520.32834
518.73834
517.15092
515.56459
513.97788
512.3894
510.79777
509.20164
507.59973
505.9908
504.37364
502.74711
501.1101
499.46158
497.80055
496.1261
494.43737
492.73357
491.01397
489.27795
487.52492
485.7544
483.96599
482.15938
480.33434
478.49079
569.2328
566.87267
564.57407
562.33352
560.14769
558.01341
555.92772
553.88776
551.89076
549.93405
548.01509
546.13141
544.28063
542.46046
540.66869
538.90316
537.1618
535.44256
533.74349
532.06266
530.39821
528.7483
527.11117
525.48507
523.8683
522.25921
520.65618
519.05761
517.46198
515.86776
514.27349
512.67774
511.07912
509.47628
507.86792
506.25277
504.62962
502.99731
501.35474
499.70084
498.03462
496.35516
494.66157
492.95308
491.22893
489.4885
487.73119
485.95652
484.16407
482.35353
480.52468
478.67739
569.93509
567.54545
565.21921
562.95274
560.74256
558.5854
556.47815
554.41784
552.40162
550.42674
548.49058
546.59061
544.72438
542.88955
541.08385
539.30509
537.55112
535.8199
534.10939
532.41767
530.74282
529.08298
527.43636
525.80119
524.17575
522.55836
520.94737
519.34119
517.73824
516.13702
514.53602
512.93381
511.32898
509.72017
508.10606
506.48538
504.85691
503.21947
501.57194
499.91327
498.24244
496.55852
494.86062
493.14795
491.41977
489.67541
487.9143
486.13594
484.33991
482.52589
480.69363
478.84304
570.55565
568.13987
565.78914
563.49971
561.26797
559.09055
556.96421
554.8859
552.85268
550.86173
548.91036
546.99597
545.11609
543.2683
541.45029
539.65981
537.89472
536.15289
534.43229
532.73093
531.04689
529.37828
527.72328
526.0801
524.44699
522.82226
521.20425
519.59134
517.98194
516.37452
514.76758
513.15967
511.54935
509.93527
508.31609
506.69053
505.05736
503.41538
501.76349
500.1006
498.4257
496.73784
495.03614
493.31979
491.58804
489.84023
488.07576
486.29414
484.49495
482.67785
480.8426
478.98909
571.09946
568.66071
566.28848
563.97889
561.72823
559.53302
557.38993
555.29583
553.24769
551.24264
549.27793
547.35091
545.45904
543.59989
541.77108
539.97035
538.19549
536.44437
534.71491
533.00512
531.31302
529.63673
527.97439
526.32418
524.68436
523.0532
521.42904
519.81023
518.19518
516.58233
514.97019
513.35728
511.74216
510.12346
508.49984
506.87
505.23271
503.58677
501.93105
500.26447
498.586
496.8947
495.18967
493.47009
491.73522
489.98438
488.21698
486.43252
484.63055
482.81076
480.97289
479.11682
571.57131
569.1126
566.72168
564.39457
562.12747
559.91679
557.75916
555.65134
553.59025
551.57295
549.59666
547.65866
545.7564
543.88737
542.0492
540.23956
538.45623
536.69704
534.95991
533.24279
531.54371
529.86074
528.19202
526.53573
524.89008
523.25335
521.62384
519.99991
518.37996
516.76241
515.14576
513.52851
511.90922
510.28652
508.65905
507.0255
505.38464
503.73526
502.07622
500.40643
498.72488
497.03059
495.32267
493.6003
491.86272
490.10925
488.33931
486.55238
484.74802
482.92589
481.08575
479.22746
571.97581
569.49995
567.09298
564.75083
562.46962
560.24568
558.07556
555.95597
553.88377
551.85597
549.86974
547.92233
546.01115
544.13366
542.28745
540.47018
538.67958
536.91348
535.16976
533.44636
531.74129
530.0526
528.37842
526.71691
525.06627
523.42475
521.79067
520.16236
518.5382
516.91662
515.29609
513.67512
512.05227
510.42614