/*--------------------------------*- C++ -*----------------------------------*\
| =========                 |                                                 |
| \\      /  F ield         | OpenFOAM: The Open Source CFD Toolbox           |
|  \\    /   O peration     | Version:  2312                                  |
|   \\  /    A nd           | Website:  www.openfoam.com                      |
|    \\/     M anipulation  |                                                 |
\*---------------------------------------------------------------------------*/
FoamFile
{
    version     2.0;
    format      ascii;
    arch        "LSB;label=32;scalar=64";
    class       volScalarField;
    location    "0.04";
    object      alphat;
}
// * * * * * * * * * * * * * * * * * * * * * * * * * * * * * * * * * * * * * //

dimensions      [1 -1 -1 0 0 0 0];

internalField   nonuniform List<scalar> 
3251
(
0.017050669
0.017041521
0.017036811
0.017036873
0.017042024
0.017052582
0.017068861
0.017091173
0.017119827
0.017155126
0.017197366
0.017246838
0.017303821
0.017368586
0.017441394
0.017522491
0.017612113
0.017710482
0.017817807
0.017934284
0.018060094
0.018195407
0.01834038
0.018495159
0.018659878
0.018834662
0.019019629
0.019214888
0.019420542
0.019636692
0.019863432
0.020100856
0.020349057
0.020608127
0.02087816
0.02115925
0.021451493
0.021754987
0.022069833
0.022396134
0.022733994
0.02308352
0.02344482
0.023818
0.024203172
0.024600446
0.025009934
0.025431729
0.0258659
0.026312605
0.026772035
0.027244386
0.027730409
0.028229988
0.028742482
0.029268012
0.029806752
0.030358937
0.017051547
0.017042418
0.017037737
0.017037832
0.017043017
0.017053609
0.017069921
0.017092267
0.017120953
0.017156283
0.017198555
0.017248058
0.017305071
0.017369866
0.017442703
0.017523828
0.017613478
0.017711874
0.017819225
0.017935727
0.018061562
0.018196899
0.018341895
0.018496697
0.018661437
0.018836243
0.01902123
0.019216508
0.019422181
0.019638349
0.019865106
0.020102547
0.020350764
0.02060985
0.020879898
0.021161002
0.021453258
0.021756766
0.022071624
0.022397937
0.02273581
0.023085347
0.023446659
0.023819853
0.024205041
0.024602335
0.02501185
0.02543368
0.025867896
0.026314656
0.026774151
0.027246597
0.027732464
0.028231723
0.028744015
0.029269387
0.029807984
0.030360164
0.017053042
0.017043951
0.017039319
0.017039469
0.01704471
0.017055357
0.017071724
0.017094123
0.017122862
0.017158245
0.017200568
0.01725012
0.017307183
0.017372025
0.017444908
0.017526078
0.017615771
0.017714209
0.0178216
0.01793814
0.018064012
0.018199384
0.018344413
0.018499246
0.018664016
0.018838849
0.019023862
0.019219165
0.01942486
0.019641048
0.019867825
0.020105283
0.020353515
0.020612615
0.020882675
0.021163789
0.021456054
0.021759568
0.022074433
0.02240075
0.022738625
0.023088165
0.023449478
0.023822675
0.024207866
0.024605165
0.025014689
0.025436535
0.025870773
0.026317558
0.026777075
0.027249533
0.027735248
0.028234236
0.028746309
0.029271495
0.02980991
0.03036193
0.01705514
0.017046112
0.017041551
0.017041776
0.017047094
0.017057817
0.017074259
0.017096733
0.017125545
0.017160999
0.017203393
0.017253014
0.017310143
0.01737505
0.017447996
0.017529227
0.017618978
0.017717471
0.017824916
0.017941507
0.018067427
0.018202844
0.018347916
0.018502789
0.018667595
0.018842463
0.019027507
0.019222837
0.019428558
0.019644768
0.019871564
0.020109039
0.020357285
0.020616395
0.020886463
0.021167583
0.02145985
0.021763365
0.022078227
0.022404539
0.022742407
0.023091938
0.023453241
0.023826426
0.024211605
0.024608893
0.025018408
0.025440249
0.025874483
0.026321262
0.026780763
0.027253175
0.027738727
0.028237466
0.028749306
0.029274282
0.029812486
0.030364089
0.017057832
0.017048893
0.017044425
0.017044746
0.017050161
0.017060981
0.017077519
0.017100087
0.017128993
0.017164538
0.017207021
0.017256729
0.017313942
0.017378932
0.017451957
0.017533264
0.017623088
0.017721652
0.017829163
0.017945817
0.018071796
0.018207269
0.018352392
0.018507312
0.018672163
0.01884707
0.01903215
0.019227512
0.01943326
0.019649494
0.019876309
0.020113799
0.020362057
0.020621175
0.020891246
0.021172366
0.02146463
0.021768137
0.022082987
0.022409285
0.022747135
0.023096645
0.023457925
0.023831084
0.024216236
0.024613497
0.025022983
0.025444796
0.025879001
0.026325745
0.026785192
0.027257515
0.027742891
0.028241383
0.028752974
0.029277723
0.029815743
0.017060926
0.017052093
0.017047734
0.017048167
0.017053693
0.017064623
0.017081271
0.017103947
0.017132959
0.017168608
0.017211193
0.017261
0.01731831
0.017383393
0.017456508
0.017537902
0.017627809
0.017726452
0.017834038
0.017950762
0.018076807
0.018212342
0.018357523
0.018512495
0.018677393
0.018852343
0.019037461
0.019232856
0.019438632
0.019654889
0.019881723
0.020119226
0.020367493
0.020626614
0.020896685
0.021177799
0.021470053
0.021773545
0.022088377
0.022414652
0.022752475
0.023101954
0.023463199
0.02383632
0.024221432
0.024618649
0.02502809
0.025449858
0.025884012
0.026330696
0.026790062
0.027262266
0.027747458
0.028245711
0.028757051
0.029281575
0.029819611
0.01706434
0.017055628
0.01705139
0.017051945
0.017057593
0.017068646
0.017085414
0.017108209
0.017137337
0.017173101
0.017215798
0.017265714
0.01732313
0.017388315
0.017461529
0.017543017
0.017633015
0.017731744
0.017839411
0.017956213
0.01808233
0.018217931
0.018363173
0.018518201
0.01868315
0.018858145
0.019043302
0.019238731
0.019444535
0.019660815
0.019887665
0.02012518
0.020373453
0.020632576
0.020902642
0.021183745
0.021475984
0.021779456
0.022094263
0.022420508
0.022758296
0.023107736
0.023468937
0.023842011
0.024227071
0.024624234
0.025033616
0.025455322
0.025889409
0.026336013
0.026795278
0.027267346
0.027752347
0.028250362
0.028761447
0.029285734
0.029823705
0.017068342
0.017059773
0.017055678
0.017056376
0.017062168
0.017073363
0.017090272
0.017113205
0.01714247
0.017178368
0.017221195
0.017271238
0.017328777
0.017394082
0.01746741
0.017549009
0.017639112
0.017737941
0.017845703
0.017962593
0.018088793
0.018224471
0.018369784
0.018524876
0.018689882
0.018864928
0.019050129
0.019245595
0.019451431
0.019667734
0.019894602
0.020132128
0.020380404
0.020639524
0.020909581
0.021190671
0.021482888
0.021786333
0.022101106
0.022427311
0.022765054
0.023114443
0.023475588
0.023848601
0.024233595
0.024630687
0.025039992
0.025461618
0.025895616
0.026342117
0.026801255
0.027273159
0.027757946
0.028255703
0.028766508
0.029290516
0.029828224
0.017072974
0.017064572
0.017060644
0.017061508
0.017067466
0.017078824
0.017095896
0.01711899
0.017148412
0.017184464
0.017227441
0.017277631
0.017335313
0.017400755
0.017474216
0.017555941
0.017646165
0.017745109
0.017852979
0.017969971
0.018096266
0.018232031
0.018377424
0.018532589
0.01869766
0.018872763
0.019058013
0.019253521
0.01945939
0.019675719
0.019902604
0.020140139
0.020388418
0.020647532
0.020917575
0.021198643
0.021490832
0.021794242
0.022108973
0.022435129
0.022772816
0.023122142
0.023483218
0.023856155
0.024241067
0.024638069
0.025047279
0.025468804
0.02590269
0.026349064
0.026808049
0.027279763
0.027764312
0.028261789
0.028772291
0.029295995
0.017078283
0.017070074
0.017066337
0.017067391
0.017073538
0.017085085
0.017102342
0.017125619
0.017155221
0.01719145
0.017234599
0.017284956
0.0173428
0.017408399
0.017482011
0.017563881
0.017654243
0.017753317
0.017861311
0.017978418
0.01810482
0.018240684
0.018386168
0.018541414
0.018706558
0.018881724
0.019067029
0.019262582
0.019468487
0.019684843
0.019911746
0.02014929
0.020397568
0.020656673
0.020926698
0.021207739
0.021499893
0.021803258
0.022117936
0.022444032
0.022781652
0.023130902
0.023491894
0.02386474
0.024249552
0.024646447
0.025055541
0.025476943
0.025910695
0.026356916
0.026815722
0.027287219
0.027771505
0.028268679
0.028778865
0.029302342
0.017084318
0.017076328
0.017072808
0.01707408
0.017080441
0.017092201
0.017109669
0.017133154
0.01716296
0.017199388
0.017242732
0.017293279
0.017351307
0.017417083
0.017490865
0.017572899
0.017663417
0.017762638
0.017870771
0.017988009
0.018114531
0.018250507
0.018396092
0.01855143
0.018716655
0.018891892
0.019077257
0.01927286
0.019478804
0.019695188
0.019922109
0.02015966
0.020407935
0.020667027
0.020937029
0.021218036
0.021510146
0.021813458
0.022128074
0.022454097
0.022791636
0.023140797
0.02350169
0.023874427
0.024259122
0.02465589
0.025064845
0.025486102
0.025919695
0.026365739
0.026824341
0.027295593
0.027779589
0.028276441
0.028786308
0.017091131
0.017083388
0.017080114
0.01708163
0.017088234
0.017100234
0.01711794
0.017141658
0.017171693
0.017208346
0.017251909
0.017302669
0.017360903
0.01742688
0.017500854
0.017583071
0.017673763
0.017773151
0.01788144
0.017998823
0.018125481
0.018261581
0.018407279
0.018562718
0.018728033
0.018903349
0.01908878
0.019284437
0.019490423
0.019706838
0.019933777
0.020171334
0.020419603
0.020678677
0.02094865
0.021229617
0.021521675
0.021824924
0.022139467
0.022465406
0.022802848
0.023151903
0.02351268
0.023885293
0.024269851
0.02466647
0.025075264
0.025496351
0.02592976
0.026375602
0.026833974
0.027304957
0.027788636
0.028285153
0.028794794
0.017098776
0.017091312
0.017088314
0.017090103
0.017096978
0.017109248
0.017127218
0.017151198
0.01718149
0.017218394
0.017262202
0.017313201
0.017371666
0.017437866
0.017512054
0.017594476
0.017685364
0.017784936
0.017893399
0.018010945
0.018137753
0.018273991
0.018419815
0.018575367
0.018740782
0.018916183
0.019101687
0.019297403
0.019503435
0.019719881
0.019946838
0.0201844
0.02043266
0.020691712
0.02096165
0.021242569
0.021534566
0.021837742
0.022152199
0.02247804
0.022815373
0.023164306
0.023524949
0.023897415
0.024281815
0.024678265
0.025086875
0.025507764
0.025940965
0.026386579
0.026844697
0.027315385
0.027798722
0.028294897
0.017107313
0.017100159
0.017097468
0.017099562
0.01710674
0.017119309
0.017137575
0.017161846
0.017192424
0.017229607
0.017273689
0.017324953
0.017383675
0.017450122
0.017524549
0.017607199
0.017698304
0.017798081
0.017906737
0.018024463
0.018151438
0.018287829
0.018433791
0.018589468
0.018754992
0.018930488
0.019116072
0.019311852
0.019517932
0.019734412
0.019961387
0.020198952
0.0204472
0.020706225
0.020976121
0.021256984
0.021548911
0.021852002
0.022166361
0.02249209
0.022829298
0.023178092
0.023538583
0.023910882
0.024295101
0.024691355
0.025099757
0.025520422
0.025953386
0.026398748
0.026856589
0.027326961
0.027809936
0.028305854
0.017116804
0.017109992
0.017107643
0.017110075
0.017117589
0.01713049
0.017149084
0.017173677
0.017204571
0.017242065
0.017286448
0.017338006
0.017397013
0.017463735
0.017538426
0.017621328
0.017712673
0.017812677
0.017921545
0.01803947
0.018166629
0.018303189
0.018449305
0.018605118
0.018770762
0.018946362
0.019132032
0.019327881
0.019534014
0.019750529
0.019977523
0.020215089
0.020463322
0.020722314
0.020992161
0.021272959
0.021564805
0.0218678
0.022182047
0.022507649
0.022844715
0.023193352
0.02355367
0.023925782
0.024309797
0.02470583
0.025113992
0.025534403
0.025967107
0.026412191
0.026869737
0.027339779
0.027822365
0.017127312
0.01712088
0.017118908
0.017121714
0.017129599
0.017142866
0.017161822
0.017186771
0.017218015
0.01725585
0.017300567
0.017352449
0.01741177
0.017478794
0.017553775
0.017636956
0.017728565
0.017828819
0.017937922
0.018056065
0.018183427
0.018320172
0.018466455
0.018622418
0.018788194
0.018963907
0.019149671
0.019345596
0.019551785
0.019768337
0.019995348
0.020232914
0.020481127
0.020740082
0.021009873
0.021290597
0.021582351
0.021885237
0.022199357
0.022524816
0.022861722
0.023210182
0.023570308
0.023942208
0.024325995
0.02472178
0.025129676
0.025549799
0.025982208
0.026426992
0.02688423
0.027353946
0.027836201
0.017138908
0.017132894
0.017131336
0.017134555
0.017142847
0.017156518
0.017175871
0.017201211
0.017232839
0.01727105
0.017316133
0.017368371
0.017428037
0.017495394
0.017570695
0.01765418
0.017746079
0.017846608
0.017955968
0.018074352
0.018201935
0.018338883
0.01848535
0.018641477
0.018807396
0.018983231
0.019169098
0.019365103
0.019571352
0.019787944
0.020014973
0.020252536
0.020500726
0.020759637
0.021029364
0.021310003
0.021601654
0.021904417
0.022218396
0.022543694
0.022880421
0.023228684
0.023588594
0.02396026
0.024343793
0.024739302
0.025146899
0.025566704
0.025998783
0.026443235
0.026900159
0.027369581
0.017151665
0.017146109
0.017145006
0.017148676
0.017157416
0.017171528
0.017191317
0.017217086
0.017249135
0.017287757
0.017333242
0.01738587
0.017445914
0.017513635
0.017589285
0.017673105
0.017765322
0.01786615
0.017975792
0.018094438
0.018222263
0.018359433
0.0185061
0.018662405
0.01882848
0.019004449
0.019190426
0.019386519
0.019592832
0.019809464
0.020036512
0.02027407
0.020522232
0.020781093
0.021050747
0.021331292
0.021622827
0.021925452
0.022239272
0.022564393
0.02290092
0.023248965
0.023608635
0.023980041
0.024363292
0.024758496
0.025165762
0.02558521
0.026016925
0.026461016
0.026917624
0.027386938
0.017165658
0.017160603
0.017159998
0.017164162
0.017173391
0.017187986
0.017208252
0.017234489
0.017266997
0.017306069
0.017351992
0.017405046
0.017465502
0.017533621
0.017609653
0.017693838
0.017786401
0.017887556
0.017997505
0.018116437
0.018244526
0.018381937
0.018528821
0.01868532
0.018851565
0.019027678
0.019213774
0.019409962
0.019616343
0.019833019
0.020060084
0.020297635
0.020545764
0.020804568
0.02107414
0.021354579
0.021645985
0.021948458
0.022262102
0.022587024
0.022923332
0.023271135
0.023630542
0.024001661
0.024384602
0.024779469
0.025186369
0.02560542
0.026036724
0.026480417
0.026936689
0.027405806
0.01718097
0.017176461
0.0171764
0.017181102
0.017190863
0.017205985
0.017226769
0.017253517
0.017286526
0.017326087
0.017372488
0.017426006
0.017486911
0.017555463
0.01763191
0.017716492
0.017809431
0.017910943
0.018021226
0.018140468
0.018268844
0.018406517
0.018553638
0.018710347
0.018876775
0.019053044
0.019239269
0.019435557
0.019642012
0.019858733
0.020085816
0.020323356
0.020571448
0.020830186
0.021099668
0.021379989
0.021671251
0.021973555
0.022287005
0.022611709
0.022947775
0.023295311
0.023654428
0.024025234
0.024407835
0.024802334
0.025208831
0.02562744
0.026058279
0.026501523
0.026957424
0.027426151
0.017197686
0.017193771
0.017194301
0.017199588
0.017209928
0.017225622
0.01724697
0.017274272
0.017307825
0.017347919
0.017394838
0.01744886
0.017510252
0.017579274
0.017656173
0.017741185
0.017834534
0.017936432
0.018047077
0.018166656
0.018295343
0.0184333
0.018580676
0.018737612
0.018904238
0.019080676
0.019267039
0.019463435
0.019669968
0.019886736
0.020113836
0.020351364
0.020599413
0.020858079
0.021127458
0.021407649
0.021698752
0.02200087
0.022314107
0.022638571
0.02297437
0.023321615
0.023680415
0.024050879
0.02443311
0.024827209
0.025233267
0.025651386
0.026081693
0.026524427
0.026979969
0.017215894
0.017212625
0.017213797
0.017219719
0.017230687
0.017247
0.01726896
0.017296863
0.017331005
0.017371675
0.017419156
0.017473724
0.017535645
0.017605176
0.017682564
0.017768042
0.017861834
0.01796415
0.018075187
0.018195131
0.018324154
0.018462417
0.018610069
0.018767251
0.01893409
0.019110709
0.019297221
0.019493733
0.019700348
0.019917166
0.020144283
0.020381794
0.020629794
0.02088838
0.021157646
0.021437693
0.021728622
0.022030535
0.022343538
0.022667739
0.023003248
0.023350174
0.023708629
0.02407872
0.024460551
0.024854219
0.025259805
0.025677388
0.026107077
0.026549228
0.027004658
0.017235692
0.017233122
0.017234989
0.017241598
0.017253244
0.017270228
0.017292848
0.017321401
0.01735618
0.017397473
0.017445562
0.01750072
0.017563213
0.017633294
0.01771121
0.017797192
0.017891463
0.01799423
0.018105691
0.018226028
0.018355413
0.018494007
0.018641957
0.018799402
0.018966472
0.019143285
0.019329956
0.019526592
0.019733295
0.019950164
0.020177297
0.020414789
0.020662734
0.02092123
0.021190372
0.021470261
0.021760998
0.022062687
0.022375434
0.022699348
0.02303454
0.02338112
0.0237392
0.024108888
0.024490289
0.024883496
0.025288583
0.025705599
0.026134562
0.01725718
0.017255365
0.017257983
0.017265332
0.01727771
0.017295417
0.017318749
0.017348003
0.01738347
0.017425436
0.01747418
0.017529975
0.017593083
0.017663759
0.017742244
0.01782877
0.017923556
0.01802681
0.018138726
0.018259487
0.018389263
0.018528213
0.018676483
0.018834212
0.019001528
0.01917855
0.019365391
0.019562158
0.019768955
0.019985878
0.020213026
0.020450495
0.020698379
0.020956775
0.021225781
0.021505496
0.021796024
0.022097468
0.022409936
0.022733537
0.023068384
0.023414588
0.023772262
0.024141515
0.024522455
0.024915175
0.025319751
0.025736219
0.017280469
0.017279468
0.01728289
0.017291034
0.0173042
0.017322684
0.017346784
0.017376793
0.017413
0.017455689
0.017505139
0.017561619
0.017625391
0.017696705
0.017775803
0.017862914
0.017958255
0.018062033
0.018174439
0.018295656
0.018425851
0.018565183
0.018713797
0.01887183
0.01903941
0.019216655
0.019403678
0.019600586
0.01980748
0.02002446
0.020251623
0.020489064
0.020736879
0.020995166
0.021264022
0.021543548
0.021833847
0.022135024
0.022447189
0.022770451
0.023104923
0.023450719
0.023807954
0.024176739
0.024557185
0.024949393
0.025353459
0.025769539
0.017309934
0.017305687
0.017305544
0.017309824
0.017318822
0.017332833
0.017352153
0.017377077
0.017407897
0.017444899
0.017488366
0.017538574
0.017595791
0.017660275
0.017732275
0.017812031
0.01789977
0.017995707
0.018100046
0.018212979
0.018334684
0.018465329
0.01860507
0.018754053
0.018912412
0.019080274
0.019257757
0.019444974
0.019642031
0.019849029
0.020066067
0.020293243
0.020530653
0.020778392
0.021036558
0.021305251
0.02158457
0.021874621
0.022175509
0.022487344
0.022810237
0.023144304
0.023489659
0.023846419
0.0242147
0.024594616
0.02498628
0.025389812
0.025805429
0.017336276
0.017332933
0.017333707
0.017338905
0.017348816
0.017363733
0.01738395
0.017409758
0.017441447
0.017479302
0.017523604
0.017574624
0.01763263
0.017697878
0.017770614
0.017851075
0.017939487
0.018036062
0.018141004
0.0182545
0.018376728
0.018507855
0.018648034
0.01879741
0.018956117
0.01912428
0.019302018
0.019489441
0.019686655
0.019893762
0.020110861
0.020338049
0.020575423
0.020823078
0.021081112
0.021349626
0.021628721
0.021918502
0.022219076
0.022530554
0.022853049
0.023186677
0.023531556
0.023887804
0.02425554
0.024634886
0.025025963
0.025428909
0.025843965
0.017364679
0.017362318
0.017364076
0.017370256
0.017381144
0.017397031
0.017418206
0.01744496
0.01747758
0.017516348
0.017561543
0.017613433
0.017672284
0.017738349
0.017811872
0.017893088
0.017982219
0.018079478
0.018185062
0.018299161
0.018421948
0.018553589
0.018694236
0.018844032
0.01900311
0.019171595
0.019349602
0.019537244
0.019734625
0.019941847
0.020159009
0.020386207
0.020623539
0.020871101
0.021128991
0.021397311
0.021676162
0.021965651
0.022265885
0.022576977
0.022899042
0.023232196
0.02357656
0.023932256
0.024299405
0.024678134
0.025068573
0.025470869
0.025885268
0.017395264
0.01739396
0.017396772
0.017404002
0.017415935
0.017432858
0.017455058
0.017482823
0.017516437
0.017556181
0.017602329
0.017655149
0.017714902
0.01778184
0.017856204
0.017938225
0.018028125
0.018126112
0.018232384
0.018347124
0.018470508
0.018602697
0.018743843
0.018894086
0.019053559
0.019222385
0.01940068
0.019588553
0.01978611
0.019993453
0.020210678
0.020437885
0.02067517
0.020922629
0.021180363
0.021448472
0.021727059
0.022016231
0.022316099
0.022626774
0.022948374
0.023281018
0.023624827
0.023979926
0.024346442
0.024724503
0.025114247
0.025515824
0.025929477
0.017428158
0.017427986
0.017431924
0.017440276
0.017453324
0.017471352
0.017494645
0.017523488
0.017558163
0.017598947
0.017646112
0.017699924
0.017760639
0.017828507
0.017903767
0.017986647
0.018077366
0.01817613
0.018283132
0.018398557
0.018522576
0.018655348
0.018797024
0.018947743
0.019107635
0.019276823
0.019455422
0.01964354
0.019841283
0.020048751
0.020266043
0.020493256
0.020730487
0.020977834
0.021235397
0.021503277
0.021781579
0.02207041
0.022369882
0.022680109
0.023001208
0.023333301
0.023676513
0.024030969
0.024396799
0.024774138
0.025163124
0.025563909
0.025976733
0.017463489
0.017464525
0.017469666
0.017479213
0.017493448
0.017512653
0.01753711
0.017567102
0.017602906
0.017644797
0.017693045
0.017747912
0.017809651
0.017878509
0.017954723
0.018038517
0.018130107
0.018229696
0.018337476
0.018453628
0.018578321
0.018711713
0.018853952
0.019005175
0.019165512
0.019335083
0.019514002
0.019702379
0.019900317
0.020107916
0.020325275
0.020552492
0.020789663
0.021036887
0.021294264
0.021561897
0.021839891
0.022128354
0.0224274
0.022737144
0.023057705
0.023389206
0.023731774
0.024085538
0.02445063
0.024827186
0.025215348
0.025615269
0.026027182
0.017501392
0.017503713
0.017510133
0.017520952
0.01753645
0.017556906
0.017582601
0.017613812
0.017650817
0.017693885
0.017743283
0.017799271
0.017862098
0.017932008
0.018009234
0.018093998
0.018186513
0.018286978
0.018395583
0.018512507
0.018637915
0.018771963
0.018914798
0.019066555
0.019227362
0.019397338
0.019576597
0.019765245
0.019963387
0.020171123
0.020388551
0.020615767
0.020852871
0.02109996
0.021357136
0.021624502
0.021902164
0.022190232
0.022488819
0.022798044
0.023118026
0.023448892
0.023790768
0.024143787
0.024508084
0.024883795
0.025271065
0.025670046
0.026080968
0.017542001
0.017545686
0.017553464
0.017565634
0.017582472
0.017604256
0.017631264
0.01766377
0.017702048
0.017746365
0.017796984
0.017854159
0.01791814
0.017989166
0.018067465
0.018153257
0.018246751
0.018348145
0.018457624
0.018575364
0.018701529
0.018836272
0.018979737
0.019132058
0.019293361
0.019463764
0.019643379
0.019832313
0.020030669
0.020238546
0.020456042
0.020683255
0.020920283
0.021167226
0.021424184
0.021691261
0.021968566
0.022256209
0.022554304
0.022862972
0.023182334
0.023512518
0.023853652
0.024205872
0.024569312
0.024944114
0.025330422
0.025728386
0.026138234
0.017585456
0.017590586
0.017599802
0.017613402
0.01763166
0.017654852
0.01768325
0.017717128
0.017756754
0.017802393
0.017854303
0.017912737
0.017977939
0.018050145
0.018129579
0.018216459
0.01831099
0.018413364
0.018523767
0.01864237
0.018769334
0.01890481
0.01904894
0.019201855
0.019363681
0.019534533
0.019714523
0.019903755
0.020102333
0.020310356
0.020527921
0.020755127
0.020992071
0.021238852
0.021495574
0.021762342
0.022039262
0.022326449
0.022624018
0.022932089
0.023250787
0.02358024
0.023920579
0.024271941
0.024634464
0.025008288
0.025393561
0.025790431
0.026199124
0.017631894
0.017638551
0.017649289
0.017664401
0.017684161
0.01770884
0.017738709
0.017774036
0.017815087
0.017862123
0.017915399
0.017975162
0.018041654
0.018115106
0.01819574
0.018283768
0.018379391
0.018482802
0.018594178
0.018713691
0.018841497
0.018977745
0.019122575
0.019276116
0.01943849
0.019609814
0.019790195
0.01997974
0.020178549
0.020386721
0.020604355
0.020831547
0.021068397
0.021315004
0.021571471
0.021837905
0.022114414
0.022401112
0.022698117
0.02300555
0.023323537
0.023652209
0.023991699
0.024342143
0.024703683
0.02507646
0.025460622
0.025856319
0.026263773
0.017681456
0.017689723
0.017702066
0.017718775
0.01774012
0.017766368
0.017797788
0.017834645
0.0178772
0.017925709
0.017980425
0.01804159
0.018109442
0.018184207
0.018266105
0.018355342
0.018452118
0.018556618
0.01866902
0.018789489
0.018918181
0.019055241
0.019200805
0.019355002
0.019517952
0.019689769
0.01987056
0.020060429
0.020259477
0.020467803
0.020685504
0.020912677
0.021149422
0.021395839
0.021652031
0.021918106
0.022194174
0.02248035
0.022776752
0.023083504
0.023400733
0.023728571
0.024067153
0.024416618
0.024777108
0.025148766
0.025531742
0.025926183
0.026332314
0.017734277
0.017744241
0.017758274
0.017776664
0.017799678
0.01782758
0.017860634
0.017899101
0.017943239
0.017993299
0.01804953
0.018112171
0.018181453
0.018257601
0.018340827
0.018431336
0.018529322
0.018634968
0.018748446
0.01886992
0.018999541
0.019137451
0.019283786
0.01943867
0.019602221
0.019774552
0.01995577
0.020145976
0.020345271
0.020553752
0.020771518
0.020998666
0.021235294
0.021481505
0.021737401
0.022003091
0.022278687
0.022564305
0.022860064
0.023166089
0.02348251
0.023809459
0.024147075
0.024495496
0.024854867
0.025225334
0.025607044
0.026000148
0.026404869
0.017790494
0.017802239
0.01781805
0.017838207
0.017862975
0.017892615
0.017927386
0.017967545
0.018013346
0.018065036
0.018122859
0.018187049
0.018257833
0.018335431
0.018420052
0.018511895
0.01861115
0.018717996
0.018832603
0.018955128
0.019085722
0.019224522
0.019371662
0.019527263
0.019691441
0.019864308
0.020045967
0.020236522
0.02043607
0.020644709
0.020862537
0.021089651
0.02132615
0.021572136
0.021827714
0.022092992
0.022368084
0.022653106
0.02294818
0.023253433
0.023568994
0.023894999
0.024231586
0.024578898
0.02493708
0.025306278
0.025686643
0.026078325
0.026481549
0.017850236
0.01786385
0.017881523
0.017903534
0.017930142
0.017961604
0.017998176
0.01804011
0.018087654
0.018141053
0.018200544
0.018266357
0.018338715
0.018417832
0.018503912
0.018597152
0.018697735
0.018805836
0.018921622
0.019045246
0.019176855
0.019316584
0.019464562
0.019620909
0.01978574
0.019959162
0.020141279
0.020332192
0.020531999
0.020740797
0.020958683
0.021185753
0.021422109
0.021667852
0.021923088
0.022187926
0.022462479
0.022746867
0.023041213
0.023345644
0.023660293
0.023985295
0.024320792
0.024666927
0.025023847
0.0253917
0.025770639
0.026160813
0.02656245
0.017913625
0.017929194
0.017948817
0.017972768
0.018001301
0.01803467
0.018073126
0.018116917
0.018166285
0.018221471
0.018282706
0.018350216
0.018424219
0.018504923
0.018592528
0.018687225
0.018789193
0.018898605
0.01901562
0.019140389
0.019273055
0.01941375
0.019562599
0.019719721
0.019885227
0.020059224
0.020241813
0.020433094
0.020633164
0.02084212
0.021060057
0.021287075
0.021523272
0.021768751
0.022023619
0.022287986
0.022561968
0.022845681
0.023139254
0.023442814
0.023756496
0.024080437
0.024414779
0.024759668
0.025115252
0.025481682
0.025859112
0.026247692
0.026647652
0.017980772
0.017998383
0.018020042
0.018046017
0.018076561
0.018111922
0.018152344
0.018198073
0.018249345
0.018306395
0.01836945
0.01843873
0.018514446
0.018596804
0.018685998
0.018782213
0.018885624
0.018996398
0.019114691
0.01924065
0.019374413
0.01951611
0.019665862
0.019823786
0.01998999
0.020164578
0.020347652
0.020539308
0.020739645
0.020948756
0.021166739
0.021393691
0.021629712
0.021874906
0.02212938
0.022393245
0.022666617
0.022949617
0.023242369
0.023545008
0.023857667
0.024180485
0.024513608
0.024857181
0.025211355
0.025576283
0.02595212
0.026339019
0.02673721
0.018051777
0.018071513
0.018095292
0.018123377
0.018156015
0.018193449
0.01823592
0.018283665
0.018336919
0.01839591
0.018460858
0.018531978
0.018609478
0.018693555
0.018784399
0.01888219
0.018987098
0.019099286
0.019218904
0.019346095
0.019480994
0.019623727
0.019774412
0.019933162
0.020100084
0.02027528
0.020458849
0.020650887
0.02085149
0.021060754
0.021278773
0.021505646
0.021741474
0.02198636
0.022240411
0.022503741
0.022776466
0.023058709
0.023350597
0.02365226
0.02396384
0.024285475
0.024617311
0.024959498
0.025312187
0.025675533
0.026049692
0.026434822
0.026831153
0.018126718
0.018148662
0.018174643
0.01820492
0.018239733
0.01827932
0.018323919
0.018373759
0.018429071
0.018490075
0.018556987
0.018630017
0.018709365
0.018795224
0.018887777
0.018987201
0.019093659
0.019207308
0.019328295
0.019456759
0.01959283
0.019736631
0.019888276
0.020047875
0.020215533
0.020391349
0.020575422
0.020767846
0.020968716
0.021178125
0.021396171
0.02162295
0.021858564
0.022103117
0.022356717
0.022619478
0.022891517
0.02317296
0.023463933
0.023764572
0.024075013
0.024395403
0.024725887
0.025066617
0.025417745
0.025779429
0.026151826
0.026535099
0.026929476
0.018205652
0.018229883
0.018258147
0.018290693
0.018327759
0.018369578
0.018416379
0.018468389
0.01852583
0.018588918
0.018657863
0.018732867
0.018814126
0.018901826
0.018996145
0.019097253
0.01920531
0.019320466
0.019442864
0.019572638
0.019709913
0.01985481
0.020007439
0.020167907
0.020336316
0.020512764
0.020697347
0.020890158
0.02109129
0.021300839
0.021518898
0.021745567
0.021980945
0.022225139
0.022478257
0.022740413
0.023011728
0.023292325
0.023582336
0.023881896
0.024191144
0.024510225
0.024839291
0.025178493
0.025527987
0.025887929
0.02625848
0.026639807
0.027032138
0.018288609
0.018315202
0.018345822
0.018380713
0.018420106
0.018464229
0.018513304
0.018567554
0.018627192
0.01869243
0.01876347
0.01884051
0.018923738
0.019013334
0.019109471
0.019212312
0.019322012
0.019438716
0.019562561
0.019693678
0.019832188
0.019978205
0.020131838
0.020293191
0.020462364
0.020639451
0.020824547
0.021017743
0.021219134
0.021428811
0.02164687
0.021873409
0.022108529
0.022352335
0.022604939
0.022866455
0.023137004
0.023416712
0.023705711
0.024004139
0.024312136
0.024629851
0.024957431
0.025295036
0.025642821
0.026000944
0.026369566
0.026748858
0.027139049
0.018375581
0.018404605
0.018437652
0.018474957
0.018516745
0.018563239
0.018614655
0.018671208
0.018733106
0.018800554
0.018873749
0.01895288
0.019038129
0.019129671
0.019227672
0.019332289
0.019443672
0.01956196
0.019687285
0.019819773
0.019959541
0.020106699
0.020261354
0.020423604
0.020593548
0.020771278
0.020956887
0.021150465
0.021352105
0.021561898
0.021779939
0.022006328
0.022241164
0.022484555
0.022736611
0.02299745
0.023267192
0.023545966
0.023833905
0.024131147
0.024437838
0.024754124
0.02508016
0.025416099
0.025762103
0.026118332
0.026484944
0.026862114
0.027250072
0.018466518
0.018498037
0.018533572
0.018573354
0.018617599
0.018666524
0.01872034
0.018779255
0.018843469
0.018913182
0.018988581
0.019069852
0.019157169
0.0192507
0.019350605
0.019457036
0.019570134
0.019690036
0.019816868
0.01995075
0.020091795
0.02024011
0.020395796
0.020558952
0.020729671
0.020908044
0.021094162
0.021288114
0.021489991
0.021699885
0.02191789
0.022144105
0.022378631
0.022621576
0.022873051
0.023133174
0.023402069
0.023679863
0.023966694
0.0242627
0.024568028
0.024882829
0.025207256
0.025541469
0.025885626
0.02623989
0.026604418
0.026979387
0.027365021
0.01856132
0.018595388
0.018633467
0.018675778
0.018722534
0.018773943
0.01883021
0.018891535
0.018958114
0.019030136
0.019107784
0.019191235
0.019280658
0.019376214
0.019478056
0.019586329
0.01970117
0.019822708