/*--------------------------------*- C++ -*----------------------------------*\
| =========                 |                                                 |
| \\      /  F ield         | OpenFOAM: The Open Source CFD Toolbox           |
|  \\    /   O peration     | Version:  2312                                  |
|   \\  /    A nd           | Website:  www.openfoam.com                      |
|    \\/     M anipulation  |                                                 |
\*---------------------------------------------------------------------------*/
FoamFile
{
    version     2.0;
    format      ascii;
    arch        "LSB;label=32;scalar=64";
    class       volScalarField;
    location    "0.04";
    object      f_Bilger;
}
// * * * * * * * * * * * * * * * * * * * * * * * * * * * * * * * * * * * * * //

dimensions      [0 0 0 0 0 0 0];

internalField   nonuniform List<scalar> 
3251
(
0.053590823
0.051864725
0.050147514
0.048441357
0.046748541
0.045071282
0.043411755
0.041772095
0.040154382
0.038560636
0.036992802
0.03545274
0.033942212
0.032462877
0.031016277
0.029603831
0.028226829
0.026886423
0.025583623
0.024319296
0.023094161
0.02190879
0.020763608
0.019658893
0.018594784
0.01757128
0.01658825
0.015645434
0.014742457
0.01387883
0.013053963
0.01226717
0.011517682
0.010804654
0.010127172
0.0094842643
0.0088749117
0.0082980524
0.007752592
0.007237411
0.0067513722
0.006293327
0.0058621224
0.0054566066
0.0050756346
0.0047180737
0.0043828089
0.0040687479
0.0037748276
0.0035000191
0.003243335
0.0030038576
0.0027808725
0.0025733338
0.0023800951
0.0022003113
0.0020331832
0.0018779521
0.053589165
0.051863091
0.05014612
0.048440139
0.046747477
0.045070358
0.04341096
0.04177142
0.04015382
0.038560179
0.036992442
0.035452471
0.033942028
0.032462771
0.031016243
0.029603865
0.028226925
0.026886575
0.025583826
0.024319546
0.023094453
0.02190912
0.020763971
0.019659286
0.018595203
0.017571721
0.01658871
0.01564591
0.014742946
0.013879329
0.013054468
0.012267681
0.011518195
0.010805167
0.010127683
0.0094847719
0.008875414
0.0082985479
0.0077530794
0.0072378892
0.0067518403
0.0062937844
0.005862569
0.0054570428
0.0050760614
0.0047184931
0.0043832239
0.0040691628
0.0037752473
0.0035004486
0.003243781
0.0030043269
0.0027812645
0.0025735932
0.0023802696
0.0022004235
0.0020332483
0.0018779996
0.053581823
0.051855872
0.050139255
0.04843361
0.046741268
0.045064458
0.04340536
0.04176611
0.040148791
0.038555424
0.036987954
0.035448241
0.033938048
0.032459034
0.031012742
0.029600591
0.028223869
0.026883731
0.025581186
0.024317101
0.023092195
0.02190704
0.020762062
0.019657539
0.01859361
0.017570275
0.016587402
0.015644732
0.01474189
0.013878388
0.013053634
0.012266946
0.011517553
0.01080461
0.010127205
0.0094843663
0.0088750746
0.0082982688
0.007752855
0.0072377144
0.0067517102
0.0062936948
0.005862516
0.0054570231
0.0050760728
0.0047185341
0.004383294
0.0040692626
0.0037753776
0.0035006103
0.0032439737
0.0030045398
0.0027814302
0.0025736729
0.0023802843
0.0022003893
0.0020331757
0.0018778884
0.053568535
0.051842926
0.050126802
0.048421654
0.0467298
0.045053469
0.043394842
0.041756055
0.040139191
0.03854627
0.036979238
0.035439953
0.03393018
0.032451576
0.031005685
0.029593924
0.028217583
0.026877814
0.025575627
0.024311889
0.023087319
0.021902487
0.02075782
0.019653596
0.018589953
0.017566891
0.016584278
0.015641856
0.014739249
0.013875968
0.013051424
0.012264933
0.011515725
0.010802955
0.010125711
0.0094830227
0.0088738705
0.0082971938
0.0077518993
0.0072368686
0.0067509654
0.0062930428
0.0058619492
0.0054565347
0.0050756567
0.0047181855
0.0043830088
0.0040690375
0.0037752098
0.0035004961
0.0032439068
0.0030045016
0.0027813718
0.0025735643
0.0023801318
0.0022002033
0.0020329615
0.0018775838
0.05354927
0.051824226
0.050108755
0.048404267
0.046713069
0.045037389
0.043379404
0.041741252
0.040125014
0.03853271
0.036966286
0.0354276
0.033918416
0.03244039
0.030995065
0.029583859
0.028208059
0.026868818
0.025567146
0.024303906
0.02307982
0.021895456
0.02075124
0.019647451
0.018584225
0.017561563
0.016579332
0.015637275
0.014735015
0.013872064
0.013047831
0.012261634
0.011512704
0.010800194
0.010123195
0.0094807348
0.0088717955
0.0082953169
0.0077502063
0.0072353458
0.0067496
0.0062918226
0.0058608628
0.0054555717
0.0050748077
0.0047174418
0.0043823629
0.0040684826
0.0037747389
0.0035001017
0.0032435777
0.0030042159
0.0027810908
0.0025732622
0.0023798066
0.002199862
0.0020326151
0.053525507
0.051801192
0.050086495
0.048382785
0.046692364
0.045017456
0.043360238
0.041722845
0.040107358
0.038515798
0.036950108
0.035412145
0.033903674
0.03242635
0.030981714
0.029571183
0.028196045
0.026857449
0.025556407
0.02429378
0.023070289
0.021886502
0.020742843
0.019639591
0.018576882
0.017554716
0.016572961
0.015631357
0.014729529
0.013866988
0.013043146
0.012257317
0.011508735
0.010796553
0.010119861
0.0094776895
0.0088690197
0.0082927924
0.0077479156
0.0072332722
0.0067477276
0.0062901363
0.0058593483
0.0054542158
0.005073598
0.004716367
0.0043814125
0.0040676468
0.003774008
0.0034994647
0.0032430206
0.0030037163
0.0027806177
0.0025727929
0.0023793342
0.002199392
0.0020322022
0.053498167
0.051774695
0.050060864
0.048358027
0.04666848
0.044994442
0.043338089
0.041701555
0.04008692
0.038496203
0.036931346
0.035394208
0.033886549
0.032410025
0.030966176
0.029556418
0.028182037
0.026844182
0.025543862
0.024281939
0.023059131
0.021876007
0.02073299
0.019630357
0.018568245
0.017546652
0.016565446
0.015624367
0.01472304
0.013860976
0.013037586
0.012252186
0.011504007
0.010792207
0.010115873
0.009474038
0.008865683
0.0082897496
0.0077451467
0.0072307579
0.0067454495
0.0062880769
0.0058574911
0.0054525452
0.0050720994
0.0047150269
0.0043802183
0.0040665863
0.0037730691
0.0034986344
0.0032422827
0.0030030488
0.0027799932
0.0025721902
0.0023787434
0.0021988143
0.0020316689
0.053465137
0.051742679
0.050029877
0.048328078
0.046639569
0.044966568
0.043311246
0.041675737
0.04006212
0.038472411
0.036908554
0.035372403
0.033865719
0.032390156
0.030947253
0.029538424
0.028164954
0.026827991
0.025528542
0.024267468
0.023045486
0.021863163
0.020720921
0.019619037
0.018557647
0.017536748
0.016556207
0.015615765
0.014715045
0.01385356
0.013030719
0.01224584
0.011498155
0.010786819
0.010110922
0.0094694965
0.0088615257
0.0082859515
0.0077416837
0.0072276065
0.0067425877
0.0062854833
0.0058551456
0.0054504288
0.0050701942
0.004713316
0.0043786859
0.0040652171
0.0037718481
0.0034975454
0.0032413069
0.0030021624
0.0027791691
0.0025714062
0.0023779861
0.0021980765
0.0020309346
0.053425998
0.051704735
0.049993137
0.048292553
0.046605261
0.044933473
0.043279362
0.041645057
0.040032635
0.038444113
0.036881431
0.035346444
0.033840909
0.03236648
0.030924693
0.029516962
0.028144569
0.02680866
0.025510241
0.024250172
0.023029167
0.021847794
0.020706471
0.019605476
0.018544941
0.017524866
0.016545115
0.01560543
0.014705432
0.013844635
0.013022449
0.01223819
0.011491091
0.010780309
0.010104934
0.0094639983
0.0088564864
0.0082813413
0.0077374735
0.0072237693
0.0067390972
0.0062823143
0.005852274
0.0054478319
0.0050678506
0.0047112053
0.0043767889
0.0040635152
0.0037703231
0.0034961781
0.0032400757
0.0030010418
0.0027781313
0.0025704275
0.00237705
0.0021971691
0.053380305
0.051660425
0.049950222
0.048251043
0.046565158
0.044894776
0.043242067
0.041609157
0.039998123
0.038410978
0.036849661
0.035316026
0.033811827
0.032338717
0.03089823
0.029491776
0.028120638
0.026785958
0.02548874
0.024229843
0.023009979
0.021829713
0.020689464
0.019589506
0.018529973
0.01751086
0.016532034
0.015593233
0.014694081
0.01383409
0.01301267
0.012229137
0.011482726
0.010772593
0.01009783
0.0094574696
0.0088504973
0.0082758572
0.0077324606
0.0072191951
0.0067349304
0.006278526
0.0058488362
0.0054447179
0.0050650349
0.004708664
0.004374499
0.004061455
0.0037684709
0.0034945118
0.0032385711
0.002999671
0.0027768648
0.0025692402
0.0023759243
0.002196105
0.053327583
0.051609289
0.049900683
0.048203114
0.04651884
0.04485007
0.043198968
0.04156766
0.039958218
0.038372655
0.036812907
0.035280825
0.033778164
0.032306571
0.030867579
0.029462597
0.028092903
0.02675964
0.025463807
0.024206261
0.022987713
0.021808725
0.020669714
0.019570954
0.018512576
0.017494576
0.016516817
0.015579039
0.014680865
0.013821805
0.013001271
0.01221858
0.011472965
0.010763584
0.010089529
0.0094498351
0.008843488
0.0082694331
0.0077265836
0.0072138282
0.0067300375
0.0062740722
0.0058447896
0.0054410477
0.0050617115
0.0047056595
0.0043717867
0.0040590092
0.0037662669
0.0034925246
0.0032367735
0.0029980329
0.0027753543
0.0025678305
0.0023745971
0.053267331
0.051550837
0.049844048
0.048148306
0.046465866
0.044798927
0.043149653
0.041520166
0.039912536
0.038328774
0.036770813
0.035240502
0.033739592
0.032269729
0.030832443
0.02942914
0.028061095
0.026729447
0.025435195
0.024179192
0.022962147
0.021784619
0.020647025
0.019549634
0.018492577
0.017475849
0.016499311
0.015562704
0.014665648
0.013807655
0.012988136
0.012206408
0.011461705
0.010753186
0.010079944
0.0094410142
0.0088353843
0.0082620011
0.0077197793
0.0072076092
0.0067243635
0.0062689046
0.0058400901
0.00543678
0.0050578425
0.0047021572
0.0043686202
0.0040561492
0.0037636852
0.0034901932
0.0032346629
0.0029961099
0.0027735835
0.0025661845
0.0023730786
0.053199018
0.051484556
0.049779816
0.048086138
0.046405765
0.044740895
0.043093685
0.041466254
0.039860672
0.038278945
0.036723004
0.035194695
0.033695767
0.032227862
0.030792506
0.029391103
0.028024925
0.026695108
0.025402647
0.024148393
0.02293305
0.021757178
0.020621188
0.01952535
0.018469792
0.017454506
0.016479355
0.015544076
0.01464829
0.013791508
0.012973141
0.012192508
0.011448841
0.010741301
0.010068983
0.0094309219
0.0088261077
0.0082534887
0.0077119813
0.0072004775
0.006717852
0.0062629691
0.0058346888
0.0054318725
0.0050533892
0.0046981207
0.0043649664
0.0040528446
0.0037606984
0.0034874933
0.0032322179
0.0029938836
0.0027715359
0.002564286
0.053122085
0.051409901
0.049707461
0.048016099
0.046338048
0.044675498
0.043030604
0.041405483
0.0398022
0.038222759
0.036669087
0.035143028
0.033646327
0.032180622
0.030747437
0.029348171
0.027984093
0.026656336
0.02536589
0.024113604
0.022900178
0.02172617
0.020591987
0.019497898
0.018444028
0.017430367
0.016456778
0.015522995
0.014628641
0.013773224
0.012956157
0.012176757
0.011434259
0.010727825
0.010056548
0.0094194684
0.0088155753
0.0082438193
0.0077031189
0.0071923681
0.0067104436
0.0062562119
0.0058285351
0.005426277
0.0050483088
0.0046935128
0.0043607901
0.0040490634
0.0037572773
0.0034843989
0.0032294163
0.0029913356
0.0027691949
0.0025621447
0.053035941
0.051326301
0.049626431
0.047937655
0.046262195
0.044602236
0.042959929
0.041337386
0.039736671
0.038159783
0.036608647
0.035085103
0.03359089
0.032127646
0.030696888
0.029300013
0.027938284
0.02661283
0.025324639
0.024074555
0.022863275
0.021691352
0.020559193
0.019467061
0.018415081
0.017403241
0.016431401
0.015499295
0.014606544
0.013752657
0.012937046
0.012159029
0.011417842
0.010712647
0.010042539
0.0094065596
0.0088036999
0.0082329125
0.007693118
0.0071832126
0.0067020755
0.0062485754
0.0058215768
0.0054199457
0.0050425554
0.0046882913
0.0043560557
0.0040447728
0.003753391
0.0034808826
0.0032262351
0.002988448
0.0027665404
0.052939961
0.051233154
0.049536143
0.047850244
0.046177665
0.044520586
0.042881153
0.041261477
0.039663616
0.038089567
0.036541251
0.035020502
0.033529059
0.032068552
0.030640495
0.02924628
0.027887165
0.026564276
0.025278595
0.024030962
0.022822072
0.021652472
0.020522566
0.019432615
0.01838274
0.017372928
0.016403036
0.015472799
0.014581834
0.013729653
0.012915666
0.012139191
0.011399465
0.010695652
0.010026848
0.0093920962
0.0087903898
0.0082206836
0.0076819004
0.0071729391
0.0066926815
0.0062399988
0.005813758
0.0054128279
0.0050360838
0.0046824134
0.0043507217
0.0040399359
0.0037490079
0.0034769148
0.0032226501
0.0029852059
0.0027635817
0.052833488
0.051129828
0.04943599
0.047753278
0.046083889
0.044429997
0.042793747
0.041177244
0.039582543
0.038011637
0.036466443
0.034948792
0.033460416
0.032002941
0.030577876
0.029186608
0.027830391
0.026510344
0.025227445
0.023982529
0.022776287
0.021609262
0.020481854
0.019394321
0.018346781
0.017339218
0.016371488
0.015443323
0.014554341
0.013704052
0.012891866
0.012117102
0.011378999
0.010676719
0.010009363
0.0093759744
0.0087755489
0.0082070436
0.0076693841
0.0071614721
0.006682192
0.0062304182
0.0058050205
0.00540487
0.0050288449
0.0046758351
0.0043447478
0.0040345136
0.0037440907
0.0034724651
0.0032186374
0.0029815969
0.052715833
0.051015663
0.049325333
0.047646141
0.045980272
0.044329898
0.042697157
0.041084153
0.039492938
0.037925499
0.03638375
0.034869516
0.033384524
0.031930395
0.030508633
0.029120617
0.027767598
0.026450689
0.025170861
0.023928946
0.022725628
0.021561446
0.020436797
0.019351934
0.018306972
0.017301893
0.016336551
0.015410675
0.014523883
0.013675684
0.012865489
0.012092617
0.011356306
0.010655722
0.0099899669
0.0093580854
0.0087590763
0.0081918995
0.0076554833
0.0071487323
0.0066705344
0.0062197668
0.0057953027
0.0053960161
0.0050207877
0.0046685097
0.0043380918
0.0040284674
0.0037386018
0.003467495
0.0032141676
0.0029776612
0.052586277
0.050889969
0.049203509
0.047528193
0.045866196
0.044219688
0.042590806
0.040981648
0.039394264
0.037830638
0.036292676
0.034782199
0.033300929
0.03185048
0.03043235
0.029047913
0.027698411
0.026384952
0.025108504
0.023869889
0.022669788
0.021508735
0.020387121
0.019305196
0.018263071
0.017260726
0.016298011
0.015374655
0.014490274
0.013644376
0.012836372
0.012065582
0.011331245
0.010632529
0.0099685365
0.0093383153
0.0087408669
0.0081751539
0.0076401079
0.0071346369
0.0066576322
0.0062079745
0.0057845404
0.0053862073
0.0050118586
0.0046603887
0.004330709
0.0040217555
0.0037325008
0.003461965
0.0032091946
0.0029732448
0.052444068
0.05075203
0.049069827
0.047398766
0.045741017
0.044098747
0.042474092
0.040869151
0.039285966
0.037726517
0.036192707
0.034686349
0.033209159
0.031762744
0.030348596
0.028968081
0.027622437
0.026312762
0.025040018
0.023805023
0.022608449
0.021450827
0.020332541
0.019253838
0.018214826
0.017215479
0.016255646
0.015335054
0.014453317
0.013609944
0.012804344
0.012035839
0.011303669
0.010607002
0.0099449442
0.0093165458
0.0087208109
0.0081567053
0.0076231643
0.0071190994
0.0066434058
0.0061949681
0.0057726667
0.0053753824
0.0050020018
0.0046514216
0.0043225537
0.0040143347
0.0037257435
0.0034558288
0.0032036726
0.0029682637
0.052288426
0.050601103
0.048923574
0.047257171
0.045604065
0.043966427
0.042346394
0.040746059
0.039167464
0.037612582
0.036083309
0.034581453
0.033108723
0.031666718
0.030256923
0.028880698
0.027539269
0.026233732
0.024965039
0.023734
0.022541283
0.021387412
0.020272765
0.019197585
0.018161975
0.017165907
0.016209225
0.015291655
0.014412811
0.013572198
0.012769228
0.012003222
0.011273422
0.010578998
0.0099190572
0.0092926535
0.008698794
0.0081364481
0.0076045547
0.0071020296
0.0066277721
0.0061806712
0.0057596114
0.0053634775
0.0049911596
0.0046415562
0.0043135793
0.0040061615
0.003718282
0.003449035
0.0031975775
0.052118531
0.050436429
0.048764013
0.047102693
0.04545465
0.043822062
0.042207065
0.040611752
0.03903816
0.037488256
0.03596393
0.034466982
0.032999114
0.031561918
0.03015687
0.02878532
0.027448489
0.026147462
0.024883185
0.023656461
0.022467949
0.021318167
0.020207489
0.01913615
0.018104249
0.017111755
0.01615851
0.015244236
0.014368546
0.013530944
0.012730842
0.011967562
0.011240347
0.010548369
0.0098907379
0.0092665107
0.0086746978
0.0081142724
0.0075841778
0.007083334
0.006610645
0.0061650046
0.0057453018
0.0053504263
0.0049792717
0.0046307392
0.0043037392
0.0039971941
0.0037100639
0.0034415201
0.0031909669
0.051933528
0.05025723
0.04859039
0.046934598
0.04529206
0.043664961
0.04205544
0.040465589
0.038897436
0.037352946
0.035834
0.034342391
0.032879811
0.031447845
0.030047959
0.028681494
0.027349663
0.026053542
0.024794067
0.023572035
0.022388096
0.021242761
0.020136398
0.019069236
0.01804137
0.017052764
0.016103255
0.015192566
0.014320305
0.013485978
0.012688996
0.011928681
0.011204278
0.010514962
0.009859844
0.0092379852
0.0086483997
0.0080900649
0.0075619285
0.0070629155
0.0065919349
0.0061478857
0.0057296623
0.0053361595
0.0049662758
0.0046189157
0.0042929883
0.003987398
0.0037010315
0.051732541
0.050062726
0.048401937
0.046752133
0.04511556
0.043494414
0.041890835
0.040306908
0.038744659
0.037206043
0.035692935
0.034207119
0.032750278
0.031323986
0.029929701
0.028568754
0.027242348
0.025951549
0.024697285
0.023480342
0.022301364
0.021160854
0.020059172
0.018996542
0.017973052
0.016988663
0.016043208
0.015136408
0.014267868
0.013437094
0.012643496
0.011886399
0.011165047
0.010478619
0.009826229
0.009206941
0.0086197735
0.0080637084
0.0075376984
0.0070406739
0.0065715493
0.0061292294
0.0057126146
0.0053206056
0.0049521069
0.0046060289
0.0042812841
0.0039767634
0.051514839
0.049852142
0.048197868
0.046554524
0.044924401
0.043309696
0.041712547
0.040135035
0.038579178
0.037046923
0.035540136
0.034060592
0.032609964
0.031189817
0.029801596
0.028446623
0.027126089
0.025841052
0.024592428
0.023380994
0.022207386
0.021072098
0.019975482
0.018917756
0.017899003
0.016919178
0.015978111
0.015075519
0.014211006
0.013384078
0.012594144
0.011840529
0.011122481
0.010439179
0.0097897426
0.0091732383
0.0085886893
0.0080350826
0.0075113762
0.0070165061
0.0065493929
0.0061089478
0.0056940776
0.0053036901
0.0049366973
0.0045920185
0.0042685827
0.0039653501
0.052943483
0.05128072
0.049624745
0.047977376
0.046340978
0.044717812
0.043110063
0.041519861
0.03994928
0.03840033
0.036874949
0.035374993
0.033902227
0.032458313
0.031044803
0.029663134
0.028314615
0.027000426
0.025721612
0.02447908
0.023273597
0.022105788
0.020976139
0.019884995
0.018832565
0.017818927
0.016844029
0.015907701
0.015009653
0.014149489
0.013326714
0.012540736
0.011790882
0.011076402
0.010396478
0.0097502313
0.0091367343
0.0085550146
0.0080040644
0.0074828476
0.0069903064
0.006525368
0.0060869504
0.0056739679
0.0052853358
0.0049199752
0.0045768168
0.0042548089
0.0039529472
0.052684745
0.051028389
0.049379583
0.047739612
0.046110683
0.04449501
0.04289476
0.041312049
0.039748943
0.038207442
0.036689475
0.035196887
0.03373143
0.032294756
0.030888406
0.0295138
0.028172239
0.026864889
0.025592784
0.024356819
0.02315775
0.021996192
0.02087262
0.019787371
0.018740649
0.017732522
0.016762935
0.015831711
0.01493856
0.014083082
0.013264781
0.012483067
0.011737266
0.011026631
0.010350347
0.009707539
0.0090972838
0.0085186143
0.0079705284
0.0074519962
0.0069619669
0.0064993745
0.0060631447
0.0056521996
0.0052654632
0.0049018659
0.0045603505
0.0042398812
0.0039394683
0.052405322
0.050756664
0.0491157
0.047483702
0.04586281
0.0442552
0.04266302
0.041088375
0.039533317
0.037999837
0.036489851
0.035005194
0.033547606
0.032118725
0.030720078
0.029353076
0.028019001
0.02671901
0.025454123
0.024225222
0.023033052
0.021878216
0.02076118
0.019682272
0.018641686
0.017639486
0.016675609
0.015749874
0.014861988
0.014011549
0.01319806
0.01242093
0.011679488
0.010972988
0.010300618
0.0096615081
0.0090547399
0.0084793516
0.0079343474
0.0074187041
0.006931378
0.006471311
0.0060374365
0.0056286855
0.0052439907
0.0048822926
0.0045425452
0.0042237251
0.0039248491
0.052104707
0.050464593
0.048832165
0.047208768
0.045596522
0.043997581
0.042414076
0.040848099
0.039301692
0.037776832
0.036275425
0.03479929
0.033350157
0.031929648
0.030539278
0.029180441
0.027854407
0.026562319
0.025305181
0.024083864
0.0228991
0.02175148
0.02064146
0.019569357
0.018535357
0.017539516
0.016581767
0.015661923
0.014779686
0.013934654
0.013126327
0.012354117
0.011617352
0.010915289
0.01024712
0.0096119802
0.009008955
0.0084370892
0.0078953936
0.0073828524
0.0068984294
0.0064410747
0.0060097306
0.0056033367
0.0052208355
0.0048611774
0.0045233269
0.0042062706
0.00390903
0.051782112
0.050151265
0.048528073
0.046913941
0.045310986
0.043721354
0.042147161
0.040590487
0.039053362
0.037537751
0.036045546
0.034578555
0.033138489
0.031726959
0.030345463
0.028995381
0.027677967
0.026394349
0.025145517
0.023932327
0.022755498
0.021615609
0.020513104
0.01944829
0.018421344
0.017432315
0.016481127
0.015567591
0.014691404
0.013852162
0.013049364
0.012282421
0.011550665
0.010853355
0.010189686
0.0095587976
0.0089597819
0.0083916898
0.0078535392
0.007344322
0.0068630102
0.0064085629
0.0059799311
0.0055760642
0.0051959144
0.0048384423
0.0045026224
0.0041874502
0.0038919523
0.051436656
0.049815783
0.048202537
0.046598361
0.045005379
0.043425728
0.041861515
0.040314811
0.03878763
0.037281927
0.035799578
0.034342376
0.032912019
0.031510101
0.030138103
0.02879739
0.0274892
0.026214643
0.024974695
0.023770198
0.022601854
0.021470232
0.020375762
0.019318741
0.018299335
0.017317586
0.016373413
0.015466618
0.014596897
0.013763842
0.012966953
0.01220564
0.011479238
0.010787007
0.010128147
0.0095018043
0.008907075
0.0083430176
0.0078086575
0.0073029949
0.0068250107
0.0063736731
0.0059479428
0.0055467791
0.0051691445
0.0048140099
0.0044803596
0.0041671979
0.0038735574
0.051067435
0.049457264
0.047854692
0.046261194
0.044678895
0.04310993
0.041556399
0.04002036
0.038503816
0.037008707
0.035536896
0.03409016
0.032670179
0.031278532
0.029916683
0.028585978
0.027287639
0.026022758
0.024792297
0.023597078
0.022437792
0.021314992
0.020229096
0.019180389
0.018169029
0.017195047
0.016258354
0.015358751
0.014495926
0.013669472
0.012878885
0.012123577
0.011402884
0.010716071
0.010062343
0.0094408482
0.0088506921
0.0082909396
0.0077606244
0.0072587554
0.0067843228
0.0063363046
0.0059136718
0.005515394
0.0051404442
0.004787804
0.0044564678
0.0041454489
0.0038537872
0.050673569
0.049074853
0.047483707
0.045901633
0.044330759
0.042773216
0.041231097
0.039706449
0.038201264
0.036717466
0.035256902
0.033821334
0.032412425
0.031031734
0.029680708
0.028360674
0.027072837
0.025818271
0.024597918
0.023412587
0.022262951
0.021149548
0.020072783
0.019032931
0.018030136
0.017064423
0.016135696
0.015243748
0.014388265
0.013568836
0.012784957
0.012036042
0.011321427
0.010640382
0.0099921151
0.0093757827
0.0087904957
0.0082353273
0.0077093197
0.0072114911
0.0067408416
0.0062963595
0.0058770265
0.0054818232
0.0051097338
0.0047597504
0.0044308783
0.0041221402
0.0038325843
0.050254222
0.048667732
0.047088787
0.045518911
0.043960233
0.042414878
0.040884931
0.039372431
0.037879354
0.03640761
0.034959032
0.03353536
0.032138242
0.030769218
0.029429714
0.028121039
0.026844377
0.025600784
0.024391183
0.023216367
0.022076991
0.020973579
0.019906521
0.018876079
0.017882388
0.016925461
0.016005197
0.015121382
0.014273699
0.013461733
0.01268498
0.011942855
0.011234698
0.01055978
0.0099173164
0.0093064688
0.0087263556
0.0081760586
0.007654629
0.0071610948
0.0066944668
0.0062537439
0.0058379193
0.005445985
0.0050769366
0.0047297778
0.0044035249
0.0040972107
0.0038098931
0.049808609
0.048235139
0.046669194
0.045112316
0.043566629
0.042034256
0.040517271
0.039017701
0.03753751
0.036078592
0.034642761
0.033231742
0.031847159
0.030490534
0.029163274
0.027866665
0.026601873
0.025369932
0.024171748
0.023008092
0.021879605
0.020786793
0.019730032
0.018709572
0.017725536
0.016777928
0.015866637
0.014991446
0.014152031
0.013347978
0.01257878
0.011843855
0.011142543
0.010474121
0.0098378098
0.0092327776
0.0086581508
0.0081130197
0.0075964455
0.0071074665
0.0066451044
0.0062083699
0.0057962677
0.005407802
0.0050419804
0.0046978187
0.0043743449
0.0040706028
0.0037856603
0.049336006
0.047776374
0.046224253
0.044681197
0.043149327
0.041630755
0.040127548
0.038641718
0.037175217
0.03572992
0.034307624
0.032910034
0.031538754
0.030195284
0.028881009
0.027597196
0.026344986
0.025125394
0.023939306
0.022787473
0.021670519
0.020588932
0.019543074
0.018533181
0.017559363
0.016621617
0.015719822
0.014853755
0.014023089
0.013227407
0.012466202
0.011738893
0.011044823
0.010383274
0.0097534724
0.0091545934
0.008585772
0.0080461079
0.0075346724
0.0070505149
0.0065926688
0.0061601567
0.0057519958
0.005367203
0.0050047986
0.0046638109
0.0043432802
0.0040422623
0.0037598362
0.048835765
0.047290816
0.045753369
0.044224987
0.042707781
0.041203856
0.039715266
0.038244012
0.036792027
0.035361171
0.03395322
0.032569857
0.031212668
0.029883127
0.028582599
0.027312326
0.026073429
0.0248669
0.023693602
0.02255427
0.021449505
0.020379781
0.019345443
0.018346712
0.017383688
0.016456355
0.015564588
0.014708155
0.013886726
0.013099881
0.012347115
0.011627845
0.010941421
0.010287128
0.0096641987
0.0090718165
0.008509125
0.0079752338
0.0074692253
0.0069901604
0.0065370845
0.0061090331
0.0057050366
0.0053241248
0.0049653315
0.0046276984
0.0043102786
0.0040121406
0.0037323753
0.048307337
0.046777947
0.045256049
0.043743215
0.042241546
0.040753135
0.039280026
0.037824203
0.036387583
0.034972006
0.033579228
0.032210911
0.030868617
0.029553797
0.028267792
0.027011821
0.02578698
0.024594239
0.02343444
0.022308296
0.021216389
0.020159174
0.019136981
0.018150017
0.017198369
0.016282011
0.01540081
0.014554527
0.013742829
0.012965294
0.012221416
0.011510615
0.010832244
0.010185595
0.0095699046
0.0089843665
0.0084281332
0.0079003248
0.007400035
0.0069263369
0.006478289
0.0060549398
0.0056553335
0.0052785138
0.0049235286
0.0045894334
0.0042752951
0.0039801955
0.0037032383
0.047750301
0.046237371
0.04473192
0.043235529
0.041750288
0.04027828
0.038821533
0.037382016
0.035961627
0.034562185
0.033185426
0.031832988
0.030506408
0.029207114
0.027936421
0.026695523
0.025485493
0.024307276
0.023161692
0.022049431
0.020971057
0.019927005
0.01891759
0.017943002
0.017003317
0.016098499
0.015228406
0.014392792
0.013591323
0.012823572
0.012089036
0.011387137
0.010717229
0.010078612
0.0094705312
0.0088921867
0.008342742
0.007821328
0.0073270506
0.0068589956
0.006416235
0.0059978313
0.0056028429
0.0052303283
0.0048793498
0.0045489777
0.0042382934
0.0039463926
0.0036723926
0.047164391
0.045668841
0.044180752
0.042701717
0.041233814
0.039779112
0.038339625
0.036917303
0.035514024
0.034131588
0.032771704
0.031435988
0.030125952
0.028842998
0.027588414
0.026363369
0.02516891
0.024005959
0.022875311
0.021777634
0.02071347
0.019683238
0.018687234
0.017725634
0.016798502
0.015905789
0.015047346
0.014222923
0.01343218
0.012674689
0.011949948
0.01125738
0.010596347
0.0099661524
0.0093660492
0.0087952479
0.008252922
0.0077382142
0.0072502428
0.0067881074
0.0063508937
0.0059376791
0.0055475369
0.0051795406
0.0048327682
0.0045063051
0.0041992479
0.0039107072
0.0036398146
0.046549525
0.045072283
0.043602485
0.042141731
0.040692088
0.039255607
0.037834288
0.03643006
0.035044781
0.033680227
0.032338084
0.031019941
0.029727284
0.028461487
0.027223813
0.026015403
0.024837278
0.023690335
0.022575343
0.021492949
0.020443675
0.019427917
0.018445956
0.017497954
0.016583959
0.015703915
0.014857662
0.014044947
0.013265423
0.012518665
0.011804168
0.011121361
0.010469609
0.009848223
0.0092564642
0.008693553
0.0081586737
0.0076509816
0.007169608
0.0067136667
0.006282258
0.0058744746
0.0054894055
0.00512614
0.004783772
0.0044614031
0.0041581457
0.0038731261
0.0036054909
0.045905824
0.044447826
0.042997254
0.041555714
0.040125258
0.038707921
0.037305682
0.035920453
0.034554066
0.033208275
0.031884738
0.030585019
0.029310575
0.028062754
0.026842788
0.025651793
0.024490761
0.023360562
0.022261943
0.021195527
0.020161812
0.019161178
0.018193885
0.017260081
0.016359803
0.015492983
0.014659454
0.013858954
0.013091138
0.012355576
0.011651767
0.010979143
0.010337073
0.0097248756
0.0091418219
0.008587142
0.0080600322
0.0075596604
0.007085172
0.0066356952
0.0062103459
0.0058082325
0.0054284602
0.005070135
0.0047323674
0.0044142756
0.0041149888
0.0038336496
0.0035694205
0.045233642
0.043795825
0.042365418
0.040944026
0.039533685
0.038136413
0.036754168
0.035388838
0.034042235
0.032716082
0.031412014
0.030131564
0.028876161
0.027647124
0.026445657
0.025272845
0.024129654
0.023016928
0.021935387
0.02088563
0.019868134
0.018883259
0.017931247
0.017012232
0.016126237
0.015273183
0.014452897
0.013665112
0.012909478
0.012185566
0.011492877
0.010830845
0.010198848
0.0095962107
0.0090222134
0.0084760976
0.0079570718
0.0074643174
0.0069969943
0.0065542459
0.0061352042
0.0057389939
0.0053647372
0.0050115571
0.0046785813
0.0043649456
0.0040697962
0.0037922933
0.0035316161
0.044533597
0.043116899
0.04170759
0.040307274
0.038917971
0.037541678
0.036180331
0.034835793
0.033509851
0.032204202
0.03092045
0.029660101
0.028424553
0.027215095
0.0260329
0.024879026
0.023754408
0.022659863
0.021596087
0.020563652
0.019563016
0.018594517
0.017658381
0.016754725
0.01588356
0.015044798
0.014238257
0.013463667
0.012720673
0.012008849
0.011327696
0.010676653
0.010055105
0.0094623841
0.0088977817
0.0083605504
0.0078499116
0.0073650609
0.0069051731
0.0064694077
0.006056913
0.0056668309
0.0052983008
0.0049504636
0.0046224647
0.0043134576
0.004022607
0.0037490908
0.0034921066
0.043806615
0.042411962
0.041024671
0.039646347
0.038278989
0.036924572
0.035585009
0.034262138
0.032957718
0.031673416
0.03041081
0.029171371
0.027956468
0.026767359
0.025605187
0.024470977
0.023365639
0.022289959
0.021244608
0.020230134
0.019246972
0.018295441
0.017375748
0.016487997
0.015632185
0.014808215
0.014015898
0.013254959
0.012525043
0.011825721
0.011156499
0.010516822
0.0099060791
0.0093236142
0.008768728
0.0082406853
0.0077387213
0.0072620461
0.0068098502
0.0063813096
0.0059755896
0.0055918499
0.0052292476
0.0048869416
0.0045640957
0.0042598817
0.0039734826
0.0037040956
0.0034509381
0.043053969
0.041682265
0.04031789
0.038962449
0.037617917
0.036286248
0.034969328
0.03366897
0.032386901
0.031124762
0.029884096
0.028666345
0.027472846
0.026304823
0.025163389
0.024049538
0.022964151
0.021907985
0.020881685
0.019885775
0.018920668
0.017986662
0.017083948
0.016212613
0.015372646
0.014563937
0.013786293
0.013039432
0.012323
0.011636568
0.010979647
0.010351685
0.009752082
0.0091801888
0.0086353181
0.0081167477
0.0076237267
0.0071554805
0.006711216
0.006290126
0.0058913937
0.0055141966
0.0051577103
0.004821112
0.0045035839
0.0042043163
0.0039225106
0.0036573837