/*--------------------------------*- C++ -*----------------------------------*\
| =========                 |                                                 |
| \\      /  F ield         | OpenFOAM: The Open Source CFD Toolbox           |
|  \\    /   O peration     | Version:  2312                                  |
|   \\  /    A nd           | Website:  www.openfoam.com                      |
|    \\/     M anipulation  |                                                 |
\*---------------------------------------------------------------------------*/
FoamFile
{
    version     2.0;
    format      ascii;
    arch        "LSB;label=32;scalar=64";
    class       volScalarField;
    location    "0.04";
    object      Ma;
}
// * * * * * * * * * * * * * * * * * * * * * * * * * * * * * * * * * * * * * //

dimensions      [0 0 0 0 0 0 0];

internalField   nonuniform List<scalar> 
3251
(
0.0027268886
0.0026522608
0.0025784905
0.0025055719
0.0024334967
0.002362257
0.0022918431
0.0022222449
0.002153451
0.0020854494
0.0020182272
0.0019517707
0.0018860658
0.0018210977
0.0017568513
0.001693311
0.001630461
0.0015682855
0.0015067687
0.0014458947
0.001385648
0.0013260136
0.0012669766
0.0012085232
0.0011506401
0.0010933145
0.0010365352
0.00098029163
0.00092457444
0.00086937555
0.00081468813
0.00076050675
0.00070682732
0.00065364721
0.00060096521
0.00054878155
0.00049709788
0.00044591724
0.00039524412
0.00034508443
0.00029544543
0.00024633605
0.00019776738
0.00014975457
0.00010232393
5.5556395e-05
1.0798031e-05
3.7408765e-05
8.2290345e-05
0.00012675943
0.0001706475
0.00021391623
0.00025654457
0.00029851601
0.00033981834
0.00038044088
0.00042037387
0.00045960778
0.0027270213
0.0026523979
0.0025786323
0.0025057182
0.0024336471
0.0023624113
0.0022920011
0.0022224063
0.0021536156
0.0020856171
0.0020183978
0.0019519443
0.0018862423
0.0018212771
0.0017570336
0.0016934963
0.0016306495
0.0015684772
0.0015069637
0.0014460933
0.0013858505
0.0013262202
0.0012671877
0.0012087391
0.001150861
0.0010935412
0.001036768
0.00098053105
0.0009248212
0.00086963037
0.00081495187
0.00076078038
0.00070711202
0.00065394437
0.00060127653
0.00054910914
0.00049744444
0.00044628628
0.0003956404
0.00034551466
0.00029591948
0.00024686942
0.00019838653
0.0001505105
0.00010333608
5.7230552e-05
1.6898828e-05
3.9344902e-05
8.3062757e-05
0.00012717814
0.00017089466
0.00021406091
0.00025662053
0.00029854272
0.00033980779
0.00038040091
0.00042031016
0.00045952431
0.0027271983
0.0026525847
0.0025788283
0.0025059231
0.0024338602
0.0023626321
0.0022922292
0.0022226415
0.0021538576
0.0020858657
0.0020186529
0.0019522058
0.0018865102
0.0018215515
0.0017573147
0.0016937842
0.0016309445
0.0015687796
0.001507274
0.0014464119
0.0013861779
0.0013265569
0.0012675344
0.0012090965
0.00115123
0.0010939226
0.0010371628
0.00098094034
0.0009252462
0.00087007247
0.00081541264
0.00076126167
0.00070761596
0.0006544735
0.00060183396
0.0005496987
0.00049807099
0.00044695611
0.00039636204
0.00034630004
0.00029678614
0.00024784476
0.00019951704
0.00015188492
0.00010515803
6.0149141e-05
2.4276734e-05
4.2561918e-05
8.4386871e-05
0.000127878
0.00017128593
0.00021426604
0.0002566995
0.00029852981
0.0003397243
0.00038026082
0.00042012331
0.00045929804
0.0027274202
0.0026528215
0.0025790791
0.002506187
0.0024341364
0.0023629199
0.0022925282
0.0022229511
0.0021541775
0.0020861957
0.0020189928
0.0019525556
0.00188687
0.0018219214
0.0017576949
0.0016941751
0.0016313464
0.0015691933
0.0015076999
0.0014468506
0.0013866304
0.001327024
0.0012680171
0.0012095958
0.0011517472
0.0010944589
0.0010377197
0.00098151955
0.00092584946
0.00087070181
0.00081607039
0.00076195047
0.00070833893
0.00065523435
0.00060263713
0.00055054971
0.0004989768
0.00044792577
0.0003974077
0.0003474387
0.00029804262
0.00024925766
0.00020115129
0.00015386263
0.00010775074
6.4146126e-05
3.2069438e-05
4.6801783e-05
8.6240332e-05
0.00012885655
0.00017182194
0.00021453271
0.00025678267
0.00029847843
0.00033956883
0.00038002146
0.00041981408
0.00045892931
0.0027276856
0.0026531067
0.002579383
0.0025065084
0.0024344742
0.0023632733
0.0022928965
0.0022233337
0.002154574
0.0020866057
0.0020194163
0.0019529924
0.0018873202
0.0018223854
0.0017581729
0.0016946676
0.0016318541
0.0015697168
0.00150824
0.0014474084
0.0013872067
0.0013276202
0.0012686344
0.0012102358
0.0011524113
0.0010951489
0.0010384376
0.00098226738
0.00092662964
0.00087151701
0.00081692365
0.00076284528
0.00070927935
0.00065622518
0.00060368418
0.00055166011
0.00050015959
0.00044919258
0.00039877418
0.00034892661
0.00029968361
0.00025110053
0.00020327722
0.00015642133
0.00011106174
6.903789e-05
4.0043268e-05
5.1821494e-05
8.8595158e-05
0.00013011169
0.00017250493
0.00021486395
0.00025687305
0.00029839139
0.00033934407
0.00037968547
0.00041938527
0.0027279892
0.0026534338
0.0025797319
0.0025068777
0.0024348627
0.00236368
0.0022933205
0.0022237743
0.0021550309
0.0020870784
0.0020199047
0.0019534965
0.0018878401
0.0018229213
0.0017587254
0.0016952372
0.0016324414
0.0015703227
0.0015088656
0.0014480547
0.001387875
0.0013283119
0.0012693511
0.0012109792
0.0011531832
0.0010959514
0.0010392729
0.0009831381
0.00092753851
0.00087246715
0.00081791859
0.00076388907
0.00071037667
0.00065738159
0.00060490635
0.00055295624
0.00050153998
0.00045067054
0.00040036747
0.00035065979
0.00030159217
0.00025323875
0.00020573412
0.00015935717
0.00011480251
7.4327934e-05
4.7656127e-05
5.7079958e-05
9.122845e-05
0.00013152728
0.0001732665
0.00021521869
0.00025694762
0.0002982588
0.00033905012
0.00037926096
0.00041885176
0.0027283931
0.0026538627
0.0025801841
0.0025073516
0.0024353567
0.002364193
0.0022938516
0.0022243229
0.0021555962
0.0020876602
0.0020205026
0.0019541107
0.0018884707
0.0018235687
0.00175939
0.0016959198
0.0016331428
0.0015710439
0.0015096077
0.0014488191
0.0013886633
0.0013291255
0.001270192
0.0012118492
0.0011540847
0.0010968866
0.0010402446
0.00098414905
0.00092859193
0.00087356662
0.00081906813
0.00076509327
0.00071164086
0.00065871199
0.00060631043
0.00055444313
0.0005031211
0.00045236059
0.00040218594
0.0003526334
0.0003037593
0.00025565742
0.00020849798
0.00016263028
0.00011890124
7.9884334e-05
5.4972517e-05
6.2434649e-05
9.4057783e-05
0.00013305351
0.00017406933
0.00021556586
0.0002569791
0.00029805593
0.0003386642
0.00037872651
0.00041819294
0.0027289218
0.0026544201
0.0025807681
0.0025079602
0.0024359882
0.0023648461
0.0022945252
0.0022250159
0.0021563081
0.0020883905
0.0020212512
0.0019548774
0.0018892559
0.0018243727
0.0017602135
0.0016967636
0.001634008
0.0015719317
0.0015105196
0.0014497566
0.0013896282
0.0013301199
0.001271218
0.0012129093
0.0011551815
0.0010980231
0.0010414237
0.00098537443
0.00092986736
0.00087489638
0.00082045701
0.0007665467
0.00071316513
0.00066031447
0.00060799988
0.00055623019
0.00050501903
0.00045438643
0.00040436208
0.00035499031
0.00030634041
0.00025852753
0.0002117598
0.00016645836
0.00012361286
8.6028436e-05
6.2546469e-05
6.8211997e-05
9.7265033e-05
0.00013479598
0.00017496976
0.00021592869
0.00025696709
0.00029776468
0.00033815423
0.00037803861
0.0004173554
0.0027295577
0.0026550891
0.0025814676
0.002508688
0.0024367424
0.002365625
0.0022953274
0.0022258404
0.0021571541
0.0020892575
0.002022139
0.001955786
0.0018901855
0.0018253239
0.001761187
0.0016977604
0.0016350294
0.0015729791
0.0015115947
0.0014508613
0.0013907647
0.0013312905
0.0012724253
0.0012141561
0.0011564709
0.0010993586
0.001042809
0.00098681347
0.00093136468
0.00087645694
0.00082208639
0.00076825122
0.00071495205
0.00066219226
0.00060997857
0.00055832199
0.00050723903
0.00045675398
0.00040690238
0.0003577374
0.00030934235
0.00026185509
0.00021552283
0.00017083722
0.0001289145
9.2705513e-05
7.0376924e-05
7.4391196e-05
0.00010087127
0.0001367883
0.00017599856
0.00021633305
0.00025693318
0.00029740313
0.00033753561
0.00037721056
0.0027302839
0.0026558534
0.0025822672
0.0025095201
0.0024376049
0.0023665159
0.0022962452
0.002226784
0.0021581225
0.0020902501
0.0020231555
0.0019568265
0.0018912503
0.0018264136
0.0017623025
0.0016989028
0.0016362001
0.0015741799
0.0015128274
0.0014521283
0.0013920683
0.0013326335
0.0012738107
0.0012155872
0.0011579512
0.001100892
0.0010443998
0.00098846626
0.00093308462
0.00087824972
0.00082395836
0.00077020959
0.00071700505
0.00066434947
0.00061225137
0.00056072408
0.00050978735
0.00045947002
0.00040981403
0.00036088212
0.00031277237
0.00026564611
0.00021978973
0.00017576147
0.00013478334
9.9871915e-05
7.8467309e-05
8.0957457e-05
0.00010489435
0.00013906369
0.00017718747
0.00021680597
0.00025689986
0.00029699008
0.00033682421
0.00037625552
0.0027310813
0.0026566946
0.0025831488
0.0025104394
0.0024385592
0.0023675032
0.0022972636
0.0022278322
0.0021591994
0.0020913552
0.0020242884
0.0019579872
0.0018924392
0.0018276314
0.0017635501
0.0017001817
0.0016375118
0.0015755263
0.0015142108
0.0014535512
0.0013935334
0.001334144
0.0012753699
0.0012171988
0.0011596194
0.001102621
0.0010461945
0.00099033192
0.000935027
0.00088027521
0.00082607412
0.00077242368
0.00071932671
0.00066678941
0.00061482222
0.00056344108
0.0005126692
0.00046254031
0.00041310318
0.00036443066
0.0003166361
0.00026990464
0.00022456067
0.00018122299
0.00014119592
0.0001074924
8.6822842e-05
8.7901084e-05
0.00010935016
0.00014165611
0.00017857081
0.00021737758
0.00025689277
0.00029654729
0.00033603863
0.0027319291
0.0026575928
0.0025840936
0.0025114275
0.0024395878
0.0023685699
0.0022983665
0.0022289696
0.0021603703
0.0020925588
0.0020255243
0.0019592556
0.0018937404
0.0018289661
0.0017649196
0.0017015873
0.0016389555
0.0015770101
0.0015157373
0.001455123
0.0013951538
0.0013358164
0.0012770982
0.0012189871
0.001161472
0.001104543
0.0010481913
0.00099240927
0.00093719136
0.00088253369
0.00082843465
0.00077489521
0.00072191943
0.00066951515
0.0006176949
0.00056647737
0.00051588953
0.00046597022
0.00041677545
0.00036838856
0.00032093837
0.0002746335
0.00022983433
0.0001872124
0.00014812988
0.00011553962
9.5450021e-05
9.521611e-05
0.00011425201
0.00014459902
0.00018018452
0.00021808032
0.00025693993
0.00029609891
0.00033519898
0.0027328053
0.0026585265
0.0025850808
0.0025124646
0.0024406716
0.0023696977
0.0022995362
0.0022301795
0.0021616191
0.0020938457
0.0020268489
0.0019606179
0.0018951408
0.0018304056
0.0017663994
0.001703109
0.0016405211
0.0015786221
0.0015173983
0.0014568362
0.0013969226
0.0013376446
0.00127899
0.0012209471
0.0011635053
0.0011066549
0.0010503876
0.00099469658
0.0009395767
0.00088502489
0.00083104043
0.00077762536
0.00072478514
0.00067252932
0.00062087267
0.00056983684
0.00051945273
0.00046976454
0.00042083577
0.00037276046
0.00032568283
0.0002798342
0.00023560786
0.00019371918
0.0001555645
0.00012399263
0.00010435604
0.00010289963
0.00011961105
0.00014792505
0.00018206604
0.00021894911
0.00025707217
0.00029567161
0.0027336857
0.0026594726
0.0025860881
0.0025135292
0.00244179
0.002370867
0.0023007539
0.0022314437
0.0021629285
0.0020951993
0.0020282464
0.0019620592
0.0018966265
0.0018319365
0.001767977
0.0017047351
0.0016421978
0.001580352
0.0015191845
0.0014586821
0.001398832
0.0013396216
0.0012810392
0.0012230736
0.0011657145
0.0011089527
0.0010527805
0.00099719159
0.00094218155
0.00088774811
0.00083389149
0.00078061494
0.00072792535
0.00067583411
0.00062435839
0.0005735229
0.00052336269
0.00047392745
0.00042528837
0.00037755018
0.00033087214
0.00028550696
0.0002418772
0.0002007324
0.00016348067
0.00013283554
0.00011354854
0.000110951
0.00012543646
0.00015166542
0.00018425384
0.00022002118
0.00025732315
0.00029529406
0.0027345448
0.0026604064
0.0025870918
0.0025145983
0.002442921
0.0023720564
0.0023019992
0.0022327428
0.0021642799
0.0020966019
0.0020296998
0.0019635634
0.0018981821
0.0018335445
0.0017696388
0.0017064527
0.0016439737
0.0015821889
0.0015210857
0.0014606513
0.0014008734
0.0013417397
0.001283239
0.0012253605
0.0011680944
0.0011114321
0.0010553663
0.00099989148
0.00094500389
0.00089070211
0.0008369874
0.00078386424
0.00073134107
0.00067943124
0.00062815439
0.00057753846
0.00052762272
0.00047846252
0.00043013675
0.00038276064
0.00033650793
0.00029165097
0.00024863728
0.00020824065
0.00017186112
0.00014205662
0.00012303526
0.00011937124
0.00013173558
0.00015584943
0.00018678687
0.00022133577
0.00025772874
0.0027353551
0.0026613015
0.0025880662
0.0025156475
0.0024440408
0.0023732433
0.0023032503
0.0022340559
0.0021656532
0.0020980344
0.0020311909
0.0019651132
0.0018997912
0.001835214
0.0017713702
0.0017082482
0.0016458358
0.0015841208
0.0015230908
0.0014627337
0.0014030374
0.0013439904
0.0012855817
0.001227801
0.0011706391
0.0011140879
0.0010581408
0.0010027929
0.00094804113
0.00089388511
0.00084032715
0.00078737303
0.00073503283
0.00068332191
0.0006322625
0.00058188585
0.00053223555
0.00048337264
0.00043538362
0.00038839393
0.00034259088
0.00029826436
0.00025588221
0.00021623274
0.00018069094
0.00015164761
0.00013282399
0.0001281623
0.00013851418
0.00016050407
0.00018970427
0.00022293405
0.00025832629
0.0027360874
0.0026621296
0.0025889844
0.0025166505
0.0024451242
0.0023744034
0.0023044839
0.0022353606
0.0021670271
0.0020994764
0.0020327003
0.0019666902
0.0019014362
0.0018369282
0.0017731555
0.0017101067
0.0016477703
0.0015861346
0.0015251878
0.001464918
0.0014053139
0.0013463643
0.0012880587
0.0012303875
0.0011733419
0.0011169144
0.0010610991
0.0010058917
0.00095129011
0.00089729478
0.00084390921
0.00079114057
0.0007390006
0.00068750679
0.00063668399
0.00058656683
0.00053720328
0.00048866001
0.00044103097
0.0003944513
0.00034912077
0.00030534445
0.00026360562
0.00022469789
0.00018995742
0.00016160307
0.00014292253
0.00013732718
0.00014577658
0.00016565354
0.00019304465
0.00022485896
0.0027367108
0.002662861
0.0025898173
0.0025175795
0.0024461445
0.002375511
0.0023056753
0.0022366331
0.0021683789
0.002100906
0.0020342073
0.0019682744
0.0019030983
0.0018386695
0.0017749777
0.0017120124
0.0016497624
0.0015882165
0.0015273636
0.0014671923
0.0014076917
0.0013488513
0.001290661
0.0012331118
0.0011761955
0.0011199052
0.0010642357
0.0010091833
0.00095474704
0.0009009282
0.0008477315
0.00079516555
0.00074324383
0.00069198598
0.00064141956
0.0005915826
0.00054252739
0.00049432618
0.00044708004
0.00040093319
0.00035609656
0.00031288781
0.00027180075
0.00023362596
0.00019964984
0.00017191966
0.00015333883
0.00014686993
0.00015352634
0.00017131907
0.00019684459
0.00022715288
0.0027371927
0.0026634639
0.0025905346
0.0025184052
0.0024470735
0.0023765387
0.0023067983
0.0022378484
0.0021696844
0.0021023004
0.0020356897
0.0019698449
0.0019047576
0.0018404188
0.0017768191
0.0017139482
0.0016517959
0.0015903515
0.0015296042
0.0014695435
0.0014101589
0.0013514404
0.0012933786
0.0012359649
0.0011791919
0.0011230532
0.0010675443
0.0010126625
0.00095840757
0.00090478187
0.00085179135
0.00079944611
0.0007477614
0.00069675906
0.00064646936
0.00059693373
0.00054820874
0.00050037201
0.00045353136
0.00040783932
0.0003635165
0.00032089044
0.00028046075
0.00024300748
0.00020975923
0.00018259568
0.00016408068
0.00015679502
0.00016176651
0.00017751933
0.00020113912
0.0002298617
0.0027374985
0.0026639052
0.0025911042
0.0025190966
0.0024478811
0.002377458
0.0023078252
0.00223898
0.0021709182
0.002103635
0.0020371243
0.0019713795
0.0019063929
0.0018421561
0.0017786604
0.0017158964
0.0016538541
0.0015925237
0.0015318951
0.001471958
0.0014127028
0.00135412
0.0012962007
0.0012389371
0.0011823222
0.0011263506
0.0010710183
0.0010163234
0.00096226675
0.00090885173
0.00085608557
0.00080397986
0.00075255167
0.00070182506
0.00065183299
0.00060262027
0.00055424761
0.00050679775
0.00046038481
0.00041516871
0.00037137819
0.0003293479
0.00028957877
0.00025283384
0.00022027825
0.00019363078
0.00017515576
0.00016710734
0.00017049956
0.00018426991
0.00020596054
0.00023302944
0.0027375925
0.0026641502
0.0025914925
0.0025196213
0.0024485364
0.0023782387
0.0023087272
0.00224
0.0021720538
0.0021048844
0.0020384868
0.001972855
0.001907982
0.0018438604
0.0017804819
0.0017178379
0.0016559193
0.0015947166
0.0015342203
0.0014744212
0.0014153098
0.0013568775
0.0012991159
0.0012420179
0.0011855772
0.001129789
0.0010746501
0.0010201596
0.0009663191
0.00091313322
0.00086061045
0.00080876391
0.00075761251
0.0007071825
0.00065750954
0.0006086417
0.00056064368
0.00051360306
0.00046763965
0.00042291982
0.00037967875
0.0003382555
0.00029914809
0.00026309724
0.00023120103
0.00020502573
0.00018657162
0.00017781205
0.00017972748
0.00019158362
0.00021133753
0.0027374371
0.0026641626
0.0025916646
0.0025199456
0.0024490066
0.0023788495
0.0023094742
0.0022408795
0.0021730632
0.002106022
0.0020397517
0.001974247
0.0019095018
0.0018455096
0.0017822626
0.0017197531
0.0016579726
0.0015969124
0.0015365637
0.0014769177
0.0014179657
0.0013596998
0.0013021122
0.0012451964
0.0011889469
0.0011333595
0.0010784319
0.0010241641
0.00097055864
0.00091762128
0.00086536182
0.00081379492
0.00076294132
0.00071282946
0.00066349763
0.00061499705
0.00056739619
0.0005207871
0.00047529465
0.0004310906
0.0003884149
0.00034760837
0.00030916234
0.00027379083
0.00024252306
0.00021678217
0.00019833572
0.00018891442
0.00018945173
0.00019947062
0.00021730118
0.0027369936
0.0026639049
0.0025915843
0.0025200345
0.0024492582
0.0023792579
0.0023100348
0.0022415885
0.0021739178
0.0021070202
0.0020408925
0.0019755303
0.0019109284
0.0018470808
0.0017839809
0.0017216215
0.0016599949
0.0015990931
0.0015389081
0.0014794316
0.0014206558
0.0013625733
0.001305177
0.0012484611
0.0011924208
0.0011370527
0.0010823554
0.0010283296
0.00097497902
0.00092231048
0.00087033513
0.00081906916
0.00076853514
0.00071876363
0.00066979548
0.00062168491
0.00057450392
0.00052834856
0.00048334812
0.00043967864
0.00039758312
0.00035740164
0.00031961553
0.00028490866
0.00025424104
0.00022890249
0.00021045539
0.00020041975
0.00019967302
0.0027362223
0.0026633386
0.0025912143
0.0025198521
0.0024492563
0.0023794306
0.0023103769
0.0022420961
0.0021745878
0.0021078506
0.0020418822
0.001976679
0.0019122369
0.0018485507
0.0017856145
0.001723422
0.0016619662
0.00160124
0.001541236
0.0014819466
0.0014233648
0.0013654838
0.0013082973
0.0012518001
0.0011959882
0.001140859
0.0010864118
0.0010326485
0.00097957355
0.00092719508
0.00087552554
0.00082458263
0.0007743907
0.00072498241
0.00067640102
0.00062870359
0.00058196534
0.00053628586
0.0004917981
0.00044868128
0.00040717978
0.00036763062
0.00033050219
0.00029644574
0.0002663528
0.00024138979
0.00022293798
0.00021233365
0.0027350827
0.0026624247
0.0025905165
0.0025193616
0.0024489657
0.0023793334
0.0023104678
0.0022423708
0.0021750431
0.0021084843
0.002042693
0.0019776668
0.0019134022
0.0018498952
0.0017871406
0.0017251331
0.0016638663
0.001603334
0.0015435295
0.001484446
0.0014260772
0.001368417
0.0013114599
0.0012552013
0.0011996381
0.0011447684
0.0010905924
0.0010371129
0.00098433541
0.00093226922
0.00088092807
0.00083033118
0.00078050462
0.00073148304
0.00068331202
0.00063605121
0.00058977872
0.00054459719
0.00050064246
0.00045809577
0.00041720132
0.00037829087
0.0003418175
0.00030839808
0.00027885727
0.0002542478
0.00023579102
0.00022466287
0.0028066705
0.0027335324
0.0026611229
0.0025894523
0.0025185257
0.0024483503
0.0023789318
0.0023102742
0.0022423807
0.002175253
0.0021088919
0.002043297
0.0019784668
0.001914399
0.0018510902
0.0017885365
0.0017267331
0.0016656748
0.0016053559
0.0015457706
0.0014869131
0.0014287775
0.0013713585
0.0013146515
0.0012586526
0.0012033594
0.0011487709
0.0010948883
0.001041715
0.00098925779
0.00093752703
0.00088653775
0.00083631065
0.00078687347
0.00073826275
0.0006905262
0.00064372584
0.00059794229
0.00055328072
0.00050987905
0.00046791944
0.00042764435
0.00038937843
0.0003535574
0.00032076269
0.00029175441
0.00026748093
0.00024902231
0.0002374141
0.0028043838
0.0027315303
0.0026593927
0.0025879827
0.0025173071
0.0024473743
0.0023781911
0.0023097629
0.0022420939
0.0021751871
0.0021090443
0.0020436663
0.0019790526
0.0019152018
0.0018521118
0.0017897793
0.0017282007
0.0016673714
0.0016072868
0.0015479417
0.0014893311
0.0014314501
0.0013742941
0.0013178591
0.0012621421
0.0012071415
0.0011528571
0.0010992908
0.0010464473
0.00099433413
0.00094296289
0.00089234985
0.00084251714
0.00079349407
0.00074531896
0.00069804147
0.00065172571
0.00060645445
0.00056233478
0.00051950592
0.00047814988
0.00043850594
0.00040088994
0.00036571867
0.00033353768
0.00030504519
0.00028109417
0.00026263955
0.00025059346
0.002801579
0.0027290352
0.0026571942
0.0025860694
0.0025156687
0.0024460019
0.0023770771
0.0023089009
0.0022414789
0.0021748151
0.0021089127
0.0020437734
0.0019793979
0.001915786
0.0018529364
0.0017908469
0.0017295147
0.0016689364
0.0016091081
0.0015500254
0.0014916843
0.0014340804
0.0013772102
0.0013210703
0.0012656586
0.0012109741
0.0011570177
0.001103792
0.0010513027
0.00099955836
0.00094857166
0.0008983601
0.00084894716
0.00080036363
0.00075264948
0.00070585612
0.00066004945
0.00061531395
0.00057175807
0.00052952155
0.00048878517
0.00044978374
0.00041282282
0.0003782991
0.00034672225
0.00031873164
0.00029509311
0.00027665076
0.00026420778
0.0027982135
0.0027260063
0.0026544886
0.0025836747
0.0025135743
0.0024441984
0.0023755565
0.0023076564
0.0022405051
0.0021741079
0.0021084692
0.0020435918
0.0019794776
0.0019161276
0.0018535413
0.0017917179
0.0017306553
0.0016703511
0.0016108023
0.0015520055
0.0014939574
0.0014366545
0.001380094
0.0013242734
0.0012691914
0.0012148479
0.0011612444
0.0011083847
0.001056275
0.0010049253
0.00095434903
0.00090456503
0.000855598
0.00080748014
0.00076025287
0.00071396912
0.0006686963
0.00062452016
0.00058154991
0.00053992504
0.00049982409
0.00046147623
0.00042517551
0.00039129764
0.00036031684
0.00033281685
0.00030948411
0.00029106435
0.00027826453
0.0027942464
0.0027224047
0.0026512382
0.0025807626
0.0025109893
0.0024419305
0.0023735973
0.0023059989
0.0022391435
0.0021730378
0.0021076874
0.0020430964
0.001979268
0.0019162042
0.0018539057
0.0017923725
0.0017316039
0.0016715982
0.0016123535
0.0015538672
0.0014961368
0.0014391599
0.0013829343
0.0013274584
0.0012727317
0.0012187549
0.0011655304
0.0011130628
0.0010613594
0.0010104308
0.00096029186
0.00091096231
0.00086246808
0.00081484264
0.00076812869
0.00072238046
0.0006776665
0.00063407341
0.00059171059
0.00055071647
0.00051126646
0.000473583
0.00043794763
0.00040471454
0.00037432324
0.00034730511
0.00032427436
0.00030588934
0.00029277182
0.0027896394
0.0027181934
0.0026474075
0.002577299
0.0025078809
0.0024391671
0.0023711699
0.0023039
0.0022373671
0.0021715792
0.0021065432
0.0020422645
0.0019787476
0.0019159956
0.0018540104
0.0017927931
0.001732344
0.0016726625
0.0016137475
0.0015555976
0.001498211
0.0014415861
0.0013857216
0.001330617
0.0012762722
0.001222689
0.0011698706
0.0011178224
0.0010665525
0.0010160727
0.00096639867
0.00091755121
0.00086955735
0.00082245165
0.00077627795
0.00073109148
0.00068696162
0.00064397534
0.00060224165
0.0005618972
0.00052311341
0.00048610503
0.00045114029
0.00041855162
0.00038874476
0.00036220207
0.00033947208
0.00032113544
0.00030773848
0.0027843572
0.0027133385
0.0026429641
0.002573253
0.0025042199
0.0024358801
0.0023682476
0.0023013345
0.002235152
0.0021697095
0.0021050153
0.0020410762
0.0019778978
0.0019154844
0.0018538394
0.0017929648
0.0017328621
0.0016735316
0.0016149733
0.0015571866
0.0015001708
0.0014439252
0.0013884493
0.0013337433
0.0012798083
0.0012266465
0.0011742622
0.0011226615
0.0010718536
0.0010218509
0.00097267013
0.0009243331
0.00087686777
0.00083030968
0.00078470355
0.00074010538
0.000696585
0.00065422931
0.00061314633
0.00057347028
0.00053536773
0.000499045
0.00046475639
0.00043281247
0.00040358645
0.00037751488
0.00035508669
0.00033681337
0.0003231743
0.0027783687
0.0027078104
0.0026378798
0.0025685977
0.0024999807
0.0024320455
0.0023648077
0.0022982811
0.0022324783
0.0021674102
0.0021030864
0.0020395153
0.0019767037
0.0019146573
0.0018533804
0.0017928766
0.0017331481
0.0016741966
0.001616023
0.0015586277
0.0015020109
0.0014461729
0.0013911139
0.0013368352
0.0012833384
0.0012306269
0.0011787055
0.0011275814
0.0010772645
0.001027768
0.00097910969
0.00093131205
0.00088440396
0.00083842175
0.00079341085
0.00074942771
0.00070654226
0.00066484087
0.00062443003
0.00058544083
0.00054803434
0.00051240772
0.0004788009
0.00044750278
0.00041885535
0.00039325248
0.00037112908
0.00035293501
0.00033909022
0.0027716481
0.0027015846
0.0026321316
0.0025633117
0.0024951431
0.0024276445
0.0023608328
0.0022947237
0.0022293311
0.0021646676
0.0021007443
0.0020375708
0.0019751555
0.0019135053
0.0018526259
0.0017925219
0.0017331968
0.0016746533
0.0016168935
0.0015599187
0.0015037301
0.0014483289
0.0013937162
0.0013398941
0.0012868652
0.0012346336
0.0011832049
0.0011325871
0.001082791
0.0010338306
0.0009857243
0.00093849551
0.00089217378
0.00084679607
0.00080240824
0.00075906695
0.00071684185
0.00067581832
0.00063610079
0.00059781662
0.0005611207
0.00052620052
0.00049328132
0.00046263069
0.00043456076
0.00040942586
0.00038761188
0.00036951376
0.00035549862
0.0027641765
0.0026946436
0.0026257031
0.0025573798
0.0024896935
0.0024226646
0.0023563118
0.0022906523
0.0022257018
0.0021614744
0.0020979827
0.0020352378
0.0019732494
0.0019120259
0.0018515742
0.0017919002
0.0017330086
0.0016749033
0.0016175873
0.0015610631
0.0015053328
0.0014503984
0.0013962623
0.0013429271
0.0012903963
0.0012386749
0.0011877694
0.0011376884
0.0010884434
0.0010400493
0.00099252522
0.00094589511
0.00090018915
0.00085544472
0.0008117079
0.00076903524
0.00072749573
0.00068717335
0.00064816993
0.00061060854
0.00057463737
0.00054043372
0.00050820808
0.00047820714
0.00045071469
0.00042604839
0.00040454978
0.00038656481
0.00037241361
0.0027559429
0.0026869777
0.0026185863
0.0025507952
0.0024836262
0.0024171015
0.0023512415
0.0022860651
0.0022215897
0.0021578309
0.002094803
0.0020325187
0.0019709889
0.0019102236
0.001850231
0.0017910182
0.0017325912
0.001674955
0.0016181137
0.0015620709
0.0015068298
0.0014523932
0.0013987645
0.0013459471
0.0012939455
0.0012427653
0.0011924138
0.0011429005
0.0010942375
0.0010464405
0.00099952894
0.00095352757
0.00090846689
0.00086438453
0.00082132656
0.00077934908
0.00073852009
0.00069892171
0.00066065268
0.00062383131
0.00058859855
0.00055512124
0.00052359505
0.00049424637
0.00046733216
0.00044313623
0.00042195993
0.00040410553
0.00038985136
0.0027469465
0.0026785874
0.0026107826
0.0025435606
0.0024769452
0.0024109603
0.0023456281
0.0022809694
0.0022170032
0.0021537468
0.002091216
0.0020294251
0.0019683867
0.0019081119
0.0018486105
0.001789891
0.0017319604
0.001674825
0.0016184902
0.0015629604
0.00150824
0.0014543328
0.0014012429
0.0013489748
0.0012975338
0.0012469262
0.0011971601
0.0011482457
0.0011001959
0.0010530266
0.0010067582
0.00096141564
0.00091702969
0.00087363801
0.00083128641
0.00079003025
0.00074993615
0.00071108398
0.00067356895
0.0006375041
0.00060302278
0.00057028112
0.00053946007
0.00051076639
0.00048443175
0.00046070873
0.00043986234
0.00042215587
0.00040783046
0.0027371987
0.0026694851
0.0026023056
0.0025356907
0.0024696662
0.0024042578
0.0023394896
0.0022753841
0.002211962
0.0021492426
0.0020872432
0.0020259796
0.001965466
0.001905715
0.0018467378
0.0017885441
0.0017311425
0.0016745404
0.0016187441
0.0015637596
0.0015095918
0.0014562459
0.0014037268
0.0013520398
0.001301191
0.0012511877
0.0012020386
0.0011537544
0.0011063488
0.0010598382
0.0010142433
0.00096958931
0.00092590718
0.00088323435
0.00084161608
0.00080110668
0.00076177109
0.00072368646
0.00068694409
0.00065165134
0.00061793363
0.00058593624
0.0005558256
0.00052778959
0.00050203609
0.00047878896
0.00045828038
0.00044073881
0.00042637239
0.0027267247
0.0026596971
0.0025931828
0.0025272139
0.0024618186
0.0023970242
0.002332857
0.0022693411
0.0022064992
0.0021443521
0.002082919
0.0020222172
0.0019622626
0.0019030692
0.0018446497
0.0017870152
0.0017301756
0.0016741395
0.0016189145
0.0015645075
0.0015109248
0.0014581723
0.001406256
0.001355182
0.0013049574
0.0012555899
0.0012070891
0.0011594665
0.0011127359
0.0010669144
0.001022023
0.00097808695
0.00093513712
0.00089321055
0.0008523517
0.00081261356
0.00077405897
0.00073676206
0.00070080979
0.00066630351
0.00063336046
0.000602115
0.00057271935
0.00054534329
0.00052017243
0.00049740423
0.00047724124
0.0004598809
0.0004455019
0.0027155666
0.0026492665
0.0025834577
0.0025181748
0.0024534477
0.0023893059
0.0023257774
0.0022628883
0.0022006631
0.0021391244
0.0020782931
0.0020181882
0.0019588272
0.0019002257
0.0018423978
0.0017853561
0.0017291117
0.0016736746
0.0016190537
0.0015652569
0.0015122915
0.0014601646
0.0014088831
0.0013584539
0.0013088849
0.0012601846
0.0012123632
0.0011654328
0.0011194076
0.0010743051
0.0010301463
0.0009869567
0.00094476666
0.00090361267
0.00086353813
0.00082459437
0.00078684185
0.00075035131
0.00071520504
0.00068149806
0.00064933926
0.00061885214
0.00059017502
0.00056346046
0.00053887326
0.0005165867
0.0004967766
0.0004796127
0.00046524763
0.0027037856
0.0026382551
0.0025731933
0.0025086368
0.0024446177
0.0023811674
0.0023183159
0.0022560913
0.0021945199
0.002133626
0.0020734324
0.0020139599
0.0019552274
0.0018972523
0.00184005
0.0017836347
0.0017280189
0.0016732138
0.0016192296
0.0015660753
0.0015137595
0.00146229
0.0014116748
0.0013619217
0.0013130393
0.0012650369
0.0012179253
0.0011717169
0.0011264266
0.0010820719
0.0010386739
0.00099625784
0.0009548537
0.00091449709
0.00087523008
0.0008371021
0.00080017086
0.00076450341
0.00073017706
0.00069728031
0.00066591354
0.00063618949
0.00060823306
0.00058218042
0.000558177
0.00053637398
0.00051692311
0.00049996947
0.00048564252
0.0026914653
0.0026267469
0.0025624739
0.0024986848
0.0024354138
0.0023726945
0.0023105588
0.0022490367
0.0021881563
0.002127944
0.0020684242
0.0020096195
0.0019515505
0.0018942361
0.0018376934
0.001781938
0.0017269838
0.0016728434
0.0016195281
0.0015670482
0.0015154133
0.0014646325
0.0014147144
0.0013656678
0.0013175022
0.0012702274
0.0012238547
0.0011783971
0.0011338696
0.00109029
0.0010476793
0.0010060623
0.00096546827
0.00092593184
0.00088749349
0.00085020041
0.00081410734
0.00077927731
0.00074578241
0.0007137044
0.00068313519
0.00065417688
0.00062694142
0.00060154954
0.00057812867
0.00055680985