/*--------------------------------*- C++ -*----------------------------------*\
| =========                 |                                                 |
| \\      /  F ield         | OpenFOAM: The Open Source CFD Toolbox           |
|  \\    /   O peration     | Version:  2312                                  |
|   \\  /    A nd           | Website:  www.openfoam.com                      |
|    \\/     M anipulation  |                                                 |
\*---------------------------------------------------------------------------*/
FoamFile
{
    version     2.0;
    format      ascii;
    arch        "LSB;label=32;scalar=64";
    class       volScalarField;
    location    "0.04";
    object      N2;
}
// * * * * * * * * * * * * * * * * * * * * * * * * * * * * * * * * * * * * * //

dimensions      [0 0 0 0 0 0 0];

internalField   nonuniform List<scalar> 
3251
(
0.72874188
0.73007001
0.73139124
0.73270398
0.73400646
0.73529697
0.73657385
0.73783546
0.73908019
0.7403065
0.7415129
0.74269795
0.74386029
0.74499867
0.74611188
0.74719884
0.74825855
0.74929014
0.75029281
0.75126591
0.75220888
0.75312128
0.75400277
0.75485316
0.75567232
0.75646025
0.75721706
0.75794295
0.75863819
0.75930317
0.75993833
0.76054421
0.76112139
0.76167051
0.7621923
0.76268747
0.76315683
0.76360119
0.76402138
0.76441827
0.76479272
0.76514564
0.76547789
0.76579036
0.76608394
0.7663595
0.76661789
0.76685995
0.76708651
0.76729835
0.76749623
0.76768086
0.7678528
0.76801283
0.76816186
0.76830052
0.76842943
0.76854919
0.72874224
0.7300704
0.73139141
0.73270401
0.73400638
0.7352968
0.7365736
0.73783513
0.7390798
0.74030605
0.7415124
0.7426974
0.74385971
0.74499805
0.74611123
0.74719817
0.74825786
0.74928943
0.7502921
0.75126519
0.75220815
0.75312055
0.75400205
0.75485244
0.7556716
0.75645955
0.75721637
0.75794226
0.75863752
0.75930251
0.75993769
0.76054358
0.76112078
0.76166993
0.76219172
0.76268692
0.7631563
0.76360067
0.76402088
0.76441779
0.76479227
0.7651452
0.76547747
0.76578996
0.76608356
0.76635913
0.76661753
0.7668596
0.76708616
0.76729799
0.76749586
0.76768048
0.76785248
0.76801262
0.76816171
0.76830042
0.76842937
0.76854915
0.72874691
0.73007504
0.73139575
0.7327081
0.73401024
0.73530043
0.73657702
0.73783835
0.73908282
0.74030889
0.74151505
0.74269988
0.74386203
0.74500021
0.74611324
0.74720003
0.74825959
0.74929103
0.75029356
0.75126654
0.75220939
0.75312168
0.75400307
0.75485336
0.75567244
0.7564603
0.75721704
0.75794286
0.75863804
0.75930297
0.75993809
0.76054393
0.76112107
0.76167017
0.76219193
0.76268708
0.76315643
0.76360077
0.76402095
0.76441783
0.76479229
0.7651452
0.76547745
0.76578992
0.7660835
0.76635906
0.76661744
0.7668595
0.76708603
0.76729785
0.7674957
0.76768031
0.76785234
0.76801255
0.76816169
0.76830044
0.76842943
0.76854923
0.72875618
0.7300841
0.73140443
0.7327164
0.73401817
0.73530802
0.73658425
0.73784525
0.73908939
0.74031514
0.74152099
0.74270552
0.74386737
0.74500526
0.74611802
0.74720453
0.74826383
0.74929501
0.7502973
0.75127004
0.75221266
0.75312473
0.75400591
0.754856
0.75567488
0.75646256
0.75721912
0.75794478
0.75863981
0.75930459
0.75993956
0.76054527
0.76112229
0.76167127
0.76219292
0.76268798
0.76315723
0.76360149
0.76402159
0.7644184
0.76479279
0.76514563
0.76547783
0.76579025
0.76608378
0.76635929
0.76661764
0.76685965
0.76708615
0.76729793
0.76749575
0.76768033
0.76785238
0.76801263
0.76816181
0.76830058
0.76842959
0.76854947
0.7287701
0.73009762
0.73141745
0.73272892
0.73403019
0.73531955
0.73659531
0.73785584
0.73909952
0.74032482
0.74153022
0.74271432
0.74387574
0.74501322
0.74612556
0.74721168
0.74827059
0.74930139
0.75030332
0.75127569
0.75221797
0.75312971
0.75401057
0.75486035
0.75567894
0.75646633
0.75722263
0.75794802
0.75864281
0.75930735
0.75994211
0.76054761
0.76112444
0.76167324
0.76219471
0.76268961
0.76315871
0.76360283
0.7640228
0.76441949
0.76479377
0.76514651
0.76547861
0.76579095
0.7660844
0.76635984
0.76661811
0.76686006
0.7670865
0.76729822
0.76749599
0.76768055
0.7678526
0.76801286
0.76816206
0.76830085
0.76842986
0.72878756
0.73011454
0.73143378
0.73274466
0.73404535
0.73533412
0.73660931
0.73786927
0.73911239
0.74033714
0.741542
0.74272556
0.74388646
0.74502342
0.74613526
0.74722089
0.74827931
0.74930964
0.75031111
0.75128304
0.75222489
0.75313621
0.75401667
0.75486606
0.75568427
0.7564713
0.75722726
0.75795232
0.7586468
0.75931104
0.75994552
0.76055075
0.76112733
0.76167589
0.76219715
0.76269184
0.76316074
0.76360468
0.76402448
0.76442101
0.76479515
0.76514776
0.76547973
0.76579196
0.7660853
0.76636064
0.76661882
0.76686069
0.76708705
0.7672987
0.76749642
0.76768093
0.76785296
0.76801323
0.76816242
0.76830121
0.76843018
0.72880785
0.7301342
0.73145278
0.73276299
0.73406302
0.73535113
0.73662567
0.73788498
0.73912747
0.74035158
0.74155583
0.74273877
0.74389907
0.74503543
0.74614669
0.74723175
0.74828961
0.7493194
0.75032033
0.75129175
0.75223309
0.75314392
0.75402391
0.75487285
0.75569062
0.75647723
0.75723278
0.75795747
0.75865157
0.75931547
0.75994962
0.76055454
0.76113082
0.7616791
0.76220009
0.76269454
0.76316321
0.76360693
0.76402654
0.76442288
0.76479684
0.76514929
0.76548112
0.76579321
0.76608642
0.76636165
0.76661972
0.76686149
0.76708776
0.76729933
0.76749698
0.76768144
0.76785344
0.76801369
0.76816288
0.76830166
0.7684306
0.72883251
0.73015809
0.73147589
0.73278531
0.73408455
0.73537188
0.73664564
0.73790418
0.7391459
0.74036926
0.74157275
0.74275496
0.74391452
0.74505017
0.74616073
0.74724509
0.74830228
0.7493314
0.75033169
0.75130247
0.7522432
0.75315344
0.75403286
0.75488124
0.75569848
0.75648458
0.75723964
0.75796385
0.7586575
0.75932098
0.75995472
0.76055925
0.76113517
0.76168311
0.76220378
0.76269792
0.76316631
0.76360976
0.76402912
0.76442524
0.76479898
0.76515124
0.76548288
0.7657948
0.76608786
0.76636294
0.76662088
0.76686252
0.76708869
0.76730016
0.76749773
0.76768212
0.76785407
0.76801429
0.76816346
0.76830223
0.76843117
0.72886186
0.73018654
0.73150343
0.73281192
0.73411023
0.73539665
0.73666948
0.73792711
0.73916793
0.74039039
0.741593
0.74277434
0.74393304
0.74506784
0.74617756
0.7472611
0.74831748
0.74934582
0.75034533
0.75131537
0.75225537
0.7531649
0.75404363
0.75489135
0.75570796
0.75649344
0.75724791
0.75797156
0.75866468
0.75932764
0.7599609
0.76056497
0.76114045
0.76168798
0.76220826
0.76270203
0.76317008
0.76361322
0.76403228
0.76442812
0.76480161
0.76515362
0.76548504
0.76579676
0.76608963
0.76636453
0.76662232
0.76686382
0.76708985
0.76730121
0.76749867
0.76768298
0.76785487
0.76801504
0.76816418
0.76830293
0.72889626
0.73021989
0.73153571
0.73284313
0.73414037
0.73542572
0.73669749
0.73795406
0.73919383
0.74041525
0.74161683
0.74279714
0.74395484
0.74508865
0.74619739
0.74727997
0.74833541
0.74936282
0.75036144
0.7513306
0.75226974
0.75317844
0.75405637
0.75490332
0.75571917
0.75650394
0.75725771
0.7579807
0.75867319
0.75933555
0.75996823
0.76057176
0.76114672
0.76169377
0.76221359
0.76270694
0.76317459
0.76361735
0.76403605
0.76443156
0.76480475
0.76515648
0.76548764
0.76579911
0.76609176
0.76636646
0.76662406
0.76686538
0.76709126
0.76730248
0.76749982
0.76768403
0.76785584
0.76801596
0.76816505
0.76830376
0.72893605
0.73025848
0.73157309
0.73287928
0.73417529
0.73545941
0.73672996
0.73798531
0.73922388
0.7404441
0.74164449
0.74282363
0.74398016
0.74511283
0.74622044
0.74730191
0.74835626
0.74938261
0.75038019
0.75134833
0.75228648
0.75319422
0.75407122
0.75491727
0.75573225
0.75651618
0.75726916
0.75799138
0.75868313
0.75934479
0.75997681
0.76057971
0.76115407
0.76170056
0.76221985
0.7627127
0.76317987
0.76362219
0.76404049
0.76443562
0.76480845
0.76515985
0.76549071
0.76580189
0.76609429
0.76636874
0.76662612
0.76686725
0.76709294
0.767304
0.76750119
0.76768529
0.767857
0.76801704
0.76816608
0.72898165
0.7303027
0.73161593
0.73292073
0.73421534
0.73549806
0.73676722
0.73802118
0.73925837
0.74047722
0.74167626
0.74285406
0.74400927
0.74514062
0.74624694
0.74732715
0.74838025
0.74940538
0.75040176
0.75136874
0.75230576
0.7532124
0.75408833
0.75493334
0.75574733
0.75653031
0.75728236
0.7580037
0.75869461
0.75935547
0.75998672
0.76058889
0.76116258
0.76170841
0.76222709
0.76271936
0.763186
0.76362782
0.76404564
0.76444033
0.76481275
0.76516377
0.76549427
0.76580513
0.76609723
0.76637141
0.76662853
0.76686943
0.76709491
0.76730578
0.76750281
0.76768676
0.76785836
0.76801831
0.76816726
0.72903344
0.73035296
0.73166462
0.73296784
0.73426087
0.73554201
0.73680959
0.738062
0.73929762
0.74051493
0.74171243
0.74288871
0.74404241
0.74517228
0.74627714
0.74735591
0.7484076
0.74943134
0.75042637
0.75139202
0.75232776
0.75323314
0.75410786
0.7549517
0.75576456
0.75654644
0.75729745
0.75801779
0.75870774
0.75936768
0.75999806
0.76059941
0.76117231
0.7617174
0.76223539
0.762727
0.76319303
0.76363427
0.76405155
0.76444574
0.76481769
0.76516827
0.76549838
0.76580887
0.76610062
0.76637448
0.76663132
0.76687195
0.7670972
0.76730785
0.76750468
0.76768847
0.76785994
0.76801978
0.72909188
0.73040965
0.73171956
0.73302101
0.73431227
0.73559163
0.73685745
0.73810809
0.73934196
0.74055753
0.74175331
0.74292787
0.74407989
0.74520808
0.74631129
0.74738844
0.74843854
0.74946072
0.75045422
0.75141838
0.75235266
0.75325664
0.75412998
0.7549725
0.75578408
0.75656473
0.75731456
0.75803376
0.75872263
0.75938154
0.76001094
0.76061135
0.76118337
0.76172762
0.76224482
0.76273569
0.76320102
0.76364161
0.76405828
0.7644519
0.76482332
0.76517341
0.76550306
0.76581313
0.76610449
0.766378
0.76663451
0.76687484
0.76709981
0.76731022
0.76750683
0.76769042
0.76786174
0.76802143
0.72915741
0.73047325
0.73178119
0.73308066
0.73436993
0.73564732
0.73691116
0.73815983
0.73939174
0.74060536
0.74179921
0.74297186
0.74412198
0.7452483
0.74634967
0.74742499
0.74847331
0.74949374
0.75048552
0.75144801
0.75238067
0.75328306
0.75415487
0.7549959
0.75580605
0.75658532
0.75733382
0.75805175
0.7587394
0.75939715
0.76002545
0.76062481
0.76119583
0.76173915
0.76225546
0.7627455
0.76321005
0.7636499
0.76406589
0.76445886
0.76482969
0.76517923
0.76550836
0.76581795
0.76610887
0.76638198
0.76663812
0.76687812
0.76710279
0.76731291
0.76750927
0.76769264
0.76786379
0.72923053
0.7305442
0.73184995
0.73314721
0.73443428
0.73570946
0.73697111
0.73821759
0.73944732
0.74065878
0.74185047
0.74302099
0.744169
0.74529324
0.74639255
0.74746585
0.74851217
0.74953065
0.75052053
0.75148115
0.75241199
0.75331261
0.75418271
0.75502208
0.75583063
0.75660836
0.75735538
0.75807189
0.75875819
0.75941464
0.7600417
0.7606399
0.76120981
0.76175208
0.7622674
0.76275651
0.76322017
0.7636592
0.76407443
0.76446669
0.76483684
0.76518576
0.76551432
0.76582338
0.76611381
0.76638647
0.7666422
0.76688182
0.76710614
0.76731595
0.76751202
0.76769513
0.76786607
0.72931174
0.73062299
0.73192632
0.73322114
0.73450576
0.7357785
0.73703771
0.73828176
0.73950908
0.74071814
0.74190745
0.7430756
0.74422127
0.7453432
0.74644023
0.74751128
0.7485554
0.74957171
0.75055947
0.75151802
0.75244684
0.75334551
0.7542137
0.75505123
0.755858
0.75663402
0.75737939
0.75809433
0.75877912
0.75943413
0.76005982
0.76065671
0.76122539
0.76176649
0.76228071
0.76276879
0.76323148
0.7636696
0.76408397
0.76447543
0.76484484
0.76519307
0.76552099
0.76582946
0.76611934
0.7663915
0.76664677
0.76688597
0.76710991
0.76731936
0.7675151
0.76769791
0.72940157
0.73071015
0.73201078
0.7333029
0.73458483
0.73585487
0.73711139
0.73835277
0.73957743
0.74078383
0.7419705
0.74313605
0.74427913
0.74539851
0.74649301
0.74756158
0.74860326
0.74961718
0.7506026
0.75155886
0.75248545
0.75338195
0.75424804
0.75508354
0.75588834
0.75666247
0.75740602
0.75811921
0.75880233
0.75945575
0.76007993
0.76067538
0.76124269
0.7617825
0.7622955
0.76278243
0.76324404
0.76368115
0.76409457
0.76448515
0.76485374
0.7652012
0.76552841
0.76583622
0.7661255
0.7663971
0.76665186
0.7668906
0.76711412
0.76732318
0.76751853
0.76770094
0.72950059
0.7308062
0.73210386
0.73339301
0.73467196
0.73593904
0.73719261
0.73843104
0.73965276
0.74085625
0.74204003
0.7432027
0.74434294
0.7454595
0.74655123
0.74761707
0.74865606
0.74966734
0.75065018
0.75160393
0.75252806
0.75342217
0.75428595
0.7551192
0.75592184
0.75669388
0.75743543
0.75814669
0.75882797
0.75947964
0.76010214
0.76069601
0.76126181
0.7618002
0.76231186
0.76279751
0.76325794
0.76369393
0.76410631
0.76449591
0.76486359
0.76521021
0.76553663
0.76584372
0.76613233
0.76640332
0.76665752
0.76689575
0.7671188
0.76732742
0.76752235
0.76770434
0.72960939
0.73091171
0.73220609
0.73349197
0.73476766
0.73603149
0.73728181
0.73851701
0.73973552
0.74093581
0.74211641
0.74327594
0.74441305
0.74552653
0.74661522
0.74767805
0.74871409
0.74972249
0.75070249
0.75165347
0.75257491
0.7534664
0.75432763
0.75515842
0.75595868
0.75672843
0.75746778
0.75817694
0.7588562
0.75950593
0.7601266
0.76071872
0.76128287
0.7618197
0.76232988
0.76281414
0.76327326
0.76370803
0.76411926
0.76450779
0.76487447
0.76522015
0.76554571
0.765852
0.76613987
0.76641018
0.76666376
0.76690143
0.76712398
0.76733213
0.7675266
0.76770818
0.72972856
0.73102723
0.73231802
0.73360031
0.73487244
0.73613271
0.73737949
0.73861117
0.73982616
0.74102295
0.74220008
0.74335615
0.74448986
0.74559996
0.74668531
0.74774487
0.74877768
0.74978291
0.75075981
0.75170777
0.75262626
0.75351487
0.75437333
0.75520142
0.75599908
0.75676632
0.75750326
0.75821011
0.75888716
0.75953479
0.76015344
0.76074365
0.76130599
0.7618411
0.76234966
0.76283241
0.76329009
0.76372351
0.76413349
0.76452084
0.76488642
0.76523109
0.7655557
0.76586111
0.76614817
0.76641774
0.76667064
0.7669077
0.76712971
0.76733736
0.76753129
0.72985877
0.73115337
0.73244021
0.73371859
0.73498683
0.73624323
0.73748615
0.73871397
0.73992513
0.74111811
0.74229144
0.74344376
0.74457374
0.74568016
0.74676188
0.74781785
0.74884715
0.74984892
0.75082244
0.7517671
0.75268237
0.75356785
0.75442327
0.75524842
0.75604324
0.75680775
0.75754206
0.75824638
0.75892102
0.75956634
0.76018281
0.76077093
0.76133129
0.76186453
0.76237133
0.76285241
0.76330853
0.76374048
0.76414908
0.76453515
0.76489953
0.76524308
0.76556666
0.76587111
0.76615728
0.76642603
0.76667819
0.76691459
0.76713603
0.76734315
0.76753638
0.73000068
0.7312907
0.73257325
0.73384738
0.73511139
0.73636358
0.73760229
0.73882593
0.74003292
0.74122174
0.74239096
0.74353918
0.74466511
0.74576752
0.74684528
0.74789736
0.74892282
0.74992084
0.75089068
0.75183174
0.75274351
0.75362559
0.7544777
0.75529965
0.75609138
0.75685291
0.75758436
0.75828594
0.75895795
0.75960076
0.76021484
0.76080069
0.7613589
0.7618901
0.76239498
0.76287424
0.76332866
0.76375901
0.76416611
0.76455078
0.76491386
0.76525619
0.76557864
0.76588203
0.76616724
0.76643509
0.76668643
0.76692211
0.767143
0.730155
0.73143984
0.73271772
0.73398725
0.73524668
0.7364943
0.73772846
0.73894755
0.74015001
0.74133433
0.74249907
0.74364285
0.74476438
0.74586244
0.7469359
0.74798375
0.74900506
0.74999899
0.75096484
0.751902
0.75280996
0.75368834
0.75453686
0.75535534
0.75614372
0.75690202
0.75763036
0.75832896
0.75899811
0.75963821
0.76024969
0.76083308
0.76138895
0.76191794
0.76242072
0.76289802
0.76335058
0.7637792
0.76418467
0.76456782
0.76492947
0.76527049
0.7655917
0.76589396
0.7661781
0.76644497
0.76669541
0.76693028
0.73032226
0.73160137
0.73287423
0.7341388
0.73539328
0.73663596
0.73786518
0.73907935
0.74027691
0.74145635
0.74261624
0.74375521
0.74487197
0.74596532
0.74703413
0.7480774
0.7490942
0.75008371
0.75104523
0.75197816
0.75288201
0.75375638
0.75460102
0.75541574
0.75620048
0.75695528
0.75768026
0.75837563
0.7590417
0.75967884
0.76028751
0.76086823
0.76142157
0.76194816
0.76244868
0.76292385
0.76337441
0.76380114
0.76420484
0.76458634
0.76494646
0.76528603
0.76560591
0.76590693
0.76618992
0.76645572
0.76670516
0.76693904
0.72922238
0.73050176
0.73177581
0.73304339
0.73430264
0.73555178
0.73678913
0.73801302
0.73922187
0.74041413
0.7415883
0.74274294
0.74387671
0.74498832
0.74607657
0.74714036
0.74817867
0.7491906
0.75017534
0.75113219
0.75206055
0.75295994
0.75382999
0.75467043
0.75548108
0.7562619
0.75701292
0.75773426
0.75842614
0.75908887
0.75972283
0.76032847
0.7609063
0.7614569
0.76198091
0.76247898
0.76295184
0.76340022
0.76382492
0.76422672
0.76460643
0.76496488
0.7653029
0.76562133
0.765921
0.76620275
0.76646739
0.76671573
0.76694857
0.72942039
0.73069525
0.73196391
0.73322586
0.7344794
0.7357228
0.73695439
0.73817254
0.73937566
0.74056219
0.74173067
0.74287966
0.74400782
0.74511386
0.74619662
0.74725498
0.74828796
0.74929463
0.75027422
0.75122602
0.75214946
0.75304406
0.75390944
0.75474535
0.75555162
0.75632821
0.75707514
0.75779256
0.75848069
0.75913982
0.75977035
0.76037271
0.76094743
0.76149509
0.76201629
0.76251173
0.7629821
0.76342815
0.76385064
0.76425038
0.76462816
0.76498482
0.76532116
0.76563803
0.76593625
0.76621664
0.76648002
0.76672719
0.76695892
0.72963465
0.73090372
0.73216646
0.73342233
0.73466972
0.73590694
0.73713235
0.73834431
0.73954124
0.74072162
0.74188397
0.74302687
0.74414898
0.74524905
0.74632588
0.74737841
0.74840563
0.74940665
0.7503807
0.75132707
0.75224521
0.75313464
0.753995
0.75482604
0.7556276
0.75639963
0.75714219
0.75785539
0.75853947
0.75919473
0.75982156
0.76042041
0.76099178
0.76153626
0.76205446
0.76254705
0.76301475
0.76345828
0.76387841
0.76427593
0.76465164
0.76500635
0.76534089
0.76565608
0.76595273
0.76623167
0.76649369
0.7667396
0.76697015
0.72986539
0.73112794
0.73238418
0.73363349
0.73487426
0.73610483
0.73732358
0.73852889
0.73971918
0.74089294
0.7420487
0.74318506
0.74430067
0.74539431
0.74646478
0.74751103
0.74853208
0.74952703
0.75049512
0.75143567
0.75234811
0.753232
0.75408697
0.75491277
0.75570927
0.75647642
0.75721426
0.75792294
0.75860268
0.75925379
0.75987665
0.76047171
0.76103949
0.76158056
0.76209553
0.76258508
0.7630499
0.76349072
0.76390831
0.76430345
0.76467693
0.76502956
0.76536216
0.76567554
0.76597051
0.76624788
0.76650845
0.766753
0.7669823
0.73011315
0.73136861
0.73261778
0.73386
0.73509365
0.73631709
0.73752869
0.73872686
0.73991003
0.74107668
0.74222537
0.7433547
0.74446335
0.74555008
0.74661374
0.74765326
0.74866768
0.74965612
0.75061782
0.75155212
0.75245847
0.75333641
0.7541856
0.7550058
0.75579688
0.75655879
0.75729158
0.75799541
0.7586705
0.75931716
0.75993577
0.76052678
0.76109071
0.76162813
0.76213965
0.76262592
0.76308766
0.76352558
0.76394045
0.76433304
0.76470413
0.76505453
0.76538504
0.76569648
0.76598964
0.76626534
0.76652435
0.76676746
0.76699542
0.7303786
0.7316264
0.73286795
0.73410254
0.73532854
0.73654433
0.73774827
0.73893878
0.74011431
0.74127335
0.74241446
0.74353627
0.74463746
0.7457168
0.74677316
0.74780547
0.7488128
0.74979427
0.75074914
0.75167676
0.75257658
0.75344816
0.75429117
0.75510539
0.75589066
0.75664697
0.75737437
0.75807302
0.75874313
0.75938503
0.7599991
0.76058578
0.7611456
0.76167911
0.76218693
0.76266971
0.76312815
0.76356297
0.76397493
0.76436478
0.76473332
0.76508133
0.76540961
0.76571897
0.76601021
0.76628411
0.76654145
0.76678302
0.76700955
0.73066243
0.73190199
0.73313536
0.73436175
0.73557956
0.73678714
0.73798288
0.7391652
0.74033255
0.74148346
0.74261647
0.74373023
0.74482344
0.74589488
0.74694344
0.74796806
0.7489678
0.74994184
0.75088941
0.75180989
0.75270274
0.75356754
0.75440395
0.75521177
0.75599086
0.75674119
0.75746284
0.75815595
0.75882076
0.75945758
0.7600668
0.76064886
0.76120429
0.76173363
0.7622375
0.76271655
0.76317148
0.76360299
0.76401184
0.76439877
0.76476458
0.76511004
0.76543594
0.76574309
0.76603226
0.76630424
0.76655981
0.76679973
0.76702474
0.73096529
0.73219605
0.73342064
0.73463827
0.7358473
0.73704611
0.73823308
0.73940665
0.74056527
0.74170748
0.74283185
0.74393702
0.74502171
0.74608473
0.74712496
0.74814137
0.74913304
0.75009914
0.75103893
0.7519518
0.75283723
0.7536948
0.75452419
0.75532519
0.75609768
0.75684165
0.75755717
0.75824439
0.75890355
0.75953497
0.76013902
0.76071617
0.76126692
0.76179182
0.76229149
0.76276657
0.76321775
0.76364574
0.76405127
0.7644351
0.76479799
0.76514073
0.7654641
0.76576888
0.76605586
0.7663258
0.76657948
0.76681764
0.76704104
0.73128785
0.7325092
0.73372442
0.73493267
0.73613234
0.73732178
0.7384994
0.73966362
0.74081294
0.74194588
0.74306103
0.74415705
0.74523268
0.74628672
0.74731808
0.74832576
0.74930883
0.75026648
0.751198
0.75210278
0.75298031
0.75383018
0.7546521
0.75544586
0.75621135
0.75694856
0.75765756
0.75833852
0.75899168
0.75961735
0.76021592
0.76078784
0.76133361
0.7618538
0.76234901
0.76281987
0.76326707
0.76369131
0.76409331
0.76447384
0.76483364
0.76517349
0.76549416
0.76579643
0.76608106
0.76634884
0.7666005
0.76683681
0.76705848
0.73163069
0.73284202
0.73404725
0.73524551
0.73643519
0.73761466
0.73878231
0.7399366
0.74107601
0.74219908
0.74330443
0.74439072
0.7454567
0.7465012
0.74752314
0.74852153
0.74949546
0.75044414
0.75136688
0.75226307
0.75313221
0.75397393
0.75478792
0.75557399
0.75633205
0.75706208
0.75776417
0.75843849
0.75908528
0.75970487
0.76029762
0.760864
0.7614045
0.76191969
0.76241016
0.76287654
0.76331952
0.76373978
0.76413806
0.76451508
0.7648716
0.76520838
0.76552618
0.76582578
0.76610794
0.7663734
0.76662293
0.76685726
0.76707711
0.73199438
0.73319506
0.73438966
0.7355773
0.73675636
0.73792521
0.73908227
0.74022598
0.74135486
0.74246746
0.74356239
0.74463835
0.74569409
0.74672847
0.74774042
0.74872896
0.7496932
0.75063238
0.7515458
0.75243289
0.75329316
0.75412623
0.75493182
0.75570976
0.75645995
0.75718238
0.75787717
0.75854446
0.75918451
0.75979765
0.76038425
0.76094476
0.76147969
0.76198958
0.76247504
0.76293669
0.76337519
0.76379125
0.76418557
0.76455888
0.76491192
0.76524545
0.76556023
0.765857
0.76613652
0.76639955
0.76664681
0.76687905
0.76709696
0.73237941
0.7335688
0.73475211
0.73592846
0.73709624
0.73825383
0.73939964
0.74053215
0.74164986
0.74275134
0.74383524
0.74490024
0.74594514
0.7469688
0.74797017
0.74894828
0.74990228
0.7508314
0.75173497
0.75261243
0.75346331
0.75428725
0.75508397
0.75585331
0.75659518
0.7573096
0.75799666
0.75865653
0.75928947
0.7598958
0.7604759
0.76103022
0.76155926
0.76206357
0.76254373
0.76300038
0.76343416
0.76384577
0.76423591
0.7646053
0.76495467
0.76528477
0.76559634
0.76589013
0.76616687
0.76642732
0.76667219
0.76690221
0.76711808
0.73278622
0.73396362
0.73513498
0.73629936
0.73745519
0.73860084
0.73973474
0.74085538
0.74196126
0.74305099
0.74412321
0.74517663
0.74621007
0.74722239
0.74821257
0.74917968
0.75012285
0.75104135
0.75193453
0.75280183
0.75364281
0.75445711
0.75524448
0.75600476
0.75673787
0.75744383
0.75812275
0.7587748
0.75940025
0.7599994
0.76057266
0.76112046
0.76164329
0.76214171
0.7626163
0.76306767
0.76349649
0.76390341
0.76428915
0.7646544
0.7649999
0.76532638
0.76563457
0.76592521
0.76619903
0.76645675
0.76669909
0.76692678
0.76714048
0.73321511
0.73437984
0.73553854
0.73669028
0.73783346
0.73896649
0.7400878
0.74119589
0.74228928
0.74336659
0.74442647
0.74546768
0.74648901
0.74748938
0.74846777
0.74942327
0.75035504
0.75126235
0.75214458
0.75300119
0.75383174
0.75463591
0.75541343
0.75616417
0.75688807
0.75758514
0.7582555
0.75889934
0.7595169
0.76010852
0.76067457
0.76121551
0.76173183
0.76222406
0.76269279
0.76313862
0.7635622
0.7639642
0.76434531
0.76470622
0.76504765
0.76537032
0.76567495
0.76596228
0.76623301
0.76648786
0.76672755
0.76695277
0.76716421
0.73366629
0.73481764
0.73596298
0.73710136
0.7382312
0.73935091
0.74045894
0.74155379
0.74263401
0.74369823
0.74474512
0.74577345
0.74678204
0.74776983
0.74873582
0.7496791
0.75059888
0.75149443
0.75236516
0.75321053
0.75403014
0.75482365
0.75559085
0.75633158
0.7570458
0.75773355
0.75839494
0.75903015
0.75963945
0.76022316
0.76078167
0.76131542
0.7618249
0.76231064
0.76277322
0.76321324
0.76363134
0.76402817
0.76440442
0.76476077
0.76509793
0.7654166
0.76571751
0.76600135
0.76626884
0.76652069
0.76675759
0.76698022
0.76718926
0.73413983
0.73527708
0.73640834
0.73753265
0.73864844
0.73975412
0.74084816
0.74192908
0.74299545
0.74404589
0.74507913
0.74609392
0.74708914
0.74806371
0.74901667
0.74994714
0.75085433
0.75173756
0.75259622
0.75342982
0.75423796
0.75502032
0.75577669
0.75650695
0.75721105
0.75788904
0.75854103
0.75916722
0.75976787
0.76034331
0.76089393
0.76142016
0.76192248
0.76240144
0.76285759
0.76329153
0.76370389
0.76409532
0.76446649
0.76481807
0.76515075
0.76546524
0.76576224
0.76604244
0.76630654
0.76655524
0.76678921
0.76700913
0.76721566
0.73463563
0.73575806
0.73687452
0.73798404
0.73908505
0.74017599
0.74125535
0.74232164
0.74337346
0.74440946
0.74542836
0.74642897
0.74741015
0.74837088
0.7493102
0.75022726
0.75112128
0.75199161
0.75283765
0.75365894
0.75445509
0.7552258
0.75597087
0.75669019
0.75738372
0.75805151
0.7586937
0.75931047
0.7599021
0.76046892
0.7610113
0.76152968
0.76202455
0.76249642
0.76294586
0.76337346
0.76377984
0.76416562
0.76453148
0.76487808
0.7652061
0.76551623
0.76580914
0.76608554
0.7663461
0.7665915
0.76682241
0.7670395
0.76724341
0.73515341
0.73626029
0.73736123
0.73845523
0.73954076
0.74061626
0.74168021
0.74273118
0.74376776
0.74478864
0.74579255
0.74677831
0.74774483
0.74869109
0.74961616
0.75051921
0.75139949
0.75225635
0.75308924
0.75389769
0.75468134
0.75543991
0.7561732
0.75688112
0.75756365
0.75822083
0.75885281
0.75945979
0.76004203
0.76059986
0.76113367
0.76164389
0.762131
0.7625955
0.76303797
0.76345897
0.76385911
0.76423903
0.76459937
0.76494078
0.76526394
0.76556952
0.76585819
0.76613062
0.76638749
0.76662945
0.76685718
0.76707131
0.76727249
0.73569269
0.73678331
0.737868
0.73894578
0.7400151
0.74107444
0.74212231
0.74315726
0.74417793
0.74518301
0.74617128
0.74714156
0.74809278
0.74902396
0.74993418
0.75082264
0.75168861
0.75253146
0.75335066
0.75414577
0.75491642
0.75566237
0.75638343
0.75707951
0.7577506
0.75839678
0.75901816
0.75961497
0.76018747
0.76073599
0.7612609
0.76176265
0.7622417
0.76269857
0.76313379
0.76354794
0.76394163
0.76431545
0.76467006
0.7650061
0.76532421
0.76562507
0.76590932
0.76617764
0.76643067
0.76666908
0.76689349
0.76710455
0.76730288
0.73625276
0.7373264
0.73839413
0.73945498
0.7405074
0.74154989
0.74258098
0.74359924
0.74460334
0.74559198
0.74656395
0.74751812
0.74845344
0.74936894
0.75026374
0.75113704
0.75198816
0.75281647
0.75362148
0.75440274
0.75515993
0.7558928
0.75660119
0.75728501
0.75794427
0.75857904
0.75918947
0.75977575
0.76033817
0.76087705
0.76139278
0.76188576
0.76235649
0.76280545
0.76323318
0.76364025
0.76402725
0.76439478
0.76474346
0.76507393
0.76538682
0.76568279
0.76596248
0.76622653
0.7664756
0.76671031
0.7669313
0.76713918
0.76733456
0.73683264
0.73788859
0.73893868
0.7399819
0.74101674
0.74204171
0.74305536
0.74405628
0.74504316
0.74601473
0.7469698
0.74790726
0.74882609
0.74972534
0.75060416
0.75146178
0.75229752
0.7531108
0.75390112
0.75466808
0.75541136
0.75613072
0.75682602
0.75749719
0.75814424
0.75876725
0.75936636
0.7599418
0.76049382
0.76102277
0.76152901
0.76201297
0.7624751
0.76291592
0.76333593
0.7637357
0.76411581
0.76447684
0.76481941
0.76514413
0.76545165
0.76574257
0.76601755
0.76627721
0.76652218
0.76675308
0.76697053
0.76717512
0.76736746
0.73743104
0.73846864
0.73950041
0.74052535
0.74154196
0.74254876
0.74354433
0.74452729
0.74549634
0.74645024
0.74738783
0.74830801
0.7492098
0.75009227
0.7509546
0.75179603
0.75261591
0.75341369
0.75418888
0.7549411
0.75567005
0.75637551
0.75705734
0.7577155
0.75834999
0.7589609
0.75954839
0.76011267
0.76065402
0.76117275
0.76166925
0.76214394
0.76259725
0.76302969
0.76344178
0.76383405
0.76420707
0.76456143
0.76489772
0.76521655
0.76551853
0.76580427
0.76607441
0.76632954
0.7665703
0.76679729
0.7670111
0.76721232
0.76740153
0.73804635
0.73906496
0.74007779
0.74108381
0.74208158
0.74306962
0.74404652
0.74501094
0.74596159
0.74689726
0.74781683
0.74871921
0.74960345
0.75046865
0.751314
0.75213879
0.75294237
0.75372422
0.75448388
0.75522097
0.75593522
0.75662642
0.75729445
0.75793926
0.75856088
0.7591594
0.75973499
0.76028785
0.76081826
0.76132655
0.76181308
0.76227827
0.76272256
0.76314643
0.7635504
0.763935
0.76430078
0.76464831
0.76497817
0.76529095
0.76558726
0.7658677
0.76613287
0.76638338
0.76661982
0.7668428
0.76705289
0.76725068
0.73867658
0.73967562
0.74066892
0.74165547
0.74263382
0.74360254
0.74456023
0.74550558
0.74643732
0.74735427
0.74825532
0.74913944
0.75000568
0.75085317
0.75168113
0.75248886
0.75327576
0.75404131
0.75478508
0.7555067
0.75620593
0.75688256
0.75753649
0.75816768
0.75877617
0.75936205
0.75992549
0.7604667
0.76098597
0.7614836
0.76195997
0.76241548
0.76285057
0.76326572
0.76366142
0.76403819
0.76439658
0.76473715
0.76506045
0.76536708
0.76565761
0.76593264
0.76619275
0.76643853
0.76667057
0.76688945
0.76709576
0.73931936
0.7402983
0.74127155
0.74223811
0.74319656
0.74414546
0.74508347
0.74600928
0.74692166
0.74781946
0.74870158
0.74956703
0.75041487
0.75124428
0.75205449
0.75284483
0.75361472
0.75436366
0.75509124
0.75579713
0.75648106
0.75714288
0.75778247
0.75839982
0.75899496
0.759568
0.7601191
0.76064849
0.76115644
0.76164326
0.76210931
0.762555
0.76298076
0.76338705
0.76377436
0.76414319
0.76449409
0.76482759
0.76514424
0.76544462
0.76572929
0.76599882
0.76625378
0.76649476
0.76672232
0.76693704
0.73997186
0.74093024
0.74188301
0.74282915
0.74376727
0.74469595
0.74561388
0.74651977
0.74741242
0.7482907
0.74915355
0.75
0.75082914
0.75164017
0.75243235
0.75320504
0.75395767
0.75468977
0.75540095
0.75609088
0.75675933
0.75740614
0.75803123
0.75863457
0.75921622
0.75977627
0.76031491
0.76083235
0.76132886
0.76180476
0.7622604
0.76269617
0.7631125
0.76350985
0.76388868
0.76424951
0.76459284
0.7649192
0.76522914
0.7655232
0.76580194
0.76606591
0.76631568
0.7665518
0.76677482
0.76698528
0.74063077
0.74156824
0.74250017
0.74342556
0.74434301
0.74525117
0.74614871
0.74703439
0.74790703
0.74876554
0.74960888
0.75043609
0.75124632
0.75203877
0.75281273
0.75356759
0.7543028
0.75501791
0.75571254
0.75638639
0.75703924
0.75767095
0.75828143
0.75887068
0.75943875
0.75998575
0.76051186
0.76101729
0.76150231
0.76196723
0.76241241
0.76283822
0.76324509
0.76363345
0.76400378
0.76435655
0.76469228
0.76501148
0.76531467
0.76560239
0.76587518
0.76613357
0.76637811
0.76660934
0.7668278
0.767034
0.74129223
0.74220856
0.74311943
0.74402384
0.74492042
0.74580784
0.74668481
0.7475501
0.74840258
0.74924116
0.75006485