/*--------------------------------*- C++ -*----------------------------------*\
| =========                 |                                                 |
| \\      /  F ield         | OpenFOAM: The Open Source CFD Toolbox           |
|  \\    /   O peration     | Version:  2312                                  |
|   \\  /    A nd           | Website:  www.openfoam.com                      |
|    \\/     M anipulation  |                                                 |
\*---------------------------------------------------------------------------*/
FoamFile
{
    version     2.0;
    format      ascii;
    arch        "LSB;label=32;scalar=64";
    class       volScalarField;
    location    "0.04";
    object      O2;
}
// * * * * * * * * * * * * * * * * * * * * * * * * * * * * * * * * * * * * * //

dimensions      [0 0 0 0 0 0 0];

internalField   nonuniform List<scalar> 
3251
(
0.12712009
0.12856852
0.13011142
0.13174704
0.13347278
0.13528545
0.13718126
0.13915587
0.14120435
0.14332128
0.14550077
0.1477365
0.15002177
0.15234961
0.15471279
0.15710393
0.15951558
0.16194027
0.1643706
0.16679934
0.16921942
0.17162409
0.17400689
0.17636175
0.17868301
0.18096543
0.18320426
0.18539519
0.18753441
0.18961858
0.19164483
0.19361074
0.19551434
0.19735407
0.19912878
0.2008377
0.2024804
0.20405677
0.20556701
0.20701159
0.20839124
0.20970688
0.21095966
0.21215089
0.21328204
0.2143547
0.21537058
0.21633146
0.21723919
0.21809569
0.21890288
0.21966252
0.2203763
0.22104649
0.22167533
0.22226483
0.22281691
0.22333347
0.12713172
0.12857994
0.13012262
0.13175809
0.13348367
0.13529616
0.13719178
0.13916617
0.14121441
0.1433311
0.14551032
0.14774576
0.15003074
0.15235827
0.15472112
0.15711193
0.15952323
0.16194757
0.16437756
0.16680593
0.16922566
0.17162997
0.17401242
0.17636693
0.17868784
0.18096993
0.18320843
0.18539905
0.18753797
0.18962185
0.19164781
0.19361345
0.1955168
0.19735629
0.19913077
0.20083948
0.20248198
0.20405816
0.20556823
0.20701265
0.20839215
0.20970765
0.21096031
0.21215142
0.21328247
0.21435502
0.2153708
0.21633159
0.21723923
0.21809563
0.21890271
0.21966226
0.22037612
0.22104643
0.22167536
0.2222649
0.222817
0.22333354
0.12715497
0.12860299
0.13014546
0.13178072
0.13350608
0.13531831
0.13721363
0.13918768
0.14123555
0.14335182
0.14553059
0.14776553
0.15004998
0.15237695
0.15473921
0.1571294
0.15954007
0.16196375
0.16439306
0.16682075
0.16923979
0.17164341
0.17402516
0.17637899
0.17869922
0.18098064
0.18321849
0.18540847
0.18754676
0.18963004
0.19165543
0.19362051
0.19552332
0.1973623
0.19913631
0.20084455
0.20248662
0.20406239
0.20557208
0.20701614
0.2083953
0.2097105
0.21096286
0.21215371
0.21328449
0.21435682
0.21537237
0.21633295
0.21724039
0.2180966
0.21890349
0.21966291
0.22037674
0.22104707
0.22167602
0.22226556
0.22281762
0.22333415
0.12718986
0.1286377
0.13017994
0.13181496
0.13354003
0.13535192
0.13724684
0.13922043
0.14126777
0.14338345
0.14556156
0.14779581
0.15007949
0.15240564
0.15476705
0.15715634
0.15956607
0.16198879
0.16441711
0.16684379
0.1692618
0.17166439
0.17404511
0.17639791
0.17871712
0.18099754
0.1832344
0.18542342
0.18756077
0.18964314
0.19166765
0.19363189
0.19553389
0.1973721
0.19914536
0.20085291
0.2024943
0.20406945
0.20557855
0.20702205
0.20840069
0.2097154
0.2109673
0.21215772
0.21328811
0.21436007
0.21537528
0.21633553
0.21724267
0.2180986
0.21890523
0.21966444
0.22037815
0.22104842
0.22167731
0.2222668
0.22281878
0.22333531
0.12723634
0.12868402
0.13022602
0.13186076
0.13358549
0.13539696
0.13729137
0.13926437
0.14131104
0.14342596
0.14560323
0.14783656
0.15011925
0.15244434
0.15480462
0.15719273
0.15960123
0.16202267
0.16444967
0.16687502
0.16929168
0.1716929
0.17407225
0.17642368
0.17874155
0.18102063
0.18325617
0.1854439
0.18758001
0.18966116
0.19168449
0.1936476
0.19554851
0.19738568
0.19915795
0.20086455
0.20250505
0.20407935
0.20558764
0.20703039
0.20840832
0.20972236
0.21097365
0.21216349
0.21329334
0.21436479
0.21537953
0.21633935
0.21724608
0.21810164
0.21890792
0.21966685
0.22038036
0.22105049
0.22167926
0.22226862
0.22282047
0.12729104
0.12873857
0.13028034
0.13191479
0.13363914
0.13545014
0.13734398
0.1393163
0.1413622
0.14347625
0.14565256
0.14788482
0.15016637
0.15249022
0.15484919
0.15723592
0.15964298
0.16206293
0.1644884
0.16691218
0.16932725
0.17172686
0.17410461
0.17645444
0.17877071
0.18104821
0.18328221
0.18546843
0.18760306
0.18968278
0.19170472
0.19366649
0.19556612
0.19740205
0.19917315
0.20087863
0.20251806
0.20409136
0.2055987
0.20704055
0.20841764
0.20973089
0.21098144
0.21217059
0.21329979
0.21437064
0.21538483
0.21634413
0.21725038
0.21810549
0.21891138
0.21966997
0.22038321
0.22105313
0.22168172
0.22227091
0.22282253
0.12735227
0.12879968
0.13034123
0.13197537
0.13369931
0.13550979
0.13740301
0.1393746
0.14141965
0.14353274
0.14570797
0.14793906
0.15021933
0.15254181
0.15489932
0.15728452
0.15968997
0.16210826
0.16453202
0.16695405
0.16936735
0.17176517
0.17414112
0.17648915
0.17880364
0.18107939
0.18331166
0.18549618
0.18762915
0.18970726
0.19172765
0.19368792
0.19558611
0.19742066
0.19919043
0.20089465
0.20253289
0.20410505
0.20561132
0.20705217
0.20842831
0.20974067
0.21099038
0.21217875
0.21330723
0.2143774
0.21539096
0.21634967
0.21725539
0.21811
0.21891544
0.21967364
0.22038657
0.22105623
0.22168459
0.22227356
0.22282496
0.1274248
0.1288721
0.13041343
0.13204722
0.1337707
0.13558059
0.13747308
0.13944381
0.14148786
0.14359982
0.1457738
0.14800351
0.15028227
0.15260314
0.15495893
0.15734232
0.15974588
0.1621622
0.16458395
0.16700391
0.16941511
0.17181082
0.17418464
0.17653055
0.17884293
0.1811166
0.18334681
0.18552932
0.18766034
0.18973654
0.19175509
0.19371357
0.19561004
0.19744295
0.19921116
0.20091388
0.2025507
0.20412152
0.20562651
0.20706616
0.20844116
0.20975246
0.21100118
0.21218862
0.21331623
0.2143856
0.2153984
0.21635642
0.2172615
0.21811553
0.21892043
0.21967817
0.22039071
0.22106002
0.22168809
0.2222768
0.222828
0.12750946
0.12895666
0.13049775
0.13213116
0.1338541
0.13566332
0.13755498
0.13952472
0.14156762
0.14367827
0.1458508
0.14807889
0.15035591
0.15267491
0.15502871
0.15740999
0.15981135
0.16222539
0.16464478
0.16706234
0.1694711
0.17186434
0.17423568
0.17657912
0.17888904
0.18116027
0.18338809
0.18556826
0.18769698
0.18977096
0.19178735
0.19374376
0.19563823
0.19746922
0.19923558
0.20093656
0.20257172
0.20414095
0.20564446
0.2070827
0.20845638
0.20976643
0.21101399
0.21220034
0.21332693
0.21439535
0.21540728
0.21636448
0.2172688
0.21812214
0.21892643
0.21968361
0.22039567
0.22106458
0.22169229
0.22228068
0.12760711
0.12905423
0.13059505
0.13222804
0.13395039
0.13575883
0.13764954
0.13961815
0.14165974
0.14376889
0.14593975
0.148166
0.15044102
0.15275786
0.15510936
0.15748822
0.15988705
0.16229846
0.16471515
0.16712994
0.16953588
0.17192628
0.17429477
0.17663536
0.17894244
0.18121087
0.18343594
0.1856134
0.18773948
0.1898109
0.1918248
0.1937788
0.19567096
0.19749973
0.19926398
0.20096294
0.20259617
0.20416358
0.20566536
0.20710197
0.20847412
0.20978274
0.21102894
0.21221403
0.21333945
0.21440677
0.21541767
0.21637393
0.21727739
0.21812993
0.21893349
0.21969003
0.22040153
0.22106994
0.22169721
0.22228522
0.12771867
0.1291657
0.13070625
0.13233876
0.13406044
0.13586801
0.13775765
0.13972497
0.14176507
0.14387253
0.14604148
0.14826564
0.15053837
0.15285276
0.15520165
0.15757775
0.15997369
0.16238211
0.16479571
0.16720735
0.16961008
0.17199724
0.17436247
0.1766998
0.17900366
0.18126889
0.1834908
0.18566517
0.18778824
0.18985672
0.19186778
0.19381905
0.19570856
0.1975348
0.19929663
0.20099327
0.2026243
0.20418963
0.20568943
0.20712418
0.20849457
0.20980154
0.2110462
0.21222984
0.21335391
0.21441998
0.21542971
0.21638489
0.21728735
0.21813897
0.2189417
0.2196975
0.22040833
0.22107616
0.22170291
0.12784509
0.12929203
0.13083228
0.13246427
0.13418521
0.13599181
0.13788023
0.13984611
0.14188452
0.14399006
0.14615687
0.14837866
0.15064882
0.15296043
0.15530636
0.15767934
0.16007202
0.16247706
0.16488717
0.16729523
0.16969433
0.17207782
0.17443937
0.17677302
0.17907321
0.18133482
0.18355317
0.18572404
0.1878437
0.18990885
0.1919167
0.19386485
0.19575137
0.19757474
0.19933381
0.20102783
0.20265637
0.20421933
0.20571689
0.20714953
0.20851793
0.20982302
0.21106592
0.21224793
0.21337046
0.2144351
0.21544351
0.21639746
0.21729878
0.21814936
0.21895114
0.21970608
0.22041615
0.2210833
0.22170942
0.12798737
0.12943423
0.13097416
0.13260557
0.13432568
0.13613119
0.13801826
0.13998252
0.14201904
0.14412243
0.14628682
0.14850596
0.15077322
0.15308171
0.15542433
0.1577938
0.16018282
0.16258405
0.16499024
0.16739429
0.16978931
0.17216867
0.17452607
0.17685558
0.17915166
0.1814092
0.18362353
0.18579047
0.18790629
0.18996771
0.19197193
0.19391658
0.19579974
0.19761987
0.19937585
0.20106692
0.20269265
0.20425294
0.20574798
0.20717823
0.20854438
0.20984736
0.21108828
0.21226843
0.21338924
0.21445226
0.21545918
0.21641174
0.21731178
0.21816118
0.21896189
0.21971585
0.22042504
0.22109141
0.12814658
0.12959336
0.13113293
0.1327637
0.13448289
0.13628718
0.13817275
0.14013519
0.14216961
0.14427059
0.1464323
0.14864846
0.15091249
0.1532175
0.15555641
0.15792197
0.16030689
0.16270387
0.16510567
0.16750524
0.1698957
0.17227046
0.17462323
0.17694811
0.17923959
0.18149257
0.18370243
0.18586497
0.18797649
0.19003373
0.1920339
0.19397464
0.19585403
0.19767054
0.19942306
0.20111083
0.20273341
0.20429072
0.20578293
0.20721051
0.20857415
0.20987476
0.21111346
0.21229153
0.21341039
0.21447162
0.21547686
0.21642786
0.21732646
0.21817454
0.21897403
0.21972688
0.22043507
0.22110055
0.12832381
0.1297705
0.13130968
0.13293975
0.13465792
0.13646086
0.13834475
0.14030518
0.14233726
0.14443557
0.14659428
0.14880714
0.15106758
0.15336872
0.15570351
0.15806472
0.16044509
0.16283733
0.16523427
0.16762885
0.17001425
0.17238388
0.17473151
0.17705125
0.17933761
0.18158553
0.1837904
0.18594805
0.1880548
0.19010739
0.19210305
0.19403944
0.19591463
0.19772712
0.19947579
0.20115987
0.20277896
0.20433294
0.205822
0.2072466
0.20860744
0.20990542
0.21114165
0.2123174
0.2134341
0.2144933
0.21549667
0.21644594
0.21734294
0.21818954
0.21898766
0.21973925
0.22044631
0.12852023
0.12996682
0.13150557
0.13313486
0.13485189
0.13665335
0.13853537
0.14049358
0.14252306
0.14461841
0.14677381
0.14898302
0.15123947
0.15353633
0.15586656
0.15822295
0.16059828
0.1629853
0.16537685
0.16776591
0.1701457
0.17250966
0.1748516
0.17716564
0.17944634
0.18168867
0.18388802
0.18604026
0.18814172
0.19018916
0.19217983
0.1941114
0.19598195
0.19778998
0.19953438
0.20121438
0.20282959
0.20437989
0.20586546
0.20728677
0.20864449
0.20993955
0.21117303
0.21234622
0.21346052
0.21451749
0.21551877
0.21646611
0.21736133
0.21820628
0.21900287
0.21975304
0.22045883
0.12873703
0.1301835
0.13172177
0.1333502
0.13506598
0.13686579
0.13874577
0.14070151
0.14272813
0.14482021
0.14697195
0.14917713
0.1514292
0.15372134
0.15604653
0.15839762
0.16076739
0.16314864
0.16553425
0.16791724
0.17029084
0.17264856
0.17498422
0.17729199
0.17956646
0.1818026
0.18399587
0.18614215
0.18823778
0.19027955
0.19226472
0.19419097
0.19605639
0.19785951
0.1995992
0.20127471
0.20288563
0.20443186
0.20591359
0.20733125
0.20868555
0.20997737
0.21120783
0.21237817
0.21348982
0.21454432
0.21554331
0.21648852
0.21738176
0.21822488
0.21901976
0.21976834
0.12897547
0.1304218
0.13195953
0.13358701
0.13530141
0.1370994
0.13897711
0.14093015
0.14295361
0.14504211
0.14718983
0.14939057
0.15163781
0.15392476
0.15624443
0.15858969
0.16095336
0.16332828
0.16570737
0.16808368
0.17045049
0.17280136
0.17513012
0.17743101
0.17969862
0.18192799
0.18411458
0.18625431
0.18834353
0.19037908
0.1923582
0.19427861
0.19613841
0.19793612
0.19967063
0.2013412
0.20294742
0.20448918
0.20596667
0.20738033
0.20873085
0.21001913
0.21124624
0.21241347
0.2135222
0.21457397
0.21557043
0.2165133
0.21740437
0.21824546
0.21903844
0.21978523
0.12923685
0.130683
0.13222014
0.13384655
0.13555943
0.13735542
0.13923065
0.14118072
0.14320071
0.14528527
0.14742858
0.14962446
0.15186642
0.15414768
0.15646129
0.15880016
0.16115716
0.16352515
0.16589709
0.1682661
0.17062549
0.17296885
0.17529007
0.17758342
0.17984354
0.18206549
0.18424478
0.18637733
0.18845955
0.19048828
0.19246079
0.1943748
0.19622844
0.19802023
0.19974908
0.20141424
0.2030153
0.20455216
0.20602501
0.20743429
0.20878067
0.21006505
0.21128851
0.2124523
0.21355783
0.21460662
0.2156003
0.21654059
0.21742928
0.21826816
0.21905905
0.2198039
0.12952252
0.13096844
0.13250491
0.13413016
0.13584136
0.13763515
0.13950765
0.14145445
0.14347066
0.1455509
0.14768938
0.14987995
0.15211613
0.15439118
0.15669818
0.15903008
0.16137979
0.16374021
0.16610437
0.16846541
0.17081669
0.17315186
0.17546486
0.17774999
0.18000194
0.1822158
0.18438711
0.18651185
0.18858642
0.19060771
0.192573
0.19448004
0.19632695
0.19811229
0.19983495
0.2014942
0.20308963
0.20462115
0.20608892
0.20749341
0.20883526
0.21011539
0.21133485
0.2124949
0.21359692
0.21464244
0.21563309
0.21657056
0.21745665
0.21829311
0.2190817
0.21982449
0.12983385
0.1312795
0.13281521
0.13443917
0.13614852
0.1379399
0.13980941
0.14175265
0.14376471
0.14584023
0.14797346
0.15015823
0.15238811
0.1546564
0.1569562
0.15928051
0.16162227
0.16397447
0.16633015
0.16868251
0.17102499
0.17335125
0.17565531
0.1779315
0.18017455
0.18237961
0.18454226
0.18665849
0.18872475
0.19073794
0.19269538
0.19459483
0.19643443
0.19821273
0.19992866
0.20158148
0.20317078
0.20469647
0.20615873
0.20755799
0.20889492
0.21017041
0.21138551
0.21254148
0.21363968
0.21468164
0.21566896
0.21660337
0.21748661
0.21832045
0.21910655
0.13017229
0.13161759
0.13315245
0.13477498
0.1364823
0.13827103
0.14013727
0.14207661
0.14408415
0.14615455
0.14828204
0.15046051
0.15268354
0.15494447
0.15723644
0.15955251
0.16188566
0.16422892
0.1665754
0.16891836
0.17125127
0.17356788
0.17586223
0.17812872
0.18036214
0.18255766
0.1847109
0.1868179
0.18887515
0.19087956
0.19282848
0.19471969
0.19655135
0.19832203
0.20003065
0.20167648
0.20325913
0.2047785
0.20623476
0.20762835
0.20895993
0.21023038
0.21144075
0.21259227
0.21368632
0.21472439
0.2157081
0.21663916
0.21751933
0.21835037
0.21913375
0.1305393
0.13198415
0.13351808
0.13513902
0.1368441
0.13862993
0.1404926
0.14242769
0.14443031
0.14649512
0.14861639
0.15078802
0.15300362
0.15525657
0.15754006
0.1598472
0.16217102
0.1645046
0.16684112
0.1691739
0.17149647
0.17380262
0.17608648
0.17834248
0.18056546
0.18275066
0.18489373
0.18699075
0.18903824
0.19103316
0.19297287
0.19485516
0.19667823
0.19844065
0.20014136
0.20177963
0.20335508
0.2048676
0.20631737
0.20770481
0.20903059
0.21029557
0.21150081
0.21264751
0.21373705
0.21477091
0.21575069
0.21667809
0.21755495
0.1309364
0.13238069
0.13391354
0.13553273
0.13723536
0.13901802
0.14087679
0.14280726
0.14480453
0.14686328
0.14897779
0.151142
0.15334956
0.15559387
0.1578682
0.16016567
0.16247941
0.16480254
0.16712831
0.16945009
0.17176149
0.17405637
0.1763289
0.17857358
0.18078531
0.18295937
0.18509146
0.18717771
0.18921468
0.19119934
0.1931291
0.19500178
0.19681557
0.19856908
0.20026124
0.20189135
0.20345902
0.20496414
0.20640688
0.20778769
0.2091072
0.21036627
0.21156596
0.21270745
0.21379211
0.2148214
0.21579691
0.21672034
0.1313651
0.13280873
0.13434035
0.13595759
0.13765752
0.13943671
0.14129124
0.14321667
0.14520814
0.14726032
0.14936752
0.15152372
0.15372258
0.15595758
0.158222
0.16050906
0.16281193
0.1651238
0.16743798
0.16974792
0.17204729
0.17433003
0.17659035
0.17882285
0.18102246
0.18318453
0.18530481
0.18737947
0.1894051
0.19137873
0.19329778
0.19516009
0.1969639
0.1987078
0.20039076
0.20201207
0.20357135
0.20506849
0.20650368
0.20787732
0.20919007
0.21044277
0.21163647
0.21277234
0.21385172
0.21487608
0.21584697
0.21676607
0.13047256
0.13182679
0.13326977
0.13480001
0.13641508
0.13811204
0.13988745
0.14173735
0.14365733
0.14564251
0.14768758
0.14978689
0.15193442
0.15412391
0.15634886
0.15860263
0.16087848
0.16316965
0.1654694
0.16777112
0.17006834
0.17235479
0.17462447
0.1768717
0.17909111
0.18127771
0.1834269
0.18553449
0.18759669
0.18961015
0.19157192
0.19347947
0.19533065
0.19712372
0.1988573
0.20053037
0.20214223
0.20369249
0.20518106
0.2066081
0.20797404
0.20927952
0.21052537
0.21171261
0.21284242
0.21391613
0.21493517
0.21590106
0.21681552
0.13096886
0.13232312
0.13376534
0.13529402
0.13690669
0.1386004
0.14037167
0.14221655
0.14413061
0.14610899
0.14814639
0.15023717
0.15237538
0.15455477
0.15676892
0.15901123
0.16127503
0.16355364
0.16584039
0.16812875
0.17041232
0.17268491
0.17494061
0.17717379
0.17937917
0.18155183
0.18368722
0.18578121
0.18783007
0.18983048
0.19177955
0.19367476
0.19551401
0.19729557
0.19901809
0.20068055
0.20228226
0.20382285
0.20530221
0.20672053
0.2080782
0.20937586
0.21061435
0.21179466
0.21291797
0.21398558
0.2149989
0.21595942
0.2168689
0.13150153
0.13285565
0.13429696
0.13582388
0.13743391
0.13912405
0.14089081
0.14273024
0.14463789
0.14660891
0.14863803
0.15071964
0.15284781
0.15501636
0.1572189
0.15944892
0.16169981
0.16396496
0.16623779
0.16851184
0.1707808
0.17303856
0.1752793
0.17749746
0.17968784
0.18184559
0.18396622
0.18604567
0.18808027
0.19006673
0.1920022
0.19388422
0.19571071
0.19747996
0.19919064
0.20084175
0.2024326
0.20396283
0.20543235
0.20684131
0.20819013
0.20947942
0.21071002
0.21188291
0.21299924
0.21406031
0.2150675
0.21602229
0.21692643
0.13207204
0.13342593
0.13486616
0.13639109
0.13799819
0.13968442
0.14144628
0.14327978
0.1451805
0.14714359
0.14916379
0.15123554
0.15335293
0.15550985
0.15769996
0.15991682
0.16215389
0.16440464
0.16666259
0.16892135
0.17117471
0.17341664
0.1756414
0.17784354
0.18001791
0.18215974
0.18426463
0.18632857
0.18834794
0.19031952
0.19224049
0.19410843
0.19592129
0.19767741
0.19937545
0.20101443
0.20259369
0.20411286
0.20557184
0.20697081
0.20831016
0.20959052
0.21081268
0.21197763
0.2130865
0.21414057
0.21514121
0.21608988
0.21698832
0.13268192
0.13403544
0.13547442
0.13699712
0.13860097
0.14028292
0.14203944
0.14386653
0.14575976
0.1477143
0.14972492
0.15178607
0.15389191
0.15603637
0.15821318
0.16041597
0.16263828
0.16487368
0.16711575
0.16935821
0.17159493
0.17381999
0.17602774
0.1782128
0.18037013
0.18249502
0.18458315
0.18663057
0.18863372
0.19058945
0.19249498
0.19434793
0.19614629
0.1978884
0.19957297
0.20119904
0.20276594
0.20427332
0.20572108
0.20710939
0.20843865
0.20970946
0.21092261
0.21207909
0.21318001
0.21422661
0.21522026
0.2161624
0.21705475
0.13333265
0.13468567
0.13612318
0.13764337
0.13924364
0.14092091
0.14267162
0.14449177
0.14637692
0.14832226
0.15032258
0.15237238
0.15446586
0.15659699
0.15875961
0.16094738
0.16315397
0.16537299
0.16759816
0.16982327
0.1720423
0.17424943
0.17643909
0.17860601
0.18074522
0.18285211
0.18492243
0.1869523
0.18893823
0.19087712
0.19276624
0.19460326
0.19638619
0.19811342
0.19978368
0.20139601
0.20294977
0.2044446
0.20588042
0.20725739
0.2085759
0.20983655
0.21104012
0.21218758
0.21328001
0.21431866
0.21530487
0.21624005
0.21712593
0.13402571
0.13537804
0.13681383
0.13833121
0.13992753
0.14159968
0.14334408
0.14515672
0.14703317
0.14896862
0.15095791
0.15299555
0.15507581
0.15719274
0.15934021
0.16151201
0.16370185
0.16590347
0.16811068
0.17031737
0.17251762
0.17470571
0.17687619
0.17902385
0.18114385
0.18323165
0.18528309
0.18729435
0.18926203
0.19118306
0.19305479
0.19487491
0.19664148
0.19835293
0.200008
0.20160575
0.20314556
0.20462708
0.20605022
0.20741515
0.20872224
0.2099721
0.21116548
0.21230334
0.21338677
0.21441696
0.21539525
0.21632304
0.21720203
0.13476247
0.1361139
0.1375477
0.13906192
0.14065388
0.14232044
0.14405799
0.14586252
0.1477296
0.14965444
0.15163191
0.15365657
0.15572274
0.15782452
0.15995589
0.16211069
0.16428275
0.16646591
0.16865407
0.17084123
0.17302158
0.17518952
0.17733968
0.17946697
0.18156664
0.18363425
0.1856657
0.18765729
0.18960564
0.19150778
0.1933611
0.19516334
0.1969126
0.19860734
0.20024633
0.20182865
0.20335368
0.2048211
0.2062308
0.20758297
0.20887796
0.21011637
0.21129896
0.21242665
0.21350051
0.21452173
0.21549162
0.21641157
0.21728325
0.13554422
0.1368945
0.13832598
0.13983667
0.14142383
0.14308429
0.14481441
0.14661019
0.14846721
0.15038068
0.15234552
0.15435632
0.15640748
0.15849316
0.16060741
0.16274419
0.16489741
0.16706101
0.169229
0.1713955
0.17355482
0.17570145
0.17783015
0.17993593
0.18201413
0.18406041
0.18607077
0.18804157
0.18996953
0.19185173
0.19368561
0.19546897
0.19719995
0.19887704
0.20049904
0.20206505
0.20357447
0.20502697
0.20642248
0.20776114
0.20904334
0.21026964
0.2114408
0.21255772
0.21362145
0.21463318
0.21559417
0.21650581
0.21736974
0.13637213
0.13772096
0.13914979
0.14065653
0.1422384
0.1438922
0.14561429
0.14740064
0.14924685
0.15114816
0.15309951
0.15509556
0.15713075
0.15919934
0.16129545
0.16341314
0.16554642
0.16768934
0.16983603
0.17198073
0.17411786
0.17624202
0.17834808
0.18043119
0.18248677
0.18451058
0.18649872
0.18844763
0.1903541
0.19221528
0.19402869
0.19579215
0.19750387
0.19916236
0.20076645
0.20231527
0.20380822
0.205245
0.20662552
0.20794994
0.20921862
0.21043214
0.21159122
0.21269677
0.21374981
0.21475149
0.21570309
0.21660595
0.21746168
0.13724721
0.13859428
0.14002006
0.14152239
0.14309845
0.144745
0.1464584
0.14823461
0.15006924
0.15195755
0.15389453
0.15587489
0.15789314
0.15994361
0.16202052
0.16411803
0.16623026
0.16835137
0.17047561
0.17259733
0.17471109
0.1768116
0.17889386
0.18095312
0.18298491
0.1849851
0.18694988
0.18887578
0.19075966
0.19259876
0.19439063
0.19613319
0.19782465
0.19946358
0.20104883
0.20257956
0.20405519
0.20547541
0.20684015
0.20814957
0.20940402
0.21060407
0.21175044
0.21284399
0.21388575
0.21487685
0.21581853
0.21671212
0.21755921
0.13817033
0.13951526
0.14093756
0.14243497
0.14400465
0.14564333
0.14734734
0.14911265
0.15093488
0.15280933
0.15473102
0.15669472
0.15869502
0.16072633
0.16278297
0.16485919
0.16694923
0.16904738
0.171148
0.17324558
0.17533477
0.17741046
0.17946773
0.18150195
0.18350879
0.1854842
0.18742448
0.18932624
0.19118644
0.19300237
0.19477167
0.19649228
0.19816249
0.19978089
0.20134637
0.20285811
0.20431555
0.20571839
0.20706656
0.20836022
0.20959972
0.21078561
0.21191859
0.21299954
0.21402944
0.2150094
0.21594064
0.21682447
0.21766244
0.13914215
0.14048452
0.14190285
0.1433948
0.14495748
0.14658761
0.1482815
0.15003511
0.1518441
0.15370378
0.15560923
0.15755529
0.1595366
0.16154769
0.16358295
0.16563676
0.16770347
0.16977749
0.17185332
0.17392556
0.17598902
0.17803868
0.18006978
0.18207779
0.1840585
0.18600798
0.18792262
0.18979913
0.19163454
0.19342624
0.1951719
0.19686955
0.19851751
0.20011443
0.20165921
0.20315106
0.20458945
0.20597407
0.20730487
0.20858201
0.20980583
0.21097687
0.21209582
0.21316353
0.21418098
0.21514924
0.21606952
0.21694309
0.2177715
0.14016306
0.14150241
0.14291623
0.14440213
0.14595717
0.14757802
0.14926101
0.1510021
0.15279696
0.15464094
0.15652918
0.15845657
0.16041785
0.16240763
0.1644204
0.16645067
0.1684929
0.17054163
0.17259148
0.17463721
0.17667374
0.1786962
0.18069994
0.18268058
0.184634
0.18655641
0.18844427
0.19029442
0.19210396
0.19387034
0.19559134
0.19726501
0.19888975
0.20046422
0.20198738
0.20345846
0.20487693
0.20624251
0.20755516
0.20881501
0.21002243
0.21117793
0.2122822
0.21333605
0.21434045
0.21529646
0.21620525
0.21706808
0.21788644
0.1412332
0.14256901
0.14397775
0.14545695
0.14700364
0.14861447
0.15028574
0.15201345
0.15379326
0.15562059
0.15749061
0.1593983
0.16133848
0.16330584
0.16529502
0.1673006
0.1693172
0.17133947
0.17336218
0.17538022
0.17738865
0.17938273
0.18135796
0.18331006
0.18523506
0.18712925
0.18898924
0.19081193
0.19259452
0.19433456
0.19602986
0.19767856
0.1992791
0.20083019
0.20233082
0.20378024
0.20517795
0.20652369
0.20781739
0.20905923
0.21024953
0.21138881
0.21247773
0.21351711
0.21450789
0.21545109
0.21634787
0.21719945
0.21800731
0.14235238
0.14368408
0.14508712
0.14655894
0.14809653
0.14969653
0.15135524
0.15306865
0.15483248
0.15664217
0.15849296
0.1603799
0.1622979
0.16424176
0.16620621
0.16818597
0.17017579
0.17217045
0.17416487
0.17615406
0.17813323
0.18009779
0.18204335
0.18396579
0.18586125
0.18772613
0.18955715
0.19135132
0.19310592
0.19481858
0.19648719
0.19810996
0.19968535
0.20121215
0.20268936
0.20411627
0.20549239
0.20681748
0.20809148
0.20931456
0.21048704
0.21160943
0.21268238
0.21370668
0.21468325
0.21561311
0.21649736
0.21733721
0.2181341
0.14352004
0.14484702
0.14624367
0.14770738
0.14923509
0.15082342
0.15246869
0.15416689
0.15591376
0.15770481
0.15953534
0.16140048
0.16329521
0.16521446
0.16715308
0.1691059
0.17106781
0.17303373
0.17499871
0.17695793
0.17890672
0.18084063
0.18275543
0.1846471
0.18651193
0.18834644
0.19014744
0.19191205
0.19363766
0.19532195
0.19696291
0.1985588
0.20010814
0.20160975
0.20306269
0.20446625
0.20581999
0.20712366
0.20837722
0.20958083
0.21073481
0.21183966
0.21289602
0.21390466
0.21486647
0.21578244
0.21665366
0.21748131
0.21826678
0.1447352
0.14605679
0.14744635
0.14890116
0.15041817
0.15199397
0.15362488
0.15530692
0.15703586
0.15880726
0.16061649
0.16245875
0.16432916
0.16622271
0.1681344
0.17005918
0.17199207
0.17392815
0.17586259
0.17779073
0.17970805
0.18161024
0.1834932
0.18535307
0.18718623
0.18898933
0.19075932
0.19249339
0.19418904
0.19584403
0.19745641
0.19902452
0.20054694
0.20202252
0.20345036
0.2048298
0.20616039
0.2074419
0.20867431
0.20985777
0.2109926
0.21207929
0.21311845
0.21411085
0.21505736
0.21595893
0.21681664
0.21763162
0.21840525
0.14599645
0.14731193
0.14869362
0.15013873
0.15164418
0.15320655
0.15482217
0.15648708
0.15819709
0.15994782
0.16173472
0.16355307
0.16539808
0.16726488
0.16914856
0.17104423
0.17294703
0.17485219
0.17675505
0.17865106
0.18053588
0.18240532
0.18425543
0.18608248
0.18788299
0.18965374
0.19139176
0.19309436
0.19475914
0.19638394
0.19796689
0.19950638
0.20100105
0.20244981
0.20385178
0.20520634
0.20651305
0.20777172
0.2089823
0.21014497
0.21126003
0.21232796
0.21334937
0.214325
0.21525568
0.21614237
0.2169861
0.21778798
0.21854935
0.14730181
0.14861044
0.14998344
0.15141801
0.15291101
0.15445904
0.15605841
0.15770521
0.15939531
0.16112437
0.1628879
0.16468131
0.16649989
0.16833889
0.17019354
0.17205906
0.17393076
0.175804
0.17767426
0.17953716
0.18138849
0.18322422
0.18504054
0.18683384
0.18860079
0.19033828
0.19204346
0.19371374
0.1953468
0.19694059
0.19849331
0.2000034
0.20146957
0.20289077
0.20426616
0.20559515
0.20687732
0.20811249
0.20930064
0.21044191
0.21153663
0.21258525
0.21358838
0.21454672
0.21546111
0.21633245
0.21716177
0.21795013
0.21869885
0.14864876
0.14994973
0.15131322
0.15273636
0.15421601
0.15574875
0.15733093
0.15895866
0.16062785
0.16233424
0.16407342
0.16584088
0.16763204
0.16944225
0.17126687
0.17310128
0.17494091
0.17678128
0.17861801
0.18044688
0.18226382
0.18406496
0.18584661
0.18760533
0.18933789
0.1910413
0.19271284
0.19435002
0.19595062
0.19751266
0.19903441
0.2005144
0.20195139
0.20334436
0.20469253
0.20599532
0.20725236
0.20846345
0.20962858
0.21074792
0.21182177
0.21285059
0.21383495
0.21477555
0.21567319
0.21652877
0.21734327
0.21811775
0.21885347
0.15003413
0.1513266
0.15267971
0.15409053
0.15555591
0.15707244
0.15863647
0.16024417
0.16189148
0.16357423
0.1652881
0.16702866
0.16879144
0.17057193
0.17236561
0.174168
0.17597468
0.17778131
0.17958366
0.18137767
0.18315942
0.18492517
0.18667138
0.18839476
0.19009218
0.19176081
0.19339801
0.19500141
0.19656887
0.19809851
0.19958868
0.20103796
0.20244516
0.20380933
0.20512971
0.20640576
0.20763712
0.20882362
0.20996525
0.21106218
0.2121147
0.21312327
0.21408843
0.21501088
0.21589139
0.21673082
0.21753015
0.2182904
0.21901283
0.15145404
0.15273715
0.15407899
0.15547659
0.15692678
0.15842616
0.15997112
0.16155785
0.16318236
0.16484055
0.16652819
0.16824095
0.16997448
0.17172439
0.17348629
0.17525584
0.17702877
0.17880088
0.18056811
0.18232653
0.18407237
0.18580205
0.18751217
0.18919955
0.19086123
0.19249446
0.19409673
0.19566577
0.19719955
0.19869625
0.2001543
0.20157236
0.20294928
0.20428417
0.20557629
0.20682514
0.20803039
0.20919186
0.21030958
0.21138369
0.2124145
0.21340243
0.21434804
0.21525198
0.21611501
0.21693798
0.21772182
0.21846757
0.15290381
0.1541767
0.1555064
0.15688988
0.15832397
0.1598053
0.16133028
0.16289514
0.16449597
0.16612874
0.1677893
0.16947345
0.17117693
0.17289548
0.17462486
0.17636086
0.17809934
0.17983628
0.18156775
0.18328997
0.18499933
0.18669238
0.18836587
0.19001675
0.19164217
0.19323953
0.19480641
0.19634066
0.19784031
0.19930365
0.20072919
0.20211562
0.20346188
0.20476711
0.20603061
0.20725191
0.2084307
0.20956682
0.21066029
0.21171127
0.21272006
0.21368706
0.21461283
0.21549798
0.21634326
0.21714949
0.21791762
0.15437796
0.15563975
0.15695641
0.15832489
0.15974202
0.16120443
0.16270858
0.16425074
0.16582709
0.16743365
0.16906638
0.17072118
0.17239391
0.17408045
0.17577667
0.17747852
0.17918201
0.18088324
0.18257845
0.18426401
0.18593644
0.18759245
0.18922891
0.19084291
0.19243174
0.19399289
0.19552407
0.19702321
0.19848845
0.19991815
0.20131089
0.20266545
0.20398079
0.20525611
0.20649075
0.20768427
0.20883636
0.2099469
0.21101591
0.21204355
0.2130301
0.21397597
0.21488168
0.21574786
0.21657519
0.2173645
0.15587003
0.15711987
0.15842265
0.15977528
0.16117462
0.1626173
0.16409983
0.16561855
0.16716968
0.16874935
0.1703536
0.17197844
0.17361986
0.17527385
0.17693643
0.17860368
0.18027175
0.18193691
0.18359552
0.1852441
0.18687933
0.18849804
0.19009725
0.19167417
0.19322621
0.19475098
0.19624629
0.19771018
0.19914088
0.20053682
0.20189665
0.20321921
0.20450353
0.20574883
0.20695451
0.20812013
0.20924543
0.21033029
0.21137473
0.21237892
0.21334313
0.21426777
0.21515333
0.21600042
0.21680973
0.21758214
0.15737255
0.15860963
0.15989772
0.16123374
0.16261452
0.16403676
0.16549698
0.1669916
0.1685169
0.1700691
0.17164436
0.17323877
0.17484845
0.17646952
0.17809813
0.17973049
0.18136291
0.18299178
0.18461363
0.18622511
0.18782303
0.18940438
0.19096629
0.19250611
0.19402136
0.19550977
0.19696925
0.19839793
0.19979412
0.20115635
0.20248332
0.20377394
0.20502728
0.20624261
0.20741937
0.20855715
0.20965569
0.2107149
0.2117348
0.21271556
0.21365745
0.21456086
0.21542629
0.2162543
0.21704558
0.217801
0.15887697
0.16010053
0.16137321
0.1626919
0.16405347
0.16545463
0.16689198
0.16836197
0.16986098