/*--------------------------------*- C++ -*----------------------------------*\
| =========                 |                                                 |
| \\      /  F ield         | OpenFOAM: The Open Source CFD Toolbox           |
|  \\    /   O peration     | Version:  2312                                  |
|   \\  /    A nd           | Website:  www.openfoam.com                      |
|    \\/     M anipulation  |                                                 |
\*---------------------------------------------------------------------------*/
FoamFile
{
    version     2.0;
    format      ascii;
    arch        "LSB;label=32;scalar=64";
    class       volScalarField;
    location    "0.04";
    object      omega;
}
// * * * * * * * * * * * * * * * * * * * * * * * * * * * * * * * * * * * * * //

dimensions      [0 0 -1 0 0 0 0];

internalField   nonuniform List<scalar> 
3251
(
348.77071
344.88324
341.02083
337.18412
333.37396
329.59143
325.83786
322.1148
318.424
314.76744
311.14728
307.56587
304.02567
300.52931
297.07949
293.67899
290.33061
287.03717
283.80143
280.6261
277.51378
274.46693
271.48784
268.57863
265.74116
262.97708
260.28776
257.6743
255.13755
252.67804
250.29605
247.99154
245.76425
243.61364
241.53894
239.53914
237.61305
235.75931
233.97636
232.26255
230.61611
229.03516
227.51777
226.06196
224.66571
223.327
222.04376
220.81419
219.63667
218.50894
217.42859
216.39364
215.39907
214.44399
213.53035
212.65613
211.81918
211.01703
348.76021
344.8732
341.01123
337.17496
333.36522
329.58312
325.82996
322.10729
318.41688
314.76071
311.14092
307.55987
304.02003
300.52401
297.07452
293.67433
290.32626
287.03311
283.79765
280.62258
277.51051
274.46389
271.48503
268.57602
265.73873
262.97482
260.28565
257.67233
255.13569
252.67629
250.29437
247.98993
245.76269
243.61212
241.53744
239.53765
237.61156
235.75779
233.97482
232.26098
230.61448
229.03347
227.51601
226.06011
224.66376
223.32491
222.0415
220.81171
219.63393
218.50589
217.42521
216.38972
215.39579
214.44214
213.52931
212.65569
211.81932
211.01697
348.73872
344.85256
340.99139
337.1559
333.34694
329.56558
325.81316
322.09122
318.40152
314.74604
311.12694
307.54655
304.00736
300.51198
297.06311
293.66353
290.31605
287.02347
283.78857
280.61404
277.50248
274.45636
271.47797
268.56941
265.73256
262.96905
260.28026
257.6673
255.131
252.6719
250.29027
247.9861
245.7591
243.60874
241.53425
239.53464
237.6087
235.75507
233.97221
232.25846
230.61204
229.03108
227.51366
226.05777
224.66141
223.32253
222.03905
220.80914
219.6312
218.50299
217.42217
216.38651
215.39316
214.44064
213.52862
212.65568
211.82
211.01816
348.70627
344.82132
340.96131
337.12696
333.3191
329.53883
325.78748
322.06658
318.37791
314.72343
311.10531
307.52589
303.98766
300.49321
297.04526
293.64657
290.29997
287.00824
283.77417
280.60045
277.48969
274.44433
271.46668
268.55883
265.72266
262.95981
260.27165
257.65929
255.12355
252.66499
250.28386
247.98016
245.7536
243.60365
241.52954
239.53027
237.60466
235.75132
233.96872
232.25521
230.609
229.02823
227.51097
226.05522
224.65896
223.32014
222.03671
220.80679
219.62882
218.50056
217.41975
216.38417
215.3914
214.43986
213.52868
212.65645
211.82151
211.02131
348.6629
344.7795
340.92101
337.08813
333.28172
329.50287
325.7529
322.03337
318.34603
314.69287
311.07605
307.4979
303.96091
300.46769
297.02094
293.62345
290.278
286.98742
283.75446
280.58183
277.47213
274.42781
271.45116
268.54429
265.70906
262.94711
260.25983
257.6483
255.11336
252.65556
250.27516
247.97214
245.74622
243.59688
241.52334
239.52461
237.59948
235.7466
233.96443
232.2513
230.60545
229.025
227.50803
226.05253
224.65649
223.31787
222.03458
220.80477
219.62688
218.49871
217.41805
216.38274
215.39058
214.43994
213.52962
212.65811
211.82367
348.61171
344.73012
340.87339
337.04223
333.23749
329.46029
325.71193
321.99398
318.3082
314.65657
311.04126
307.46459
303.92906
300.43727
296.99194
293.59583
290.25176
286.96251
283.73087
280.55953
277.45109
274.408
271.43255
268.52684
265.69274
262.93189
260.24566
257.63514
255.10118
252.64431
250.2648
247.96263
245.73752
243.58894
241.51611
239.51805
237.59356
235.74127
233.95964
232.24703
230.60164
229.02163
227.50504
226.0499
224.65419
223.31584
222.03281
220.8032
219.6255
218.49753
217.41713
216.3822
215.39067
214.44086
213.53137
212.66054
211.82549
348.5543
344.67472
340.81993
336.99068
333.18781
329.41243
325.66587
321.94968
318.26563
314.6157
311.00206
307.42704
303.89313
300.40295
296.95919
293.56464
290.22209
286.93435
283.70418
280.53429
277.42727
274.38556
271.41147
268.50708
265.67426
262.91465
260.22962
257.62027
255.08742
252.63162
250.25313
247.95194
245.72776
243.58006
241.50807
239.5108
237.58705
235.73546
233.95448
232.24247
230.59765
229.01816
227.50206
226.04736
224.65204
223.31407
222.03136
220.80204
219.6246
218.49692
217.41686
216.38237
215.39149
214.44248
213.53383
212.66369
211.82834
348.48617
344.60894
340.75646
336.92945
333.12878
329.35555
325.6111
321.89698
318.21497
314.56704
310.95537
307.3823
303.85031
300.36201
296.92012
293.52741
290.18667
286.90071
283.67229
280.50412
277.39878
274.35873
271.38625
268.48344
265.65215
262.89403
260.21044
257.60248
255.07098
252.61647
250.23922
247.93922
245.71617
243.56955
241.49858
239.50227
237.57943
235.72869
233.94853
232.23727
230.59315
229.0143
227.49881
226.04467
224.64986
223.31236
222.03009
220.80115
219.62408
218.49678
217.41716
216.38322
215.39304
214.44489
213.53713
212.66781
211.83302
348.40652
344.53203
340.68222
336.85782
333.0597
329.28897
325.54697
321.83526
318.15561
314.51002
310.90064
307.32983
303.80007
300.31398
296.87426
293.48369
290.14506
286.86118
283.63481
280.46865
277.36529
274.32717
271.35659
268.45562
265.62614
262.86977
260.18788
257.58156
255.05165
252.59867
250.22289
247.92429
245.70259
243.55725
241.4875
239.49235
237.57061
235.7209
233.9417
232.23134
230.58807
229.01002
227.49526
226.0418
224.64764
223.31072
222.029
220.80055
219.62395
218.49713
217.41804
216.38474
215.39536
214.44812
213.54129
212.67279
348.31451
344.44318
340.59643
336.77503
332.97984
329.21198
325.4728
321.76385
318.08692
314.44401
310.83727
307.26907
303.74188
300.25832
296.8211
293.43299
290.0968
286.81532
283.59132
280.42748
277.3264
274.29052
271.32213
268.42331
265.59592
262.84158
260.16167
257.55727
255.02921
252.57802
250.20396
247.907
245.68688
243.54304
241.47472
239.48093
237.56047
235.71197
233.93392
232.22464
230.58238
229.00527
227.49139
226.03875
224.64535
223.30914
222.02809
220.80025
219.62423
218.49799
217.41953
216.38697
215.39845
214.45217
213.54627
212.678
348.20927
344.34152
340.49827
336.68027
332.88842
329.12383
325.38785
321.68206
318.00823
314.36837
310.76464
307.1994
303.67514
300.19447
296.76011
293.37482
290.0414
286.76266
283.54136
280.38019
277.28172
274.24841
271.28253
268.38617
265.56118
262.80918
260.13154
257.52935
255.00342
252.55428
250.1822
247.88715
245.66885
243.52675
241.46009
239.46788
237.54891
235.70183
233.92511
232.21709
230.576
229
227.48715
226.03548
224.64298
223.30762
222.02737
220.80024
219.62492
218.49936
217.42164
216.38989
215.40232
214.45704
213.55198
348.08985
344.22615
340.38684
336.5727
332.78462
329.02372
325.29137
321.58913
317.91881
314.2824
310.68207
307.12019
303.59924
300.12184
296.69071
293.30861
289.97835
286.70271
283.48448
280.32632
277.23082
274.20042
271.2374
268.34383
265.52157
262.77224
260.09719
257.49751
254.97401
252.52723
250.15741
247.86454
245.64832
243.50822
241.44347
239.45306
237.53582
235.69036
233.91518
232.2086
230.56888
228.99415
227.4825
226.03195
224.6405
223.30613
222.02681
220.80054
219.62602
218.50126
217.42435
216.39352
215.40697
214.46268
213.55779
347.95526
344.09611
340.26123
336.45142
332.66757
328.91082
325.18253
321.4843
317.81791
314.18537
310.58886
307.03075
303.51352
300.03981
296.61231
293.2338
289.90708
286.63494
283.42016
280.2654
277.17324
274.14613
271.18633
268.29592
265.47675
262.73042
260.0583
257.46147
254.94072
252.49661
250.12936
247.83895
245.6251
243.48727
241.42468
239.43634
237.52105
235.67745
233.90402
232.1991
230.56093
228.98766
227.47738
226.02812
224.63789
223.30466
222.02641
220.80115
219.62755
218.50368
217.42768
216.39784
215.41239
214.46901
347.80446
343.95038
340.12045
336.31547
332.53634
328.78423
325.06048
321.36671
317.70472
314.07651
310.48427
306.93037
303.4173
299.9477
296.52426
293.14976
289.82701
286.55879
283.34787
280.19691
277.10851
274.08508
271.1289
268.24202
265.42631
262.68337
260.01454
257.4209
254.90326
252.46213
250.09778
247.81015
245.59898
243.46371
241.40356
239.41755
237.50447
235.66297
233.89152
232.18848
230.55207
228.98047
227.47175
226.02396
224.6351
223.30317
222.02616
220.80205
219.6295
218.50662
217.4316
216.40282
215.41851
214.47539
347.63635
343.78791
339.96347
336.16385
332.38998
328.64301
324.92431
321.2355
317.57839
313.95499
310.3675
306.81828
303.30984
299.84481
296.42589
293.05587
289.73753
286.47367
283.26704
280.12033
277.0361
274.01678
271.06463
268.18171
265.36986
262.63069
259.96553
257.37547
254.86129
252.42352
250.0624
247.7779
245.56972
243.43731
241.37991
239.39651
237.48592
235.64678
233.87757
232.17663
230.54222
228.97248
227.46552
226.01939
224.63209
223.30164
222.02602
220.80322
219.63185
218.51007
217.4361
216.40839
215.42527
347.44977
343.60756
339.7892
335.99552
332.22745
328.48617
324.77306
321.08974
317.43803
313.81996
310.23772
306.69369
303.19037
299.7304
296.31649
292.95142
289.63797
286.37894
283.17709
280.03508
276.95548
273.94072
270.99304
268.11451
265.30696
262.57198
259.91091
257.32482
254.8145
252.38046
250.02295
247.74191
245.53707
243.40787
241.35352
239.37304
237.46523
235.62873
233.86201
232.16344
230.53125
228.96362
227.45863
226.01436
224.62881
223.30002
222.02597
220.80466
219.63461
218.51404
217.44113
216.41442
215.43203
347.2435
343.40816
339.5965
335.80935
332.04768
328.31267
324.60572
320.92845
317.2827
313.67049
310.09405
306.55574
303.05807
299.60369
296.19531
292.83569
289.52764
286.27395
283.07737
279.94055
276.86607
273.85635
270.91362
268.03994
265.23714
262.5068
259.85025
257.26856
254.76251
252.33261
249.97909
247.70192
245.50078
243.37512
241.32418
239.34694
237.44222
235.60865
233.84472
232.14877
230.51906
228.95377
227.45098
226.00878
224.62519
223.29825
222.02597
220.80633
219.63777
218.5185
217.44664
216.42071
347.01625
343.18846
339.38415
335.60418
331.84954
328.12142
324.42123
320.75061
317.1114
313.50564
309.93556
306.40354
302.91209
299.46385
296.06153
292.70793
289.40582
286.158
282.96721
279.83611
276.76727
273.76309
270.82581
267.95748
265.15991
262.43468
259.78313
257.20629
254.70496
252.27962
249.93052
247.65759
245.46055
243.33882
241.29164
239.31799
237.41669
235.58637
233.82551
232.13248
230.50552
228.94282
227.44247
226.00257
224.62116
223.29628
222.02596
220.8082
219.64132
218.52348
217.45261
216.42625
346.76669
342.94716
339.15089
335.37878
331.63184
327.91125
324.21847
320.55513
316.92309
313.3244
309.76129
306.23615
302.7515
299.30999
295.91434
292.56732
289.27172
286.03034
282.84591
279.72109
276.65843
273.66033
270.72904
267.86657
265.07475
262.35515
259.70907
257.13757
254.64142
252.22111
249.87686
247.60862
245.41608
243.29868
241.25564
239.28595
237.38842
235.56168
233.80422
232.1144
230.49048
228.93064
227.43299
225.99562
224.61661
223.29401
222.02588
220.81022
219.64525
218.52902
217.45922
216.4328
346.49342
342.68288
338.89539
335.13187
331.39332
327.68097
323.99627
320.34088
316.71667
313.12569
309.5702
306.05258
302.57537
299.14122
295.75284
292.41302
289.12454
285.8902
282.71272
279.59476
276.53887
273.54743
270.62268
267.76664
264.98112
262.26767
259.62759
257.06194
254.57147
252.15666
249.81774
247.55463
245.36704
243.25439
241.21589
239.25055
237.35716
235.53437
233.78065
232.09437
230.47379
228.91709
227.4224
225.98783
224.61145
223.29135
222.02563
220.81234
219.64955
218.53516
217.46654
216.44103
346.19494
342.3942
338.61627
334.86209
331.13269
327.42931
323.75341
320.10667
316.49098
312.90842
309.36122
305.8518
302.3827
298.95656
295.57611
292.24414
288.96342
285.73675
282.56686
279.45638
276.40787
273.4237
270.5061
267.65707
264.87842
262.17169
259.53817
256.97891
254.49464
252.08585
249.75275
247.49527
245.31308
243.20563
241.17211
239.21153
237.32268
235.5042
233.75458
232.07217
230.45526
228.90201
227.41057
225.97905
224.60554
223.28818
222.02511
220.81445
219.65421
218.54191
217.47429
345.86975
342.07963
338.31208
334.56804
330.84857
327.15493
323.48859
319.85127
316.24484
312.67141
309.13323
305.63272
302.17243
298.755
295.38318
292.05974
288.78747
285.56915
282.4075
279.30517
276.26469
273.28843
270.3786
267.53721
264.76604
262.06663
259.44026
256.88795
254.41045
252.00822
249.68147
247.43011
245.25383
243.15204
241.12397
239.16858
237.28469
235.47093
233.72578
232.04761
230.4347
228.88522
227.39733
225.96913
224.59876
223.28436
222.02415
220.8164
219.65915
218.54921
217.48083
345.51622
341.7376
337.98128
334.24824
330.53954
326.85645
323.20049
319.57336
315.97698
312.41345
308.88505
305.3942
301.94346
298.5355
295.17303
291.85885
288.59574
285.38648
282.23378
279.1403
276.10853
273.14086
270.23948
267.40638
264.64334
261.95188
259.33327
256.78853
254.31838
251.92328
249.60343
247.35874
245.18888
243.09327
241.07111
239.12138
237.24289
235.43427
233.694
232.02045
230.4119
228.86653
227.3825
225.95792
224.59093
223.27971
222.02255
220.81788
219.6642
345.13271
341.36647
337.62231
333.90116
330.2041
326.53244
322.88769
319.27159
315.68608
312.13327
308.61545
305.13506
301.69467
298.29693
294.9446
291.64044
288.38725
285.1878
282.0448
278.96089
275.93857
272.9802
270.08797
267.26386
264.50962
261.82678
259.21659
256.68005
254.21787
251.83051
249.51815
247.28069
245.1178
243.02889
241.01316
239.06958
237.19696
235.39393
233.65896
231.99044
230.38663
228.84573
227.36588
225.94522
224.58188
223.27405
222.02003
220.81832
344.71745
340.96456
337.23353
333.52521
329.84073
326.18139
322.54875
318.94456
315.37078
311.82954
308.32315
304.85406
301.42484
298.03816
294.69677
291.40344
288.16097
284.97213
281.83961
278.76605
275.75394
272.80563
269.92329
267.1089
264.36419
261.69066
259.08958
256.5619
254.10836
251.72937
249.42511
247.19549
245.04015
242.9585
240.94973
239.01282
237.14656
235.34958
233.62037
231.9573
230.35864
228.82258
227.34728
225.93086
224.57144
223.2672
222.01633
220.81647
348.02742
344.26844
340.53009
336.81321
333.11874
329.44779
325.80174
322.18215
318.5908
315.02967
311.5009
308.00684
304.54992
301.13275
297.75799
294.4284
291.14675
287.91585
284.73844
281.61723
278.55483
275.55373
272.61627
269.74461
266.9407
264.20627
261.54281
258.95155
256.43345
253.98922
251.61928
249.32378
247.10262
244.95543
242.88163
240.88039
238.95068
237.09131
235.30089
233.57791
231.92074
230.32765
228.79683
227.32645
225.91461
224.55943
223.25903
222.01148
220.81394
347.52678
343.78397
340.06126
336.35962
332.68003
329.02365
325.39189
321.78633
318.20879
314.66126
311.14593
307.66512
304.22131
300.8171
297.45517
294.13829
290.86922
287.65076
284.48566
281.37662
278.32624
275.33701
272.41123
269.55107
266.75845
264.03509
261.38247
258.80179
256.29402
253.85983
251.49963
249.21357
247.00153
244.86314
242.7978
240.80468
238.88276
237.03081
235.24747
233.53122
231.88042
230.29336
228.76822
227.30314
225.89626
224.54565
223.2494
222.00551
220.81091
346.98773
343.26216
339.55622
335.87094
332.20732
328.56659
324.95016
321.35968
317.79697
314.26406
310.76314
307.29657
303.86685
300.47657
297.12843
293.8252
290.56964
287.36456
284.21269
281.11674
278.07928
275.10279
272.18958
269.34177
266.56129
263.84984
261.20887
258.63957
256.1429
253.7195
251.36979
249.09388
246.89166
244.76274
242.70651
240.72214
238.80859
236.96465
235.18894
233.47994
231.83602
230.25545
228.73643
227.2771
225.87556
224.5299
223.23817
221.99833
220.80726
346.4082
342.70106
339.01308
335.3453
331.69881
328.07484
324.47486
320.90053
317.35373
313.83649
310.35103
306.89974
303.48512
300.10978
296.77644
293.48785
290.2468
287.05606
283.9184
280.83648
277.81288
274.85007
271.95034
269.11579
266.34834
263.64966
261.02119
258.46412
255.97935
253.56755
251.22909
248.96409
246.77241
244.65366
242.60722
240.63225
238.72771
236.89237
235.12487
233.42368
231.78716
230.21359
228.70117
227.24802
225.85226
224.51196
223.22516
221.9898
220.80278
345.7861
342.09865
338.42985
334.78081
331.15263
327.5466
323.96422
320.40719
316.87741
313.37695
309.90805
306.47312
303.07467
299.71535
296.39785
293.12494
289.89942
286.72406
283.6016
280.53471
277.52597
274.57781
271.69252
268.87218
266.11868
263.43368
260.81861
258.27463
255.80263
253.40324
251.07684
248.82353
246.64315
244.5353
242.49936
240.53447
238.63959
236.8135
235.05481
233.362
231.73344
230.1674
228.66207
227.2156
225.82608
224.49158
223.21015
221.97972
220.79724
345.11931
341.45287
337.80456
334.17552
330.5669
326.98003
323.41646
319.87792
316.36633
312.88381
309.43262
306.01518
302.63403
299.29181
295.99126
292.73513
289.52622
286.3673
283.2611
280.2103
277.21744
274.28495
271.41509
268.60994
265.87137
263.20101
260.60026
258.07027
255.61192
253.22582
250.91233
248.67152
246.50323
244.40705
242.38235
240.42825
238.54372
236.72753
234.97828
233.29447
231.67444
230.11648
228.61878
227.17948
225.79669
224.46847
223.19287
221.96784
220.79038
344.40568
340.76163
337.13515
333.52744
329.93969
326.37327
322.82976
319.31094
315.81878
312.3554
308.92311
305.52435
302.16167
298.83773
295.55527
292.31705
289.12588
285.98451
282.89569
279.86205
276.88615
273.97039
271.11702
268.32809
265.60544
262.95071
260.36526
257.85021
255.40644
253.03452
250.7348
248.50735
246.35197
244.26826
242.25556
240.31301
238.43954
236.63393
234.89479
233.2206
231.60971
230.06042
228.5709
227.13931
225.76375
224.4423
223.17302
221.95388
220.78191
343.64305
340.02283
336.41959
332.83459
329.26905
325.72441
322.20228
318.70449
315.23302
311.79006
308.37792
304.99906
301.65607
298.35162
295.08845
291.86934
288.69707
285.57443
282.50412
279.48879
276.53097
273.63304
270.79724
268.02559
265.31993
262.68185
260.1127
257.61358
255.18534
252.82854
250.54351
248.33029
246.18869
244.11827
242.11837
240.18813
238.32647
236.53216
234.80381
233.1399
231.53879
229.99876
228.51801
227.09468
225.7269
224.41275
223.15029
221.93752
220.77151
342.82924
339.23435
335.65582
332.09496
328.55305
325.03157
321.53219
318.05676
314.60733
311.18609
307.79539
304.43773
301.11571
297.83201
294.58938
291.3906
288.23847
285.13575
282.08516
279.08931
276.15073
273.27178
270.45468
267.70143
265.01384
262.39347
259.84167
257.3595
254.94779
252.60708
250.33767
248.1396
246.01265
243.95639
241.97012
240.05299
238.20391
236.42164
234.70479
233.05185
231.46117
229.93103
228.45965
227.04518
225.68573
224.37941
223.1243
221.91842
220.75885
341.9621
338.39408
334.84178
331.30655
327.78973
324.29286
320.81764
317.36599
313.93996
310.54181
307.17392
303.83879
300.53906
297.27741
294.05662
290.87947
287.74874
284.66721
281.63756
278.66243
275.7443
272.88552
270.08829
267.35458
264.68619
262.08465
259.55127
257.0871
254.69294
252.36931
250.11651
247.93453
245.82315
243.78192
241.81015
239.90695
238.07124
236.30178
234.59717
232.9559
231.37634
229.85675
228.39537
226.99035
225.63982
224.34189
223.09467
221.89619
220.74357
341.0395
337.49996
333.97546
330.4674
326.97719
323.50642
320.05684
316.6304
313.22923
309.85559
306.51189
303.20069
299.92462
296.68639
293.48878
290.33458
287.22658
284.16753
281.16013
278.20697
275.31054
272.47316
269.69701
266.98403
264.336
261.75442
259.24057
256.7955
254.41995
252.11444
249.87924
247.71432
245.61946
243.59418
241.63777
239.74936
237.92784
236.17198
234.48037
232.85151
231.28376
229.7754
228.32467
226.92972
225.58871
224.29976
223.06098
221.87043
220.72526
340.05937
336.54997
333.05488
329.57559
326.11356
322.67043
319.24801
315.8483
312.47346
309.1258
305.80776
302.52192
299.27093
296.05753
292.8845
289.75463
286.67071
283.6355
280.65166
277.72179
274.84835
272.03364
269.27981
266.58879
263.96231
261.40187
258.90871
256.48384
254.12799
251.84166
249.62508
247.47823
245.40085
243.39245
241.45232
239.57956
237.77308
236.03163
234.35381
232.7381
231.18289
229.68646
228.24704
226.86281
225.53194
224.25255
223.02279
221.84071
220.70352
339.01974
335.54218
332.07818
328.62929
325.19706
321.78317
318.38948
315.01805
311.67108
308.35091
305.06003
301.80104
298.57661
295.38949
292.24248
289.13836
286.07993
283.06994
280.11104
277.2058
274.35668
271.56595
268.83572
266.16791
263.56422
261.02612
258.55481
256.15129
253.81626
251.5502
249.3533
247.22553
245.16662
243.17606
241.25313
239.39692
237.60633
235.88012
234.21688
232.6151
231.07317
229.58937
228.16196
226.78912
225.46901
224.1998
222.97964
221.8066
220.67791
337.91873
334.47476
331.04356
327.62678
324.226
320.84299
317.47966
314.13811
310.82058
307.52948
304.26731
301.03669
297.84034
294.681
291.56148
288.48459
285.4531
282.46975
279.53719
276.65798
273.83454
271.06912
268.36381
265.72051
263.14086
260.62632
258.17808
255.79708
253.48401
251.23931
249.06316
246.95552
244.91608
242.94433
241.03954
239.20079
237.42698
235.71685
234.06901
232.48195
230.95405
229.48362
228.06891
226.70812
225.39944
224.14102
222.93105
221.76762
220.64798
336.75464
333.34604
329.94941
326.56646
323.19886
319.8484
316.51709
313.20707
309.92062
306.66019
303.42832
300.22766
297.06093
293.93092
290.84043
287.79226
284.78919
281.83395
278.92918
276.07741
273.28104
270.5423
267.86326
265.24576
262.69145
260.20173
257.77776
255.42047
253.13051
250.9083
248.754
246.66754
244.6486
242.69665
240.81096
238.99059
237.23444
235.54125
233.90964
232.33809
230.82499
229.36866
227.96736
226.61932
225.32271
224.07573
222.87656
221.72332
220.61327
335.52597
332.15457
328.7943
325.44696
322.11427
318.79811
315.50052
312.2237
308.97
305.74189
302.54195
299.37286
296.23736
293.13825
290.07834
287.06044
284.08731
281.16168
278.28616
275.46328
272.6954
269.98474
267.33332
264.74297
262.21529
259.75166
257.35321
255.02083
252.75515
250.55657
248.42522
246.361
244.36359
242.43244
240.56681
238.76575
237.02816
235.35278
233.73822
232.18298
230.68545
229.24398
227.85681
226.5222
225.23834
224.00343
222.81568
221.67321
220.57333
334.23148
330.89913
327.57705
324.26712
320.97112
317.69101
314.42889
311.18701
307.96775
304.77365
301.60731
298.47144
295.3688
292.3022
289.27446
286.28838
283.34674
280.45224
277.60748
274.81495
272.07701
269.39583
266.77342
264.21156
261.71183
259.27557
256.90389
254.59763
252.35742
250.1836
248.0763
246.0354
244.06055
242.1512
240.30659
238.52577
236.80764
235.15093
233.55426
232.01614
230.53497
229.10908
227.73677
226.41629
225.14584
223.92366
222.74795
221.61686
220.52771
332.87024
329.57882
326.29679
323.02609
319.7686
316.52633
313.30144
310.09624
306.91317
303.75479
300.62374
297.52276
294.45464
291.42219
288.42823
285.47558
282.56699
279.70515
276.89266
274.13197
271.42542
268.77515
266.18313
263.65112
261.18066
258.77306
256.42939
254.15048
251.9369
249.78899
247.70685
245.69033
243.73908
241.85252
240.02989
238.27024
236.57246
234.93528
233.35734
231.83713
230.37308
228.96353
227.6068
226.30113
225.04477
223.83596
222.67292
221.5538
220.47597
331.44174
328.19314
324.95303
321.72341
318.50625
315.30363
312.11776
308.95102
305.80588
302.68496
299.59092
296.52653
293.4946
290.49795
287.53941
284.62178
281.74782
278.9202
276.14149
273.41413
270.74043
268.12249
265.56226
263.06145
260.62158
258.24393
255.92952
253.67915
251.49338
249.3725
247.31661
245.32553
243.39889
241.53611
239.73642
237.99885
236.32229
234.7055
233.14709
231.64559
230.19942
228.80695
227.46649
226.17633
224.93473
223.73993
222.59019
221.48366
220.41771
329.94594
326.74205
323.54572
320.35905
317.18406
314.0229
310.87786
307.75135
304.64592
301.56419
298.50889
295.4828
292.48874
289.52955
286.60806
283.72707
280.88932
278.09746
275.35406
272.66152
270.02211
267.43792
264.91086
262.4426
260.03463
257.68817
255.40425
253.18362
251.0268
248.93408
246.90551
244.9409
243.03988
241.20184
239.426
237.71141
236.05694
234.46136
232.92329
231.44125
230.0137
228.63902
227.31553
226.04154
224.81534
223.63521
222.49939
221.40606
220.3526
328.38338
325.2261
322.07541
318.93353
315.80254
312.68466
309.58224
306.49776
303.43379
300.39301
297.37817
294.39207
291.43756
288.51749
285.63467
282.79192
279.99195
277.2374
274.5308
271.87455
269.27087
266.72183
264.22929
261.7949
259.4201
257.10609
254.85385
252.66412
250.53737
248.47388
246.47367
244.53655
242.6621
240.84973
239.09865
237.40789
235.77635
234.20277
232.6858
231.22397
229.81575
228.45954
227.15368
225.89651
224.68634
223.52148
222.40021
221.32071
220.28035
326.75532
323.64649
320.5433
317.44802
314.36285
311.29005
308.23203
305.19133
302.17057
299.17247
296.19979
293.25538
290.34209
287.46276
284.62023
281.81728
279.05663
276.3409
273.67259
271.05406
268.48751
265.97498
263.51828
261.11903
258.77864
256.49828
254.27889
252.12116
250.02557
247.99234
246.02149
244.11281
242.26586
240.48005
238.75457
237.08847
235.48063
233.92982
232.43467
230.99375
229.60553
228.26843
226.98083
225.74107
224.54752
223.39852
222.29239
221.22733
220.20062
325.06384
322.00526
318.95136
315.90449
312.86689
309.84093
306.82907
303.83388
300.85805
297.90431
294.97548
292.0744
289.20394
286.36695
283.56627
280.80466
278.08483
275.40938
272.78078
270.20136
267.67329
265.19856
262.77897
260.4161
258.1113
255.86572
253.68027
251.55561
249.49219
247.4902
245.54965
243.67031
241.85173
240.0933
238.39423
236.75354
235.17014
233.64279
232.17015
230.75078
229.38317
228.06578
226.79699
225.57519
224.39877
223.26612
222.17562
221.12542
323.31199
320.30541
317.30252
314.30578
311.31748
308.34006
305.37604
302.42804
299.49878
296.59105
293.70767
290.85151
288.02544
285.23233
282.475
279.7562
277.07863
274.44485
271.85731
269.31831
266.83
264.39432
262.01302
259.68766
257.41957
255.20983
253.05934
250.96873
248.93841
246.96857
245.05918
243.21
241.42058
239.6903
238.01835
236.40377
234.84547
233.34222
231.89268
230.49545
229.14901
227.85185
226.60237
225.39899
224.24011
223.12415
222.04938
321.50402
318.55106
315.60083
312.65584
309.71847
306.7912
303.87662
300.97739
298.09628
295.2361
292.3997
289.58997
286.80977
284.06198
281.34941
278.6748
276.04081
273.45
270.90479
268.40744
265.96006
263.56455
261.22264
258.93585
256.70545
254.53253
252.41792
250.36223
248.36586
246.42897
244.55151
242.73322
240.97365
239.27218
237.62799
236.04014
234.50752
233.02892
231.60302
230.22842
228.90364
227.62715
226.3974
225.21281
224.07176
222.97252
319.64549
316.74767
313.85161
310.95987
308.07492
305.1993
302.33564
299.48666
296.65515
293.84395
291.05594
288.29401
285.56105
282.8599
280.19337
277.5642
274.97502
272.42836
269.92661
267.472
265.06659
262.71227
260.41071
258.1634
255.97159
253.83631
251.75837
249.73837
247.77667
245.8734
244.02852
242.24174
240.51262
238.84051
237.22461
235.66398
234.15752
232.70403
231.3022
229.95065
228.64791
227.39248
226.1828
225.0173
223.89427
222.81143
317.7436
314.90224
312.06167
309.22453
306.39334
303.57069
300.75928
297.96185
295.18124
292.4203
289.68194
286.96904
284.2845
281.63115
279.01181
276.42917
273.88585
271.38435
268.92703
266.51608
264.15354
261.84125
259.58085
257.37378
255.22127
253.12432
251.0837
249.09999
247.17352
245.30443
243.49262
241.73784
240.0396
238.39728
236.81008
235.27704
233.7971
232.36906
230.99162
229.66343
228.38303
227.14893
225.9596
224.81346
223.70881
222.64331
315.80735
313.02356
310.23961
307.45818
304.68187
301.91332
299.15527
296.4105
293.68187
290.97226
288.28458
285.62174
282.98661
280.38203
277.81079
275.27557
272.77896
270.32344
267.91131
265.54476
263.22578
260.95616
258.73752
256.57127
254.45858
252.40045
250.39761
248.45061
246.55977
244.72521
242.94682
241.22433
239.55727
237.945
236.38674
234.88153
233.42832
232.02593
230.67309
229.36843
228.11055
226.89796
225.72916
224.60259
223.51659
222.46886
313.8479
311.1225
308.39599
305.67113
302.95055
300.23696
297.53311
294.84184
292.16601
289.50854
286.87233
284.2603
281.67531
279.1202
276.59773
274.11056
271.66126
269.25226
266.88586
264.56419
262.28919
260.06265
257.88614
255.76103
253.68847
251.66942
249.70459
247.79451
245.93948
244.13959
242.39476
240.70468
239.06889
237.48676
235.95749
234.48017
233.05374
231.67705
230.34883
229.06775
227.83242
226.64139
225.49318
224.38626
223.31901
222.2892
311.87886
309.21232
306.54375
303.87595
301.21161
298.55347
295.90434
293.26707
290.64454
288.03968
285.4554
282.89462
280.36018
277.85492
275.38156
272.94276
270.54104
268.17882
265.85835
263.58172
261.35086
259.16751
257.0332
254.94928
252.91686
250.93688
249.01003
247.13681
245.3175
243.55221
241.84081
240.18302
238.57837
237.02624
235.52584
234.07625
232.67646
231.3253
230.02156
228.76392
227.55101
226.38142
225.25369
224.16635
223.1178
222.10588
309.91669
307.30903
304.69843
302.08776
299.47974
296.87716
294.28283
291.69964
289.13049
286.57831
284.04601
281.5365
279.05262
276.59718
274.1729
271.78239
269.42815
267.11257
264.83787
262.6061
260.41916
258.27874
256.18637
254.14333
252.15075
250.2095
248.32027
246.48355
244.6996
242.96851
241.29017
239.66428
238.09038
236.56785
235.09592
233.67369
232.30015
230.97417
229.69455
228.46
227.26918
226.12071
225.01317
223.94513
222.91505
221.92084
307.98107
305.43176
302.87865
300.32464
297.77249
295.22502
292.68507
290.15553
287.63933
285.13939
282.65862
280.19992
277.76612
275.36001
272.98427
270.64151
268.33419
266.06466
263.83511
261.64757
259.50389
257.40574
255.35461
253.35178
251.39831
249.49508
247.64276
245.84181
244.0925
242.3949
240.74889
239.15419
237.61034
236.11673
234.6726
233.27707
231.92914
230.62772
229.37162
228.15958
226.99029
225.86239
224.77451
223.72523
222.71311
221.73616
306.09539
303.60324
301.10646
298.60799
296.11062
293.61718
291.13055
288.65361
286.1893
283.74055
281.31025
278.90129
276.5165
274.15862
271.83034
269.53421
267.27268
265.04806
262.86252
260.71805
258.61647
256.55943
254.54838
252.58456
250.66905
248.80268
246.98611
245.21979
243.50398
241.83875
240.22399
238.65941
237.14456
235.67884
234.26151
232.89172
231.56847
230.29069
229.05723
227.86685
226.71826
225.61014
224.54111
223.50976
222.51454
304.28727
301.85026
299.40786
296.96301
294.51853
292.07727