/*--------------------------------*- C++ -*----------------------------------*\
| =========                 |                                                 |
| \\      /  F ield         | OpenFOAM: The Open Source CFD Toolbox           |
|  \\    /   O peration     | Version:  2312                                  |
|   \\  /    A nd           | Website:  www.openfoam.com                      |
|    \\/     M anipulation  |                                                 |
\*---------------------------------------------------------------------------*/
FoamFile
{
    version     2.0;
    format      ascii;
    arch        "LSB;label=32;scalar=64";
    class       volScalarField;
    location    "0.04";
    object      T;
}
// * * * * * * * * * * * * * * * * * * * * * * * * * * * * * * * * * * * * * //

dimensions      [0 0 0 1 0 0 0];

internalField   nonuniform List<scalar> 
3251
(
625.60549
625.99714
626.27914
626.44414
626.48578
626.39791
626.17465
625.8104
625.29989
624.6382
623.8208
622.84361
621.70299
620.39584
618.91955
617.27208
615.452
613.45845
611.29118
608.95058
606.43765
603.75401
600.9019
597.88415
594.70417
591.36592
587.8739
584.2331
580.44897
576.5274
572.47466
568.29735
564.0024
559.59701
555.08858
550.4847
545.79312
541.02166
536.17823
531.27074
526.30711
521.29518
516.24275
511.15749
506.04693
500.91841
495.7791
490.63591
485.4955
480.36423
475.24814
470.15205
465.0804
460.03995
455.03675
450.07569
445.16107
440.297
625.58353
625.97529
626.25736
626.42218
626.46359
626.3755
626.15203
625.78757
625.27687
624.61499
623.79743
622.8201
621.67936
620.3721
618.89573
617.24822
615.42811
613.43455
611.26731
608.92676
606.41392
603.73039
600.87842
597.86084
594.68106
591.34304
587.85128
584.21077
580.42695
576.50572
572.45333
568.27641
563.98187
559.5769
555.06892
550.46551
545.7744
541.00344
536.16051
531.25353
526.29041
521.27901
516.22711
511.14237
506.03231
500.90429
495.76545
490.62271
485.4827
480.35179
475.23597
470.14027
465.06963
460.03034
455.02809
450.06777
445.15365
440.28999
625.54314
625.93462
626.21637
626.38067
626.42152
626.33286
626.10882
625.74382
625.2326
624.57023
623.75222
622.77446
621.63334
620.32575
618.84909
617.20134
615.38105
613.38738
611.22007
608.87953
606.36675
603.68335
600.83157
597.81425
594.6348
591.29717
587.80586
584.16585
580.38261
576.46201
572.41031
568.23412
563.94037
559.53623
555.02912
550.42662
545.73646
540.96647
536.12455
531.21859
526.25651
521.24617
516.19532
511.11164
506.00264
500.87567
495.73785
490.5961
485.45706
480.32707
475.21212
470.11744
465.04826
460.01053
455.00972
450.05064
445.13749
440.27486
625.48417
625.87497
626.15599
626.31942
626.35935
626.26977
626.04483
625.67895
625.16687
624.5037
623.68493
622.70647
621.56471
620.25655
618.7794
617.13124
615.31062
613.3167
611.14924
608.80864
606.29591
603.61265
600.76113
597.74415
594.56515
591.22806
587.7374
584.09814
580.31573
576.39605
572.34536
568.17027
563.87768
559.47478
554.96898
550.36784
545.6791
540.91058
536.07016
531.16574
526.20524
521.19648
516.14724
511.06517
505.95778
500.8324
495.69617
490.55598
485.41846
480.28997
475.17648
470.08342
465.01617
459.98044
454.98155
450.0242
445.11258
440.25175
625.4067
625.7964
626.0763
626.2385
626.27715
626.18629
625.9601
625.59299
625.07974
624.41545
623.59562
622.61618
621.47353
620.16457
618.68672
617.03796
615.21686
613.22259
611.0549
608.71419
606.20148
603.51839
600.66716
597.65063
594.47218
591.13581
587.64599
584.0077
580.22639
576.30793
572.25857
568.08492
563.79389
559.39264
554.88856
550.28925
545.6024
540.83583
535.99742
531.09506
526.13665
521.13002
516.08293
511.00302
505.89779
500.77456
495.64047
490.5024
485.36698
480.24055
475.12912
470.03825
464.9734
459.94014
454.94364
449.98851
445.07889
625.31633
625.70462
625.98308
626.14377
626.18089
626.08849
625.86078
625.49221
624.97754
624.31189
623.49079
622.51017
621.36643
620.05649
618.57778
616.9283
615.10661
613.11188
610.94389
608.60304
606.09034
603.40742
600.55653
597.54049
594.36271
591.02716
587.53831
583.90115
580.12112
576.20408
572.15629
567.98433
563.69512
559.2958
554.79377
550.19659
545.51196
540.74769
535.91165
531.01172
526.05579
521.05166
516.00711
510.92974
505.82707
500.7064
495.57484
490.43929
485.30638
480.18243
475.07349
469.9852
464.92307
459.89257
454.89878
449.94619
445.03877
625.21568
625.6023
625.87907
626.03802
626.07339
625.97925
625.74982
625.37958
624.8633
624.19612
623.37357
622.3916
621.24663
619.93557
618.45589
616.80556
614.98319
612.98794
610.8196
608.47857
605.96586
603.28312
600.43259
597.41709
594.24004
590.90539
587.41764
583.78174
580.00315
576.08771
572.04166
567.8716
563.58441
559.18726
554.68751
550.09272
545.41059
540.64889
535.81551
530.9183
525.96513
520.96382
515.92211
510.84761
505.7478
500.63
495.5013
490.3686
485.2385
480.11737
475.01124
469.92584
464.8667
459.8392
454.84836
449.89856
444.99382
625.09692
625.48147
625.75617
625.91304
625.9463
625.85008
625.6186
625.24635
624.72815
624.05913
623.23485
622.25126
621.10481
619.79242
618.31155
616.66023
614.83703
612.84114
610.67237
608.33111
605.81838
603.13584
600.28572
597.27086
594.09466
590.76108
587.27461
583.6402
579.8633
575.94974
571.90577
567.73796
563.45319
559.0586
554.56155
549.96959
545.2904
540.53176
535.70152
530.80753
525.85765
520.85968
515.82134
510.75023
505.65384
500.53944
495.41415
490.28483
485.1581
480.04032
474.93755
469.85555
464.79989
459.77589
454.78848
449.84199
444.94072
624.95871
625.34078
625.61302
625.76742
625.7982
625.69952
625.46562
625.09103
624.57056
623.89938
623.07305
622.08757
620.93937
619.6254
618.14315
616.49064
614.66646
612.66983
610.50053
608.15899
605.64624
602.96392
600.11427
597.10014
593.92493
590.59259
587.1076
583.47493
579.7
575.78863
571.74708
567.58188
563.29993
558.90833
554.41445
549.82581
545.15006
540.39499
535.56841
530.67818
525.73214
520.73806
515.70366
510.63653
505.54411
500.43371
495.31239
490.18703
485.06425
479.9504
474.85155
469.77352
464.72187
459.70187
454.7184
449.77584
624.79962
625.17879
625.44814
625.59966
625.62756
625.52602
625.28932
624.912
624.3889
623.71522
622.88652
621.89883
620.7486
619.43281
617.94895
616.29505
614.46974
612.47222
610.30232
607.96045
605.44765
602.76557
599.91647
596.90318
593.7291
590.39819
586.91491
583.28423
579.51156
575.60273
571.56395
567.40178
563.12306
558.73492
554.24468
549.65986
544.9881
540.23715
535.41481
530.52892
525.58729
520.59771
515.56785
510.5053
505.41749
500.31169
495.19498
490.0742
484.95598
479.84666
474.75235
469.67888
464.6318
459.61635
454.63736
449.69934
624.61815
624.99397
625.25999
625.40817
625.43276
625.32795
625.08803
624.70758
624.18147
623.5049
622.67349
621.68327
620.53071
619.21282
617.7271
616.07162
614.245
612.24647
610.07586
607.7336
605.22075
602.53895
599.69045
596.67811
593.50532
590.17603
586.69471
583.06631
579.29622
575.39028
571.35467
567.19594
562.92093
558.53673
554.05065
549.47019
544.80297
540.05673
535.23924
530.35833
525.42176
520.43729
515.41263
510.35532
505.27277
500.17224
495.06079
489.94525
484.83225
479.72812
474.63899
469.57069
464.52878
459.51846
454.54453
624.41268
624.78469
625.04689
625.19129
625.2121
625.10355
624.85997
624.47597
623.94642
623.26659
622.43209
621.43898
620.28379
618.96351
617.47568
615.81839
613.99028
611.99059
609.81918
607.47648
604.96355
602.28205
599.43425
596.42298
593.25165
589.9242
586.44508
582.81925
579.0521
575.14942
571.11741
566.96259
562.69177
558.31203
553.83067
549.25515
544.59308
539.85216
535.04017
530.16488
525.23406
520.25545
515.23667
510.18527
505.10868
500.01413
494.90865
489.79905
484.69196
479.59372
474.51044
469.44796
464.41186
459.40728
454.43907
624.18153
624.54923
624.80712
624.94721
624.96376
624.85099
624.60329
624.21527
623.68185
622.99833
622.16034
621.16399
620.00581
618.68284
617.19263
615.5333
613.7035
611.70252
609.53019
607.18699
604.67397
601.99282
599.14579
596.13573
592.96603
589.64064
586.16401
582.54108
578.77722
574.87822
570.85026
566.69982
562.43372
558.05901
553.58295
549.01299
544.35672
539.6218
534.81598
529.94702
525.02267
520.05061
515.0385
509.99381
504.92392
499.83607
494.7373
489.63441
484.53398
479.44235
474.36562
469.30966
464.28002
459.28188
623.92291
624.28578
624.53881
624.67408
624.68584
624.56834
624.316
623.92348
623.38573
622.69806
621.85618
620.85619
619.69466
618.36867
616.8758
615.21418
613.3825
611.38006
609.20671
606.86294
604.34983
601.66906
598.82289
595.81417
592.64631
589.32323
585.84938
582.22969
578.46951
574.57463
570.55119
566.40567
562.14485
557.77576
553.30564
548.7419
544.09211
539.3639
534.56499
529.70312
524.78599
519.82128
514.81658
509.77939
504.71706
499.63674
494.54546
489.45004
484.35707
479.27283
474.2034
469.15467
464.13219
459.14133
623.63495
623.99241
624.24003
624.36991
624.37631
624.25354
623.99603
623.59849
623.05591
622.36364
621.51741
620.51336
619.34812
618.01877
616.52293
614.85876
613.02499
611.02091
608.84643
606.50203
603.98882
601.30847
598.46326
595.45605
592.29022
588.96971
585.49896
581.88287
578.1268
574.2365
570.2181
566.07805
561.82311
557.46027
552.99675
548.43995
543.79737
539.07663
534.28542
529.43143
524.52234
519.5658
514.56937
509.54052
504.48656
499.41466
494.33178
489.2447
484.15996
479.08392
474.02259
468.98181
463.96727
623.31564
623.66711
623.90872
624.03261
624.03307
623.90444
623.6412
623.2381
622.69016
621.99278
621.14173
620.13319
618.96382
617.63075
616.13163
614.46464
612.62855
610.62267
608.44694
606.10185
603.58852
600.90865
598.06451
595.05896
591.8954
588.57774
585.11042
581.49833
577.74681
573.86158
569.84876
565.71478
561.46635
557.11045
552.65425
548.10512
543.47053
538.75808
533.97539
529.13013
524.22996
519.28247
514.2952
509.27558
504.23091
499.1683
494.09472
489.01693
483.94138
478.87435
473.82191
468.78988
463.78412
622.96291
623.30775
623.5427
623.65997
623.65386
623.51876
623.2492
622.83995
622.2861
621.58309
620.72672
619.71324
618.53932
617.20215
615.69941
614.02932
612.19067
610.18282
608.0057
605.65986
603.14641
600.46707
597.62412
594.62041
591.45935
588.14485
584.68132
581.07365
577.32715
573.44753
569.44087
565.31358
561.07234
556.72409
552.27598
547.73531
543.10955
538.40623
533.63295
528.79733
523.90699
518.9695
513.99234
508.98291
503.94847
498.89613
493.8328
488.7652
483.69981
478.64282
473.60015
468.5776
622.57454
622.91209
623.13971
623.24968
623.23635
623.09413
622.81761
622.40161
621.84127
621.13206
620.26986
619.25094
618.07203
616.73036
615.22365
613.55016
611.70871
609.6987
607.52008
605.17342
602.65985
599.9811
597.13946
594.1378
590.97949
587.66846
584.20911
580.6063
576.86533
572.99188
568.99201
564.87208
560.63875
556.29891
551.85968
547.32834
542.71227
538.019
533.25606
528.43104
523.55152
518.62501
513.65896
508.66074
503.63756
498.5965
493.54443
488.48805
483.43379
478.38778
473.35585
468.34379
622.14822
622.47777
622.69735
622.79931
622.77806
622.62804
622.34389
621.9205
621.35305
620.63707
619.76848
618.74362
617.55926
616.21267
614.70162
613.02442
611.17992
609.16755
606.9873
604.63976
602.12607
599.44799
596.6078
593.60838
590.45312
587.14591
583.69114
580.09367
576.35876
572.49208
568.49965
564.38779
560.16313
555.83252
551.40303
546.88189
542.27646
537.59419
532.84259
528.02919
523.16152
518.24704
513.29318
508.30724
503.29639
498.26768
493.22796
488.18387
483.14182
478.10784
473.08758
468.08722
621.68151
622.00232
622.21309
622.30631
622.27639
622.11785
621.82539
621.39393
620.81872
620.09536
619.21981
618.18847
616.99817
615.64623
614.13047
612.44923
610.60143
608.5865
606.40449
604.056
601.54221
598.86487
596.0263
593.02935
589.87741
586.57439
583.12465
579.53302
575.80475
571.94548
567.96117
563.85814
559.64296
555.32243
550.90359
546.39361
541.79979
537.12955
532.39033
527.58963
522.7349
517.83357
512.89302
507.92048
502.92312
497.9079
492.88166
487.851
482.8223
477.80149
472.79404
467.80669
621.17183
621.48314
621.68431
621.76798
621.72864
621.56083
621.25931
620.81908
620.23544
619.50405
618.62095
617.58257
616.38583
615.02808
613.50721
611.82161
609.97023
607.95255
605.76865
603.41916
600.90528
598.22878
595.39198
592.39774
589.24946
585.95102
582.50677
578.92152
575.2005
571.3493
567.37387
563.28046
559.0756
554.76607
550.35883
545.861
541.27985
536.62271
531.89699
527.11011
522.26948
517.38249
512.45642
507.4985
502.51581
497.51529
492.50372
487.48768
482.47355
477.46719
472.47378
620.61648
620.91751
621.10822
621.18154
621.13195
620.95409
620.64275
620.19301
619.60024
618.86015
617.96887
616.92288
615.71917
614.35515
612.82877
611.13846
609.28322
607.26259
605.07667
602.72612
600.21218
597.53662
594.70178
591.71052
588.56623
585.27279
581.83453
578.25624
574.54311
570.7007
566.73492
562.65198
558.45836
554.16078
549.76615
545.28154
540.71414
536.07124
531.36018
526.58833
521.76303
516.8916
511.98128
507.03923
502.07248
497.08791
492.09226
487.09209
482.09382
477.10342
472.12562
620.01259
620.30257
620.48194
620.54404
620.48338
620.29463
619.97268
619.51266
618.91001
618.16055
617.26043
616.20624
614.99501
613.62424
612.09192
610.39655
608.53718
606.5134
604.32533
601.97369
599.45971
596.78521
593.95253
590.96454
587.82461
584.53662
581.10488
577.53415
573.82959
569.99673
566.04143
561.96985
557.78842
553.5038
549.12285
544.65256
540.10008
535.47262
530.77746
526.02189
521.21321
516.35865
511.4654
506.54054
501.59106
496.62377
491.64535
486.66231
481.6813
619.35713
619.6353
619.80243
619.85242
619.77981
619.57933
619.24594
618.77484
618.16156
617.40199
616.49237
615.42935
614.21005
612.83203
611.29335
609.59257
607.72879
605.70164
603.51131
601.15853
598.64457
595.97127
593.14097
590.15655
587.02138
583.73932
580.31466
576.75214
573.05688
569.23437
565.29041
561.23114
557.0629
552.79232
548.42616
543.97138
539.43503
534.82428
530.14631
525.40835
520.61763
515.78131
510.90652
506.00026
501.06945
496.12083
491.16098
486.19643
618.647
618.91248
619.06652
619.1035
619.01804
618.80494
618.45925
617.97624
617.35155
616.58113
615.66131
614.58884
613.3609
611.97512
610.42963
608.72308
606.8546
604.8239
602.63119
600.27724
597.76337
595.09141
592.26374
589.28322
586.15324
582.87762
579.46065
575.90702
572.22183
568.4105
564.47882
560.43284
556.27886
552.02343
547.67325
543.23521
538.71628
534.12355
529.46413
524.74519
519.97385
515.15722
510.30234
505.41615
500.50547
495.57697
490.63714
485.69265
617.52372
617.87947
618.13096
618.27096
618.29398
618.19473
617.9681
617.60921
617.11346
616.47654
615.6945
614.76378
613.6812
612.44402
611.04997
609.49725
607.78456
605.91111
603.87665
601.68146
599.32634
596.81263
594.14219
591.31741
588.34117
585.21682
581.94819
578.53954
574.99553
571.32121
567.52198
563.60354
559.5719
555.43329
551.19419
546.86123
542.44121
537.94105
533.36773
528.7283
524.02983
519.27937
514.48394
509.6505
504.78591
499.89691
494.99008
490.07177
485.1489
616.71015
617.05093
617.28738
617.41235
617.42044
617.30644
617.06533
616.69234
616.18295
615.53297
614.73855
613.79619
612.70284
611.45584
610.05299
608.49259
606.7734
604.89471
602.85631
600.65855
598.30225
595.7888
593.12008
590.29849
587.32691
584.20869
580.94764
577.54798
574.01436
570.35178
566.56557
562.6614
558.64519
554.52313
550.3016
545.98716
541.58653
537.10654
532.55409
527.93614
523.25966
518.53164
513.75899
508.9486
504.10723
499.24154
494.35801
489.46287
484.56324
615.83289
616.15787
616.37828
616.48721
616.47936
616.34961
616.09306
615.70503
615.18111
614.51722
613.7096
612.75488
611.65008
610.39266
608.98049
607.41197
605.68592
603.80172
601.75922
599.5588
597.20136
594.6883
592.02152
589.20344
586.23695
583.12538
579.87252
576.48259
572.96017
569.31022
565.53804
561.6492
557.64959
553.54529
549.34263
545.04807
540.66825
536.2099
531.67984
527.08493
522.43206
517.7281
512.9799
508.19422
503.37776
498.53709
493.67857
488.80839
483.93369
614.88867
615.19678
615.40011
615.49195
615.46711
615.3206
615.04761
614.64357
614.10421
613.42554
612.60393
611.6361
610.51919
609.25073
607.82873
606.25165
604.51841
602.62844
600.58168
598.37856
596.02001
593.50748
590.8429
588.02869
585.06774
581.96339
578.7194
575.33995
571.82959
568.19324
564.43611
560.56375
556.58193
552.49669
548.31425
544.04099
539.68346
535.24829
530.74221
526.17197
521.54437
516.86617
512.14413
507.38493
502.59515
497.78126
492.94957
488.10618
483.25821
613.87396
614.16406
614.34921
614.42289
614.37999
614.21567
613.92523
613.50422
612.94849
612.25417
611.41775
610.43606
609.30635
608.02627
606.59393
605.00786
603.26709
601.37113
599.31997
597.11411
594.75453
592.24271
589.58061
586.77067
583.81577
580.71924
577.48482
574.11666
570.61927
566.99751
563.25654
559.40183
555.43908
551.37423
547.21343
542.96296
538.62926
534.21888
529.73842
525.19454
520.59394
515.94328
511.2492
506.51829
501.75702
496.97179
492.16879
487.35408
482.53471
612.7851
613.05603
613.22187
613.27626
613.21423
613.03103
612.72211
612.28315
611.71012
610.99927
610.14722
609.15093
608.00775
606.71547
605.27227
603.67681
601.9282
600.02603
597.97036
595.76176
593.40126
590.89037
588.23107
585.42583
582.47751
579.38945
576.16536
572.80935
569.32589
565.71978
561.99611
558.16029
554.21792
550.17487
546.03718
541.81104
537.50278
533.11884
528.66572
524.14998
519.57818
514.95688
510.29263
505.59189
500.86105
496.10639
491.33403
486.54995
481.76111
611.61832
611.8689
612.01428
612.04825
611.96598
611.76284
611.43441
610.97651
610.38523
609.65698
608.78849
607.77686
606.61957
605.3145
603.85997
602.25473
600.498
598.58943
596.52919
594.31787
591.95658
589.44687
586.79075
583.99067
581.04953
577.97063
574.75767
571.41472
567.9462
564.35684
560.65168
556.83603
552.91543
548.89564
544.78259
540.58238
536.30122
531.94545
527.52145
523.03565
518.49452
513.90449
509.27199
504.60338
499.90494
495.18284
490.44312
485.69167
480.93535
610.36978
610.59885
610.7226
610.73502
610.6314
610.40724
610.05826
609.58043
608.96999
608.22347
607.33775
606.31006
605.13801
603.81961
602.3533
600.73792
598.9728
597.05769
594.99282
592.77887
590.41697
587.90873
585.25619
582.4618
579.52847
576.45948
573.2585
569.92957
566.47704
562.9056
559.2202
555.42608
551.52867
547.53365
543.44683
539.27421
535.02188
530.69606
526.30301
521.84904
517.34049
512.78369
508.18493
503.55046
498.88645
494.19896
489.49394
484.77719
480.05544
609.03565
609.24203
609.34299
609.33272
609.20663
608.96038
608.58984
608.09111
607.46058
606.69494
605.79122
604.74677
603.55936
602.22711
600.74858
599.12275
597.34903
595.42727
593.35778
591.1413
588.77903
586.2726
583.62409
580.83596
577.91112
574.85284
571.66475
568.35084
564.91542
561.36311
557.69879
553.92759
550.05487
546.08617
542.02723
537.88391
533.66219
529.36815
525.00794
520.58774
516.11376
511.59219
507.02922
502.43096
497.80347
493.15269
488.48447
483.80453
479.11946
607.61208
607.79461
607.87162
607.83753
607.68787
607.41848
607.02535
606.50477
605.85327
605.06769
604.14522
603.08336
601.88
600.53343
599.04231
597.40575
595.62326
593.69478
591.62072
589.40188
587.03951
584.53529
581.89132
579.11009
576.19448
573.14775
569.9735
566.67569
563.25855
559.72664
556.08475
552.33792
548.49142
544.55068
540.5213
536.40904
532.21976
527.95939
523.63396
519.24951
514.81212
510.32786
505.80277
501.24283
496.654
492.04209
487.41283
482.77186
478.1256
606.09529
606.25281
606.30474
606.2457
606.07141
605.77783
605.36114
604.81778
604.14445
603.33816
602.39623
601.31634
600.09652
598.73519
597.23115
595.58363
593.79225
591.85706
589.77853
587.55755
585.19543
582.69388
580.05502
577.28135
574.37577
571.3415
568.18211
564.90151
561.50387
557.99368
554.37563
550.65469
546.83599
542.92486
538.9268
534.84741
530.69243
526.46767
522.179
517.83234
513.43361
508.98876
504.50368
499.98423
495.43623
490.86538
486.27728
481.67746
477.07221
604.48159
604.61297
604.6387
604.55364
604.35366
604.0349
603.59371
603.02669
602.33073
601.50298
600.54095
599.44246
598.20571
596.82925
595.31203
593.65339
591.85307
589.91122
587.8284
585.60557
583.24409
580.74571
578.1126
575.34725
572.45254
569.4317
566.28824
563.02602
559.64916
556.16205
552.56932
548.8758
545.08653
541.20674
537.24177
533.19711
529.07835
524.89116
520.64127
516.33446
511.9765
507.57319
503.13029
498.65353
494.14857
489.621
485.07629
480.51986
475.95783
602.76747
602.87161
602.87005
602.75793
602.53126
602.18637
601.71979
601.12829
600.40893
599.55906
598.57634
597.45876
596.20468
594.81279
593.28219
591.61235
589.80311
587.85473
585.76786
583.54353
581.18316
578.68856
576.06188
573.30566
570.42275
567.41635
564.28995
561.04734
557.69258
554.22998
550.66405
546.99956
543.2414
539.39468
535.46462
531.45657
527.37597
523.22836
519.0193
514.75443
510.43937
506.07978
501.68126
497.24939
492.78971
488.30765
483.80858
479.29779
474.78122
600.94964
601.02546
600.99561
600.85542
600.60112
600.22922
599.73642
599.11969
598.37626
597.50367
596.49975
595.36267
594.09093
592.6834
591.1393
589.45824
587.64019
585.6855
583.5949
581.36951
579.0108
576.52062
573.90115
571.15492
568.28479
565.29392
562.18576
558.96405
555.63276
552.19612
548.65856
545.02472
541.29938
537.48752
533.59421
529.62468
525.58421
521.47819
517.31203
513.09121
508.8212
504.5075
500.15556
495.77082
491.35865
486.92437
482.4732
478.01029
473.54144
599.0251
599.07162
599.01249
598.84332
598.56053
598.1608
597.64104
596.99841
596.23032
595.3345
594.30897
593.15206
591.86244
590.43914
588.88153
587.18934
585.36266
583.40196
581.30805
579.08212
576.7257
574.24067
571.62924
568.89395
566.03764
563.06344
559.97477
556.77528
553.46889
550.05972
546.55211
542.95057
539.25979
535.48458
531.6299
527.70081
523.70245
519.64005
515.51887
511.34421
507.1214
502.85577
498.55261
494.21722
489.85481
485.47055
481.06952
476.65676
472.23786
596.99127
597.00758
596.91829
596.71931
596.40724
595.97897
595.43161
594.7625
593.96927
593.04982
592.00236
590.8254
589.51779
588.0787
586.50766
584.80453
582.96952
581.0032
578.90648
576.68061
574.3272
571.84814
569.24567
566.52234
563.68096
560.72463
557.65673
554.48084
551.2008
547.82064
544.34459
540.77705
537.12257
533.38584
529.57166
525.68494
521.73068
517.71392
513.63977
509.51338
505.33991
501.12451
496.87233
492.58848
488.27805
483.94605
479.5974
475.23701
470.87029
594.8461
594.83136
594.71114
594.48161
594.1396
593.68218
593.10668
592.41065
591.5919
590.64854
589.57896
588.38186
587.05626
585.60148
584.01721
582.30343
580.4605
578.48907
576.39014
574.16505
571.81544
569.34325
566.75074
564.04044
561.21516
558.27796
555.23217
552.0813
548.8291
545.47952
542.03667
538.50483
534.88841
531.19197
527.42016
523.57774
519.66952
515.70042
511.67536
507.59932
503.47728
499.31425
495.11519
490.88507
486.6288
482.35124
478.05717
473.75134
469.43898
592.58817
592.54167
592.38985
592.12917
591.75666
591.26963
590.66559
589.94231
589.09782
588.1304
587.03865
585.82144
584.47798
583.00774
581.41056
579.68657
577.83623
575.8603
573.75989
571.53637
569.19145
566.72712
564.14563
561.44951
558.64157
555.72482
552.70251
549.57811
546.35528
543.03786
539.62986
536.13541
532.55882
528.90447
525.17688
521.38065
517.52042
513.60094
509.62697
505.60331
501.53478
497.42619
493.28237
489.10808
484.90809
480.6871
476.44974
472.20061
467.94475
590.21688
590.13804
589.95408
589.66178
589.25838
588.74141
588.10858
587.35789
586.48756
585.49609
584.38226
583.14514
581.78409
580.29876
578.68914
576.95549
575.09838
573.1187
571.01761
568.79657
566.45734
564.00192
561.4326
558.75189
555.96256
553.0676
550.07021
546.97376
543.78184
540.49817
537.12664
533.67129
530.13625
526.52578
522.84423
519.09603
515.28569
511.41775
507.49681
503.52751
499.51446
495.46234
491.37576
487.25935
483.11769
478.95532
474.77673
470.58635
466.38901
587.7326
587.62097
587.40451
587.08028
586.64575
586.09867
585.43697
584.65887
583.76279
582.74743
581.61178
580.35509
578.97689
577.477
575.85554
574.11292
572.24982
570.26723
568.1664
565.94886
563.61639
561.17103
558.61509
555.95106
553.18169
550.30992
547.33887
544.27187
541.11239
537.86406
534.53064
531.11604
527.62425
524.05939
520.42565
516.72728
512.96863
509.15408
505.28804
501.37496
497.41931
493.42555
489.39815
485.34155
481.26016
477.15837
473.04048
468.9108
464.77394
585.13684
584.99217
584.743
584.3867
583.92099
583.34382
582.65336
581.84803
580.92646
579.88758
578.73054
577.45479
576.06003
574.54626
572.91372
571.16296
569.29479
567.31027
565.21074
562.9978
560.67326
558.2392
555.69791
553.0519
550.30386
547.45668
544.51345
541.47739
538.35188
535.14044
531.84673
528.47449
525.0276
521.51001
517.92575
514.27893
510.5737
506.81427
503.00489
499.14981
495.25333
491.31974
487.35331
483.35832
479.33901
475.29959
471.24423
467.17705
463.10248
582.43251
582.25472
581.97285
581.58456
581.0878
580.48077
579.76184
578.92965
577.98307
576.92119
575.74338
574.44927
573.03874
571.51192
569.86922
568.1113
566.23909
564.25375
562.15668
559.94953
557.63418
555.21271
552.68741
550.06077
547.33546
544.51432
541.60036
538.59671
535.50667
532.33365
529.08117
525.75285
522.35242
518.88368
515.3505
511.75681
508.10661
504.40392
500.65281
496.85736
493.02168
489.14989
485.24607
481.31434
477.35875
473.38336
469.39216
465.38913
461.37853
579.62414
579.41337
579.099
578.679
578.15156
577.5151
576.76822
575.90977
574.93883
573.8547
572.65694
571.34535
569.91998
568.38113
566.72934
564.96539
563.09031
561.10535
559.012
556.81195
554.50711
552.09958
549.59164
546.98578
544.28461
541.49093
538.60766
535.63788
532.58476
529.4516
526.24181
522.95887
519.60636
516.18792
512.70727
509.16818
505.57446
501.92997
498.23858
494.50422
490.73081
486.92226
483.08252
479.21549
475.32508
471.41515
467.48956
463.55214
576.71816
576.47476
576.12833
575.67713
575.1196
574.45437
573.68028
572.79639
571.80197
570.69654
569.47984
568.15184
566.71277
565.16306
563.50339
561.73467
559.85802
557.87478
555.78649
553.59491
551.30196
548.90976
546.4206
543.83691
541.16128
538.39645
535.54528
532.61074
529.59591
526.50398
523.33822
520.102
516.79873
513.43191
510.0051
506.52189
502.98592
499.40089
495.7705
492.09847
488.38856
484.6445
480.87005
477.06895
473.24494
469.4017
465.54297
573.72316
573.44775
573.06993
572.58829
572.0015
571.30841
570.50807
569.59977
568.58298
567.4574
566.22297
564.87983
563.42834
561.86911
560.20294
558.43084
556.55402
554.57392
552.49213
550.31044
548.03081
545.65536
543.18637
540.62624
537.97753
535.2429
532.42514
529.52713
526.55187
523.5024
520.3819
517.19357
513.9407
510.62663
507.25475
503.82851
500.35137
496.82684
493.25845
489.64977
486.00434
482.32575
478.61757
474.88336
471.12669
467.35109
570.65026
570.34369
569.93542
569.42435
568.80937
568.08956
567.2642
566.33275
565.2949
564.15054
562.89978
561.54292
560.0805
558.51323
556.84205
555.06807
553.1926
551.21713
549.14332
546.97299
544.70812
542.35084
539.90339
537.36817
534.74768
532.04451
529.26139
526.4011
523.46652
520.46061
517.38639
514.24695
511.04544
507.78503
504.46897
501.10052
497.68301
494.21975
490.71412
487.1695
483.58926
479.97682
476.33557
472.66891
468.98023
465.27296
567.51343
567.17681
566.73929
566.20005
565.55822
564.81308
563.96411
563.01101
561.95362
560.79204
559.52654
558.15758
556.68583
555.11214
553.43756
551.6633
549.79075
547.82146
545.75714
543.59965
541.35098
539.01324
536.58867
534.07963
531.48856
528.818
526.07059
523.24903
520.3561
517.39463
514.36753
511.27775
508.12829
504.9222
501.66255
498.35246
494.99508
491.59356
488.15112
484.67094
481.15626
477.6103
474.03629
470.43747
466.81706
463.1783
564.32984
563.96457
563.49925
562.93336
562.26624
561.49739
560.6265
559.65343
558.57824
557.40118
556.12268
554.74337
553.26403
551.68564
550.00936
548.23648
546.36847
544.40694
542.35363
540.21042
537.97932
535.66244
533.26198
530.78027
528.21969
525.58273
522.87194
520.08993
517.23937
514.32299
511.34358
508.30396
505.20698
502.05555
498.8526
495.60108
492.30398
488.96432
485.58511
482.16941
478.72025
475.24072
471.73388
468.20278
464.6505
461.08008
561.12029
560.72801
560.23661
559.64582
558.95523
558.16452
557.27356
556.28243
555.19133
554.00069
552.71109
551.32328
549.8382
548.25691
546.58068
544.81087
542.94902
540.99679
538.95596
536.82843
534.6162
532.32136
529.94611
527.49272
524.96353
522.36094
519.68744
516.94554
514.13783
511.26691
508.33546
505.34615
502.30174
499.20496
496.05861
492.8655
489.62846
486.35034
483.03402
479.68237
476.29829
472.88468
469.44446
465.98053
462.49579
458.99308
557.90962
557.49221
556.97667
556.36299
555.65094
554.84041
553.93145
552.9243
551.81935
550.61715
549.31844
547.92409
546.43515
544.8528
543.17837
541.41331
539.55921
537.61777
535.5908
533.48021
531.28799
529.01623
526.66709
524.2428
521.74564
519.17795
516.54214
513.84063
511.0759
508.25046
505.36686
502.42768
499.4355
496.39296
493.3027
490.1674
486.98972
483.77239
480.51811
477.22962
473.90965
470.56097
467.18633
463.78849
460.37019
456.93408
554.72708
554.28667
553.74915
553.11477
552.38347
551.55533
550.63058
549.6096
548.49294
547.28129
545.97552
544.57662
543.08574
541.50414
539.83323
538.07452
536.22966
534.30038
532.2885
530.19594
528.02469
525.77681
523.45444
521.05975
518.59497
516.06239
513.46431
510.80309
508.0811
505.30076
502.46451
499.57479
496.63409
493.6449
490.60973
487.53112
484.41162
481.25378
478.06018
474.8334
471.57605
468.29074
464.98007
461.64667
458.29313
454.92192
551.60683
551.14573
550.58859
549.93585
549.18766
548.34426
547.40602
546.37348
545.24733
544.02838
542.71761
541.31612
539.82515
538.24604
536.58026
534.82939
532.9951
531.07915
529.08338
527.00971
524.86012
522.63664
520.34137
517.97644
515.54404
513.04637
510.48567
507.86421
505.18428
502.44819
499.65827
496.81687
493.92635
490.98908
488.00745
484.98387
481.92076
478.82053
475.68565
472.51855
469.32169
466.09756
462.84864
459.57739
456.28629
452.9776
548.58832
548.10902
547.53475
546.86614
546.10352
545.24727
544.29791
543.2561
542.12266
540.89853
539.58476
538.18256
536.69325
535.11823
533.45903
531.71727
529.89465
527.99296
526.01403
523.95978
521.83219
519.63325
517.36503
515.02962
512.62914
510.16573
507.64157
505.05884
502.41975
499.72652
496.98137
494.18655
491.34432
488.45694
485.52667
482.55582
479.54667
476.50153
473.42272
470.31256
467.1734
464.00759
460.81746
457.60539
454.37369
545.7168
545.22189
544.63306
543.95114
543.17659
542.30992
541.35179