/*--------------------------------*- C++ -*----------------------------------*\
| =========                 |                                                 |
| \\      /  F ield         | OpenFOAM: The Open Source CFD Toolbox           |
|  \\    /   O peration     | Version:  2312                                  |
|   \\  /    A nd           | Website:  www.openfoam.com                      |
|    \\/     M anipulation  |                                                 |
\*---------------------------------------------------------------------------*/
FoamFile
{
    version     2.0;
    format      ascii;
    arch        "LSB;label=32;scalar=64";
    class       volVectorField;
    location    "0.04";
    object      U;
}
// * * * * * * * * * * * * * * * * * * * * * * * * * * * * * * * * * * * * * //

dimensions      [0 1 -1 0 0 0 0];

internalField   nonuniform List<vector> 
3251
(
(1.36784 0.0074730084 0)
(1.3303846 0.0073562543 0)
(1.2932596 0.0072386567 0)
(1.2564644 0.007120635 0)
(1.2199981 0.0070016081 0)
(1.183861 0.0068817607 0)
(1.1480528 0.0067612068 0)
(1.1125734 0.0066400742 0)
(1.0774229 0.0065184907 0)
(1.0426012 0.0063965944 0)
(1.0081087 0.0062745244 0)
(0.97394554 0.0061524236 0)
(0.9401121 0.0060304448 0)
(0.90660893 0.0059087454 0)
(0.87343674 0.0057874572 0)
(0.84059643 0.0056667206 0)
(0.80808908 0.0055467019 0)
(0.775916 0.005427536 0)
(0.74407879 0.0053093372 0)
(0.71257924 0.0051923144 0)
(0.68141944 0.0050765457 0)
(0.65060181 0.0049621246 0)
(0.62012898 0.0048492077 0)
(0.59000397 0.004737897 0)
(0.56023006 0.0046282799 0)
(0.53081085 0.0045205049 0)
(0.50175026 0.0044146165 0)
(0.47305256 0.0043106898 0)
(0.44472227 0.0042087995 0)
(0.41676422 0.0041090093 0)
(0.38918353 0.0040113663 0)
(0.36198554 0.0039159172 0)
(0.33517587 0.0038226972 0)
(0.30876029 0.0037317299 0)
(0.28274475 0.0036430368 0)
(0.25713532 0.003556632 0)
(0.23193815 0.0034725169 0)
(0.20715938 0.0033906945 0)
(0.18280518 0.0033111121 0)
(0.15888162 0.0032337985 0)
(0.13539463 0.0031587202 0)
(0.11234994 0.0030858673 0)
(0.089752999 0.003015219 0)
(0.067608968 0.0029467527 0)
(0.045922626 0.0028804409 0)
(0.024698345 0.0028162499 0)
(0.0039400262 0.0027541797 0)
(-0.016348932 0.0026942082 0)
(-0.036165617 0.0026362646 0)
(-0.055507638 0.0025802315 0)
(-0.074373207 0.0025258713 0)
(-0.092761172 0.002473278 0)
(-0.11067038 0.0024226049 0)
(-0.12810035 0.0023735155 0)
(-0.14505217 0.0023262986 0)
(-0.16152769 0.0022810201 0)
(-0.17752929 0.0022376915 0)
(-0.19305978 0.0021959337 0)
(1.3677901 0.017646324 0)
(1.3303393 0.0172717 0)
(1.2932191 0.016897792 0)
(1.2564282 0.016525175 0)
(1.2199661 0.016153724 0)
(1.1838329 0.015784059 0)
(1.1480285 0.015416715 0)
(1.1125529 0.015052232 0)
(1.0774059 0.014691143 0)
(1.0425878 0.014333974 0)
(1.0080986 0.013981249 0)
(0.97393874 0.013633469 0)
(0.94010851 0.013291117 0)
(0.90660849 0.012954694 0)
(0.8734394 0.012624631 0)
(0.84060211 0.012301346 0)
(0.80809775 0.01198524 0)
(0.77592762 0.011676674 0)
(0.74409332 0.011375984 0)
(0.71259667 0.011083461 0)
(0.68143973 0.010799378 0)
(0.65062492 0.010523926 0)
(0.62015492 0.010257299 0)
(0.5900327 0.0099996339 0)
(0.56026159 0.0097509969 0)
(0.53084517 0.0095115548 0)
(0.50178734 0.0092812357 0)
(0.4730924 0.0090600344 0)
(0.44476485 0.0088479016 0)
(0.41680954 0.0086447494 0)
(0.38923157 0.0084504497 0)
(0.3620363 0.0082648493 0)
(0.33522932 0.0080877662 0)
(0.30881641 0.0079189852 0)
(0.28280352 0.0077582755 0)
(0.25719672 0.0076053855 0)
(0.23200215 0.0074600405 0)
(0.20722594 0.0073219606 0)
(0.18287426 0.0071907873 0)
(0.1589532 0.0070662671 0)
(0.13546865 0.0069480662 0)
(0.11242636 0.0068358761 0)
(0.089831771 0.0067293826 0)
(0.067690039 0.0066282754 0)
(0.046005939 0.0065322482 0)
(0.024783851 0.0064409661 0)
(0.0040276889 0.0063541734 0)
(-0.016259152 0.0062715889 0)
(-0.036073759 0.0061928922 0)
(-0.055413749 0.0061177509 0)
(-0.074277313 0.0060457609 0)
(-0.092663237 0.0059766163 0)
(-0.11057059 0.0059102849 0)
(-0.12799905 0.0058465375 0)
(-0.14494958 0.005785222 0)
(-0.1614239 0.0057263284 0)
(-0.17742448 0.0056697713 0)
(-0.19295402 0.0056151777 0)
(1.3676667 0.027817308 0)
(1.3302251 0.027184973 0)
(1.2931139 0.026554774 0)
(1.2563316 0.025927601 0)
(1.2198776 0.025303817 0)
(1.1837524 0.02468444 0)
(1.1479556 0.024070418 0)
(1.1124874 0.023462701 0)
(1.0773478 0.022862222 0)
(1.0425367 0.022269898 0)
(1.0080545 0.021686639 0)
(0.97390146 0.021113318 0)
(0.94007794 0.020550745 0)
(0.90658454 0.019999728 0)
(0.87342198 0.019461011 0)
(0.84059117 0.018935294 0)
(0.80809323 0.018423218 0)
(0.77592949 0.017925371 0)
(0.74410155 0.017442347 0)
(0.71261123 0.016974404 0)
(0.68146063 0.016522109 0)
(0.65065216 0.016085722 0)
(0.62018848 0.015665481 0)
(0.5900726 0.015261557 0)
(0.56030784 0.014874025 0)
(0.53089778 0.014502948 0)
(0.50184631 0.014148263 0)
(0.47315773 0.013809849 0)
(0.44483657 0.013487527 0)
(0.41688764 0.013181057 0)
(0.38931604 0.012890138 0)
(0.36212714 0.012614416 0)
(0.33532652 0.012353491 0)
(0.30891995 0.01210691 0)
(0.28291337 0.01187419 0)
(0.25731285 0.011654814 0)
(0.23212451 0.011448231 0)
(0.20735447 0.011253879 0)
(0.18300891 0.011071098 0)
(0.15909389 0.010899348 0)
(0.13561531 0.010737999 0)
(0.11257889 0.010586443 0)
(0.089990089 0.01044407 0)
(0.067854038 0.010310283 0)
(0.0461755 0.010184494 0)
(0.024958863 0.010066077 0)
(0.0042080519 0.00995452 0)
(-0.016073547 0.0098492736 0)
(-0.035883023 0.0097497726 0)
(-0.055218001 0.0096554625 0)
(-0.074076686 0.0095657518 0)
(-0.092457825 0.0094800712 0)
(-0.1103606 0.0093981123 0)
(-0.12778488 0.0093195781 0)
(-0.14473158 0.00924412 0)
(-0.16120226 0.0091715867 0)
(-0.1771994 0.0091017398 0)
(-0.1927258 0.0090342763 0)
(1.3674698 0.037985027 0)
(1.330042 0.037095213 0)
(1.2929441 0.036208905 0)
(1.2561746 0.035327377 0)
(1.2197328 0.034451478 0)
(1.1836194 0.033582616 0)
(1.1478342 0.032722138 0)
(1.1123772 0.031871403 0)
(1.0772485 0.031031746 0)
(1.0424482 0.030204472 0)
(1.0079765 0.029390863 0)
(0.97383378 0.028592159 0)
(0.94002046 0.027809531 0)
(0.90653713 0.027044076 0)
(0.87338455 0.026296853 0)
(0.84056365 0.025568838 0)
(0.80807556 0.024860921 0)
(0.77592166 0.024173905 0)
(0.74410351 0.023508587 0)
(0.71262296 0.022865401 0)
(0.68148218 0.022244993 0)
(0.65068352 0.021647744 0)
(0.62022969 0.021073953 0)
(0.59012367 0.02052383 0)
(0.56036879 0.019997514 0)
(0.53096866 0.019494773 0)
(0.50192715 0.019015733 0)
(0.47324856 0.018560118 0)
(0.4449374 0.018127611 0)
(0.41699849 0.017717817 0)
(0.38943692 0.017330263 0)
(0.36225805 0.016964398 0)
(0.33546745 0.016619602 0)
(0.30907088 0.016295186 0)
(0.28307428 0.015990414 0)
(0.25748369 0.015704504 0)
(0.23230522 0.015436629 0)
(0.20754496 0.01518595 0)
(0.18320909 0.014951502 0)
(0.15930368 0.014732464 0)
(0.13583459 0.014527907 0)
(0.11280753 0.014336924 0)
(0.090227937 0.014158608 0)
(0.068100948 0.013992075 0)
(0.046431299 0.013836448 0)
(0.025223381 0.013690819 0)
(0.0044811224 0.013554424 0)
(-0.015792107 0.013426453 0)
(-0.035593398 0.013306079 0)
(-0.054920384 0.013192528 0)
(-0.073771292 0.013085004 0)
(-0.092144869 0.012982748 0)
(-0.11004039 0.012885163 0)
(-0.12745786 0.012791772 0)
(-0.14439815 0.012702148 0)
(-0.16086275 0.012615941 0)
(-0.17685405 0.012532667 0)
(-0.19237502 0.012452 0)
(1.3671989 0.04814791 0)
(1.3297894 0.047000996 0)
(1.2927092 0.045858932 0)
(1.2559565 0.044723386 0)
(1.2195311 0.043595705 0)
(1.1834335 0.042477679 0)
(1.1476637 0.04137106 0)
(1.1122216 0.040277609 0)
(1.0771075 0.03919906 0)
(1.0423215 0.038137113 0)
(1.0078639 0.03709341 0)
(0.97373508 0.036069547 0)
(0.93993544 0.035067057 0)
(0.90646565 0.034087368 0)
(0.8733265 0.033131829 0)
(0.84051894 0.032201691 0)
(0.80804415 0.031298092 0)
(0.77590351 0.030422054 0)
(0.74409861 0.029574496 0)
(0.71263132 0.028756212 0)
(0.68150381 0.027967789 0)
(0.65071845 0.027209753 0)
(0.62027797 0.026482468 0)
(0.59018537 0.025786175 0)
(0.56044391 0.025121015 0)
(0.53105725 0.024486725 0)
(0.50202932 0.023883348 0)
(0.47336432 0.023310526 0)
(0.44506679 0.022767815 0)
(0.41714155 0.022254665 0)
(0.38959367 0.021770436 0)
(0.3624285 0.021314379 0)
(0.33565158 0.020885654 0)
(0.30926868 0.020483338 0)
(0.28328571 0.020106443 0)
(0.25770868 0.019753922 0)
(0.23254372 0.019424673 0)
(0.20779686 0.019117572 0)
(0.18347428 0.018831381 0)
(0.15958203 0.018564968 0)
(0.13612594 0.018317119 0)
(0.11311171 0.018086622 0)
(0.090544766 0.017872277 0)
(0.068430218 0.017672911 0)
(0.046772779 0.017487364 0)
(0.025576844 0.017314433 0)
(0.0048463408 0.01715311 0)
(-0.015415389 0.017002326 0)
(-0.035205441 0.016860998 0)
(-0.054521459 0.016728127 0)
(-0.073361698 0.016602707 0)
(-0.091724932 0.016483778 0)
(-0.10961051 0.016370519 0)
(-0.12701854 0.016262262 0)
(-0.14394987 0.016158455 0)
(-0.160406 0.016058543 0)
(-0.17638919 0.015961742 0)
(1.3668824 0.057722096 0)
(1.3294942 0.056333285 0)
(1.2924345 0.054950546 0)
(1.2557016 0.053575946 0)
(1.2192952 0.052211307 0)
(1.1832161 0.050858773 0)
(1.1474642 0.049520479 0)
(1.1120396 0.048198566 0)
(1.0769426 0.046895144 0)
(1.0421734 0.045612279 0)
(1.0077323 0.044351969 0)
(0.97361962 0.043116144 0)
(0.93983601 0.041906656 0)
(0.90638209 0.040725249 0)
(0.87325868 0.039573552 0)
(0.84046679 0.038453074 0)
(0.80800761 0.037365191 0)
(0.77588255 0.036311134 0)
(0.74409325 0.035291962 0)
(0.71264158 0.034308673 0)
(0.68152971 0.033361962 0)
(0.65076007 0.032452438 0)
(0.62033536 0.031580526 0)
(0.59025861 0.030746479 0)
(0.56053307 0.029950377 0)
(0.5311624 0.029192181 0)
(0.50215055 0.028471614 0)
(0.47350171 0.027788294 0)
(0.44522039 0.027141674 0)
(0.41731141 0.026531062 0)
(0.38977983 0.025955656 0)
(0.36263099 0.025414522 0)
(0.33587041 0.024906609 0)
(0.30950383 0.024430785 0)
(0.28353714 0.023985822 0)
(0.25797636 0.023570419 0)
(0.23282756 0.023183216 0)
(0.20809677 0.022822806 0)
(0.18379012 0.022487767 0)
(0.15991367 0.022176605 0)
(0.1364732 0.02188785 0)
(0.1134744 0.021620006 0)
(0.090922664 0.021371598 0)
(0.068823094 0.021141183 0)
(0.047180362 0.020927343 0)
(0.025998866 0.020728585 0)
(0.0052825352 0.020543674 0)
(-0.014965331 0.020371298 0)
(-0.034741837 0.020210132 0)
(-0.054044639 0.02005897 0)
(-0.072872028 0.019916603 0)
(-0.091222812 0.019781881 0)
(-0.1090964 0.019653791 0)
(-0.12649297 0.019531496 0)
(-0.14341338 0.019414298 0)
(-0.15985918 0.019301463 0)
(-0.17583255 0.019191973 0)
(1.3665604 0.066833186 0)
(1.3291955 0.06521457 0)
(1.2921581 0.063603145 0)
(1.2554467 0.062001376 0)
(1.219061 0.060411544 0)
(1.183002 0.058836128 0)
(1.1472695 0.057277631 0)
(1.1118639 0.055738554 0)
(1.0767854 0.054221363 0)
(1.0420343 0.052728474 0)
(1.007611 0.051262225 0)
(0.97351584 0.049824866 0)
(0.93974954 0.048418553 0)
(0.90631277 0.04704532 0)
(0.8732064 0.045707067 0)
(0.84043146 0.044405551 0)
(0.8079892 0.043142372 0)
(0.77588107 0.041918962 0)
(0.74410872 0.04073655 0)
(0.71267406 0.039596247 0)
(0.68157929 0.038498907 0)
(0.65082683 0.037445211 0)
(0.62041941 0.036435639 0)
(0.59036007 0.03547047 0)
(0.56065209 0.034549757 0)
(0.53129911 0.033673516 0)
(0.50230507 0.032841332 0)
(0.47367415 0.032052759 0)
(0.44541088 0.031307145 0)
(0.41752005 0.030603672 0)
(0.39000673 0.029941374 0)
(0.3628762 0.029319144 0)
(0.33613399 0.028735729 0)
(0.30978581 0.028189805 0)
(0.28383754 0.027679915 0)
(0.25829514 0.027204511 0)
(0.23316468 0.026761992 0)
(0.20845217 0.026350679 0)
(0.1841637 0.025969004 0)
(0.16030529 0.025615101 0)
(0.1368827 0.025287262 0)
(0.11390158 0.02498372 0)
(0.091367316 0.02470274 0)
(0.069284975 0.024442625 0)
(0.047659187 0.024201709 0)
(0.026494345 0.023978232 0)
(0.0057943788 0.023770738 0)
(-0.014437465 0.023577681 0)
(-0.034198301 0.023397509 0)
(-0.053485803 0.023228817 0)
(-0.072298304 0.023070207 0)
(-0.090634652 0.02292035 0)
(-0.10849431 0.022778064 0)
(-0.12587751 0.022642351 0)
(-0.14278514 0.022512357 0)
(-0.1592188 0.022387164 0)
(-0.17518061 0.022265581 0)
(1.3662066 0.07618888 0)
(1.3288687 0.074334741 0)
(1.2918573 0.072488905 0)
(1.2551709 0.070654258 0)
(1.2188092 0.068833544 0)
(1.1827733 0.067029593 0)
(1.1470634 0.06524529 0)
(1.1116797 0.063483506 0)
(1.0766226 0.061747073 0)
(1.0418923 0.060038761 0)
(1.0074895 0.058361257 0)
(0.97341463 0.056717145 0)
(0.9396683 0.055108891 0)
(0.90625132 0.05353883 0)
(0.87316462 0.052009137 0)
(0.84040928 0.050521823 0)
(0.8079866 0.049078717 0)
(0.77589806 0.047681457 0)
(0.74414537 0.046331453 0)
(0.71273046 0.04502995 0)
(0.68165556 0.043777929 0)
(0.65092312 0.04257616 0)
(0.6205359 0.041425183 0)
(0.59049692 0.040325309 0)
(0.56080951 0.039276607 0)
(0.53147729 0.038279004 0)
(0.50250419 0.037332085 0)
(0.47389441 0.036435299 0)
(0.44565246 0.035587886 0)
(0.41778311 0.034788898 0)
(0.3902914 0.034037206 0)
(0.36318262 0.033331525 0)
(0.33646227 0.032670412 0)
(0.31013603 0.032052323 0)
(0.28420973 0.031475571 0)
(0.25868932 0.030938358 0)
(0.23358082 0.030438845 0)
(0.20889025 0.029975062 0)
(0.18462363 0.029545304 0)
(0.16078691 0.029147312 0)
(0.13738585 0.028779141 0)
(0.11442607 0.028438748 0)
(0.091912899 0.028124134 0)
(0.069851391 0.027833335 0)
(0.048246109 0.02756444 0)
(0.027101442 0.027315409 0)
(0.0064213121 0.027084566 0)
(-0.013791098 0.026870119 0)
(-0.033532921 0.026670284 0)
(-0.052801851 0.026483458 0)
(-0.071596271 0.026308044 0)
(-0.089915074 0.026142531 0)
(-0.10775778 0.025985572 0)
(-0.12512466 0.025836007 0)
(-0.14201666 0.025692799 0)
(-0.15843541 0.025554791 0)
(-0.1743829 0.025420536 0)
(1.3658053 0.085794318 0)
(1.3284987 0.083698897 0)
(1.2915174 0.081612889 0)
(1.2548598 0.079539615 0)
(1.2185259 0.077482279 0)
(1.1825168 0.075444089 0)
(1.1468329 0.07342832 0)
(1.1114745 0.071438222 0)
(1.076442 0.069477006 0)
(1.0417359 0.067547806 0)
(1.0073568 0.065653665 0)
(0.97330523 0.063797506 0)
(0.93958197 0.061982123 0)
(0.90618786 0.060210151 0)
(0.87312389 0.058484051 0)
(0.84039121 0.056806095 0)
(0.80799118 0.055178349 0)
(0.77592532 0.053602656 0)
(0.74419541 0.052080617 0)
(0.71280341 0.050613618 0)
(0.68175157 0.049202769 0)
(0.65104239 0.047848932 0)
(0.62067864 0.04655271 0)
(0.59066336 0.045314445 0)
(0.5609999 0.044134218 0)
(0.53169188 0.043011892 0)
(0.50274322 0.041947024 0)
(0.47415812 0.04093897 0)
(0.44594108 0.039986858 0)
(0.41809686 0.039089602 0)
(0.39063049 0.038245917 0)
(0.36354721 0.037454335 0)
(0.33685249 0.036713228 0)
(0.31055199 0.036020809 0)
(0.28465151 0.03537517 0)
(0.25915695 0.034774274 0)
(0.23407429 0.034216019 0)
(0.20940955 0.033698179 0)
(0.18516868 0.033218757 0)
(0.16135753 0.032775246 0)
(0.13798188 0.032365416 0)
(0.11504727 0.031986948 0)
(0.092559023 0.031637569 0)
(0.070522134 0.031315044 0)
(0.048941095 0.031017192 0)
(0.027820287 0.030741736 0)
(0.0071636253 0.030486728 0)
(-0.013025792 0.030250134 0)
(-0.032745116 0.030029942 0)
(-0.051992064 0.029824336 0)
(-0.07076508 0.029631525 0)
(-0.089063106 0.02944981 0)
(-0.10688571 0.029277683 0)
(-0.12423324 0.029113799 0)
(-0.14110667 0.028956905 0)
(-0.15750775 0.028805458 0)
(1.3653409 0.095654863 0)
(1.3280702 0.093312382 0)
(1.2911234 0.090980425 0)
(1.254499 0.088662752 0)
(1.2181971 0.08636303 0)
(1.1822189 0.084084862 0)
(1.1465649 0.081831927 0)
(1.1112357 0.079607866 0)
(1.0762316 0.077416276 0)
(1.0415534 0.075260667 0)
(1.0072016 0.073144447 0)
(0.97317691 0.071070889 0)
(0.93948026 0.069043118 0)
(0.90611252 0.067064082 0)
(0.87307478 0.065136535 0)
(0.84036826 0.063263015 0)
(0.80799437 0.061445831 0)
(0.77595472 0.059687044 0)
(0.74425112 0.057988442 0)
(0.71288559 0.056351562 0)
(0.68186042 0.054777647 0)
(0.65117813 0.053267654 0)
(0.62084153 0.05182225 0)
(0.59085368 0.050441811 0)
(0.56121794 0.049126425 0)
(0.53193793 0.047875907 0)
(0.50301758 0.046689776 0)
(0.47446108 0.045567296 0)
(0.44627291 0.044507483 0)
(0.41845782 0.043509113 0)
(0.3910208 0.042570737 0)
(0.36396708 0.041690704 0)
(0.3373021 0.040867185 0)
(0.31103147 0.04009817 0)
(0.28516094 0.039381517 0)
(0.25969638 0.038714959 0)
(0.23464372 0.038096117 0)
(0.21000896 0.037522534 0)
(0.18579796 0.036991793 0)
(0.16201652 0.036501254 0)
(0.13867038 0.036048353 0)
(0.11576502 0.035630507 0)
(0.093305714 0.035245157 0)
(0.071297424 0.034889775 0)
(0.049744567 0.034561888 0)
(0.028651496 0.034259097 0)
(0.0080220986 0.033979058 0)
(-0.012140602 0.033719501 0)
(-0.031833783 0.033478202 0)
(-0.051055195 0.033253125 0)
(-0.069803342 0.033042275 0)
(-0.088077219 0.032843778 0)
(-0.10587646 0.032655947 0)
(-0.12320147 0.032477228 0)
(-0.14005338 0.032306088 0)
(-0.15643383 0.032140441 0)
(1.3647958 0.10577567 0)
(1.3275663 0.10318034 0)
(1.290659 0.10059665 0)
(1.2540727 0.098028795 0)
(1.2178075 0.095480903 0)
(1.1818648 0.092956994 0)
(1.1462452 0.090461162 0)
(1.1109494 0.087997452 0)
(1.075978 0.085569855 0)
(1.0413317 0.083182271 0)
(1.0070114 0.080838478 0)
(0.9730177 0.07854211 0)
(0.93935166 0.076296632 0)
(0.90601429 0.074105315 0)
(0.87300674 0.071971211 0)
(0.84033034 0.069897134 0)
(0.80798657 0.067885641 0)
(0.7759771 0.065939014 0)
(0.7443038 0.064059239 0)
(0.71296876 0.062248009 0)
(0.68197429 0.060506702 0)
(0.65132298 0.058836372 0)
(0.62101764 0.057237756 0)
(0.59106137 0.055711265 0)
(0.56145753 0.054256994 0)
(0.53220976 0.052874717 0)
(0.50332197 0.051563909 0)
(0.47479836 0.050323747 0)
(0.44664339 0.049153129 0)
(0.41886179 0.048050694 0)
(0.39145852 0.047014828 0)
(0.36443878 0.046043695 0)
(0.33780796 0.045135257 0)
(0.31157164 0.044287285 0)
(0.28573552 0.043497396 0)
(0.26030541 0.042763077 0)
(0.2352872 0.04208169 0)
(0.21068683 0.041450517 0)
(0.18651011 0.040866766 0)
(0.16276276 0.040327604 0)
(0.13945046 0.039830165 0)
(0.11657865 0.039371566 0)
(0.094152541 0.038948968 0)
(0.072177029 0.038559522 0)
(0.050656506 0.038200469 0)
(0.029595256 0.037869353 0)
(0.0089970864 0.037563353 0)
(-0.011135009 0.037279952 0)
(-0.030798244 0.037016747 0)
(-0.049990412 0.036771455 0)
(-0.068710078 0.036541883 0)
(-0.086956295 0.036325979 0)
(-0.10472878 0.036121883 0)
(-0.12202803 0.035927763 0)
(-0.1388554 0.035741628 0)
(1.3641517 0.11616176 0)
(1.3269691 0.11330781 0)
(1.2901069 0.1104666 0)
(1.253564 0.10764277 0)
(1.2173407 0.10484092 0)
(1.1814386 0.10206549 0)
(1.1458583 0.099321012 0)
(1.1106009 0.09661194 0)
(1.0756669 0.093942674 0)
(1.0410573 0.091317509 0)
(1.006773 0.088740608 0)
(0.97281482 0.086215974 0)
(0.93918392 0.08374742 0)
(0.9058814 0.081338547 0)
(0.87290853 0.078992715 0)
(0.84026671 0.076713022 0)
(0.80795751 0.074502279 0)
(0.77598268 0.072362997 0)
(0.74434415 0.070297362 0)
(0.71304408 0.068307232 0)
(0.68208484 0.066394121 0)
(0.65146903 0.064559189 0)
(0.62119952 0.062803241 0)
(0.59127941 0.061126727 0)
(0.5617121 0.059529749 0)
(0.53250121 0.058012052 0)
(0.50365067 0.056573056 0)
(0.47516466 0.055211853 0)
(0.44704762 0.053927227 0)
(0.41930426 0.052717676 0)
(0.3919395 0.05158142 0)
(0.36495852 0.050516435 0)
(0.33836665 0.049520475 0)
(0.31216942 0.048591085 0)
(0.28637248 0.04772564 0)
(0.2609816 0.046921371 0)
(0.23600259 0.046175376 0)
(0.21144133 0.045484669 0)
(0.18730357 0.044846112 0)
(0.16359496 0.044256642 0)
(0.14032111 0.043713107 0)
(0.11748739 0.043212312 0)
(0.095098948 0.042751119 0)
(0.073160609 0.042326354 0)
(0.051676788 0.041934954 0)
(0.030651642 0.041574444 0)
(0.010088849 0.041241455 0)
(-0.010008575 0.04093325 0)
(-0.029637889 0.040647292 0)
(-0.048796952 0.040380994 0)
(-0.067484374 0.040131957 0)
(-0.085699266 0.039897984 0)
(-0.10344147 0.039677021 0)
(-0.12071169 0.039466845 0)
(-0.13751118 0.039264794 0)
(1.3633888 0.12681799 0)
(1.3262593 0.12369967 0)
(1.2894483 0.12059518 0)
(1.2529547 0.1175096 0)
(1.2167791 0.114448 0)
(1.1809232 0.11141528 0)
(1.1453879 0.10841639 0)
(1.1101741 0.10545623 0)
(1.0752829 0.10253962 0)
(1.0407152 0.09967124 0)
(1.006472 0.096855665 0)
(0.97255453 0.09409727 0)
(0.93896382 0.091400228 0)
(0.90570117 0.088768478 0)
(0.87276796 0.086205696 0)
(0.8401657 0.08371527 0)
(0.80789605 0.081300275 0)
(0.77596084 0.078963455 0)
(0.74436207 0.076707203 0)
(0.71310197 0.074533548 0)
(0.68218295 0.072444145 0)
(0.65160767 0.07044026 0)
(0.62137903 0.068522775 0)
(0.59150016 0.06669218 0)
(0.56197445 0.064948584 0)
(0.53280556 0.063291708 0)
(0.50399739 0.061720918 0)
(0.47555412 0.060235219 0)
(0.44748016 0.058833283 0)
(0.4197802 0.057513463 0)
(0.39245912 0.056273816 0)
(0.36552205 0.055112127 0)
(0.33897429 0.054025939 0)
(0.3128213 0.053012568 0)
(0.28706868 0.052069146 0)
(0.26172213 0.051192642 0)
(0.23678738 0.050379882 0)
(0.21227026 0.049627599 0)
(0.18817643 0.048932359 0)
(0.1645115 0.048290814 0)
(0.14128098 0.04769951 0)
(0.11849016 0.047154975 0)
(0.0961441 0.046653756 0)
(0.074247555 0.046192399 0)
(0.052805028 0.045767543 0)
(0.031820472 0.045376373 0)
(0.011297383 0.045015268 0)
(-0.0087611015 0.044681251 0)
(-0.028352337 0.044371606 0)
(-0.047474273 0.044083443 0)
(-0.066125524 0.043814147 0)
(-0.084305272 0.043561375 0)
(-0.10201357 0.043322924 0)
(-0.11925144 0.043095743 0)
(1.3624858 0.13774905 0)
(1.3254164 0.13436065 0)
(1.2886632 0.13098715 0)
(1.2522256 0.12763407 0)
(1.2161041 0.12430697 0)
(1.1803006 0.12101119 0)
(1.1448162 0.11775215 0)
(1.1096522 0.11453517 0)
(1.0748095 0.11136551 0)
(1.0402895 0.10824829 0)
(1.0060933 0.10518845 0)
(0.97222208 0.10219078 0)
(0.93867718 0.099259803 0)
(0.90545998 0.096399819 0)
(0.87257199 0.093614822 0)
(0.84001483 0.090908498 0)
(0.80779025 0.088284195 0)
(0.77590017 0.085744897 0)
(0.74434668 0.083293208 0)
(0.71313207 0.080931335 0)
(0.68225881 0.078661078 0)
(0.6517296 0.076483816 0)
(0.62154738 0.074400508 0)
(0.59171531 0.07241169 0)
(0.56223679 0.070517479 0)
(0.53311547 0.068717576 0)
(0.50435527 0.067011291 0)
(0.47596033 0.065397546 0)
(0.44793505 0.063874898 0)
(0.42028408 0.062441559 0)
(0.39301228 0.061095419 0)
(0.36612469 0.059834072 0)
(0.33962659 0.058654848 0)
(0.31352337 0.057554834 0)
(0.28782056 0.056530912 0)
(0.26252378 0.055579787 0)
(0.23763872 0.054698012 0)
(0.21317109 0.053882027 0)
(0.18912649 0.053128122 0)
(0.16551046 0.052432634 0)
(0.14232842 0.05179181 0)
(0.11958558 0.051201888 0)
(0.097286914 0.050659119 0)
(0.075437092 0.050159796 0)
(0.054040603 0.049700279 0)
(0.033101267 0.049277143 0)
(0.012622474 0.048886758 0)
(-0.0073926056 0.048525881 0)
(-0.026941428 0.048191544 0)
(-0.046022034 0.047880581 0)
(-0.06463303 0.047590142 0)
(-0.08277363 0.047317812 0)
(-0.10044436 0.047061173 0)
(-0.11764615 0.046815749 0)
(1.3614205 0.14895942 0)
(1.3244186 0.1452953 0)
(1.2877306 0.14164711 0)
(1.251356 0.13802083 0)
(1.2152955 0.13442249 0)
(1.1795512 0.13085793 0)
(1.1441245 0.12733301 0)
(1.1090168 0.12385351 0)
(1.0742293 0.12042513 0)
(1.0397633 0.1170534 0)
(1.0056203 0.11374372 0)
(0.97180168 0.11050123 0)
(0.9383088 0.10733087 0)
(0.90514323 0.10423727 0)
(0.87230661 0.10122476 0)
(0.83980066 0.098297337 0)
(0.80762725 0.095458627 0)
(0.77578839 0.092711862 0)
(0.74428627 0.090059862 0)
(0.71312323 0.087505019 0)
(0.68230182 0.085049283 0)
(0.65182477 0.08269415 0)
(0.62169506 0.080440661 0)
(0.59191588 0.078289398 0)
(0.56249063 0.076240493 0)
(0.53342298 0.074293627 0)
(0.50471683 0.072448059 0)
(0.4763763 0.070702626 0)
(0.44840578 0.069055771 0)
(0.42080985 0.067505566 0)
(0.39359334 0.066049733 0)
(0.36676125 0.064685675 0)
(0.34031877 0.063410507 0)
(0.31427124 0.062221084 0)
(0.28862412 0.061114037 0)
(0.26338296 0.060085805 0)
(0.23855334 0.059132663 0)
(0.2141409 0.05825076 0)
(0.19015116 0.057436102 0)
(0.16658957 0.05668471 0)
(0.14346147 0.055992526 0)
(0.12077197 0.055355489 0)
(0.098525963 0.054769553 0)
(0.07672804 0.054230734 0)
(0.055382604 0.053735093 0)
(0.034493369 0.053278735 0)
(0.014063662 0.052857929 0)
(-0.0059033462 0.052469135 0)
(-0.025405236 0.05210902 0)
(-0.044440147 0.051774246 0)
(-0.0630066 0.051461725 0)
(-0.081103878 0.051168958 0)
(-0.098733386 0.050892898 0)
(1.3601688 0.16045335 0)
(1.3232426 0.15650794 0)
(1.2866278 0.15257945 0)
(1.2503239 0.14867433 0)
(1.2143321 0.1447991 0)
(1.1786545 0.14096007 0)
(1.1432928 0.13716358 0)
(1.1082486 0.13341588 0)
(1.0735233 0.12972312 0)
(1.0391185 0.12609128 0)
(1.0050357 0.12252616 0)
(0.97127647 0.11903334 0)
(0.93784245 0.11561811 0)
(0.90473531 0.1122855 0)
(0.87195681 0.10904017 0)
(0.83950881 0.10588642 0)
(0.80739328 0.10282818 0)
(0.77561235 0.099868916 0)
(0.74416828 0.097011688 0)
(0.71306349 0.094259073 0)
(0.68230058 0.091613177 0)
(0.65188235 0.089075617 0)
(0.62181181 0.08664752 0)
(0.59209215 0.084329521 0)
(0.56272681 0.082121767 0)
(0.53371946 0.080023924 0)
(0.50507396 0.078035199 0)
(0.47679443 0.076154347 0)
(0.44888521 0.0743797 0)
(0.42135086 0.072709188 0)
(0.39419614 0.071140365 0)
(0.36742599 0.069670444 0)
(0.34104554 0.068296324 0)
(0.31506006 0.067014627 0)
(0.28947491 0.06582173 0)
(0.26429557 0.064713805 0)
(0.23952755 0.063686845 0)
(0.21517635 0.062736705 0)
(0.19124744 0.061859105 0)
(0.16774617 0.06104975 0)
(0.14467777 0.06030427 0)
(0.12204728 0.0596183 0)
(0.09985948 0.058987487 0)
(0.078118891 0.058407544 0)
(0.056829784 0.057874236 0)
(0.035995815 0.057383283 0)
(0.015620253 0.056930808 0)
(-0.0042938448 0.056512931 0)
(-0.023744119 0.056125976 0)
(-0.042728757 0.055766373 0)
(-0.061246233 0.055430835 0)
(-0.079296042 0.055116348 0)
(-0.096879924 0.054819358 0)
(1.3587055 0.1722348 0)
(1.3218639 0.16800263 0)
(1.2853308 0.16378835 0)
(1.2491061 0.15959883 0)
(1.2131912 0.15544111 0)
(1.1775885 0.15132199 0)
(1.1422998 0.14724831 0)
(1.107327 0.14322679 0)
(1.0726717 0.13926404 0)
(1.0383357 0.1353665 0)
(1.0043207 0.13154039 0)
(0.97062849 0.12779172 0)
(0.93726083 0.12412618 0)
(0.90421956 0.12054917 0)
(0.87150659 0.11706569 0)
(0.83912391 0.11368038 0)
(0.80707363 0.11039745 0)
(0.77535794 0.10722065 0)
(0.74397922 0.10415324 0)
(0.71293997 0.10119801 0)
(0.68224284 0.098357228 0)
(0.65189069 0.095632634 0)
(0.62188655 0.093025447 0)
(0.59223365 0.090536357 0)
(0.56293543 0.088165531 0)
(0.53399554 0.085912621 0)
(0.50541784 0.083776787 0)
(0.47720643 0.081756703 0)
(0.4493656 0.079850592 0)
(0.42189986 0.078056241 0)
(0.39481391 0.07637104 0)
(0.36811263 0.074792009 0)
(0.34180107 0.073315832 0)
(0.31588442 0.071938895 0)
(0.29036796 0.070657324 0)
(0.26525708 0.069467018 0)
(0.24055717 0.068363687 0)
(0.21627367 0.067342894 0)
(0.19241191 0.066400064 0)
(0.16897717 0.065530585 0)
(0.14597458 0.064729776 0)
(0.12340906 0.063992958 0)
(0.10128532 0.063315467 0)
(0.079607778 0.062692693 0)
(0.058380566 0.062120098 0)
(0.037607287 0.061593115 0)
(0.017291146 0.061107575 0)
(-0.0025649102 0.060659307 0)
(-0.021958627 0.060244381 0)
(-0.040888244 0.059858964 0)
(-0.059352283 0.059499493 0)
(-0.077350432 0.059161986 0)
(1.3570038 0.18430742 0)
(1.3202563 0.17978316 0)
(1.2838142 0.1752777 0)
(1.247678 0.17079834 0)
(1.2118489 0.16635263 0)
(1.1763299 0.16194791 0)
(1.1411229 0.15759149 0)
(1.1062301 0.1532906 0)
(1.0716533 0.14905231 0)
(1.0373945 0.14488352 0)
(1.0034556 0.14079092 0)
(0.96983863 0.13678093 0)
(0.93654551 0.13285966 0)
(0.90357825 0.12903287 0)
(0.87093889 0.12530594 0)
(0.83862959 0.12168384 0)
(0.80665255 0.11817107 0)
(0.77501011 0.11477165 0)
(0.7437047 0.1114891 0)
(0.71273892 0.10832639 0)
(0.68211549 0.10528596 0)
(0.6518373 0.10236968 0)
(0.62190742 0.099578875 0)
(0.5923291 0.096914284 0)
(0.56310579 0.094376102 0)
(0.53424112 0.091963972 0)
(0.50573895 0.089677005 0)
(0.47760333 0.087513801 0)
(0.4498385 0.08547247 0)
(0.42244893 0.083550665 0)
(0.39543924 0.081745609 0)
(0.36881425 0.080054128 0)
(0.34257893 0.078472694 0)
(0.31673836 0.076997457 0)
(0.29129776 0.075624286 0)
(0.26626238 0.074348811 0)
(0.24163755 0.073166459 0)
(0.21742856 0.072072493 0)
(0.19364068 0.071062044 0)
(0.17027906 0.07013018 0)
(0.14734871 0.069271906 0)
(0.12485448 0.068482227 0)
(0.10280096 0.06775616 0)
(0.081192458 0.067088776 0)
(0.060032999 0.066475218 0)
(0.039326112 0.065910655 0)
(0.019074929 0.065390588 0)
(-0.00071772973 0.064910577 0)
(-0.02004968 0.064466391 0)
(-0.038919238 0.064054036 0)
(-0.057325232 0.063669501 0)
(-0.075266604 0.063308305 0)
(1.3550355 0.19667453 0)
(1.3183923 0.191853 0)
(1.2820514 0.18705111 0)
(1.2460133 0.1822766 0)
(1.2102799 0.17753754 0)
(1.1748541 0.1728418 0)
(1.1397383 0.16819721 0)
(1.1049347 0.16361148 0)
(1.0704456 0.15909219 0)
(1.0362731 0.1546467 0)
(1.0024194 0.15028217 0)
(0.96888662 0.14600544 0)
(0.93567694 0.14182305 0)
(0.90279252 0.13774115 0)
(0.87023558 0.1337655 0)
(0.8380084 0.12990139 0)
(0.80611332 0.12615364 0)
(0.77455279 0.12252656 0)
(0.74332934 0.11902388 0)
(0.71244564 0.11564881 0)
(0.68190448 0.11240395 0)
(0.65170879 0.10929131 0)
(0.62186168 0.10631232 0)
(0.59236641 0.10346777 0)
(0.56322642 0.1007579 0)
(0.53444535 0.098182337 0)
(0.50602701 0.095740151 0)
(0.47797542 0.093429867 0)
(0.45029478 0.091249491 0)
(0.42298948 0.089196536 0)
(0.39606409 0.087268061 0)
(0.36952333 0.085460704 0)
(0.34337208 0.083770722 0)
(0.31761534 0.082194028 0)
(0.29225821 0.080726238 0)
(0.26730585 0.079362709 0)
(0.24276347 0.078098583 0)
(0.21863626 0.076928825 0)
(0.19492935 0.075848266 0)
(0.1716478 0.074851654 0)
(0.14879652 0.07393368 0)
(0.12638023 0.073089025 0)
(0.10440341 0.072312386 0)
(0.082870279 0.071598514 0)
(0.06178473 0.070942237 0)
(0.041150221 0.070338444 0)
(0.020969804 0.069782308 0)
(0.001246178 0.069269118 0)
(-0.018018554 0.068794371 0)
(-0.036822848 0.068353836 0)
(-0.055165721 0.067943122 0)
(-0.073045 0.067559053 0)
(1.3527707 0.20933906 0)
(1.3162429 0.20421526 0)
(1.2800139 0.19911188 0)
(1.2440847 0.19403706 0)
(1.2084574 0.18899943 0)
(1.1731352 0.1840074 0)
(1.1381207 0.17906932 0)
(1.1034164 0.17419342 0)
(1.069025 0.16938777 0)
(1.0349486 0.16466023 0)
(1.0011899 0.1600184 0)
(0.96775101 0.1554696 0)
(0.9346344 0.15102078 0)
(0.90184241 0.14667851 0)
(0.86937741 0.1424489 0)
(0.83724183 0.13833761 0)
(0.80543816 0.13434978 0)
(0.77396893 0.13048998 0)
(0.7428368 0.12676222 0)
(0.71204449 0.12316991 0)
(0.68159486 0.11971583 0)
(0.6514909 0.11640214 0)
(0.62173572 0.11323037 0)
(0.59233261 0.11020139 0)
(0.56328501 0.10731545 0)
(0.53459653 0.1045722 0)
(0.50627096 0.10197065 0)
(0.47831226 0.099509268 0)
(0.45072458 0.09718595 0)
(0.42351223 0.094998077 0)