/*--------------------------------*- C++ -*----------------------------------*\
| =========                 |                                                 |
| \\      /  F ield         | OpenFOAM: The Open Source CFD Toolbox           |
|  \\    /   O peration     | Version:  2312                                  |
|   \\  /    A nd           | Website:  www.openfoam.com                      |
|    \\/     M anipulation  |                                                 |
\*---------------------------------------------------------------------------*/
FoamFile
{
    version     2.0;
    format      ascii;
    arch        "LSB;label=32;scalar=64";
    class       volScalarField;
    location    "0.1";
    object      alphat;
}
// * * * * * * * * * * * * * * * * * * * * * * * * * * * * * * * * * * * * * //

dimensions      [1 -1 -1 0 0 0 0];

internalField   nonuniform List<scalar> 
3221
(
0.028174655
0.02799454
0.027820635
0.027652735
0.027490578
0.027333873
0.027182309
0.027035559
0.02689329
0.026755164
0.026620845
0.026490002
0.026362322
0.026237513
0.026115307
0.025995467
0.02587778
0.025762074
0.025648216
0.025536103
0.02542567
0.025316889
0.025209762
0.025104322
0.025000626
0.024898759
0.024798819
0.024700925
0.024605179
0.024511645
0.024420691
0.024332326
0.02424669
0.024163918
0.024084139
0.024007472
0.02393403
0.023863913
0.023797212
0.023734004
0.023674359
0.023618333
0.023565974
0.02351732
0.0234724
0.023431236
0.023393842
0.023360227
0.023330397
0.023304351
0.023282086
0.023263594
0.02817395
0.027992489
0.027817154
0.027647734
0.027483969
0.027325571
0.027172239
0.027023655
0.026879488
0.026739405
0.026603076
0.026470182
0.026340418
0.026213503
0.026089178
0.025967219
0.025847433
0.025729661
0.025613774
0.025499681
0.025387327
0.025276687
0.025167775
0.02506063
0.024955317
0.024851925
0.024750561
0.024651345
0.024554338
0.024459743
0.024367792
0.024278543
0.024192133
0.024108698
0.024028363
0.023951246
0.023877454
0.023807084
0.023740221
0.023676939
0.0236173
0.023561356
0.023509149
0.023460709
0.023416062
0.023375222
0.0233382
0.023304999
0.023275621
0.023250061
0.023228314
0.023210366
0.028172674
0.027988519
0.02781032
0.027637874
0.027470931
0.027309214
0.027152425
0.027000255
0.026852385
0.026708496
0.026568275
0.02643142
0.026297645
0.026166688
0.026038312
0.025912311
0.025788512
0.025666781
0.025547015
0.025429151
0.025313159
0.025199038
0.025086808
0.024976511
0.024868227
0.024762054
0.024658106
0.024556513
0.024457275
0.024360811
0.024267124
0.024176356
0.024088644
0.024004115
0.023922892
0.023845084
0.023770791
0.023700099
0.023633084
0.023569808
0.023510322
0.023454666
0.023402871
0.023354956
0.023310933
0.023270808
0.02323458
0.023202242
0.023173785
0.023149198
0.023128464
0.023111561
0.028170821
0.027982755
0.027800383
0.027623522
0.027451941
0.027285379
0.027123555
0.026966173
0.026812935
0.026663543
0.026517705
0.026375146
0.026235608
0.026098856
0.025964685
0.02583292
0.02570342
0.025576083
0.025450841
0.025327661
0.025206543
0.025087517
0.02497064
0.024855993
0.024743647
0.024633699
0.024526274
0.024421409
0.024319418
0.024220413
0.024124501
0.024031821
0.023942505
0.023856674
0.023774439
0.023695897
0.023621134
0.023550222
0.023483218
0.023420169
0.023361108
0.023306059
0.023255032
0.023208032
0.023165054
0.023126087
0.023091115
0.023060116
0.023033068
0.023009946
0.022990724
0.022975365
0.02816841
0.027975258
0.027787458
0.02760485
0.027427229
0.027254361
0.027085991
0.02692185
0.026761667
0.026605172
0.026452108
0.026302231
0.026155322
0.026011184
0.025869654
0.025730599
0.025593922
0.02545956
0.025327488
0.025197712
0.025070269
0.024945222
0.02482266
0.02470269
0.024585435
0.024471012
0.024359417
0.024250947
0.024145729
0.024043873
0.023945519
0.023850798
0.023759833
0.023672731
0.023589586
0.023510478
0.023435471
0.023364615
0.023297945
0.023235486
0.023177245
0.023123223
0.02307341
0.023027785
0.022986324
0.022948995
0.022915762
0.022886587
0.022861431
0.022840253
0.022823012
0.022809659
0.02816545
0.027966066
0.027771617
0.027581972
0.027396961
0.027216386
0.027040025
0.02686765
0.026699025
0.026533923
0.026372128
0.026213443
0.026057696
0.025904742
0.025754467
0.025606791
0.025461669
0.025319091
0.025179078
0.025041684
0.024906987
0.02477509
0.024646115
0.024520198
0.02439748
0.024278001
0.024162112
0.024049807
0.023941219
0.02383649
0.023735753
0.023639127
0.023546715
0.023458606
0.02337487
0.023295561
0.023220714
0.023150351
0.023084479
0.02302309
0.022966164
0.022913674
0.022865579
0.022821836
0.022782393
0.022747195
0.022716185
0.022689305
0.022666497
0.022647703
0.022632867
0.022621928
0.028161945
0.027955188
0.027752883
0.027554936
0.027361216
0.027171569
0.026985823
0.026803796
0.026625306
0.026450178
0.026278252
0.02610939
0.025943478
0.025780434
0.025620206
0.025462777
0.025308163
0.025156412
0.025007603
0.024861839
0.024719246
0.024579966
0.024444156
0.02431199
0.024183461
0.024059043
0.023938726
0.023822648
0.023710869
0.023603522
0.023500724
0.023402574
0.02330915
0.023220511
0.023136695
0.023057721
0.02298359
0.022914287
0.022849783
0.022790034
0.022734987
0.02268458
0.022638744
0.022597403
0.02256048
0.022527893
0.022499563
0.022475411
0.022455358
0.022439331
0.022427258
0.022419065
0.028157887
0.027942608
0.027731237
0.027523723
0.027319986
0.027119928
0.026923436
0.026730392
0.026540678
0.026354187
0.02617083
0.025990541
0.025813278
0.025639034
0.025467831
0.025299724
0.025134799
0.02497317
0.024814976
0.024660376
0.024509542
0.024362654
0.024219867
0.024081344
0.023947409
0.023818135
0.02369367
0.023574145
0.02345962
0.023350163
0.023245866
0.023146795
0.023052994
0.022964482
0.022881255
0.022803289
0.022730542
0.022662958
0.022600463
0.022542975
0.022490403
0.022442647
0.022399606
0.022361172
0.022327239
0.022297702
0.022272456
0.022251402
0.022234443
0.022221489
0.022212456
0.022207256
0.028153263
0.027928285
0.027706616
0.027488257
0.027273191
0.02706139
0.026852816
0.026647427
0.026445189
0.02624608
0.026050094
0.025857253
0.025667604
0.025481224
0.025298222
0.025118734
0.024942923
0.024770973
0.024603087
0.024439479
0.024280369
0.024125854
0.023976348
0.023831986
0.023692919
0.023559306
0.023431276
0.023308935
0.023192354
0.023081522
0.022976494
0.022877292
0.022783911
0.022696321
0.022614468
0.022538275
0.022467651
0.022402491
0.022342676
0.022288079
0.02223857
0.02219401
0.022154264
0.022119193
0.022088665
0.022062547
0.022040715
0.022023048
0.022009436
0.021999773
0.021993964
0.021991911
0.028148048
0.027912152
0.027678914
0.027448402
0.027220678
0.026995799
0.02677382
0.026554796
0.026338793
0.026125889
0.025916184
0.025709801
0.025506889
0.025307627
0.025112215
0.024920882
0.02473387
0.024551436
0.024373842
0.02420136
0.024034087
0.02387259
0.023716904
0.023567238
0.023423759
0.0232866
0.02315586
0.023031603
0.02291386
0.022802578
0.022697754
0.022599352
0.022507308
0.022421528
0.022341899
0.022268289
0.02220055
0.022138524
0.022082043
0.022030938
0.021985034
0.021944158
0.02190814
0.021876815
0.021850021
0.021827605
0.021809424
0.021795342
0.021785232
0.02177898
0.02177648
0.02177763
0.028142212
0.02789412
0.027647988
0.027403971
0.027162228
0.026922924
0.026686227
0.02645231
0.026221358
0.025993573
0.025769175
0.025548406
0.025331535
0.025118846
0.024910648
0.024707261
0.024509015
0.024316229
0.024129132
0.023948173
0.023773639
0.023605733
0.023444666
0.023290615
0.023143713
0.023004053
0.022871682
0.022746603
0.022628783
0.02251813
0.022414568
0.022317992
0.022228264
0.022145223
0.022068689
0.021998466
0.02193435
0.021876126
0.021823581
0.021776498
0.021734666
0.021697877
0.021665929
0.021638633
0.021615804
0.021597272
0.021582877
0.021572472
0.02156592
0.021563099
0.021563898
0.021568212
0.028135714
0.027874072
0.027613653
0.027354721
0.027097561
0.026842467
0.026589745
0.026339711
0.026092694
0.025849038
0.025609104
0.025373273
0.025141938
0.024915509
0.024694397
0.02447902
0.024269818
0.024066914
0.023871151
0.023682588
0.023501543
0.023328257
0.023162919
0.023005664
0.022856571
0.022715667
0.022582925
0.022458271
0.022341589
0.022232741
0.022131568
0.022037882
0.021951464
0.021872079
0.021799476
0.021733396
0.021673572
0.021619742
0.021571642
0.021529017
0.021491619
0.021459211
0.021431567
0.021408473
0.021389731
0.021375156
0.021364577
0.021357838
0.0213548
0.021355334
0.02135933
0.021366682
0.028128504
0.027851868
0.027575686
0.027300366
0.027026341
0.026754071
0.026484026
0.026216693
0.02595257
0.025692167
0.025436005
0.025184615
0.024938535
0.024698301
0.024464426
0.024237346
0.024017617
0.023805771
0.023602115
0.02340697
0.023220611
0.023043243
0.022875
0.02271595
0.022566091
0.022425362
0.022293641
0.022170759
0.022056498
0.021950671
0.021853024
0.021763275
0.021681121
0.021606249
0.021538336
0.021477059
0.021422098
0.021373139
0.02132988
0.021292028
0.021259306
0.021231454
0.021208227
0.021189395
0.021174749
0.021164096
0.02115726
0.021154082
0.02115442
0.021158149
0.021165159
0.021175346
0.028120526
0.027827343
0.02753383
0.027240568
0.026948183
0.026657328
0.026368677
0.026082915
0.025800737
0.025522841
0.025249929
0.024982696
0.024721828
0.024468014
0.0242216
0.023983684
0.023754523
0.0235346
0.023324307
0.023123948
0.022933746
0.022753836
0.022584267
0.022425008
0.022275951
0.02213692
0.022007683
0.021887955
0.02177741
0.021675802
0.021582771
0.021497937
0.021420913
0.021351305
0.021288725
0.021232789
0.021183128
0.021139388
0.02110123
0.021068335
0.021040404
0.021017159
0.020998342
0.020983719
0.020973072
0.020966206
0.020962946
0.020963135
0.020966634
0.02097332
0.020983098
0.020995855
0.028111713
0.027800309
0.027487789
0.027174952
0.026862657
0.026551794
0.026243275
0.02593802
0.025636948
0.025340973
0.025050986
0.02476786
0.024492387
0.024225269
0.023967546
0.023719671
0.023482196
0.023255583
0.023040187
0.022836253
0.022643916
0.022463205
0.022294049
0.022136288
0.02198968
0.021853914
0.021728624
0.021613404
0.021507825
0.021411562
0.021324142
0.021245089
0.021173929
0.021110198
0.021053447
0.021003243
0.020959174
0.020920854
0.020887919
0.02086003
0.020836875
0.020818168
0.020803646
0.020793072
0.020786231
0.020782931
0.020783001
0.020786291
0.020792674
0.020802008
0.020814322
0.02082933
0.028101987
0.027770554
0.027437234
0.027103101
0.026769295
0.026436991
0.02610738
0.025781654
0.025460987
0.025146526
0.024839365
0.024540394
0.024250868
0.023971645
0.023703443
0.023446933
0.02320266
0.022971035
0.022752334
0.022546692
0.022354116
0.02217449
0.022007588
0.021853087
0.021710588
0.021579625
0.021459685
0.021350217
0.021250783
0.021160874
0.021079919
0.021007355
0.020942635
0.020885231
0.020834644
0.020790403
0.020752065
0.02071922
0.020691491
0.02066853
0.020650019
0.020635671
0.020625228
0.020618455
0.020615147
0.020615119
0.020618208
0.020624275
0.020633248
0.020644953
0.020659303
0.020676247
0.028091265
0.027737841
0.027381804
0.027024564
0.0266676
0.026312423
0.025960553
0.025613485
0.025272677
0.024939553
0.024615066
0.024301129
0.023998478
0.023708107
0.023430841
0.023167336
0.022918081
0.022683389
0.022463402
0.0222581
0.022067313
0.021890738
0.02172796
0.02157847
0.021441688
0.021316981
0.021203685
0.021101132
0.021008834
0.020926111
0.020852297
0.020786751
0.020728865
0.020678062
0.020633806
0.020595598
0.020562979
0.020535528
0.020512861
0.020494633
0.020480529
0.020470271
0.020463607
0.020460316
0.020460205
0.020463105
0.020468857
0.020477435
0.020488529
0.020502178
0.020518291
0.020536808
0.028079452
0.02770191
0.027321107
0.026938859
0.02655705
0.026177589
0.025802366
0.025433222
0.025071888
0.024719826
0.024379097
0.02405079
0.023736105
0.023436061
0.023151465
0.022882904
0.02263075
0.022395156
0.022176076
0.021973278
0.02178637
0.021614824
0.021458005
0.021315195
0.021185621
0.021068474
0.020962929
0.020868332
0.020783972
0.020709065
0.020642867
0.020584674
0.02053383
0.020489726
0.020451803
0.020419549
0.0203925
0.020370235
0.020352379
0.020338592
0.020328575
0.020322062
0.020318818
0.020318636
0.020321339
0.020326849
0.020334901
0.020345427
0.020358346
0.020373592
0.020391106
0.020410839
0.028066442
0.027662478
0.027254722
0.026845477
0.026437109
0.026031985
0.02563242
0.025240506
0.024858392
0.024488297
0.024131735
0.023790215
0.023464997
0.023157083
0.022867197
0.02259579
0.022343041
0.02210888
0.021893006
0.021694926
0.021513979
0.02134938
0.021200248
0.021065644
0.020944597
0.020836134
0.020739321
0.020653453
0.020577614
0.020510941
0.020452627
0.020401926
0.020358152
0.020320679
0.020288941
0.020262428
0.020240682
0.020223295
0.020209906
0.020200194
0.02019388
0.020190718
0.020190494
0.020193015
0.020198249
0.020205805
0.020215725
0.020227902
0.020242258
0.020258737
0.020277295
0.020297899
0.028052121
0.02761924
0.027182199
0.026743886
0.02630723
0.025875125
0.025450145
0.025035194
0.024632819
0.024245024
0.023873711
0.023520473
0.023186566
0.022872904
0.02258005
0.022308232
0.022057362
0.021827069
0.021616741
0.021425567
0.021252583
0.021096717
0.020956833
0.020831763
0.020720341
0.020621427
0.020534187
0.020457579
0.020390616
0.020332376
0.020282014
0.02023876
0.020201917
0.020170861
0.020145032
0.020123935
0.020107131
0.020094233
0.020084904
0.020078848
0.020075809
0.020075572
0.020078
0.020082858
0.020089976
0.020099286
0.020110704
0.020124155
0.020139581
0.020156941
0.020176205
0.020197355
0.028036364
0.027571867
0.027103063
0.026633535
0.026166865
0.02570626
0.025255467
0.024817543
0.024395099
0.023990549
0.023605916
0.023242804
0.022902384
0.022585388
0.022292124
0.022022505
0.021776089
0.021552133
0.021349652
0.021167475
0.021004305
0.020858772
0.020729477
0.020615033
0.020514091
0.020425553
0.020348325
0.020281256
0.020223294
0.020173481
0.020130954
0.020094939
0.020064748
0.020039772
0.020019473
0.020003382
0.019991088
0.019982236
0.019976518
0.019973667
0.019973453
0.019975833
0.019980354
0.019987028
0.019995743
0.020006407
0.020018951
0.020033319
0.020049472
0.020067383
0.02008704
0.020108437
0.028019036
0.027520006
0.027016815
0.026513858
0.026015136
0.025525355
0.025048303
0.02458735
0.024145573
0.023725566
0.0233294
0.022958604
0.022614154
0.022296492
0.022005562
0.021740859
0.021501502
0.021286307
0.021093863
0.020922606
0.020770893
0.020637051
0.020519432
0.020416441
0.020326691
0.02024898
0.020181988
0.020124513
0.020075473
0.020033898
0.019998929
0.019969811
0.019945877
0.01992655
0.019911326
0.019899772
0.019891515
0.019886235
0.019883659
0.019883559
0.019885888
0.019890159
0.019896422
0.019904563
0.019914493
0.019926144
0.019939464
0.019954417
0.019970982
0.019989147
0.020008913
0.020030288
0.027999993
0.027463285
0.02692293
0.026383907
0.025852021
0.025332045
0.024828305
0.024344745
0.023884712
0.023450911
0.023045364
0.022669401
0.022323679
0.022008221
0.021722487
0.021465453
0.021235715
0.021031584
0.020851185
0.020692547
0.020553675
0.020432608
0.02032747
0.02023654
0.020158467
0.020091731
0.020034961
0.01998693
0.019946552
0.019912873
0.019885059
0.019862386
0.019844232
0.019830059
0.019819408
0.01981189
0.019807174
0.01980498
0.019805129
0.019807426
0.019811539
0.019817453
0.019825069
0.019834304
0.019845095
0.019857396
0.019871176
0.019886416
0.01990311
0.019921264
0.019940889
0.019962008
0.027979085
0.027401308
0.026820478
0.026243677
0.025676947
0.025125826
0.024595381
0.024089961
0.023613119
0.023167562
0.022755134
0.022376822
0.022032813
0.021722571
0.021444944
0.02119829
0.020980606
0.020789652
0.020623069
0.020478474
0.020353534
0.02024603
0.020153895
0.020075545
0.020009231
0.019953385
0.019906614
0.0198677
0.019835579
0.019809332
0.019788173
0.019771426
0.019758519
0.019748968
0.019742366
0.019738371
0.019736701
0.019737219
0.019739608
0.019743644
0.019749295
0.01975646
0.019765065
0.019775054
0.019786387
0.019799039
0.019812998
0.019828263
0.019844841
0.019862753
0.019882022
0.019902688
0.027956174
0.027333275
0.026709498
0.026092473
0.025489266
0.024906393
0.024349519
0.023823344
0.02333152
0.02287662
0.022460141
0.022082557
0.021743416
0.021441469
0.021174831
0.020941149
0.020737761
0.020561849
0.020410565
0.02028113
0.020170909
0.020077454
0.019998843
0.019933088
0.01987838
0.019833134
0.019795972
0.019765707
0.019741326
0.019721966
0.019706899
0.019695513
0.019687296
0.019681824
0.019678746
0.019677773
0.019678815
0.019681443
0.01968553
0.019691028
0.019697845
0.019705912
0.019715182
0.019725621
0.019737215
0.019749956
0.019763855
0.019778918
0.019795171
0.019812651
0.019831375
0.019851444
0.027930841
0.02725935
0.026589279
0.025929539
0.02528848
0.024673486
0.024090789
0.023545342
0.023040755
0.022579285
0.022161883
0.02178831
0.02145729
0.021166711
0.020913838
0.020695527
0.020508423
0.020349121
0.020214303
0.020100831
0.020005807
0.019926879
0.019861778
0.019808411
0.01976496
0.019729863
0.019701787
0.019679606
0.019662374
0.019649302
0.019639734
0.019633129
0.019629043
0.019627117
0.019627058
0.019628813
0.019631866
0.019636166
0.019641657
0.019648258
0.019655908
0.01966457
0.019674219
0.019684848
0.019696462
0.01970907
0.019722708
0.019737382
0.019753132
0.019770038
0.019788038
0.019807377
0.027903084
0.027178853
0.026459018
0.025754232
0.025074101
0.024426892
0.023819334
0.023256498
0.022741757
0.022276828
0.021861883
0.021495746
0.021176128
0.020899903
0.020663387
0.020462594
0.020293459
0.020152011
0.020034498
0.019937473
0.019858073
0.019793668
0.019741823
0.019700443
0.019667744
0.019642222
0.019622619
0.019607892
0.019597179
0.019589776
0.019585109
0.019582715
0.019582223
0.019583336
0.019586034
0.019589743
0.019594454
0.019600123
0.019606675
0.019614063
0.019622259
0.01963125
0.01964104
0.019651636
0.019663073
0.019675352
0.019688583
0.019702714
0.019717788
0.019734007
0.019751182
0.019769556
0.027872714
0.027091123
0.026318036
0.025565897
0.024845655
0.024166442
0.02353537
0.022957435
0.022435528
0.021970555
0.021561642
0.021206436
0.020901445
0.020642399
0.020424586
0.020243155
0.020093343
0.019970653
0.01987096
0.019790778
0.019727025
0.019676848
0.019637813
0.019607868
0.019585303
0.019568703
0.019556908
0.019548975
0.019544141
0.019541796
0.019541452
0.019542727
0.019545323
0.019549242
0.01955388
0.019559247
0.019565316
0.019572026
0.019579343
0.019587249
0.019595747
0.019604846
0.01961458
0.019624955
0.019636076
0.019647892
0.019660497
0.019674024
0.019688311
0.019703599
0.01971992
0.019737455
0.027839442
0.026995613
0.026165616
0.025363854
0.024602673
0.023892004
0.02323917
0.022648837
0.022123111
0.021661765
0.021262585
0.020921798
0.02063453
0.020395255
0.020198195
0.020037632
0.019908152
0.019804794
0.019723305
0.019660035
0.01961161
0.019575179
0.019548363
0.019529197
0.019516077
0.019507704
0.019503035
0.019501239
0.019501662
0.019503791
0.019507229
0.019511674
0.019517143
0.019523038
0.01952935
0.019536088
0.019543206
0.019550681
0.019558513
0.019566712
0.019575316
0.019584335
0.019593875
0.019603883
0.019614492
0.019625803
0.019637668
0.01965032
0.019663839
0.019678353
0.019693799
0.019710319
0.027802989
0.0268917
0.026000984
0.025147386
0.024344676
0.023603467
0.022931049
0.022331427
0.021805552
0.021351702
0.02096601
0.020643042
0.020376387
0.020159191
0.019984594
0.019846058
0.019737581
0.019653955
0.019590811
0.019544127
0.019510528
0.019487225
0.019471941
0.019462838
0.019458445
0.019457598
0.019459384
0.019463096
0.01946819
0.019474254
0.019480982
0.019488391
0.019495931
0.019503531
0.019511256
0.019519076
0.019526985
0.019534994
0.019543141
0.019551446
0.019560014
0.019568798
0.019577967
0.019587598
0.019597548
0.019608064
0.01961926
0.019631226
0.019643925
0.019657492
0.019671978
0.019687476
0.027763059
0.026778695
0.025823293
0.024915724
0.024071172
0.023300737
0.022611347
0.022005936
0.021483858
0.021041504
0.020673028
0.020371114
0.020127695
0.019934556
0.019783786
0.019668092
0.019581063
0.019517417
0.019472311
0.019441708
0.019422302
0.019411422
0.019406935
0.019407158
0.019410778
0.019416779
0.019424387
0.019433021
0.019442254
0.019451772
0.019461582
0.019471224
0.019480517
0.0194896
0.019498468
0.019507132
0.019515627
0.019523981
0.019532294
0.019540542
0.019548907
0.019557479
0.019566098
0.019575046
0.019584446
0.019594389
0.019604845
0.019615949
0.01962776
0.019640376
0.019653876
0.019668347
0.027719319
0.026655828
0.025631609
0.024668035
0.023781634
0.022983713
0.022280406
0.021673065
0.021158954
0.020732145
0.020384503
0.020106646
0.019888774
0.01972132
0.019595396
0.019503075
0.019437896
0.019393971
0.019366418
0.019351269
0.019345346
0.019346144
0.019351709
0.019360539
0.01937149
0.019383708
0.01939656
0.019409591
0.019422495
0.019435244
0.019447528
0.019458989
0.019469872
0.019480184
0.019489981
0.019499297
0.019508225
0.019516755
0.019525065
0.019533305
0.019541265
0.019549304
0.019557507
0.019566025
0.0195748
0.019583984
0.019593645
0.019603885
0.019614791
0.019626455
0.019638967
0.019652417
0.027671395
0.026522233
0.025424889
0.024403399
0.023475487
0.022652274
0.02193854
0.021333451
0.020831624
0.020424377
0.020101004
0.019849916
0.019659559
0.019519069
0.019418677
0.019350332
0.019306831
0.019282195
0.019271597
0.019271204
0.019278026
0.019289759
0.019304659
0.019321419
0.01933908
0.019356948
0.019374534
0.0193915
0.019407825
0.019423374
0.019437573
0.019450767
0.019463012
0.019474344
0.019484911
0.019494713
0.019503903
0.019512674
0.019520753
0.019528661
0.019536349
0.019544138
0.019551877
0.019559759
0.019567857
0.019576285
0.019585139
0.01959452
0.019604524
0.019615247
0.019626784
0.01963923
0.02761886
0.026376923
0.025201957
0.02412079
0.023152095
0.022306256
0.021586004
0.020987613
0.020502453
0.020118668
0.019822744
0.019600809
0.019439591
0.019327027
0.019252965
0.019208564
0.019186403
0.01918052
0.019186221
0.019199873
0.019218715
0.019240682
0.019264255
0.019288337
0.019312155
0.019335183
0.019357074
0.019377648
0.019397225
0.019414795
0.019430939
0.019445646
0.019459086
0.01947125
0.019482385
0.019492803
0.019501994
0.019510687
0.019518625
0.019526512
0.019533959
0.019541254
0.019548462
0.019555719
0.019563131
0.019570812
0.019578867
0.019587403
0.019596523
0.019606327
0.019616915
0.019628384
0.027561221
0.026218765
0.024961476
0.023819059
0.022810734
0.021945425
0.021222953
0.020635896
0.020171759
0.019815134
0.019549534
0.019358798
0.019228021
0.019144378
0.019096887
0.01907625
0.019075004
0.019087297
0.019108639
0.019135653
0.019165846
0.019197413
0.019229075
0.019259952
0.019289459
0.019317238
0.019343083
0.019367324
0.019389164
0.01940887
0.019426808
0.019442847
0.01945725
0.019470338
0.019481759
0.019492554
0.019501773
0.019510651
0.019518672
0.01952622
0.019533322
0.019540149
0.019546819
0.019553463
0.019560201
0.019567152
0.01957443
0.019582147
0.019590411
0.019599327
0.019608998
0.019619525
0.027497899
0.026046443
0.024701915
0.023496901
0.022450577
0.021569448
0.020849389
0.020278397
0.019839516
0.019513472
0.01928074
0.019122923
0.019023837
0.018969733
0.01894885
0.018951725
0.018970946
0.019000857
0.019037234
0.019076997
0.019117952
0.019158574
0.019197834
0.01923507
0.019269883
0.019302087
0.019331928
0.019359017
0.019383162
0.019404856
0.019424357
0.019441779
0.01945697
0.019470609
0.019482571
0.019493594
0.019503324
0.019512115
0.019520031
0.019527299
0.019534043
0.019540419
0.019546565
0.019552617
0.019558705
0.019564954
0.019571486
0.019578416
0.01958586
0.019593927
0.019602721
0.019612348
0.027428212
0.025858416
0.024421509
0.023152838
0.022070669
0.021177851
0.020465095
0.019914887
0.019505266
0.019212897
0.019015245
0.0188919
0.018825596
0.01880137
0.018807093
0.018833237
0.01887253
0.018919574
0.018970467
0.019022466
0.019073697
0.019122932
0.019169398
0.019212651
0.019252472
0.019289064
0.019322456
0.01935212
0.01937849
0.019402039
0.019423212
0.019441474
0.019457647
0.019471818
0.019484666
0.019495938
0.019505823
0.019514579
0.019522365
0.019529379
0.01953578
0.019541729
0.019547377
0.019552866
0.019558337
0.019563919
0.019569742
0.019575926
0.019582591
0.019589851
0.019597812
0.019606584
0.027351339
0.025652864
0.024118219
0.022785188
0.021669896
0.020769968
0.020069551
0.019544702
0.019168026
0.018912065
0.018751392
0.01866417
0.018631374
0.018637372
0.018669761
0.018719026
0.018778104
0.018841917
0.01890693
0.018970768
0.019031903
0.019089416
0.019142798
0.019191823
0.019236483
0.019277526
0.019313694
0.019346055
0.019374828
0.019399885
0.019422372
0.019441711
0.019459065
0.019474175
0.019487418
0.019498946
0.019508966
0.019517711
0.019525378
0.019532164
0.019538249
0.019543803
0.019548985
0.019553949
0.01955884
0.019563796
0.019568951
0.019574431
0.019580362
0.027266286
0.025427631
0.023789683
0.022392036
0.021246948
0.020344859
0.019661821
0.01916662
0.018826185
0.018609023
0.018487435
0.018437486
0.018438989
0.018475697
0.018534978
0.018607386
0.018686126
0.018766495
0.018845371
0.01892078
0.018991562
0.019057127
0.019117231
0.019171853
0.019221684
0.019266108
0.019305418
0.019340564
0.019371117
0.019398073
0.019421712
0.019442774
0.019461031
0.019476833
0.01949052
0.019502328
0.019512494
0.019521254
0.019528826
0.019535417
0.019541219
0.019546413
0.019551169
0.019555647
0.01956
0.019564374
0.019568905
0.019573728
0.019578968
0.027171831
0.025180138
0.023433168
0.021971204
0.020800264
0.019901212
0.019240401
0.018778708
0.018477383
0.018301388
0.018220598
0.018209235
0.018246078
0.018314262
0.01840093
0.018496738
0.018595215
0.018692098
0.018784728
0.01887157
0.01895185
0.019025339
0.019092062
0.019152356
0.019206963
0.019254913
0.019297181
0.019334631
0.01936734
0.019396367
0.019421799
0.019443949
0.019463096
0.019479583
0.019493745
0.019505863
0.0195162
0.019525006
0.019532515
0.019538946
0.019544503
0.019549377
0.019553747
0.019557782
0.019561642
0.019565477
0.019569432
0.019573643
0.019578242
0.02706646
0.024907299
0.023045506
0.021520206
0.02032795
0.019437191
0.018803028
0.018378139
0.01811845
0.017985853
0.01794762
0.017976521
0.018050188
0.018151039
0.018265943
0.018385688
0.0185042
0.018617729
0.018724148
0.018822402
0.018912125
0.018993497
0.019066713
0.019133104
0.019191903
0.019242936
0.019288733
0.019328393
0.019363911
0.019394844
0.019421732
0.019445019
0.019465073
0.019482259
0.019496926
0.019509387
0.019519926
0.019528812
0.019536294
0.019542602
0.019547953
0.019552548
0.019556575
0.01956021
0.01956362
0.019566963
0.019570387
0.019574034
0.019578039
0.026948268
0.024605395
0.022623038
0.021036199
0.01982766
0.01895022
0.018346415
0.017960949
0.017745387
0.017658224
0.017664753
0.017736246
0.017848885
0.017984157
0.01812857
0.018273091
0.01841215
0.018542621
0.01866299
0.018772745
0.018872001
0.018960939
0.019041314
0.019113427
0.019175783
0.019230819
0.019279434
0.019322599
0.019360281
0.019393026
0.019421386
0.019445846
0.019466832
0.019484741
0.019499945
0.019512781
0.019523556
0.019532557
0.019540047
0.01954627
0.019551455
0.019555811
0.019559536
0.019562814
0.019565819
0.019568713
0.019571652
0.019574781
0.01957824
0.026814841
0.024269939
0.02216153
0.020515887
0.019296399
0.018436686
0.017865929
0.017522064
0.017352727
0.017313515
0.017367817
0.017485236
0.017639878
0.017812009
0.017987664
0.018158095
0.018318408
0.01846625
0.018600832
0.018722242
0.0188309
0.018927894
0.019015701
0.019092106
0.019159017
0.019218212
0.019270592
0.019316388
0.019356262
0.019390831
0.019420683
0.019446346
0.01946829
0.01948695
0.01950272
0.019515962
0.019527007
0.019536156
0.01954369
0.019549865
0.019554921
0.019559077
0.01956254
0.019565502
0.019568143
0.019570633
0.01957313
0.019575786
0.019578746
0.026663067
0.023895489
0.021656085
0.019955383
0.018730219
0.017891513
0.017355137
0.01705443
0.016933753
0.016945969
0.017052304
0.017220392
0.017421165
0.017633367
0.017842451
0.018040184
0.018222605
0.018388341
0.018537378
0.018670548
0.01878927
0.018894111
0.018988539
0.019069973
0.019142135
0.019205666
0.019261252
0.019309716
0.019351809
0.019388221
0.019419585
0.019446475
0.019469404
0.019488838
0.019505201
0.019518879
0.019530222
0.019539552
0.019547162
0.019553323
0.019558285
0.019562279
0.019565518
0.019568203
0.019570521
0.019572646
0.019574744
0.019576971
0.019579474
0.026488885
0.023475424
0.021101021
0.01934995
0.018123751
0.017307562
0.016811845
0.016561108
0.01649394
0.016560567
0.0167206
0.01694052
0.017191193
0.017447501
0.017692594
0.017919196
0.018124661
0.018308708
0.0184726
0.01861809
0.018745878
0.018859955
0.018960174
0.019048008
0.019125164
0.019192606
0.019251433
0.019302592
0.019346926
0.019385195
0.019418089
0.019446225
0.019470157
0.019490387
0.019507365
0.019521503
0.01953317
0.019542707
0.019550423
0.0195566
0.019561501
0.019565366
0.019568417
0.019570861
0.019572892
0.019574692
0.019576432
0.019578269
0.019580358
0.026286893
0.023001649
0.020489684
0.01869356
0.017469454
0.016688076
0.016243045
0.016048979
0.016039644
0.016163185
0.016378176
0.016650509
0.016950991
0.017254296
0.017538237
0.017795337
0.018024574
0.01822767
0.018406968
0.018563797
0.018702197
0.01882464
0.018932153
0.019025886
0.019107747
0.01917911
0.019241195
0.019295063
0.019341648
0.019381784
0.019416216
0.019445608
0.019470557
0.019491596
0.019509207
0.019523822
0.019535835
0.019545603
0.019553449
0.01955967
0.019564538
0.019568304
0.019571199
0.019573435
0.019575215
0.019576725
0.019578142
0.019579629
0.019581343
0.026049742
0.022464222
0.019814161
0.017978095
0.016772876
0.016040881
0.015656411
0.015525181
0.01557729
0.015759612
0.016030287
0.016355071
0.016704864
0.017054258
0.017380019
0.017668906
0.017923064
0.018145808
0.018339475
0.018509462
0.018657445
0.018789929
0.018904032
0.019003443
0.019090011
0.019165291
0.019230632
0.019287206
0.01933604
0.019378039
0.019414007
0.019444658
0.019470627
0.019492482
0.019510734
0.019525841
0.019538215
0.01954823
0.019556227
0.019562515
0.019567376
0.01957107
0.019573836
0.019575895
0.019577454
0.019578708
0.019579837
0.019581009
0.019582385
0.025767162
0.021850865
0.019064776
0.01720663
0.01604203
0.015374554
0.015059986
0.014996874
0.015113147
0.015355379
0.015681863
0.016058607
0.016456812
0.016851255
0.017218778
0.017541141
0.017820938
0.018062214
0.018272393
0.018453883
0.018614225
0.018754999
0.018875819
0.018980867
0.019072116
0.019151286
0.019219858
0.019279118
0.019330181
0.019374027
0.019411518
0.019443417
0.0194704