/*--------------------------------*- C++ -*----------------------------------*\
| =========                 |                                                 |
| \\      /  F ield         | OpenFOAM: The Open Source CFD Toolbox           |
|  \\    /   O peration     | Version:  2312                                  |
|   \\  /    A nd           | Website:  www.openfoam.com                      |
|    \\/     M anipulation  |                                                 |
\*---------------------------------------------------------------------------*/
FoamFile
{
    version     2.0;
    format      ascii;
    arch        "LSB;label=32;scalar=64";
    class       volScalarField;
    location    "0.1";
    object      f_Bilger;
}
// * * * * * * * * * * * * * * * * * * * * * * * * * * * * * * * * * * * * * //

dimensions      [0 0 0 0 0 0 0];

internalField   nonuniform List<scalar> 
3221
(
0.00024262478
0.000752355
0.0012868507
0.0018458108
0.0024288288
0.0030353998
0.0036649258
0.0043167228
0.0049900241
0.0056839845
0.0063976859
0.0071301463
0.0078803263
0.008647136
0.0094294425
0.010226078
0.01103585
0.011857542
0.012689916
0.013531721
0.014381698
0.015238588
0.016101136
0.016968095
0.017838229
0.01871032
0.019583167
0.020455592
0.021326443
0.022194592
0.023058942
0.023918423
0.024771999
0.025618668
0.026457462
0.027287449
0.028107735
0.028917459
0.029715801
0.030501976
0.031275237
0.032034874
0.032780214
0.033510622
0.034225496
0.034924271
0.035606416
0.036271434
0.036918859
0.037548261
0.038159235
0.038751275
0.00024554716
0.00076143797
0.0013024032
0.0018681279
0.0024581886
0.0030720609
0.0037091245
0.0043686678
0.0050498957
0.0057519377
0.0064738541
0.0072146409
0.0079732373
0.0087485327
0.009539374
0.01034457
0.011162897
0.011993108
0.012833945
0.01368414
0.014542417
0.0154075
0.016278118
0.017153006
0.018030913
0.018910605
0.019790866
0.020670505
0.021548354
0.022423277
0.023294161
0.024159927
0.025019531
0.025871961
0.026716244
0.02755144
0.02837665
0.029191009
0.029993694
0.030783917
0.031560931
0.032324025
0.033072527
0.033805802
0.034523252
0.035224312
0.035908454
0.03657518
0.037224024
0.037854549
0.038466359
0.03905903
0.00025123611
0.00077911434
0.0013326519
0.0019115039
0.0025152124
0.0031432143
0.0037948472
0.0044693563
0.0051659012
0.0058835642
0.0066213572
0.0073782284
0.0081530695
0.0089447226
0.0097519874
0.010573627
0.011408376
0.012254946
0.013112036
0.013978336
0.014852533
0.015733313
0.016619369
0.017509402
0.018402131
0.019296288
0.02019063
0.021083937
0.02197502
0.022862714
0.023745888
0.024623443
0.025494318
0.026357486
0.027211961
0.028056793
0.028891073
0.029713932
0.030524539
0.031322107
0.032105887
0.03287517
0.033629288
0.034367609
0.035089541
0.035794529
0.036482051
0.037151621
0.037802781
0.03843511
0.039048232
0.039641759
0.00025956533
0.00080499646
0.0013769393
0.0019749979
0.002598661
0.0032473075
0.0039202139
0.0046165611
0.0053354425
0.0060758716
0.00683679
0.0076170753
0.0084155485
0.0092309817
0.010062105
0.010907616
0.011766182
0.012636454
0.013517066
0.01440665
0.015303833
0.016207244
0.017115525
0.018027324
0.018941311
0.019856175
0.020770627
0.021683412
0.0225933
0.023499094
0.024399631
0.025293787
0.026180477
0.027058656
0.027927317
0.0287855
0.029632286
0.030466797
0.031288201
0.032095709
0.032888576
0.033666097
0.034427612
0.0351725
0.035900183
0.03661012
0.037301805
0.03797477
0.03862858
0.039262836
0.039877189
0.040471284
0.00027045095
0.00083882791
0.0014348308
0.0020579919
0.0027077245
0.0033833288
0.0040839987
0.0048088292
0.0055568246
0.0063269074
0.0071179267
0.0079286665
0.0087578545
0.0096041699
0.010466252
0.011342707
0.012232116
0.013133043
0.014044042
0.01496366
0.015890448
0.016822961
0.017759766
0.018699447
0.019640607
0.020581875
0.021521908
0.022459398
0.023393065
0.02432167
0.025244014
0.02615894
0.027065334
0.027962126
0.028848294
0.029722862
0.0305849
0.031433529
0.032267915
0.033087273
0.033890866
0.034678001
0.035448034
0.036200363
0.036934429
0.037649716
0.038345746
0.039022079
0.03967831
0.040314073
0.040929054
0.041522942
0.00028384576
0.00088046736
0.0015060903
0.0021601526
0.0028419697
0.0035507395
0.0042855496
0.0050453853
0.0058291382
0.0066356158
0.0074635505
0.008311609
0.0091784015
0.010062491
0.0109624
0.011876624
0.012803631
0.013741877
0.014689811
0.015645877
0.016608528
0.017576224
0.018547444
0.019520684
0.020494468
0.021467353
0.022437925
0.023404808
0.024366669
0.025322217
0.02627021
0.027209454
0.028138802
0.029057161
0.029963491
0.030856802
0.031736162
0.032600689
0.033449557
0.034281991
0.035097271
0.035894726
0.036673736
0.037433728
0.038174176
0.038894599
0.039594558
0.040273652
0.04093152
0.041567839
0.04218234
0.042774767
0.00029973606
0.0009298786
0.0015906621
0.002281407
0.003001306
0.0037494293
0.0045247325
0.0053260651
0.0061521798
0.0070017428
0.0078733437
0.0087655058
0.0096766959
0.010605334
0.011549804
0.012508459
0.013479634
0.014461652
0.015452831
0.016451492
0.017455967
0.018464602
0.019475766
0.020487853
0.021499293
0.022508551
0.02351413
0.024514581
0.025508505
0.026494557
0.027471445
0.028437935
0.02939285
0.030335074
0.03126355
0.032177285
0.033075346
0.033956859
0.034821016
0.035667062
0.036494305
0.037302109
0.038089889
0.038857117
0.039603313
0.040328044
0.041030923
0.041711603
0.042369778
0.043005182
0.043617605
0.044206853
0.00031813891
0.00098712229
0.0016886574
0.0024219221
0.0031859595
0.0039796844
0.0048018919
0.0056512668
0.0065263937
0.0074257685
0.0083478089
0.0092908659
0.010253234
0.011233163
0.012228866
0.013238531
0.014260329
0.015292425
0.016332982
0.017380171
0.018432181
0.019487222
0.020543534
0.021599393
0.022653113
0.023703054
0.02474763
0.025785308
0.026814619
0.027834154
0.028842574
0.029838605
0.030821042
0.031788752
0.032740672
0.033675809
0.034593243
0.035492122
0.036371664
0.037231154
0.038069942
0.038887439
0.039683116
0.040456504
0.041207183
0.041934786
0.042638994
0.043319529
0.043976154
0.044608674
0.045216951
0.045800867
0.00033910011
0.0010523498
0.0018003443
0.0025820912
0.003396455
0.0042421643
0.0051178222
0.0060219164
0.0069528311
0.007908859
0.0088882132
0.0098890397
0.010909429
0.011947426
0.013001045
0.014068275
0.015147096
0.016235481
0.017331411
0.018432884
0.019537919
0.020644568
0.021750921
0.022855113
0.023955328
0.025049815
0.026136883
0.027214913
0.028282357
0.029337747
0.030379696
0.031406897
0.032418123
0.033412235
0.034388173
0.035344962
0.036281709
0.037197601
0.038091901
0.03896395
0.039813158
0.040639007
0.041441041
0.042218865
0.042972144
0.043700592
0.044403974
0.045082098
0.045734814
0.046362011
0.046963635
0.04753966
0.0003626926
0.0011257987
0.0019261398
0.0027625234
0.0036336025
0.0045378856
0.0054737482
0.0064394449
0.0074331226
0.0084528336
0.0094965491
0.010562173
0.011647553
0.012750497
0.01386878
0.015000159
0.016142386
0.017293213
0.018450408
0.019611762
0.020775102
0.021938296
0.023099258
0.024255967
0.025406468
0.026548883
0.027681411
0.028802341
0.029910051
0.031003015
0.032079807
0.033139094
0.034179645
0.035200326
0.036200101
0.037178032
0.038133273
0.03906507
0.039972757
0.040855752
0.041713551
0.042545725
0.043351914
0.044131823
0.044885217
0.045611913
0.04631178
0.046984727
0.047630707
0.04824971
0.048841779
0.04940699
0.00038901544
0.0012077897
0.002066606
0.0029640375
0.0038984898
0.0048682127
0.0058713144
0.0069057749
0.0079694617
0.0090601443
0.010175509
0.011313175
0.012470706
0.013645626
0.014835433
0.016037612
0.017249646
0.018469029
0.019693284
0.020919963
0.022146667
0.023371052
0.024590844
0.025803847
0.027007954
0.02820115
0.029381524
0.030547274
0.031696709
0.032828258
0.033940465
0.035031993
0.036101622
0.037148249
0.038170885
0.039168654
0.040140784
0.04108661
0.042005561
0.042897161
0.043761016
0.044596815
0.045404319
0.046183353
0.046933807
0.047655621
0.048348786
0.049013332
0.04964933
0.050256883
0.050836148
0.051387313
0.00041819317
0.0012987254
0.0022224472
0.0031876598
0.0041924798
0.0052348551
0.0063125806
0.007423315
0.0085645978
0.0097338665
0.010928473
0.012145701
0.01338278
0.014636905
0.015905246
0.017184967
0.018473241
0.019767266
0.021064274
0.02236154
0.023656413
0.024946317
0.026228765
0.027501373
0.02876187
0.030008107
0.031238061
0.032449849
0.033641727
0.034812091
0.035959484
0.037082585
0.038180214
0.039251329
0.040295019
0.041310503
0.042297117
0.043254314
0.044181655
0.045078797
0.04594549
0.046781566
0.047586933
0.048361565
0.049105496
0.049818811
0.050501642
0.051154158
0.051776562
0.052369086
0.05293201
0.053465643
0.00045037565
0.0013990899
0.0023945109
0.0034346244
0.0045172119
0.0056398691
0.0068000253
0.007994963
0.0092218378
0.010477698
0.011759502
0.013064141
0.014388452
0.015729241
0.017083296
0.01844741
0.019818395
0.021193097
0.022568413
0.023941316
0.025308867
0.026668233
0.028016696
0.029351676
0.030670734
0.031971589
0.033252122
0.034510383
0.035744598
0.036953161
0.038134639
0.039287764
0.040411435
0.041504706
0.042566786
0.043597026
0.04459491
0.045560049
0.046492167
0.047391093
0.04825675
0.049089145
0.049888361
0.050654543
0.051387895
0.052088667
0.05275715
0.053393666
0.053998565
0.05457222
0.055115043
0.055627474
0.00048573815
0.0015094499
0.0025837897
0.0037063785
0.0048746088
0.0060856666
0.0073365547
0.0086241158
0.0099450556
0.011295965
0.012673343
0.014073617
0.015493165
0.016928335
0.018375474
0.019830936
0.021291107
0.022752434
0.024211442
0.025664756
0.027109122
0.028541423
0.029958705
0.031358181
0.032737256
0.034093529
0.035424807
0.036729103
0.038004644
0.039249862
0.040463392
0.041644062
0.042790895
0.043903092
0.044980025
0.046021225
0.047026367
0.047995262
0.048927838
0.04982413
0.050684271
0.051508471
0.052297016
0.053050247
0.05376856
0.054452386
0.055102194
0.055718472
0.056301727
0.056852485
0.057371296
0.057858736
0.00052448197
0.0016304575
0.0027914266
0.0040045894
0.0052668869
0.0065750284
0.0079255189
0.0093146867
0.01073871
0.012193643
0.013675442
0.015179992
0.016703131
0.018240675
0.019788443
0.021342278
0.022898085
0.024451856
0.02599969
0.027537827
0.02906267
0.030570809
0.03205904
0.033524385
0.034964104
0.036375707
0.03775696
0.039105883
0.040420754
0.041700091
0.042942649
0.044147412
0.045313581
0.04644056
0.04752794
0.048575481
0.049583099
0.050550849
0.051478904
0.052367545
0.053217143
0.054028147
0.054801068
0.055536468
0.056234951
0.056897151
0.057523722
0.058115332
0.058672657
0.059196375
0.059687183
0.060145795
0.00056683534
0.0017628534
0.0030187225
0.0043311562
0.0056965719
0.0071111236
0.0085707345
0.01007113
0.011607868
0.013176371
0.014771959
0.016389879
0.018025332
0.019673502
0.021329594
0.022988869
0.024646677
0.026298491
0.027939938
0.029566839
0.031175232
0.032761406
0.034321918
0.035853618
0.037353658
0.038819499
0.04024892
0.041640007
0.042991148
0.044301012
0.045568545
0.046792951
0.047973676
0.04911039
0.050202962
0.051251439
0.052256027
0.053217071
0.054135033
0.055010473
0.055844037
0.056636436
0.057388431
0.058100824
0.058774446
0.059410141
0.060008765
0.06057117
0.061098202
0.061590701
0.062049509
0.062475481
0.00061305478
0.0019074725
0.0032671455
0.0046882249
0.0061665195
0.0076975351
0.0092765136
0.010898471
0.012558238
0.014250489
0.015969799
0.017710656
0.019467503
0.021234792
0.023007022
0.024778778
0.026544775
0.028299907
0.030039284
0.031758279
0.033452558
0.035118115
0.036751296
0.038348817
0.039907773
0.041425644
0.042900289
0.044329938
0.045713165
0.04704887
0.048336269
0.049574866
0.050764428
0.051904956
0.052996662
0.054039939
0.055035334
0.055983528
0.056885311
0.057741558
0.058553217
0.059321285
0.060046795
0.060730803
0.061374378
0.061978586
0.062544484
0.063073115
0.063565501
0.06402264
0.06444552
0.064835127
0.00066342684
0.0020652502
0.0035383438
0.0050782074
0.0066799407
0.0083382913
0.0100477
0.01180235
0.013596207
0.015423076
0.017276631
0.019150461
0.021038134
0.022933248
0.024829477
0.02672063
0.028600712
0.030463976
0.032304979
0.034118629
0.035900229
0.037645507
0.039350644
0.041012286
0.042627549
0.044194015
0.04570972
0.047173126
0.048583086
0.049938831
0.051239937
0.052486294
0.053678069
0.05481567
0.055899716
0.056931002
0.057910468
0.058839176
0.059718276
0.060548991
0.061332595
0.062070389
0.062763694
0.063413831
0.064022111
0.064589825
0.065118239
0.065608583
0.066062053
0.0664798
0.066862951
0.067212618
0.00071827035
0.002237231
0.0038341615
0.0055038052
0.0072404338
0.0090379045
0.010889715
0.012789063
0.0147289
0.016701975
0.018700902
0.020718225
0.022746479
0.024778261
0.026806297
0.028823519
0.030823141
0.032798725
0.034744249
0.036654164
0.038523439
0.040347593
0.042122716
0.043845477
0.045513116
0.047123428
0.048674737
0.050165846
0.051596004
0.052964878
0.054272509
0.055519262
0.056705788
0.057832976
0.058901917
0.059913863
0.060870194
0.061772386
0.062621988
0.063420592
0.064169815
0.064871278
0.065526596
0.066137359
0.066705123
0.067231405
0.067717677
0.068165353
0.068575788
0.068950282
0.069290091
0.069596446
0.00077793915
0.0024245784
0.0041566571
0.0059680377
0.0078520217
0.0098014169
0.011808611
0.01386563
0.015964202
0.018095833
0.020251893
0.022423683
0.024602529
0.026779866
0.028947341
0.031096902
0.0332209
0.035312169
0.03736411
0.039370748
0.041326781
0.043227608
0.045069337
0.046848784
0.048563445
0.050211468
0.05179159
0.053303086
0.054745734
0.056119756
0.05742576
0.058664685
0.059837749
0.060946392
0.061992237
0.062977044
0.063902671
0.064771046
0.065584134
0.066343916
0.067052362
0.067711424
0.068323005
0.068888968
0.069411112
0.069891177
0.070330824
0.070731641
0.071095137
0.071422747
0.071715846
0.071975769
0.00084282531
0.0026285873
0.0045081265
0.0064742766
0.008519197
0.010634462
0.012811132
0.015039827
0.017310827
0.019614171
0.021939742
0.02427738
0.026616995
0.028948693
0.031262895
0.03355047
0.035802848
0.038012128
0.04017116
0.042273615
0.044314023
0.046287792
0.048191197
0.050021358
0.051776194
0.053454356
0.055055146
0.056578473
0.058024777
0.059394956
0.060690298
0.06191241
0.063063152
0.064144585
0.065158917
0.066108457
0.066995575
0.067822671
0.068592145
0.069306373
0.069967686
0.070578354
0.071140578
0.071656485
0.072128106
0.072557384
0.072946162
0.073296188
0.07360911
0.073886485
0.07412979
0.074340449
0.00091336311
0.0028506981
0.0048911299
0.0070262854
0.0092469842
0.011543323
0.013904766
0.016320271
0.018778397
0.021267422
0.02377547
0.026290664
0.028801275
0.031295886
0.033763563
0.036194006
0.038577698
0.040906024
0.043171364
0.045367151
0.047487898
0.049529196
0.051487677
0.053360961
0.055147576
0.056846852
0.058458845
0.059984253
0.061424323
0.062780758
0.064055627
0.065251294
0.066370336
0.067415492
0.068389596
0.06929554
0.070136228
0.070914547
0.071633335
0.072295364
0.072903317
0.073459783
0.073967252
0.07442809
0.074844548
0.075218754
0.075552717
0.075848328
0.076107358
0.076331466
0.076522216
0.076681101
0.00099003356
0.0030925142
0.0053085237
0.0076282776
0.01004099
0.012534985
0.015097837
0.017716513
0.020377502
0.023066985
0.02577101
0.028475686
0.031167398
0.033833021
0.036460135
0.039037217
0.041553815
0.044000679
0.046369846
0.048654687
0.050849906
0.052951502
0.054956698
0.056863841
0.058672275
0.06038222
0.061994681
0.063511313
0.064934312
0.066266304
0.067510243
0.068669324
0.069746907
0.07074645
0.071671449
0.072525399
0.073311747
0.074033869
0.074695036
0.075298405
0.075847008
0.076343739
0.076791342
0.077192411
0.077549392
0.077864582
0.078140133
0.078378058
0.07858023
0.078748391
0.078884173
0.078989113
0.0010733698
0.0033558218
0.0057635078
0.0082849586
0.010907464
0.013617244
0.016399605
0.01923911
0.022119773
0.025025278
0.027939218
0.030845368
0.033727964
0.036571989
0.039363436
0.042089551
0.044739018
0.04730209
0.049770665
0.052138294
0.054400138
0.056552882
0.058594614
0.060524655
0.062343408
0.064052224
0.065653243
0.067149246
0.068543517
0.069839714
0.071041761
0.072153756
0.073179884
0.074124356
0.074991348
0.075784963
0.076509192
0.077167884
0.077764734
0.078303275
0.078786861
0.079218657
0.079601643
0.079938615
0.080232189
0.080484805
0.08069873
0.080876083
0.081018812
0.081128718
0.081207497
0.081256658
0.0011639632
0.0036426227
0.0062596566
0.0090015813
0.011853404
0.014798809
0.01782036
0.020899732
0.024017968
0.02715578
0.030293886
0.033413369
0.036496051
0.03952486
0.042484154
0.045359998
0.048140358
0.05081522
0.053376621
0.055818605
0.058137124
0.06032988
0.062396118
0.064336422
0.066152537
0.067847167
0.069423786
0.070886455
0.07223967
0.073488219
0.074637071
0.075691271
0.076655863
0.077535825
0.078336016
0.07906114
0.079715708
0.080304033
0.080830218
0.081298133
0.081711419
0.082073487
0.082387522
0.082656493
0.082883153
0.083070061
0.083219553
0.083333859
0.083414963
0.083464684
0.083484848
0.083476647
0.0012624785
0.00395515
0.0068009633
0.0097840452
0.012886652
0.016089403
0.019371544
0.022711264
0.026086046
0.029473085
0.032849741
0.036194029
0.039485108
0.042703732
0.045832644
0.048856871
0.051763905
0.054543784
0.057189056
0.059694656
0.062057718
0.064277317
0.066354199
0.068290545
0.07008971
0.071755979
0.073294338
0.074710274
0.076009603
0.077198324
0.078282495
0.079268144
0.080161182
0.080967353
0.081692185
0.08234095
0.08291867
0.083430096
0.083879686
0.084271614
0.084609772
0.084897781
0.085138993
0.085336523
0.085493211
0.08561174
0.0856944
0.085743622
0.085761347
0.085749258
0.08571014
0.085643174
0.0013696466
0.0042958983
0.0073919243
0.010638987
0.014016015
0.017499904
0.021065881
0.024687925
0.028339261
0.031992932
0.035622418
0.039202288
0.042708817
0.046120549
0.049418725
0.052587588
0.055614524
0.058490051
0.061207697
0.063763759
0.066156988
0.068388243
0.070460165
0.072376854
0.074143546
0.075766316
0.07725183
0.078607123
0.079839415
0.080955967
0.081963961
0.082870409
0.083682085
0.084405475
0.085046733
0.085611688
0.086105832
0.086534295
0.08690185
0.087212931
0.087471636
0.087681762
0.087846773
0.087969925
0.088054033
0.088102057
0.088115808
0.088098395
0.088051931
0.087976527
0.087876925
0.087752311
0.0014862846
0.0046676768
0.0080376095
0.011573887
0.015251392
0.019042493
0.022917529
0.026845397
0.030794243
0.03473224
0.038628434
0.042453584
0.046180941
0.049786898
0.053251448
0.056558447
0.059695665
0.062654661
0.065430503
0.068021383
0.070428161
0.072653949
0.074703679
0.076583689
0.078301342
0.079864702
0.081282252
0.082562668
0.083714634
0.084746699
0.085667169
0.086484028
0.08720488
0.0878369
0.088386846
0.088861055
0.089265418
0.089605396
0.089886025
0.090111955
0.090287425
0.090416395
0.090502316
0.090548731
0.090557973
0.090533738
0.090477988
0.090391968
0.09028042
0.090142937
0.089981603
0.089796496
0.0016133108
0.0050736562
0.0087437481
0.012597195
0.016603945
0.020730832
0.024942249
0.029200965
0.033469086
0.037709124
0.041885122
0.045963728
0.049915135
0.053713796
0.057338872
0.060774394
0.064009167
0.067036462
0.069853541
0.07246108
0.074862619
0.077064003
0.079072838
0.080898
0.082549209
0.084036677
0.085370813
0.086561996
0.087620398
0.088555852
0.089377763
0.090095049
0.090716076
0.091248676
0.091700149
0.092077254
0.092386225
0.092632801
0.092822209
0.092959286
0.093048285
0.093093451
0.093097777
0.093065662
0.092999148
0.09290041
0.092774449
0.092621355
0.092442976
0.092240333
0.092016645
0.091772504
0.0017517566
0.0055174239
0.0095168384
0.013718492
0.018086286
0.022580273
0.027157603
0.031773666
0.03638343
0.040942894
0.045410555
0.049748751
0.05392474
0.057911448
0.061687819
0.06523881
0.068555068
0.071632366
0.07447088
0.077074464
0.079449926
0.081606312
0.083554268
0.085305479
0.086872217
0.088266962
0.089502117
0.090589789
0.091541625
0.092368707
0.093081487
0.093689737
0.09420254
0.094628318
0.094974795
0.095249092
0.095457709
0.095606625
0.095701131
0.095746328
0.095746076
0.095705544
0.095627059
0.095513745
0.09537111
0.095199628
0.095001176
0.094777635
0.094532256
0.094266007
0.09398071
0.093677528
0.0019027851
0.0060030552
0.010364278
0.014948678
0.019712709
0.024608098
0.029583166
0.03458445
0.03955854
0.044454039
0.049223435
0.053824715
0.058222555
0.062389002
0.066303638
0.069953299
0.073331435
0.076437206
0.079274546
0.081851217
0.084177874
0.086267213
0.088133248
0.08979071
0.091254561
0.092539631
0.093660338
0.094630496
0.095463185
0.09617066
0.096764319
0.097254739
0.097651637
0.097963905
0.098199571
0.098366069
0.098470046
0.098517775
0.098514247
0.098465448
0.098374441
0.098245015
0.098083653
0.097891071
0.0976696
0.097421651
0.09715085
0.096858567
0.096546856
0.09621712
0.095870805
0.095509102
0.0020677118
0.006535199
0.011294527
0.016300196
0.021499463
0.026833799
0.032240778
0.037656351
0.043017375
0.048264189
0.053342953
0.05820751
0.062820586
0.067154293
0.071189966
0.074917488
0.078334192
0.081443665
0.084254512
0.086779126
0.089032563
0.091031583
0.092793853
0.094337322
0.095679734
0.096838288
0.097829394
0.098668509
0.099370061
0.099947355
0.10041263
0.10077722
0.1010513
0.10124418
0.10136397
0.10141846
0.10141415
0.10135818
0.10125487
0.10110833
0.10092663
0.10071036
0.10046308
0.10018712
0.099887048
0.099564558
0.099222051
0.098861252
0.098483856
0.098091254
0.097684713
0.097265329
0.0022480319
0.0071191834
0.012317299
0.017787318
0.023465081
0.029279412
0.035154817
0.041014669
0.046784645
0.052396046
0.057788626
0.062912613
0.06772978
0.072213581
0.076348503
0.080128808
0.083556999
0.086642234
0.089398703
0.091844131
0.093998497
0.095882975
0.097519107
0.098928165
0.1001307
0.10114625
0.10199312
0.10268832
0.1032475
0.10368485
0.1040133
0.10424495
0.10439014
0.10445869
0.10445824
0.10439756
0.1042828
0.10411887
0.10391593
0.1036736
0.10339807
0.10309041
0.10275714
0.10240006
0.10202211
0.10162538
0.10121188
0.10078328
0.10034109
0.099886576
0.09942085
0.098944883
0.0024454517
0.0077611467
0.01344381
0.019426481
0.025630776
0.031969903
0.038352516
0.044687159
0.050886855
0.056873292
0.062580091
0.067954827
0.07295974
0.077571281
0.081778736
0.085582329
0.088991185
0.092021193
0.094693028
0.097030414
0.099058704
0.10080377
0.10229115
0.10354549
0.10459009
0.10544671
0.10613546
0.10667468
0.10708114
0.10736978
0.10755381
0.10764644
0.10765741
0.10759792
0.10747487
0.10729345
0.10706844
0.10679821
0.1064929
0.10614975
0.10577932
0.10538306
0.10496475
0.10452686
0.10407183
0.10360167
0.10311817
0.10262286
0.10211704
0.10160183
0.1010782
0.10054698
0.0026619281
0.0084682
0.014687081
0.02123671
0.028020921
0.034933623
0.041864315
0.048704224
0.055352328
0.061720461
0.067736876
0.073347989
0.078518428
0.083229658
0.087477726
0.091270654
0.094625681
0.0975666
0.10012143
0.1023205
0.10419488
0.10577532
0.10709142
0.10817112
0.10904036
0.10972294
0.11024058
0.11061271
0.11085719
0.11098957
0.11102221
0.11097086
0.11084481
0.11065147
0.11040582
0.11010391
0.10976647
0.10938532
0.108974
0.10853378
0.10806991
0.10758525
0.1070828
0.10656501
0.106034
0.10549163
0.10493944
0.10437877
0.10381074
0.10323631
0.10265628
0.10207131
0.0028997179
0.0092486319
0.016062314
0.023240142
0.030663633
0.038202848
0.045724257
0.053099121
0.060211212
0.066962785
0.073278133
0.079104665
0.084411833
0.089188552
0.09343995
0.097183797
0.10044697
0.10326232
0.10566599
0.10769537
0.10938754
0.11077816
0.11190083
0.11278666
0.11346401
0.11395841
0.1142931
0.11448804
0.11456249
0.11453183
0.11440913
0.11420756
0.11394241
0.11361675
0.11324296
0.11282092
0.1123639
0.11187496
0.11136016
0.1108227
0.11026646
0.10969435
0.10910901
0.10851263
0.10790711
0.10729404
0.10667475
0.10605036
0.10542179
0.10478981
0.10415507
0.10351805
0.0031614379
0.010112168
0.017587379
0.025462678
0.033591481
0.041814407
0.049970432
0.05790817
0.065495467
0.072626001
0.07922235
0.085235797
0.090643627
0.095445148
0.099657119
0.10330908
0.10643908
0.10909005
0.11130697
0.11313463
0.11461619
0.11579217
0.11669998
0.11737365
0.11784373
0.11813694
0.11827827
0.11828692
0.11818552
0.1179868
0.11770186
0.11735316
0.11694349
0.11648389
0.11597615
0.11543325
0.11486129
0.11426448
0.11364748
0.11301373
0.11236648
0.11170839
0.11104177
0.11036851
0.10969024
0.10900828
0.10832374
0.10763749
0.10695025
0.10626259
0.10557499
0.10488774
0.0034501415
0.011070302
0.019283423
0.027934804
0.036842363
0.045810436
0.05464549
0.063170981
0.071238831
0.078736144
0.085587027
0.091750318
0.097214865
0.10199373
0.106118
0.10963104
0.11258353
0.11502943
0.117023
0.11861665
0.11985954
0.12079677
0.12146932
0.12191378
0.1221627
0.12224275
0.12218217
0.12199838
0.12171192
0.12134454
0.12089837
0.12039699
0.11983849
0.11923872
0.11860342
0.11794011
0.11725447
0.11655085
0.1158332
0.11510475
0.11436826
0.11362607
0.11288011
0.11213199
0.11138302
0.11063425
0.10988652
0.10914049
0.10839663
0.0037694152
0.012136727
0.021175665
0.03069263
0.040460573
0.050239271
0.05979722
0.068930694
0.077476782
0.085319304
0.092388272
0.098654777
0.10412367
0.1088254
0.11280825
0.1161314
0.11885944
0.1210581
0.12279121
0.12411876
0.12509568
0.12577116
0.12618938
0.12638899
0.12640295
0.12626364
0.12599193
0.12560752
0.12513958
0.12459488
0.12398761
0.1233234
0.12261945
0.12188317
0.12112065
0.12033803
0.11954036
0.11873167
0.11791537
0.11709428
0.11627074
0.11544668
0.11462368
0.11380299
0.11298561
0.11217232
0.11136368
0.1105601
0.10976184
0.0041235012
0.01332789
0.023294425
0.033779214
0.044498128
0.055156517
0.065479228
0.075234274
0.084246509
0.092401324
0.099640423
0.10595299
0.11136487
0.11592788
0.11971027
0.12278895
0.12524351
0.12715184
0.12858739
0.12961747
0.13030235
0.13069451
0.13084101
0.13078185
0.13055254
0.13018071
0.12969552
0.12911263
0.12845502
0.1277286
0.12695053
0.12613232
0.12528395
0.1244127
0.1235244
0.12262431
0.12171677
0.1208053
0.11989278
0.11898154
0.11807349
0.11717012
0.11627262
0.11538191
0.11449865
0.11362331
0.11275618
0.11189743
0.11104707
0.0045174563
0.01466374
0.025676466
0.037246251
0.049016425
0.060626345
0.071751767
0.082132871
0.091586886
0.10000753
0.10735571
0.11364561
0.11892966
0.12328514
0.12680306
0.12957963
0.13171012
0.13328475
0.13438622
0.13508863
0.13545721
0.13554617
0.13540683
0.13507644
0.13459202
0.13399287
0.13328125
0.13249864
0.13164035
0.13073417
0.1297906
0.12881905
0.12782795
0.12682387
0.12581207
0.12479698
0.12378225
0.12277078
0.12176487
0.12076635
0.11977664
0.1187968
0.11782762
0.11686963
0.11592318
0.11498841
0.11406536
0.11315391
0.11225388
0.0049573569
0.016168712
0.028366787
0.041156273
0.054088309
0.066723103
0.078682769
0.089682331
0.099538496
0.10816251
0.11554383
0.12172965
0.12680514
0.13087723
0.13406211
0.13647647
0.13823152
0.13942941
0.14016147
0.1405077
0.14053626
0.14031023
0.13986638
0.13925483
0.13851902
0.13767571
0.13674562
0.13574313
0.13469358
0.13361008
0.13250264
0.13137968
0.13024832
0.12911423
0.12798186
0.12685486
0.1257361
0.12462782
0.12353173
0.12244911
0.12138087
0.12032763
0.11928976
0.11826742
0.11726061
0.11626917
0.11529285
0.11433128
0.11338404
0.0054505701
0.01787308
0.031421025
0.0455855
0.05980071
0.073533355
0.086349234
0.097943888
0.10814381
0.11688988
0.12421144
0.13019794
0.13497388
0.1386799
0.14145928
0.14344968
0.1447779
0.14555719
0.14588634
0.14584982
0.14552274
0.14496076
0.14420314
0.14331537
0.1423143
0.14122179
0.14005828
0.13884942
0.13760987
0.13635128
0.13508264
0.13381119
0.13254283
0.13128217
0.1300328
0.12879746
0.12757827
0.12637675
0.125194
0.12403072
0.12288732
0.12176394
0.12066054
0.11957691
0.11851269
0.11746743
0.11644058
0.11543151
0.11443958
0.0060061133
0.019814823
0.034908709
0.050627608
0.066258049
0.081158569
0.094839174
0.1069853
0.1174476
0.1262121
0.13336165
0.13903842
0.14341339
0.14666435
0.14896274
0.15046677
0.15131771
0.15163848
0.15153457
0.15109449
0.15038628
0.14948421
0.14841464
0.14723527
0.14595697
0.14461212
0.1432248
0.14181126
0.14038429
0.13895386
0.13752761
0.13611148
0.13471009
0.13332694
0.13196461
0.13062497
0.12930932
0.12801846
0.12675283
0.12551257
0.12429754
0.12310745
0.12194181
0.12080005
0.11968146
0.11858528
0.11751068
0.11645679
0.11542272
0.0066351429
0.022042249
0.038917764
0.05639876
0.073586756
0.089718818
0.10425271
0.11687907
0.12749341
0.13614671
0.14299127
0.14823292
0.15209548
0.15479694
0.15653698
0.15749273
0.15781792
0.15764487
0.15708051
0.15621092
0.15512576
0.15386163
0.15247705
0.15098822
0.14943636
0.14784748
0.14623864
0.14462358
0.14301298
0.14141497
0.1398356
0.13827936
0.13674955
0.13524849
0.13377774
0.13233822
0.13093039
0.12955434
0.12820984
0.12689644
0.12561349
0.12436022
0.12313573
0.12193907
0.12076919
0.11962504
0.1185055
0.11740947
0.11633582
0.0073516281
0.024617789
0.043560793
0.06304445
0.081941471
0.099354051
0.11469839
0.1276966
0.13831764
0.14670143
0.15308704
0.15775454
0.16098529
0.16303891
0.16414288
0.1644903
0.16424726
0.16354497
0.16249192
0.161197
0.1597023
0.1580864
0.15635695
0.15456897
0.15275056
0.1509209
0.14909449
0.14728247
0.1454932
0.14373279
0.14200557
0.14031447
0.13866142
0.13704752
0.13547324
0.13393858
0.13244314
0.13098626
0.12956706
0.1281845
0.12683742
0.12552459
0.12424469
0.12299641
0.12177837
0.1205892
0.11942754
0.11829204
0.11718136
0.00817331
0.027623568
0.048984035
0.070749114
0.091508619
0.11022095
0.12628818
0.13950349
0.14994556
0.15787081
0.16362297
0.16756548
0.17003993
0.1713463
0.17173794
0.1714244
0.17056786
0.16930414
0.16776648
0.1660049
0.16411748
0.16211312
0.16005397
0.15797327
0.15589232
0.15382686
0.15178837
0.1497852
0.14782324
0.14590648
0.14403738
0.14221726
0.14044663
0.13872533
0.13705276
0.13542794
0.13384964
0.13231646
0.13082686
0.12937923
0.12797189
0.12660316
0.12527133
0.12397471
0.12271162
0.1214804
0.12027942
0.1191071
0.11796191
0.0091231132
0.031169843
0.055380387
0.079745198
0.10250694
0.12249014
0.13913278
0.15235421
0.16238686
0.16963314
0.17455843
0.1776162
0.17920787
0.17966968
0.17928176
0.17824963
0.17674127
0.17491986
0.17284676
0.17064169
0.16831654
0.16594416
0.16356178
0.16119336
0.15885587
0.15656121
0.15431751
0.15213015
0.15000244
0.14793612
0.14593172
0.14398891
0.14210675
0.14028383
0.13851844
0.13680864
0.1351524
0.13354755
0.13199193
0.13048336
0.12901967
0.12759872
0.12621843
0.12487677
0.12357173
0.12230139
0.12106386
0.11985735
0.11868011
0.010231329
0.035408088
0.063006444
0.090322049
0.11518889
0.13634172
0.15333464
0.16628572
0.17563082
0.1819474
0.18583674