/*--------------------------------*- C++ -*----------------------------------*\
| =========                 |                                                 |
| \\      /  F ield         | OpenFOAM: The Open Source CFD Toolbox           |
|  \\    /   O peration     | Version:  2312                                  |
|   \\  /    A nd           | Website:  www.openfoam.com                      |
|    \\/     M anipulation  |                                                 |
\*---------------------------------------------------------------------------*/
FoamFile
{
    version     2.0;
    format      ascii;
    arch        "LSB;label=32;scalar=64";
    class       volScalarField;
    location    "0.1";
    object      O2;
}
// * * * * * * * * * * * * * * * * * * * * * * * * * * * * * * * * * * * * * //

dimensions      [0 0 0 0 0 0 0];

internalField   nonuniform List<scalar> 
3221
(
0.22984253
0.22951166
0.22916464
0.22880159
0.22842273
0.2280283
0.22761862
0.22719407
0.22675507
0.22630208
0.22583564
0.2253563
0.22486467
0.22436138
0.2238471
0.22332253
0.22278838
0.22224538
0.22169429
0.22113588
0.22057092
0.2200002
0.21942451
0.21884463
0.21826136
0.21767547
0.21708773
0.21649893
0.21590982
0.21532113
0.2147336
0.21414796
0.21356489
0.21298509
0.21240921
0.21183789
0.21127177
0.21071145
0.21015749
0.20961046
0.20907089
0.2085393
0.20801616
0.20750195
0.2069971
0.20650202
0.20601711
0.20554274
0.20507925
0.20462694
0.20418611
0.203757
0.2298407
0.229506
0.22915494
0.22878767
0.22840439
0.22800539
0.22759097
0.22716154
0.22671754
0.22625943
0.22578777
0.22530313
0.22480611
0.22429738
0.2237776
0.22324749
0.22270778
0.22215922
0.22160259
0.22103865
0.2204682
0.21989204
0.21931096
0.21872576
0.21813724
0.21754619
0.21695341
0.21635966
0.21576572
0.21517235
0.21458027
0.21399022
0.21340291
0.21281902
0.21223923
0.21166418
0.2110945
0.2105308
0.20997366
0.20942364
0.20888128
0.20834708
0.20782154
0.20730512
0.20679826
0.20630137
0.20581485
0.20533906
0.20487436
0.20442106
0.20397946
0.20354973
0.22983716
0.22949498
0.22913608
0.22876061
0.2283688
0.22796094
0.22753739
0.22709854
0.22664487
0.22617688
0.22569514
0.22520025
0.22469285
0.22417362
0.22364327
0.22310252
0.22255214
0.22199291
0.22142562
0.22085108
0.2202701
0.2196835
0.2190921
0.21849673
0.21789821
0.21729735
0.21669496
0.21609184
0.21548877
0.21488654
0.21428589
0.21368757
0.2130923
0.21250078
0.2119137
0.21133172
0.21075546
0.21018555
0.20962258
0.2090671
0.20851966
0.20798077
0.20745092
0.20693057
0.20642016
0.20592011
0.2054308
0.20495259
0.20448584
0.20403085
0.2035879
0.20315715
0.22983197
0.22947886
0.22910849
0.22872104
0.22831677
0.22789599
0.22745908
0.2270065
0.22653875
0.22605636
0.22555995
0.22505015
0.22452765
0.22399317
0.22344744
0.22289125
0.2223254
0.2217507
0.22116799
0.22057811
0.21998191
0.21938025
0.21877399
0.21816398
0.21755109
0.21693616
0.21632003
0.21570353
0.21508747
0.21447265
0.21385986
0.21324985
0.21264338
0.21204116
0.2114439
0.21085225
0.21026688
0.2096884
0.20911742
0.20855449
0.20800017
0.20745496
0.20691936
0.20639382
0.20587878
0.20537464
0.20488178
0.20440056
0.20393131
0.20347433
0.20302989
0.20259812
0.22982521
0.22945782
0.22907248
0.22866938
0.22824884
0.2278112
0.2273569
0.22688642
0.22640032
0.2258992
0.2253837
0.22485452
0.2243124
0.22375811
0.22319244
0.22261623
0.22203034
0.22143562
0.22083297
0.22022329
0.21960747
0.21898642
0.21836105
0.21773228
0.21710099
0.21646808
0.21583443
0.21520091
0.21456837
0.21393765
0.21330955
0.21268487
0.21206439
0.21144883
0.21083892
0.21023536
0.20963879
0.20904985
0.20846914
0.20789725
0.2073347
0.20678201
0.20623966
0.20570811
0.20518778
0.20467906
0.20418232
0.20369789
0.2032261
0.20276722
0.2023215
0.20188905
0.22981689
0.22943197
0.22902822
0.22860589
0.22816535
0.227707
0.22723133
0.22673889
0.22623028
0.22570618
0.22516729
0.22461437
0.22404823
0.22346972
0.22287968
0.22227904
0.2216687
0.2210496
0.2204227
0.21978896
0.21914934
0.21850482
0.21785637
0.21720495
0.21655153
0.21589704
0.21524242
0.21458859
0.21393644
0.21328685
0.21264068
0.21199874
0.21136184
0.21073073
0.21010617
0.20948885
0.20887945
0.20827861
0.20768693
0.20710499
0.20653333
0.20597245
0.20542282
0.20488488
0.20435904
0.20384567
0.20334511
0.2028577
0.2023837
0.20192339
0.20147697
0.20104453
0.22980705
0.22940135
0.22897578
0.22853068
0.22806644
0.22758356
0.22708258
0.22656413
0.22602889
0.2254776
0.22491106
0.22433011
0.22373563
0.22312855
0.22250981
0.22188041
0.22124134
0.22059362
0.2199383
0.21927641
0.218609
0.21793712
0.21726181
0.21658412
0.21590508
0.21522568
0.21454694
0.21386983
0.21319529
0.21252424
0.21185759
0.21119619
0.21054088
0.20989244
0.20925163
0.20861918
0.20799577
0.20738204
0.2067786
0.20618601
0.20560481
0.20503548
0.20447847
0.20393421
0.20340307
0.2028854
0.20238152
0.20189172
0.20141624
0.20095532
0.20050912
0.20007771
0.22979567
0.22936596
0.22891516
0.2284437
0.22795206
0.2274408
0.22691055
0.22636203
0.22579602
0.22521334
0.22461489
0.2240016
0.22337447
0.2227345
0.22208276
0.22142033
0.2207483
0.22006782
0.21937999
0.21868598
0.21798692
0.21728396
0.21657823
0.21587086
0.21516295
0.2144556
0.21374988
0.21304682
0.21234743
0.2116527
0.21096355
0.2102809
0.2096056
0.20893846
0.20828028
0.20763177
0.20699362
0.20636648
0.20575095
0.20514757
0.20455686
0.20397928
0.20341525
0.20286517
0.20232938
0.20180819
0.20130187
0.20081067
0.2003348
0.19987444
0.19942973
0.19900066
0.22978275
0.22932573
0.22884625
0.22834481
0.22782198
0.22727843
0.22671489
0.22613219
0.22553119
0.22491286
0.22427818
0.22362822
0.22296407
0.22228688
0.22159782
0.22089809
0.22018892
0.21947155
0.21874723
0.21801722
0.21728278
0.21654516
0.21580561
0.21506534
0.21432557
0.21358747
0.21285219
0.21212086
0.21139453
0.21067424
0.20996098
0.20925569
0.20855926
0.20787253
0.20719628
0.20653125
0.20587813
0.20523754
0.20461007
0.20399623
0.20339652
0.20281135
0.20224112
0.20168617
0.20114679
0.20062324
0.20011576
0.19962453
0.19914971
0.19869143
0.19824977
0.19782466
0.22976824
0.22928055
0.22876884
0.2282337
0.22767582
0.22709597
0.22649502
0.22587389
0.2252336
0.22457523
0.22389991
0.22320884
0.22250325
0.22178442
0.22105367
0.22031236
0.21956183
0.21880349
0.21803872
0.21726891
0.21649546
0.21571976
0.21494315
0.214167
0.2133926
0.21262125
0.21185417
0.21109256
0.21033756
0.20959026
0.20885169
0.20812283
0.20740459
0.20669782
0.20600332
0.20532181
0.20465396
0.20400037
0.2033616
0.20273812
0.20213038
0.20153876
0.20096357
0.20040512
0.19986363
0.19933931
0.19883231
0.19834277
0.19787077
0.19741638
0.19697962
0.19656036
0.22975211
0.22923028
0.22868267
0.22810998
0.22751303
0.22689273
0.22625008
0.22558615
0.22490211
0.22419918
0.22347866
0.2227419
0.22199031
0.22122534
0.22044846
0.2196612
0.2188651
0.21806169
0.21725254
0.2164392
0.21562323
0.21480614
0.21398946
0.21317465
0.21236314
0.21155632
0.21075552
0.20996202
0.20917703
0.20840169
0.20763707
0.20688418
0.20614395
0.20541722
0.20470477
0.20400733
0.20332551
0.20265988
0.20201095
0.20137914
0.20076482
0.20016831
0.19958987
0.19902971
0.19848798
0.19796483
0.19746032
0.1969745
0.1965074
0.19605899
0.19562923
0.19521793
0.22973429
0.22917471
0.22858738
0.22797313
0.22733293
0.22666784
0.22597902
0.22526771
0.22453525
0.22378305
0.22301259
0.22222541
0.22142312
0.22060735
0.21977979
0.21894215
0.21809618
0.2172436
0.21638618
0.21552566
0.21466376
0.21380218
0.21294259
0.21208661
0.21123579
0.21039165
0.2095556
0.20872902
0.20791316
0.20710923
0.20631832
0.20554146
0.20477956
0.20403347
0.20330394
0.20259164
0.20189713
0.20122094
0.20056349
0.19992512
0.19930614
0.19870677
0.19812719
0.1975675
0.19702779
0.19650808
0.19600837
0.19552862
0.19506875
0.19462866
0.19420823
0.19380718
0.2297147
0.22911361
0.22848255
0.22782253
0.22713468
0.22642023
0.22568053
0.22491703
0.22413125
0.22332484
0.22249948
0.22165694
0.22079904
0.21992767
0.21904475
0.21815221
0.21725202
0.21634617
0.21543663
0.21452536
0.21361428
0.21270529
0.21180022
0.21090085
0.21000889
0.20912595
0.20825356
0.20739316
0.20654607
0.20571351
0.20489662
0.20409638
0.20331372
0.20254944
0.20180422
0.20107868
0.20037331
0.19968854
0.19902469
0.19838204
0.19776075
0.19716097
0.19658274
0.19602608
0.19549096
0.1949773
0.19448499
0.19401388
0.1935638
0.19313457
0.19272596
0.19233762
0.22969327
0.22904668
0.22836767
0.22765743
0.22691727
0.22614864
0.22535309
0.2245323
0.22368805
0.2228222
0.22193672
0.22103363
0.22011503
0.21918307
0.21823994
0.21728787
0.2163291
0.21536588
0.21440043
0.21343496
0.21247162
0.21151254
0.21055972
0.20961512
0.20868057
0.20775783
0.20684849
0.20595407
0.20507592
0.20421528
0.20337327
0.20255087
0.20174893
0.20096819
0.20020926
0.19947265
0.19875876
0.1980679
0.19740029
0.19675604
0.19613524
0.19553786
0.19496386
0.19441311
0.19388545
0.19338069
0.19289861
0.19243893
0.1920014
0.19158571
0.19119155
0.19081846
0.22966988
0.2289736
0.22824217
0.22747699
0.22667957
0.22585162
0.22499493
0.22411144
0.22320322
0.22227242
0.22132131
0.22035222
0.21936757
0.21836983
0.21736153
0.21634521
0.21532344
0.21429876
0.21327372
0.21225078
0.21123236
0.2102208
0.20921833
0.20822706
0.20724898
0.20628593
0.2053396
0.20441154
0.20350311
0.20261556
0.20174994
0.20090718
0.20008805
0.19929318
0.19852308
0.19777813
0.19705859
0.19636462
0.19569629
0.19505359
0.19443643
0.19384465
0.19327804
0.19273635
0.19221928
0.19172651
0.19125766
0.19081238
0.19039026
0.1899909
0.18961388
0.18925867
0.22964444
0.228894
0.22810539
0.22728022
0.22642028
0.22552751
0.22460403
0.22365208
0.22267404
0.22167242
0.22064984
0.21960901
0.21855271
0.21748381
0.21640522
0.21531986
0.21423066
0.21314054
0.21205236
0.2109689
0.20989287
0.20882684
0.20777325
0.20673439
0.20571237
0.20470912
0.20372637
0.20276569
0.20182843
0.20091577
0.20002869
0.19916803
0.19833442
0.19752836
0.1967502
0.19600015
0.19527831
0.19458467
0.19391912
0.19328146
0.19267144
0.19208873
0.19153296
0.19100372
0.19050056
0.19002299
0.18957054
0.18914269
0.18873894
0.18835876
0.18800163
0.18766693
0.2296168
0.22880746
0.22795659
0.22706605
0.22613792
0.22517447
0.22417813
0.22315153
0.22209743
0.22101874
0.2199185
0.21879986
0.21766607
0.21652043
0.21536631
0.21420707
0.21304607
0.21188663
0.21073199
0.20958527
0.20844948
0.20732745
0.20622182
0.20513502
0.20406928
0.20302659
0.20200869
0.20101712
0.20005316
0.19911789
0.19821219
0.19733672
0.19649196
0.19567822
0.19489564
0.19414425
0.19342393
0.19273446
0.19207552
0.19144674
0.19084765
0.19027774
0.18973646
0.18922322
0.18873742
0.18827841
0.18784558
0.18743828
0.18705587
0.18669773
0.18636321
0.18605159
0.22958683
0.22871352
0.22779494
0.22683325
0.22583085
0.22479039
0.22371469
0.22260681
0.22146995
0.22030753
0.21912306
0.21792025
0.21670284
0.2154747
0.2142397
0.21300174
0.21176466
0.21053223
0.20930811
0.2080958
0.20689859
0.20571958
0.20456159
0.20342719
0.20231867
0.20123804
0.20018699
0.19916699
0.1981792
0.19722456
0.19630374
0.19541721
0.19456523
0.19374786
0.19296502
0.19221649
0.1915019
0.19082081
0.19017266
0.18955685
0.1889727
0.1884195
0.1878965
0.18740294
0.18693802
0.18650098
0.18609102
0.18570737
0.18534926
0.18501596
0.18470671
0.18442072
0.22955438
0.22861167
0.22761953
0.22658046
0.22549725
0.22437295
0.22321088
0.22201457
0.22078779
0.21953451
0.21825887
0.21696516
0.21565778
0.21434122
0.21301996
0.2116985
0.21038123
0.20907244
0.20777623
0.20649647
0.20523678
0.20400047
0.20279053
0.20160963
0.20046005
0.19934376
0.19826238
0.19721719
0.1962092
0.1952391
0.19430735
0.19341412
0.1925594
0.19174299
0.1909645
0.19022344
0.18951916
0.18885095
0.18821801
0.18761947
0.18705443
0.18652197
0.18602113
0.18555096
0.1851105
0.18469881
0.18431494
0.183958
0.18362708
0.18332135
0.18303995
0.18278198
0.22951928
0.22850134
0.22742934
0.22630617
0.22513507
0.22391958
0.22266356
0.22137114
0.22004674
0.21869501
0.21732081
0.21592917
0.21452524
0.21311422
0.21170133
0.21029174
0.20889046
0.20750232
0.20613191
0.20478347
0.20346092
0.20216777
0.20090712
0.19968164
0.19849358
0.19734478
0.19623668
0.19517035
0.19414653
0.19316562
0.19222775
0.19133277
0.19048034
0.18966992
0.1889008
0.18817215
0.18748304
0.18683245
0.1862193
0.18564248
0.18510082
0.18459319
0.18411842
0.18367536
0.18326287
0.18287985
0.18252523
0.18219795
0.18189701
0.18162145
0.18137032
0.18114266
0.22948133
0.22838191
0.22722326
0.22600873
0.22474207
0.2234274
0.22206923
0.22067242
0.21924214
0.21778388
0.21630333
0.21480641
0.21329914
0.21178759
0.2102778
0.20877568
0.20728695
0.20581701
0.20437093
0.20295333
0.20156837
0.2002197
0.19891046
0.19764325
0.1964202
0.19524291
0.19411257
0.19302994
0.1919954
0.19100898
0.19007041
0.18917916
0.1883345
0.1875355
0.18678109
0.18607008
0.18540121
0.18477314
0.18418449
0.18363389
0.18311992
0.1826412
0.18219636
0.18178406
0.18140299
0.18105188
0.18072951
0.18043472
0.18016639
0.17992344
0.17970486
0.1795096
0.22944035
0.22825268
0.22700005
0.22568629
0.22431575
0.22289325
0.22142407
0.21991392
0.21836892
0.2167955
0.21520041
0.21359057
0.21197305
0.21035492
0.20874314
0.20714448
0.20556537
0.20401184
0.2024894
0.20100301
0.19955701
0.19815511
0.19680039
0.19549529
0.19424166
0.19304081
0.19189356
0.19080025
0.18976079
0.18877479
0.18784149
0.18695993
0.18612891
0.18534709
0.18461299
0.18392504
0.18328161
0.18268104
0.18212166
0.18160178
0.18111976
0.18067398
0.18026285
0.17988484
0.17953848
0.17922235
0.17893511
0.17867546
0.17844218
0.17823411
0.17805015
0.17788919
0.22939609
0.22811292
0.22675834
0.22533679
0.22385333
0.2223136
0.22072382
0.2190907
0.21742148
0.21572377
0.21400552
0.2122749
0.21054017
0.20880954
0.20709102
0.20539229
0.20372055
0.20208243
0.20048385
0.19893004
0.19742542
0.19597365
0.1945776
0.19323942
0.19196062
0.19074205
0.18958403
0.18848638
0.18744848
0.18646938
0.1855478
0.18468227
0.18387109
0.18311244
0.18240443
0.18174507
0.18113237
0.18056431
0.1800389
0.17955421
0.17910831
0.17869935
0.17832556
0.17798522
0.1776767
0.17739845
0.177149
0.17692694
0.17673094
0.17655979
0.1764123
0.17628736
0.22934834
0.22796179
0.22649663
0.22495799
0.22335177
0.2216846
0.21996379
0.21819731
0.21639371
0.21456203
0.21271167
0.21085224
0.20899338
0.20714459
0.20531505
0.20351339
0.20174759
0.20002483
0.1983514
0.19673264
0.19517295
0.19367577
0.19224363
0.19087828
0.18958066
0.18835107
0.18718921
0.18609425
0.18506495
0.18409973
0.18319672
0.18235387
0.18156895
0.18083965
0.18016361
0.17953841
0.17896169
0.17843109
0.17794431
0.17749912
0.17709335
0.17672495
0.17639193
0.17609243
0.17582467
0.17558697
0.17537776
0.17519549
0.17503878
0.17490637
0.17479696
0.17470958
0.22929681
0.22779837
0.22621323
0.22454737
0.22280767
0.22100193
0.21913881
0.21722776
0.21527896
0.21330313
0.21131138
0.20931501
0.20732527
0.20535308
0.20340886
0.20150224
0.19964195
0.19783564
0.19608981
0.19440981
0.1927998
0.19126286
0.18980102
0.18841539
0.18710627
0.1858732
0.18471514
0.18363051
0.18261736
0.18167341
0.18079612
0.17998283
0.17923075
0.17853704
0.17789885
0.17731336
0.17677781
0.1762895
0.17584582
0.17544427
0.17508246
0.17475812
0.1744691
0.17421336
0.17398903
0.17379429
0.17362754
0.17348705
0.17337132
0.1732793
0.17320917
0.17316102
0.22924121
0.22762164
0.22590632
0.22410217
0.22221727
0.22026083
0.21824315
0.21617549
0.21406996
0.2119393
0.20979667
0.20765529
0.20552823
0.20342798
0.20136625
0.19935366
0.19739961
0.19551207
0.19369762
0.19196139
0.19030711
0.18873727
0.18725322
0.18585526
0.18454282
0.18331458
0.1821686
0.18110249
0.18011346
0.17919846
0.17835427
0.17757756
0.17686495
0.17621306
0.17561857
0.17507822
0.17458888
0.17414751
0.1737512
0.17339721
0.17308293
0.1728059
0.17256382
0.1723545
0.17217601
0.17202631
0.17190409
0.17180711
0.17173359
0.17168375
0.17165468
0.17164554
0.22918123
0.22743051
0.22557384
0.22361928
0.22157637
0.21945602
0.2172705
0.21503329
0.21275881
0.21046224
0.20815908
0.20586481
0.20359448
0.20136228
0.19918124
0.19706289
0.19501714
0.19305213
0.19117425
0.18938817
0.18769698
0.18610236
0.18460469
0.1832033
0.18189656
0.18068214
0.1795571
0.1785181
0.17756147
0.17668335
0.17587976
0.17514669
0.17448016
0.17387624
0.17333115
0.17284121
0.1724029
0.17201286
0.17166794
0.17136515
0.1711017
0.17087493
0.17068248
0.17052189
0.17039146
0.17028835
0.17021276
0.17016089
0.17013132
0.1701235
0.17013585
0.17016698
0.22911652
0.22722373
0.2252135
0.22309527
0.2208803
0.21858162
0.21621389
0.21379325
0.21133696
0.20886301
0.20638969
0.203935
0.20151617
0.19914914
0.19684821
0.19462569
0.19249182
0.19045461
0.18852001
0.18669193
0.18497255
0.18336244
0.18186083
0.18046579
0.17917452
0.17798351
0.17688873
0.17588578
0.17497006
0.17413684
0.17338138
0.17269897
0.17208502
0.17153508
0.17104489
0.17061036
0.17022763
0.16989306
0.16960326
0.16935499
0.16914538
0.16897145
0.16883111
0.16872101
0.16864109
0.1685872
0.16855786
0.16855172
0.16856703
0.16860241
0.16865672
0.16872919
0.2290467
0.22699992
0.22482276
0.22252628
0.22012387
0.2176311
0.2150656
0.21244672
0.2097951
0.2071321
0.20447915
0.20185708
0.19928544
0.19678193
0.19436199
0.19203852
0.18982175
0.18771928
0.18573623
0.1838755
0.18213797
0.18052285
0.17902792
0.17764986
0.17638448
0.17522698
0.17417211
0.17321438
0.1723482
0.17156794
0.17086808
0.17024322
0.16968817
0.16919797
0.1687679
0.16839349
0.1680706
0.16779527
0.167564
0.16737316
0.16722018
0.16710111
0.16701555
0.16695882
0.16692897
0.16692462
0.16694355
0.16698396
0.16704463
0.16712448
0.16722167
0.16733528
0.22897133
0.22675756
0.22439876
0.22190799
0.21930122
0.21659718
0.21381709
0.21098421
0.2081232
0.20525935
0.20241768
0.19962209
0.19689453
0.19425438
0.19171801
0.18929857
0.18700593
0.18484686
0.18282532
0.18094274
0.17919841
0.17758984
0.17611315
0.17476341
0.17353489
0.17242137
0.17141633
0.17051312
0.1697051
0.16898577
0.16834883
0.1677882
0.16729813
0.16687311
0.16650807
0.16619813
0.16593901
0.16572625
0.16555668
0.16542558
0.16533221
0.16527116
0.16523995
0.16523701
0.16525953
0.16530546
0.1653734
0.16546177
0.16556857
0.16569267
0.16583273
0.16598764
0.22888994
0.22649492
0.22393828
0.22123552
0.2184058
0.21547172
0.21245889
0.20939531
0.20631042
0.20323402
0.20019516
0.19722099
0.19433587
0.19156066
0.18891234
0.18640388
0.18404432
0.18183917
0.17979074
0.17789858
0.17616002
0.1745706
0.17312452
0.17181504
0.17063478
0.16957601
0.16863084
0.16779144
0.16705013
0.16639953
0.16583261
0.1653426
0.16492322
0.16456844
0.164273
0.16403143
0.16383975
0.1636922
0.16358772
0.1635199
0.16348575
0.16348327
0.16350902
0.16356064
0.16363633
0.16373419
0.16385188
0.16398798
0.16414091
0.1643094
0.16449223
0.16468831
0.22880202
0.22621007
0.2234377
0.22050339
0.21743023
0.2142456
0.21098052
0.20766866
0.20434507
0.20104475
0.19780113
0.19464473
0.1916022
0.18869554
0.18594187
0.18335345
0.18093798
0.17869913
0.17663705
0.174749
0.17302996
0.1714732
0.17007079
0.16881401
0.16769373
0.16670061
0.16582539
0.16505899
0.16439272
0.1638184
0.1633283
0.16291487
0.16257157
0.16229159
0.16207006
0.16189999
0.16177966
0.16170132
0.16166159
0.16165782
0.16168579
0.1617428
0.16182638
0.16193443
0.16206408
0.1622136
0.16238111
0.16256506
0.16276402
0.16297673
0.16320206
0.16343897
0.22870697
0.22590082
0.22289289
0.21970534
0.21636615
0.21290861
0.20937032
0.20579178
0.20221461
0.1986796
0.19522488
0.19188436
0.18868665
0.18565443
0.18280435
0.18014733
0.17768908
0.17543079
0.17336994
0.17150102
0.16981632
0.16830655
0.16696144
0.16577017
0.16472175
0.16380525
0.16300992
0.16232553
0.16174233
0.16125143
0.16084461
0.1605132
0.16025112
0.16004965
0.15990656
0.15981274
0.15976338
0.1597554
0.15978364
0.15984508
0.15993609
0.16005469
0.16019709
0.16036127
0.16054494
0.16074625
0.16096348
0.1611951
0.16143978
0.16169632
0.16196367
0.16224088
0.22860415
0.22556469
0.22229914
0.21883424
0.21520406
0.21144921
0.20761533
0.20375106
0.19990555
0.19612603
0.19245552
0.1889311
0.18558289
0.18243356
0.17949857
0.17678672
0.17430097
0.1720394
0.1699962
0.16816269
0.16652811
0.16508036
0.16380661
0.16269387
0.16172927
0.16090024
0.16019454
0.15960087
0.15910833
0.15870744
0.15839018
0.15814526
0.15796985
0.15785251
0.15778759
0.15777128
0.15779682
0.1578607
0.15795775
0.15808674
0.15824225
0.15842207
0.15862333
0.15884381
0.15908141
0.15933432
0.15960092
0.15987978
0.16016965
0.16046943
0.16077815
0.16109495
0.22849279
0.22519883
0.22165105
0.21788191
0.21393314
0.20985441
0.20570114
0.20153157
0.19740347
0.19337099
0.18948203
0.18577647
0.18228519
0.17903005
0.17602441
0.17327402
0.17077826
0.16853137
0.16652377
0.16474311
0.16317527
0.1618051
0.16061708
0.15959594
0.15872698
0.15799612
0.15738939
0.15689484
0.15649995
0.15619476
0.15597386
0.15582221
0.15573341
0.15570141
0.15571937
0.1557829
0.15588406
0.1560221
0.15619044
0.15638645
0.15660645
0.15684774
0.15710778
0.15738435
0.15767551
0.15797954
0.15829493
0.15862037
0.15895472
0.15929696
0.15964622
0.16000173
0.22837207
0.22479996
0.22094236
0.21683892
0.21254097
0.20810946
0.20361165
0.19911702
0.19469295
0.19040088
0.18629337
0.18241237
0.17878863
0.17544212
0.17238298
0.16961291
0.16712682
0.16491441
0.16296173
0.16125238
0.15976859
0.15849198
0.15740414
0.15648756
0.1557258
0.1551036
0.15460454
0.15421732
0.15392634
0.1537262
0.15360198
0.15354499
0.15354859
0.15360473
0.15370718
0.15385183
0.15403223
0.1542443
0.15448369
0.15474717
0.15503155
0.15533415
0.15565256
0.15598473
0.15632881
0.15668324
0.15704663
0.15741779
0.15779569
0.15817945
0.15856826
0.15896148
0.22824103
0.22436429
0.22016578
0.21569428
0.21101326
0.20619763
0.20132889
0.19648955
0.19175752
0.18720164
0.18287854
0.17883125
0.1750892
0.17166914
0.16857671
0.16580847
0.16335393
0.16119752
0.15932036
0.15770164
0.15631975
0.15515293
0.15417965
0.15338025
0.1527367
0.15223366
0.15184968
0.15157829
0.15139953
0.15130324
0.1512815
0.15132323
0.15142114
0.15156711
0.15175763
0.15198476
0.15224372
0.15253034
0.1528407
0.15317154
0.15351991
0.15388327
0.15425939
0.15464635
0.15504249
0.15544636
0.15585674
0.15627256
0.15669294
0.15711711
0.15754435
0.15797415
0.22809855
0.22388736
0.21931276
0.21443518
0.20933347
0.2040998
0.19883275
0.19362963
0.18857964
0.18375873
0.17922667
0.17502623
0.17118395
0.16771178
0.16460951
0.16186731
0.15946835
0.15739107
0.15561114
0.15410305
0.15284121
0.15180054
0.15095591
0.15028579
0.14977034
0.14939797
0.14913978
0.14898491
0.14892076
0.14893581
0.14901975
0.14916202
0.14935745
0.1495968
0.14987445
0.15018447
0.15052208
0.15088317
0.15126411
0.15166176
0.15207339
0.15249666
0.15292953
0.15337024
0.15381731
0.15426947
0.15472563
0.15518489
0.1556465
0.22794336
0.22336394
0.21837317
0.21304651
0.20748231
0.2017941
0.19610064
0.19051585
0.18514058
0.1800572
0.17532719
0.17099128
0.16707117
0.16357227
0.16048692
0.1577977
0.15548044
0.15350687
0.15184681
0.15046976
0.14934618
0.14844811
0.14774562
0.14721631
0.14684484
0.1466051
0.14647544
0.14644586
0.14650147
0.14663062
0.1468222
0.14707022
0.14736378
0.14769611
0.14806142
0.14845433
0.14887024
0.14930526
0.149756
0.15021954
0.1506934
0.15117543
0.15166382
0.15215701
0.15265369
0.15315278
0.15365336
0.15415468
0.15465613
0.22777396
0.22278776
0.21733492
0.21151034
0.20543721
0.19925535
0.19310713
0.18712466
0.18142035
0.17608171
0.17116993
0.16672136
0.16275063
0.15925455
0.1562164
0.15360978
0.15140227
0.14955828
0.14804136
0.14681589
0.14584843
0.14510972
0.1445617
0.14419004
0.14396285
0.14386215
0.14387004
0.14396959
0.14414788
0.14439488
0.14469915
0.14505152
0.14544374
0.14586909
0.1463219
0.14679716
0.1472906
0.14779858
0.14831798
0.14884617
0.14938091
0.14992029
0.15046273
0.1510069
0.15155168
0.15209619
0.15263967
0.15318154
0.15372135
0.22758861
0.22215131
0.21618342
0.20980521
0.2031716
0.19645448
0.18982348
0.1834301
0.17739757
0.17181656
0.16674526
0.16221274
0.15822389
0.1547647
0.15180754
0.14931578
0.14724783
0.14556024
0.1442101
0.14315656
0.14236194
0.14180052
0.14142296
0.14120828
0.14113571
0.14118248
0.14133165
0.14156315
0.14187025
0.14223684
0.14265308
0.14311043
0.14360124
0.14411912
0.14465868
0.1452153
0.14578504
0.14636461
0.1469512
0.14754248
0.14813647
0.14873155
0.14932637
0.14991983
0.15051104
0.15109929
0.15168403
0.15226485
0.15284143
0.22738521
0.22144543
0.21490088
0.20790525
0.2006539
0.19335765
0.18621697
0.17940334
0.1730493
0.16724575
0.16204434
0.15746334
0.15349478
0.15011128
0.14727247
0.14493024
0.14303307
0.14152936
0.14036963
0.13950796
0.13891181
0.13853186
0.1383298
0.13828639
0.13837541
0.1385751
0.13886715
0.139239
0.13967396
0.14016045
0.14068883
0.14125091
0.14183961
0.14244897
0.143074
0.1437105
0.14435494
0.14500437
0.14565636
0.14630887
0.14696026
0.14760916
0.1482545
0.1488954
0.14953121
0.15016143
0.15078568
0.15140373
0.15201543
0.22716126
0.22065885
0.21346542
0.20577899
0.19784643
0.18992525
0.18225008
0.17501217
0.16835079
0.16235305
0.15705951
0.15247331
0.14856993
0.14530586
0.14262619
0.14047023
0.13877608
0.13748385
0.13653772
0.13589646
0.13550145
0.13531362
0.13530142
0.13543516
0.13569082
0.13604855
0.13649117
0.13700081
0.1375643
0.13817058
0.13881049
0.13947633
0.14016158
0.14086083
0.14156957
0.14228405
0.14300118
0.14371843
0.14443372
0.14514538
0.14585207
0.14655274
0.14724656
0.14793293
0.1486114
0.14928168
0.14994361
0.15059712
0.15124222
0.22691373
0.21977751
0.21184975
0.20338773
0.19470377
0.18611047
0.17787928
0.17022014
0.16327519
0.15712221
0.15178487
0.14724583
0.14345958
0.14036364
0.13788697
0.13595559
0.13449709
0.13344352
0.1327433
0.13232471
0.13214518
0.13216556
0.13234862
0.13266505
0.13309475
0.13361512
0.13420672
0.13485459
0.13554628
0.13627142
0.13702149
0.1377894
0.13856929
0.13935632
0.14014653
0.14093669
0.14172418
0.1425069
0.14328316
0.14405166
0.14481138
0.14556159
0.14630173
0.14703145
0.14775054
0.14845893
0.14915663
0.14984376
0.15052049
0.22663893
0.21878358
0.21001944
0.20068351
0.19117063
0.18185726
0.17305421
0.16498739
0.1577955
0.15153939
0.14621839
0.14178844
0.13817848
0.13530406
0.13307667
0.13140899
0.13021837
0.12944051
0.1289884
0.128812
0.12886339
0.12909954
0.12948284
0.12999141
0.13059755
0.13127944
0.13202013
0.13280558
0.13362418
0.13446642
0.13532455
0.13619221
0.13706426
0.13793649
0.13880554
0.13966873
0.14052393
0.1413695
0.14220417
0.14302701
0.14383734
0.14463473
0.14541892
0.1461898
0.1469474
0.14769185
0.14842338
0.14914226
0.14984883
0.22633226
0.2176541
0.20793045
0.19760609
0.18717888
0.17709959
0.16771947
0.15927378
0.1518882
0.14559655
0.1403648
0.1361153
0.13274716
0.13015144
0.12822104
0.12685589
0.12597635
0.12547699
0.12529749
0.12537884
0.12567069
0.12612686
0.12672244
0.12742338
0.12820512
0.12904827
0.12993695
0.13085822
0.13180152
0.13275831
0.13372171
0.13468622
0.13564742
0.13660184
0.13754673
0.13847999
0.1394
0.14030559
0.14119593
0.14207044
0.14292883
0.14377094
0.14459681
0.14540658
0.14620052
0.14697896
0.14774233
0.14849107
0.14922567
0.22598796
0.216359
0.20552563
0.19407882
0.18264589
0.17176283
0.16181706
0.15304177
0.14553634
0.13929452
0.13423834
0.13024943
0.12719331
0.12493535
0.12334965
0.12233823
0.12177367
0.12158251
0.12169225
0.12204289
0.12257834
0.12326943
0.12407562
0.12496809
0.1259247
0.12692745
0.12796182
0.12901614
0.13008105
0.13114908
0.13221435
0.13327225
0.13431918
0.13535238
0.13636979
0.13736987
0.13835157
0.13931417
0.14025727
0.14118069
0.14208447
0.14296877
0.14383389
0.14468024
0.14550831
0.14631865
0.14711186
0.14788855
0.14864938
0.22559867
0.21485793
0.20272951
0.19000489
0.17747425
0.16576497
0.15528919
0.14626036
0.13873362
0.13264645
0.12786518
0.12422404
0.12155266
0.11969102
0.11851185
0.11785951
0.11764546
0.11778098
0.11819363
0.11881576
0.11961207
0.12053506
0.12155072
0.12263334
0.12376249
0.12492186
0.12609848
0.12728211
0.12846471
0.12964001
0.13080318
0.13195054
0.13307935
0.13418762
0.13527394
0.13633741
0.13737747
0.13839392
0.13938677
0.14035624
0.14130267
0.14222656
0.14312848
0.14400907
0.14486904
0.14570917
0.14653022
0.14733298
0.14811823
0.22515476
0.21309561
0.19944178
0.18526365
0.1715509
0.15901897
0.14808316
0.13891087
0.13148975
0.12568172
0.12128564
0.11808348
0.11586893
0.1144782
0.11371243
0.11346158
0.11361909
0.11409709
0.11481414
0.11572711
0.11678014
0.11793313
0.11915615
0.12042578
0.12172365
0.12303537
0.12434972
0.12565805
0.12695372
0.1282317
0.12948828
0.13072076
0.13192729
0.13310662
0.13425805
0.13538125
0.13647624
0.13754327
0.13858277
0.13959533
0.14058166
0.14154252
0.14247875
0.14339123
0.14428088
0.1451487
0.14599561
0.14682255
0.14763045
0.22464325
0.21099428
0.19552888
0.17970624
0.16474772
0.1514381
0.14015946
0.13099505
0.12383666
0.11844962
0.11455577
0.11188324
0.11021624
0.10930433
0.1090018
0.10917665
0.10972355
0.110545
0.11158747
0.11278643
0.11409296
0.11547284
0.11689905
0.11835084
0.11981218
0.12127081
0.12271744
0.12414505
0.12554849
0.12692405
0.12826914
0.12958207
0.13086186
0.13210803
0.13332057
0.13449976
0.13564612
0.13676037
0.13784337
0.13889607
0.13991948
0.14091468
0.14188275
0.14282479
0.1437419
0.14463534
0.14550615
0.14635542
0.14718422
0.22404593
0.20844285
0.19081329
0.1731511
0.15692546
0.14294634
0.13150432
0.12254523
0.11583482
0.111022
0.1077475
0.10571769
0.10460601
0.10423113
0.1044191
0.10503886
0.10597559
0.10716248
0.10852557
0.11000502
0.11156066
0.11316191
0.11478519
0.11641267
0.11803094
0.11963002
0.12120258
0.12274338
0.12424877
0.12571635
0.1271447
0.12853313
0.12988151
0.13119015
0.13245968
0.13369099
0.1348851
0.13604319
0.13716651
0.13825636
0.13931408
0.14034099
0.14133843
0.14230772
0.22333617
0.20527914
0.18505836
0.16538199
0.14794479
0.13349673
0.1221471
0.11363505
0.1075779
0.10349373
0.10098372
0.099605094
0.099113051
0.099308064
0.1000049
0.10106868
0.10241688
0.1039658
0.10564033
0.10739404
0.10919158
0.11100646
0.11281887
0.11461417
0.11638168
0.1181138
0.11980526
0.12145257
0.12305361
0.12460732
0.12611341
0.12757215
0.12898431
0.13035091
0.13167326
0.13295277
0.13419099
0.13538951
0.13654998
0.13767402
0.13876326
0.13981929
0.14084369
0.14183798
0.22247203
0.20126019
0.17795019
0.15615347
0.13769082
0.12310014
0.11218044
0.10438742
0.099193701
0.09602772
0.094294074
0.093637062
0.093799841
0.094584463
0.095784819
0.0973107
0.099071057
0.10096683
0.10294413
0.10496261
0.10699223