/*--------------------------------*- C++ -*----------------------------------*\
| =========                 |                                                 |
| \\      /  F ield         | OpenFOAM: The Open Source CFD Toolbox           |
|  \\    /   O peration     | Version:  2312                                  |
|   \\  /    A nd           | Website:  www.openfoam.com                      |
|    \\/     M anipulation  |                                                 |
\*---------------------------------------------------------------------------*/
FoamFile
{
    version     2.0;
    format      ascii;
    arch        "LSB;label=32;scalar=64";
    class       volScalarField;
    location    "0.1";
    object      Qdot;
}
// * * * * * * * * * * * * * * * * * * * * * * * * * * * * * * * * * * * * * //

dimensions      [1 -1 -3 0 0 0 0];

internalField   nonuniform List<scalar> 
3221
(
1.314543e-05
4.9750241e-05
0.00010492038
0.00018698374
0.0003071842
0.00048304359
0.00073669276
0.0011028844
0.0016269921
0.0023751953
0.0034377151
0.0049417638
0.0070597104
0.010030339
0.014179527
0.01994674
0.027929079
0.038918829
0.053974906
0.074490858
0.10229032
0.13974848
0.18991838
0.25670879
0.3450706
0.46122732
0.61291801
0.80970694
1.0632839
1.387806
1.8002561
2.3208211
2.9732471
3.7851842
4.7885288
6.0196558
7.5196216
9.3342828
11.514244
14.114745
17.195317
20.819332
25.053329
29.966174
35.628042
42.109183
49.478565
57.802369
67.142393
77.554441
89.08682
101.77913
1.3277949e-05
5.054095e-05
0.00010683316
0.00019082626
0.00031430549
0.0004954715
0.00075798718
0.0011374267
0.0016825055
0.0024627355
0.0035726771
0.005147379
0.0073712076
0.010497288
0.014872949
0.020966747
0.029414785
0.041070937
0.057061826
0.078886682
0.108502
0.14846062
0.20204537
0.27345851
0.36802897
0.49245543
0.65507751
0.86618615
1.1383679
1.4868626
1.9299513
2.4893349
3.1905446
4.0632834
5.1417733
6.4650125
8.0769787
10.026704
12.36825
15.160507
18.466836
22.354562
26.894206
32.158579
38.221648
45.157206
53.037403
61.931066
71.90193
83.006803
95.29402
108.80497
1.364178e-05
5.2041229e-05
0.00011065652
0.00019842209
0.00032880667
0.000520756
0.0008006757
0.0012070446
0.0017947737
0.0026385639
0.0038473156
0.0055685158
0.008010556
0.011456913
0.016300118
0.023072844
0.032494192
0.04553519
0.063485273
0.088054095
0.12148337
0.16669803
0.22746739
0.30862283
0.41629141
0.55817273
0.74386705
0.98521518
1.2966895
1.6958141
2.2035752
2.8448794
3.6489742
4.6498448
5.8865589
7.4035581
9.2508375
11.483991
14.164125
17.357593
21.135543
25.573242
30.749195
36.744035
43.639201
51.5154
60.450877
70.519555
81.789018
94.318497
108.15729
123.34676
1.4166457e-05
5.447205e-05
0.0001162439
0.00021034004
0.00035056269
0.00055878337
0.00086607539
0.0013158222
0.0019692758
0.0029167085
0.0042816436
0.0062393209
0.0090317435
0.012999588
0.018605939
0.026489261
0.037512631
0.052841236
0.074038341
0.10316649
0.14294998
0.19694532
0.26974437
0.36723699
0.49689489
0.66812851
0.892656
1.1849226
1.5625882
2.0469972
2.6636852
3.4428978
4.4200725
5.6362854
7.1386238
8.9804583
11.221621
13.928362
17.173171
21.034372
25.59547
30.944263
37.171687
44.370415
52.633211
62.051041
72.710997
84.694075
98.072829
112.90907
129.25215
147.14151
1.4817017e-05
5.7388625e-05
0.00012404043
0.00022596075
0.0003807234
0.00061298249
0.00095843557
0.0014692238
0.0022206664
0.0033173391
0.0049127465
0.0072205638
0.010540144
0.015292226
0.022057439
0.031633858
0.04511326
0.063967844
0.09018258
0.12639858
0.17609527
0.2438308
0.3355045
0.45868626
0.62300579
0.84056673
1.1264482
1.4992406
1.9816212
2.6009523
3.3899096
4.3870838
5.6375432
7.1933324
9.1138764
11.46621
14.325082
17.772793
21.898817
26.799161
32.575382
39.333339
47.181634
56.229728
66.585797
78.354359
91.633659
106.51296
123.06974
141.36698
161.45123
183.35613
1.5649521e-05
6.1361692e-05
0.0001339458
0.00024702745
0.00042077461
0.00068511143
0.001082835
0.0016789388
0.0025661114
0.0038762563
0.0058018313
0.0086154393
0.012702904
0.018608971
0.027088527
0.039190976
0.05635391
0.080536922
0.11438277
0.16141285
0.22630655
0.31518751
0.43600529
0.59897256
0.81707855
1.1066593
1.4880488
1.9862706
2.6318049
3.4613261
4.5184936
5.8546762
7.5295962
9.6118887
12.17946
15.319681
19.129262
23.713915
29.187583
35.671408
43.292223
52.18075
62.469365
74.289539
87.768984
103.02854
120.17886
139.31707
160.52331
183.85758
209.35763
237.04385
1.6625847e-05
6.6073774e-05
0.00014617421
0.00027313361
0.0004717048
0.00077829456
0.0012482547
0.0019609774
0.0030351105
0.0046451035
0.0070387389
0.010579503
0.015780741
0.023374237
0.034389333
0.050255099
0.072953318
0.1051912
0.15063725
0.21422047
0.30247985
0.4240123
0.58999421
0.81479512
1.1166946
1.5186664
2.0492635
2.7435586
3.6441326
4.8020465
6.2778259
8.1423046
10.477389
13.376579
16.945236
21.300573
26.571207
32.896338
40.42443
49.311435
59.718533
71.809384
85.746944
101.68994
119.78894
140.18234
162.9921
188.31954
216.24128
246.80549
280.02976
315.90816
1.776745e-05
7.1719241e-05
0.00016142388
0.00030636154
0.0005367693
0.00090003097
0.0014649498
0.0023375524
0.0036717536
0.0057002999
0.0087627832
0.013349781
0.020175376
0.030260092
0.045047435
0.066574571
0.097662946
0.14220937
0.2055099
0.29471231
0.4193306
0.59189996
0.8287427
1.1508501
1.5849082
2.1644072
2.9308869
3.935199
5.2388427
6.9152027
9.0507638
11.746091
15.116605
19.292954
24.42106
30.661597
38.188921
47.18945
57.859346
70.401606
85.022531
101.92764
121.31711
143.3808
168.29308
196.20743
227.25121
261.52044
299.07505
339.93479
384.07725
431.44841
1.9093844e-05
7.8534529e-05
0.00017976793
0.00034710322
0.0006196807
0.0010568358
0.0017500125
0.0028399655
0.0045376272
0.0071611653
0.011180819
0.017292555
0.026515748
0.040318701
0.060807358
0.090965782
0.13497133
0.19861906
0.28983533
0.41934628
0.60148325
0.85516434
1.2050279
1.6827679
2.3286043
3.1929163
4.3379557
5.8396166
7.7891568
10.294819
13.483212
17.500344
22.512215
28.704843
36.283588
45.471761
56.50841
69.645212
85.1426
103.26502
124.27552
148.42971
175.96925
207.11506
242.06044
280.96424
323.94439
371.0719
422.36557
477.7878
537.24355
600.59615
2.0668028e-05
8.652917e-05
0.00020193465
0.00039743832
0.0007237722
0.0012592576
0.002126915
0.0035177575
0.0057258888
0.0091980084
0.014613071
0.0229775
0.035788397
0.055231975
0.084473145
0.12802681
0.19227697
0.28611644
0.42178832
0.61590951
0.89074151
1.2757013
1.8091113
2.5401926
3.5312787
4.8601285
6.6224198
8.9340619
11.933486
15.783551
20.672973
26.817154
34.458182
43.863875
55.325798
69.15615
85.68345
105.24713
128.19102
154.85595
185.57155
220.64753
260.36469
304.96583
354.64701
409.54929
469.75123
535.26247
606.01851
681.87729
762.61999
847.97503
2.2399283e-05
9.5973492e-05
0.00022836687
0.00046023253
0.00085677918
0.0015238918
0.0026286726
0.0044387403
0.0073735858
0.012078873
0.019548815
0.031293282
0.049572223
0.077729663
0.12065628
0.18539862
0.28199119
0.42449553
0.63235514
0.93206216
1.3591566
1.9606211
2.7975978
3.9484233
5.5119237
7.6107924
10.394959
14.044742
18.773536
24.829829
32.498296
42.099712
53.989508
68.554809
86.209879
107.38991
132.54326
162.12232
196.57301
236.32358
281.77263
333.27698
391.13974
455.59889
526.81676
604.87083
689.74607
781.329
879.40384
983.65115
1093.6524
1208.926
2.4372272e-05
0.00010685132
0.00026097187
0.0005390517
0.0010271619
0.0018704655
0.0033030969
0.0057063728
0.0096867903
0.01620834
0.026765735
0.043670255
0.070432197
0.11230554
0.17705858
0.27598849
0.4252931
0.64780719
0.97523634
1.4508772
2.1328676
3.097997
4.4459553
6.3039927
8.8317483
12.226064
16.725482
22.614076
30.224292
39.93838
52.18808
67.452319
86.252629
109.14631
136.71718
169.56424
208.28839
253.47752
305.69067
365.44149
433.18177
509.28552
594.03414
687.6032
790.05129
901.31119
1021.1837
1149.3342
1285.2923
1428.4548
1578.0966
1733.4238
2.6581174e-05
0.00011978531
0.00030022758
0.00063688303
0.0012467993
0.0023296346
0.0042196673
0.0074718779
0.012988508
0.022226729
0.037500742
0.062435059
0.10261123
0.16650789
0.26677468
0.42198916
0.65894951
1.0156591
1.5450298
2.3194148
3.4359503
5.0226208
7.2449462
10.312979
14.488312
20.090594
27.503089
37.176644
49.631602
65.457009
85.306775
109.89247
139.97273
176.33928
219.79993
271.15896
331.19562
400.64141
480.15706
570.30995
671.55292
784.20517
908.43586
1044.2511
1191.4843
1349.791
1518.6469
1697.3505
1885.0291
2080.6497
2283.0392
2490.962
2.9123476e-05
0.00013503344
0.00034858882
0.0007603906
0.0015324562
0.0029451158
0.0054837949
0.0099694229
0.017774365
0.031154199
0.053768429
0.091434134
0.15325793
0.25323264
0.41247388
0.66223658
1.0479072
1.6341025
2.5109921
3.8018751
5.6719437
8.3380007
12.078759
17.245166
24.270048
33.676244
46.082296
62.204902
82.857219
108.94245
141.44221
181.3999
229.89914
288.03784
356.89896
437.51886
530.85465
637.75172
758.91291
894.87039
1045.9614
1212.3086
1393.8055
1590.1081
1800.6313
2024.5517
2260.8156
2508.1515
2765.0877
3029.9739
3301.0165
3576.3869
3.1937725e-05
0.00015281663
0.00040792406
0.00091778992
0.0019087639
0.0037812638
0.0072493766
0.013555723
0.024827132
0.044638583
0.078896298
0.13716326
0.23462881
0.39493382
0.65410868
1.0659059
1.7087986
2.6948488
4.180517
6.3794177
9.5766253
14.143984
20.555609
29.402335
41.403851
57.417021
78.438958
105.60368
140.17134
183.50933
237.06569
302.33533
380.8202
473.98497
583.21011
709.74453
854.65987
1018.8083
1202.7858
1406.9021
1631.1582
1875.2327
2138.4758
2419.9127
2718.2539
3031.9131
3359.0313
3697.5056
4045.0228
4399.0969
4757.1208
5116.5193
3.5179593e-05
0.00017406404
0.00048024254
0.0011203194
0.0024082214
0.0049298232
0.0097554332
0.018796854
0.035420145
0.065408089
0.1185092
0.21079059
0.36815609
0.63141507
1.0633569
1.7582962
2.8544867
4.5496394
7.1195001
10.939124
16.505952
24.46329
35.622409
50.980954
71.735318
99.284642
135.22443
181.32839
239.51784
311.81847
400.30705
507.04943
634.03283
783.09583
955.85937
1153.6623
1377.5044
1627.999
1905.3376
2209.267
2539.0792
2893.6149
3271.2779
3670.0607
4087.5795
4521.1156
4967.6637
5423.9838
5886.6518
6352.122
6816.7945
7277.2213
3.869061e-05
0.00019939519
0.00057118612
0.0013822779
0.0030814562
0.0065329578
0.013367841
0.026593688
0.051635723
0.098047034
0.182267
0.33187723
0.59199584
1.0345269
1.7710574
2.970115
4.8793668
7.8527989
12.382509
19.133701
28.980845
43.041868
62.706744
89.65642
125.86811
173.6038
235.37971
313.91612
412.06762
532.73737
678.78012
852.89803
1057.5355
1294.7786
1566.2647
1873.106
2215.8311
2594.3467
3007.9185
3455.1738
3934.1222
4442.1921
4976.2831
5532.8275
6107.8618
6697.1014
7296.0181
7899.9197
8504.0271
9103.551
9693.7793
10270.338
4.2845622e-05
0.00022947381
0.00068513773
0.0017260167
0.0039999483
0.0088039161
0.018669887
0.03841172
0.076956886
0.15042007
0.28711249
0.53536345
0.97537481
1.7363096
3.0200707
5.1327588
8.5244063
13.836489
21.955447
34.068805
51.718999
76.848621
111.83022
159.47404
223.00797
306.02663
412.4085
546.20325
711.49315
912.23966
1152.1225
1434.3812
1761.668
2135.9222
2558.2706
3028.9588
3547.3156
4111.7503
4719.7803
5368.0855
6052.5854
6768.5336
7510.6244
8273.1073
9049.9044
9834.7193
10621.161
11402.839
12173.464
12926.931
13657.425
14359.745
4.7409094e-05
0.00026587962
0.00082918578
0.0021813681
0.0052709936
0.012075747
0.026594068
0.056681685
0.11733387
0.23629109
0.4633136
0.88484614
1.6461986
2.9836181
5.2683987
9.0644445
15.199189
24.845548
39.609775
61.617258
93.585585
138.87318
201.49176
286.0731
397.78446
542.19205
725.07726
952.21323
1229.1196
1560.8127
1951.5656
2404.6946
2922.3857
3505.5689
4153.8458
4865.472
5637.3897
6465.306
7343.8088
8266.5116
9226.2184
10215.099
11224.866
12246.952
13272.675
14293.395
15300.656
16286.294
17242.547
18162.139
19038.388
19865.582
5.2658429e-05
0.00030982151
0.0010139753
0.002793421
0.0070583838
0.016871813
0.038667652
0.085519897
0.18311836
0.38021124
0.76606479
1.4982966
2.84504
5.2455621
9.392533
16.337095
27.614123
45.380317
72.552274
112.92678
171.26274
253.30413
365.72698
516.00069
712.16312
962.51958
1275.2815
1658.1726
2118.0383
2660.4819
3289.5549
4007.5213
4814.708
5709.4453
6688.095
7745.1569
8873.441
10064.29
11307.837
12593.278
13909.155
15243.627
16584.718
17920.567
19239.624
20530.833
21783.758
22988.705
24136.812
25220.106
26231.59
27165.67
5.8585144e-05
0.00036352057
0.0012523655
0.0036268634
0.0096136057
0.024037071
0.057441433
0.13201942
0.2927022
0.6269057
1.2979565
2.5986375
5.0321735
9.4274248
17.092375
30.004232
51.026289
84.131575
134.60377
209.17939
316.09428
465.00359
666.75733
933.0313
1275.8323
1706.9112
2237.1284
2875.839
3630.3389
4505.4178
5503.0463
6622.2142
7858.9203
9206.3007
10654.876
12192.893
13806.722
15481.299
17200.569
18947.921
20706.595
22460.02
24192.177
25887.835
27532.756
29113.852
30619.299
32038.609
33362.657
34583.689
35695.358
36693.186
6.5265997e-05
0.00042918015
0.0015644308
0.0047793172
0.013328491
0.034946656
0.087256675
0.20868963
0.47945179
1.0594894
2.2534217
4.6147465
9.1025351
17.300848
31.703305
56.051414
95.69728
157.94242
252.2901
390.54442
586.69872
856.57902
1217.2412
1686.1573
2280.2559
3014.898
3902.8981
4953.682
6172.6409
7560.7306
9114.3313
10825.358
12681.591
14667.178
16763.266
18948.696
21200.728
23495.744
25809.903
28119.722
30402.561
32637.061
34803.47
36883.81
38862.064
40724.244
42458.419
44054.684
45505.092
46803.556
47945.813
48929.896
7.2995608e-05
0.00051099769
0.0019765986
0.0063974786
0.018830094
0.051907992
0.13566171
0.33804015
0.80518101
1.8356094
4.0079839
8.3859098
16.822304
32.37611
59.833075
106.29085
181.73221
299.47911
476.40662
732.8078
1091.8411
1578.5539
2218.5442
3036.3846
4053.9562
5288.886
6753.2515
8452.6535
10385.726
12544.094
14912.741
17470.72
20192.111
23047.141
26003.36
29026.802
32083.076
35138.323
38160.02
41117.65
43983.206
46731.56
49340.595
51791.331
54067.916
56157.55
58050.335
59739.118
61219.227
62488.257
63545.954
64394.564
8.1996092e-05
0.00061324967
0.0025303041
0.0087081919
0.027139932
0.078852787
0.21608313
0.56148803
1.3868682
3.2602765
7.3002696
15.581078
31.723974
61.681442
114.66869
204.12929
348.5556
571.94614
903.69169
1377.7495
2031.0792
2901.4469
4024.8234
5432.6575
7149.3568
9190.2813
11560.413
14253.799
17253.764
20533.788
24058.912
27787.486
31673.098
35666.513
39717.507
43776.503
47795.947
51731.375
55542.279
59192.668
62651.353
65892.018
68893.182
71638.022
74114.08
76312.946
78229.832
79863.361
81214.877
82288.144
83089.406
83626.543
9.2265307e-05
0.0007425295
0.0032849084
0.012065476
0.039955584
0.12264315
0.35292716
0.95693751
2.4506355
5.9352975
13.608405
29.567741
60.954661
119.40452
222.65203
396.00487
673.30028
1096.9469
1716.7582
2587.4897
3765.2506
5303.1947
7247.0196
9630.8688
12474.182
15779.779
19533.322
23704.066
28246.719
33104.078
38210.132
43493.312
48879.632
54295.523
59670.239
64937.772
70038.193
74918.71
79534.169
83847.127
87827.695
91453.213
94707.726
97581.394
100069.75
102173.17
103895.78
105246.02
106234.39
106873.33
107179.67
107164.35
0.00010412883
0.00090757489
0.0043254209
0.017041111
0.06015507
0.19552501
0.59158764
1.6742639
4.4428003
11.070593
25.938373
57.228698
119.11062
234.34722
436.8998
773.87017
1306.0312
2106.3301
3256.1108
4839.2938
6935.2261
9611.1899
12915.654
16873.247
21481.983
26712.9
32511.924
38803.509
45495.445
52484.25
59660.564
66914.151
74138.203
81232.789
88107.416
94682.613
100891.06
106677.86
112000.07
116826.12
121134.91
124914.73
128162.1
130880.73
133079.85
134774.44
135980.87
136723.43
137024.69
136905.78
136408.93
135529.09
0.00011815682
0.0011203189
0.0057887779
0.024566064
0.092744227
0.31986932
1.0185277
3.0083116
8.2626068
21.142425
50.492735
112.78477
236.20617
465.14015
863.97028
1518.8356
2536.0645
4036.6075
6146.7203
8986.1049
12655.339
17224.605
22725.508
29146.968
36435.38
44498.596
53212.776
62430.983
71992.38
81731.112
91484.153
101097.73
110432.15
119365.02
127792.91
135632.27
142819.12
149307.6
155068.43
160087.13
164361.9
167901.88
170724.63
172855.85
174323.98
175167.88
175413.25
175114.22
174312.06
173015.83
171317.5
169216.39
0.00013435606
0.0013990885
0.0078818057
0.036194645
0.14661336
0.53757858
1.8024261
5.5522594
15.758042
41.303181
100.23309
225.86732
474.20861
931.08482
1716.6184
2984.4696
4914.1567
7696.4544
11513.808
16519.095
22816.516
30447.949
39386.653
49538.563
60750.163
72821.078
85519.176
98596.151
111801.96
124897.04
137661.73
149902.79
161457.19
172193.31
182011.11
190840.57
198638.51
205385.41
211081.99
215745.76
219407.44
222109.23
223898.44
224834.88
224964.32
224367.1
223092.81
221180.1
218747.35
215801.45
212405.61
208583.52
0.00015392358
0.0017689336
0.0109324
0.054587249
0.23799382
0.92911604
3.2803873
10.526028
30.799052
82.434387
202.52978
458.57105
961.16788
1874.0029
3416.0972
5852.419
9471.777
14554.793
21337.873
29980.312
40540.925
52967.872
67102.068
82692.099
99416.904
116912.1
134796.18
152693.91
170255.08
187168.13
203168.6
218043.09
231628.94
243812.39
254524.53
263735.31
271447.91
277692.41
282520.02
285998.37
288204.56
289229.9
289152.51
288092.34
286115.38
283299.4
279803.33
275650.56
270916.96
265657.71
259983.81
253938.33
0.00017681453
0.0022663411
0.015473404
0.084404287
0.3972563
1.6530789
6.1427496
20.492779
61.632887
167.81535
415.63465
941.3619
1961.013
3780.3956
6786.4452
11415.616
18102.486
27218.667
39015.421
53582.484
70830.512
90498.032
112178.76
135361.99
159478.24
183943.2
208195.41
231725.03
254093.02
274941.44
293996.36
311064.68
326027.12
338831.28
349477.99
358013.68
364520.51
369105.98
371894.53
373024.8
372627.97
370880.6
367877.52
363755.32
358735.21
352861.84
346235.26
338956.13
331166.98
322933.85
314347.33
305476.37
0.00020442051
0.0029474941
0.022380017
0.13404072
0.68282331
3.0304772
11.837765
40.949535
126.11595
347.77516
864.13114
1948.1448
4014.3508
7617.9747
13414.089
22077.805
34201.45
50193.542
70204.252
94092.933
121440.2
151596.64
183754.24
217025.17
250515.78
283387.22
314899.24
344436.31
371520.6
395808.57
417083.02
435239.29
450267.01
462230.47
471251.18
477495.73
481163.23
482467.99
481628.07
478898.47
474434.84
468445.23
461256.4
452938.84
443642.79
433521.22
422771.35
411493.99
399812.9
387822.01
375612.03
363260.84
0.00023781219
0.0038954447
0.033144482
0.2190125
1.2103246
5.7287979
23.476975
83.914703
263.446
731.96988
1814.8813
4051.3902
8217.3137
15282.394
26293.146
42202.874
63693.28
91036.535
124031.35
162020.63
203976.35
248624.81
294583.17
340484.1
385073.49
427278.94
466242.39
501331.94
532132.15
558420.12
580138.12
597368.05
610289.52
619154.14
624259.23
625936.86
624545.45
620464.05
613966.71
605340.94
595095.22
583316.83
570268.42
556145.44
541248.67
525723.27
509743.02
493440.86
476940.79
460345.78
443746.18
427219.93
0.0002786867
0.0052408636
0.050364281
0.36888589
2.2154336
11.174334
47.902023
176.13283
560.64652
1560.4111
3838.3035
8437.501
16760.982
30415.876
50941.91
79498.447
116605.53
162012.2
214714.73
273100.79
335168.06
398760.6
461782.76
522356.75
578925.47
630297.88
675651.56
714505.46
746674.22
772208.94
791349.41
804486.67
812082.93
814652.99
812720.63
806868.32
797574.77
785273.83
770765.93
754102.38
735805.12
716044.51
695334.39
673868.37
651899.42
629615.46
607188.55
584759.6
562449.25
540356.93
518565.25
497143.11
0.00032910439
0.0071898392
0.078685342
0.64176189
4.1933789
22.499195
100.49296
378.05526
1212.5472
3358.9546
8146.2397
17534.295
33945.085
59854.386
97253.496
147161.33
209346.07
282321.73
363584.82
449993.22
538182.49
624924.6
707395.25
783329.22
851077.18
909587.43
958341.32
997265.97
1026637.5
1046982.1
1058984.5
1063497.2
1061349.4
1053460.7
1040508.2
1023078.5
1002621.7
979100.81
953526.63
925811.33
896946.81
867153.37
836817.73
806204.53
775556.99
745069.69
714905.49
685195.33
656044.61
627536.08
599733.82
572687.06
0.00039189845
0.010080503
0.12670672
1.1556159
8.2179476
46.770154
216.54812
828.12666
2657.5358
7276.3352
17286.612
36226.132
68017.735
116079.63
182415.03
267019.97
367788.35
480879.63
601376.58
724007.2
843775.91
956406.39
1058583.5
1148022.9
1223409.7
1284259
1330747.2
1363545.9
1383687.1
1392395.1
1390904.2
1380821.4
1363289.7
1339301.2
1310750.1
1277353.9
1241588.9
1202766.8
1162471.9
1120976.5
1078916.7
1036661.1
994562.51
952892.35
911873.71
871680.77
832448.89
794279.57
757246.54
721400.62
686774.4
653385.08
0.00047140693
0.014476593
0.21085204
2.1584881
16.693447
100.36007
478.62206
1846.6432
5883.2424
15803.816
36537.209
74130.367
134378.7
221173.28
335254.65
473835.65
631127.56
799450.18
970515.04
1136534.1
1290978.1
1428956.8
1547289.5
1644370.4
1719898.3
1774552.9
1809692.5
1827122.2
1828958.5
1817414.2
1794248.4
1761572.5
1721905.2
1675872.5
1625509.6
1571079.9
1514591.3
1456627.7
1398095.2
1339500.7
1281378.8
1224112.3
1168012.9
1113315
1060194.3
1008775.4
959141.91
911343.35
865402.04
821319.2
779082.19
738661.66
0.00057365891
0.021351369
0.36366022
4.1912255
35.182127
222.18503
1083.001
4179.5657
13107.964
34280.363
76618.121
149695.75
260891.52
412835.24
602284.57
820728.03
1056233.4
1295715.5
1526924.1
1739778.4
1926990.2
2084109
2209208.5
2302425.5
2365393.6
2400682.6
2411346
2400701.5
2372590.4
2329573.9
2274122.1
2210708.3
2140159.2
2064748.6
1985209.7
1903932.3
1822078.8
1740438.9
1659784.9
1580649.5
1503478.5
1428591.8
1356220.2
1286516.8
1219573.4
1155432.4
1094096.7
1035538.5
979706.4
926531.6
875944.65
827850.95
0.00070632935
0.032441926
0.65212707
8.4793323
76.983003
507.00275
2502.7616
9568.8099
29276.102
73957.314
158777.32
297239.89
496201.64
752937.21
1055432.4
1385315.5
1721861.7
2045608.3
2340770.7
2596319.2
2805980.3
2967564.2
3082020.5
3152620.3
3184021
3181447.2
3150398.6
3095296.1
3021477
2934589.9
2835587.6
2730300.2
2618838.5
2504902.2
2389949.6
2275615.5
2163051.2
2053051.6
1946251.4
1843083.8
1743854.9
1648751.9
1557870.6
1471233.5
1388806.7
1310513
1236243.5
1165865.5
1099230
0.0008829805
0.050959981
1.2201475
17.913497
174.95565
1190.7087
5889.6011
22074.292
65269.248
158031.79
323906.17
578374.26
921905.67
1338688.7
1800891.3
2275652
2731733.8
3144021.9
3495480.6
3777092.4
3986579.6
4126602.1
4202936.1
4223576.6
4197404.5
4133418.7
4037897.9
3917924.6
3782867.8
3635294.1
3479821.9
3318755.4
3156854.9
2996161.4
2838212.8
2684370.4
2535597.6
2392520
2255548.9
2124907.3
2000683.8
1882858.4
1771329.8
1665935.8
1566470.7
1472698.9
1384365.7
1301205.8
1222950.1
0.0011221283
0.083095384
2.3911081
39.603925
412.9575
2872.1381
14063.905
51093.271
144606.83
333043.52
648024.14
1099359.8
1668911.7
2315690.1
2987732.3
3634437
4215158.3
4702957.7
5084475.4
5357558.5
5528063.2
5606660.3
5605740
5540385.9
5423357.2
5266342.3
5081519.3
4875612.3
4657958.9
4431511
4202583.1
3975135.7
3752223.6
3535801.2
3327194.5
3127375.2
2936939.7
2756172.1
2585137.8
2423734.5
2271741.2
2128851.3
1994699
1868880.7
1750971
1640535.2
1537138.9
1440355.1
1349770.2
0.0014547614
0.14132769
4.9284482
91.814777
1011.7756
7096.297
33940.165
118108.63
316932.39
689353.76
1266957.1
2035379.8
2937154.6
3890863.7
4813948.8
5639496.4
6323806.6
6846344.4
7205363
7412110.7
7485423.7
7447431.6
7319141.6
7120325.6
6871026.4
6591287.4
6283520.8
5967186.3
5641679.7
5318663.2
5002190.4
4695437.8
4400788.6
4119682.6
3852910.6
3600848.3
3363527
3140710
2931976
2736776.4
2554482
2384416.1
2225879.7
2078169.8
1940593.1
1812475.9
1693170.4
1582060.2
1478562.8
0.0019281419
0.25210373
10.732852
223.59869
2570.045
17897.741
82396.952
271340.24
683970.84
1395805.7
2412676.9
3661068.4
5015787
6341672.5
7526806.6
8498406.5
9223544.7
9701225.6
9951771.2
10007148
9904855.2
9680804.5
9357979
8971728.3
8549806.2
8103037.6
7644168.5
7182162.2
6729531.7
6291798.3
5872414.8
5473632.8
5096791.3
4742394.8
4410354.2
4100195.6
3811168.9
3542332.6
3292629.3
3060940.5
2846127.9
2647061.9
2462641.7
2291808.6
2133555
1986929.5
1851039.7
1725053.2
1608196.9
0.0026242144
0.47476814
24.815637
572.79185
6754.758
45887.143
200211.16
616388.3
1446854.8
2754226.5
4461707.5
6383406.8
8298266.1
10016604
11414123
12435618
13080972
13385722
13403559
13195987
12818642
12317976
11728499
11102327
10452535
9795349.8
9144567.7
8514777.8
7912570.8
7341922.7
6804806.5
6301925.7
5833100.1
5397464.5
4993693.2
4620187.4
4275191.3
3956873.7
3663391.5
3392935
3143758.5
2914199.6
2702690.9
2507765.1
2328057
2162302.4
2009335.2
1868083.5
1737564.5
0.003688564
0.95120354
61.230448
1544.6132
18315.61
119004.54
484242.01
1377417.6
2986873.8
5277585.1
7991105.1
10768375
13284052
15321322
16783866
17671656
18045444
17994992
17621225
17008031
16229510
15362841
14433998
13496351
12559431
11647730
10775976
9951537
9178292.7
8457603.6
7789047.1
7171089.6
6601503.1
6077611.3
5596495.5
5155154.3
4750604.3
4379945.8
4040407.6
3729374.1
3444400.6
3183218.5
2943734.3
2724024.9
2522328.8
2337038
2166687.6
2009946.1
1865604.3
0.0053865012
2.0460105
162.07852
4384.1654
51031.593
310418.47
1158934.4
3011718.9
5990778.8
9786938.2
13827804
17547037
20557218
22686041
23931475
24395827
24228652
23595127
22624896
21437046
20146484
18795703
17448104
16119850
14846316
13643988
12519452
11475417
10511559
9625465.4
8813389
8070851.6
7393036.7
6775025.5
6211965.6
5699186.9
5232269.9
4807081.8
4419792.6
4066877.8
3745112.1
3451555.8
3183538.5
2938639.9
2714670.2
2509651.2
2321798.8
2149505.2
1991322.1
0.0082414327
4.775887
462.63982
13080.839
145348.37
808948.52
2726151.7
6405400.8
11619713
17504297
23064165
27581519
30733303
32513016
33097472
32735948
31698230
30187155
28391345
26481591
24515016
22591742
20715975
18942362
17287980
15758090
14352257
13066667
11895286
10830769
9865142.9
8990302.6
8198325.9
7481650.5
6833177.9
6246329.1
5715062.4
5233866.7
4797740.2
4402161.4
4043055.5
3716758.2
3419979.8
3149770.4
2903485.7
2678756.9
2473464.8
2285713.7
2113806.2
0.013359733
12.251956
1430.7453
40910.657
420243.38
2088705
6254297.3
13167641
21690846
30093798
37003137
41773166
44371032
45108787
44421442
42752071
40419348
37718056
34902077
32048086
29302502
26663553
24198722
21926967
19849411
17960121
16248970
14703723
13311195
12058021
10931174
9918302.7
9007914.1
8189449.1
7453293.6
6790754.4
6194011
5656054
5170617.7
4732113.1
4335561.6
3976532.8
3651086.4
3355718.3
3087311.6
2843091.8
2620594.4
2417627.6
2232239.2
0.023300078
35.056481
4811.4815
133407.69
1221690.9
5290328.7
13874737
25991147
38785769
49577981
56998229
60908584
61857443
60611199
57936471
54344244
50287636
46140969
42006179
38089929
34379195
30959187
27844244
25027139
22491808
20217751
18182668
16364148
14740563
13291571
11998378
10843859
9812563.3
8890643.6
8065752.4
7326919.4
6664423.1
6069664
5535044.5
5053856.2
4620178.8
4228787.3
3875069.7
3554953.1
3264836.7
3001530.9
2762220.9
2544415.8
2345905.9
0.044635016
113.78256
17621.177
449523.48
3527076.4
12993806
29492147
48933019
66135534
78052613
84176031
85460528
83289119
78985126
73424741
67320201
61209598
55220232
49634998
44419358
39674605
35407286
31591460
28193084
25174530
22497732
20126095
18025538
16164923
14516151
13054099
11756456
10603514
9577919.3
8664432.2
7849688.6
7121981.8
6471061.3
5887952.8
5364797.6
4894711.2
4471659.2
4090347.8
3746129
3434915.6
3153097
2897510.3
2665365.6
2454196.7
0.096701752
426.7954
70094.235
1543803.8
9959419.1
30555332
59499596
87304447
1.0710674e+08
1.1716914e+08
1.1907701e+08
1.153881e+08
1.084763e+08
99795151
90541845
81509671
72823748
64852674
57522597
50938428
45093620
39928355
35377137
31374239
27856968
24767309
22052723
19666326
17566672
15717346
14086491
12646329
11372694
10244585
9243772.5
8354430.5
7562820.7
6857011
6226631
5662660
5157243.3
4703534.5
4295558.6
3928094.9
3596576.2
3296965.1
3025762.9
2779883.8
2556608.7
0.24689146
1884.77
300024.9
5301572.6
27016978
67860334
1.1287112e+08
1.467444e+08
1.6420241e+08
1.67461e+08
1.6130969e+08
1.5015881e+08
1.3659607e+08
1.2242036e+08
1.0898891e+08
96362866
84973306
74668766
65529173
57523453
50534098
44442934
39139077
34521566
30500215
26995435
23937652
21266448
18929574
16881961
15084794
13504673
12112875
10884692
9798864
8837083.6
7983572.3
7224715.3
6548750.3
5945501.6
5406153.4
4923056.9
4489565.9
4099897.1
0.7870365
9947.8545
1356321.3
17759182
69009362
1.4037419e+08
1.9957539e+08
2.3121003e+08
2.3774407e+08
2.2772709e+08
2.0962255e+08
1.882277e+08
1.6654616e+08
1.4634223e+08
1.2792867e+08
1.1164182e+08
97155906
84462264
73498884
64044788
55897620
48875526
42818862
37589481
33068435
29153753
25758316
22807853
20239123
17998294
16039530
14323787
12817782
11493110
10325503
9294195.4
8381395.3
7571831.7
6852376.2
6211722.6
5640116.7
5129128.5
4671459
4260775.9
3.3932872
63116.182
6280558.3
56303429
1.6246338e+08
2.6685598e+08
3.2644387e+08
3.4023388e+08
3.2474235e+08
2.952359e+08
2.6117419e+08
2.2757765e+08
1.9749349e+08
1.7026302e+08
1.4700012e+08
1.2668663e+08
1.0905333e+08
94046480
81269908
70382594
61094222
53157746
46363992
40537309
35529866
31217296
27494973
24274853
21482798
19056308
16942627
15097158
13482145
12065566
10820215
9722936.9
8753982
7896475.2
7135967.4
6460061.8
5858100.9
5320903.9
4840546.2
4410169.9
22.006093
475149.26
28491359
1.6319923e+08
3.4500229e+08
4.6069881e+08
4.9121165e+08
4.6670028e+08
4.1947487e+08
3.6487004e+08
3.1225244e+08
2.6681623e+08
2.2758791e+08
1.9354959e+08
1.6539649e+08
1.4097378e+08
1.2046354e+08
1.0322448e+08
88699970
76432255
66045832
57230544
49729340
43330252
37857473
33164921
29131000
25654319
22650186
20047718
17787471
15819492
14101717
12598646
11280255
10121096
9099548.6
8197207.2
7398363.8
6689584.2
6059353.2
5497778.4
4996342.8
4547692.9
244.35348
4055762.3
1.1938582e+08
4.166952e+08
6.4780506e+08
7.1579084e+08
6.7811433e+08
5.9827355e+08
5.1292817e+08
4.2980341e+08
3.6075311e+08
3.031576e+08
2.5525183e+08
2.1576348e+08
1.8230085e+08
1.5434732e+08
1.3115703e+08
1.1183403e+08
95672057
82107792
70688316
61045473
52877945
45939883
40029246
34979497
30653003
26935739
23733012
20965991
18568897
16486699
14673256
13089778
11703581
10487052
9416812.7
8473013.8
7638765.8
6899661.8
6243382.9
5659371.3
5138556.6
4673123.2
5284.4946
35762437
4.3037975e+08
9.0335942e+08
1.0587785e+09
9.9633233e+08
8.5934467e+08
7.1979975e+08
5.9378399e+08
4.8707931e+08
4.0283305e+08
3.3415726e+08
2.8066179e+08
2.3541487e+08
1.9758392e+08
1.6654912e+08
1.4096074e+08
1.1975247e+08
1.0209707e+08
87343294
74972238
64565079
55781201
48344228