/*--------------------------------*- C++ -*----------------------------------*\
| =========                 |                                                 |
| \\      /  F ield         | OpenFOAM: The Open Source CFD Toolbox           |
|  \\    /   O peration     | Version:  2312                                  |
|   \\  /    A nd           | Website:  www.openfoam.com                      |
|    \\/     M anipulation  |                                                 |
\*---------------------------------------------------------------------------*/
FoamFile
{
    version     2.0;
    format      ascii;
    arch        "LSB;label=32;scalar=64";
    class       volScalarField;
    location    "0.1";
    object      T;
}
// * * * * * * * * * * * * * * * * * * * * * * * * * * * * * * * * * * * * * //

dimensions      [0 0 0 1 0 0 0];

internalField   nonuniform List<scalar> 
3221
(
300.63736
301.97187
303.36909
304.82791
306.34698
307.92466
309.55908
311.24812
312.9895
314.78069
316.61902
318.50164
320.42559
322.38778
324.38503
326.41413
328.47179
330.55469
332.65952
334.78293
336.92159
339.07223
341.2316
343.39649
345.5638
347.73045
349.8935
352.05005
354.19732
356.33262
358.45337
360.55709
362.6414
364.70405
366.74287
368.75585
370.74105
372.69666
374.62097
376.51238
378.36942
380.19069
381.97492
383.72091
385.42758
387.09395
388.71911
390.30225
391.84265
393.33969
394.79287
396.20179
300.64503
301.99561
303.40964
304.88599
306.42324
308.0197
309.67343
311.38224
313.14375
314.95538
316.81438
318.71786
320.66277
322.64598
324.66427
326.71434
328.79282
330.89634
333.02151
335.16495
337.3233
339.49322
341.67144
343.85472
346.03991
348.22391
350.40372
352.57644
354.73925
356.88945
359.02442
361.14167
363.23882
365.31358
367.36381
369.38746
371.38259
373.3474
375.28018
377.17935
379.0434
380.87098
382.66081
384.41171
386.12261
387.79253
389.42058
391.00596
392.54793
394.04586
395.4992
396.90783
300.65996
302.0418
303.4885
304.99885
306.57131
308.20409
309.89512
311.64209
313.44248
315.29358
317.1925
319.13621
321.12155
323.14524
325.20395
327.29423
329.41264
331.55567
333.71984
335.90165
338.09767
340.30446
342.51866
344.73696
346.95613
349.17301
351.38455
353.58778
355.77985
357.958
360.11958
362.26206
364.38304
366.48022
368.55143
370.59463
372.60787
374.58934
376.53736
378.45033
380.32679
382.16539
383.96488
385.72411
387.44203
389.1177
390.75026
392.33894
393.88305
395.38199
396.83527
398.24286
300.68183
302.10943
303.60395
305.16403
306.78797
308.47379
310.21926
312.02187
313.87891
315.78747
317.74448
319.74669
321.79075
323.87321
325.99051
328.13908
330.31526
332.51541
334.73588
336.97303
339.22326
341.48303
343.74885
346.01728
348.285
350.54875
352.80538
355.05186
357.28525
359.50275
361.70165
363.87938
366.03352
368.16173
370.26183
372.33178
374.36963
376.37359
378.34197
380.27323
382.16592
384.01873
385.83045
387.59998
389.32633
391.00861
392.64601
394.23783
395.78345
397.28232
398.73404
400.13866
300.71042
302.19783
303.75487
305.37992
307.07108
308.82614
310.64259
312.51771
314.44851
316.43184
318.46433
320.54251
322.66275
324.82136
327.01454
329.23845
331.48925
333.76305
336.05599
338.36426
340.68406
343.01166
345.34341
347.67574
350.00517
352.32833
354.64195
356.94289
359.22815
361.49482
363.74016
365.96155
368.15651
370.32272
372.45797
374.56022
376.62754
378.65816
380.65043
382.60284
384.51401
386.38268
388.20771
389.98807
391.72286
393.41125
395.05253
396.64609
398.19139
399.68799
401.13558
402.5343
300.74561
302.30665
303.94063
305.64565
307.4195
309.25967
311.16335
313.12747
315.14875
317.22368
319.34859
321.51966
323.73296
325.98446
328.27008
330.58567
332.92709
335.29021
337.67089
340.06506
342.4687
344.87788
347.28872
349.69747
352.10049
354.49425
356.87535
359.24053
361.58668
363.91082
366.21014
368.48199
370.72385
372.93337
375.10837
377.24681
379.3468
381.40661
383.42466
385.39949
387.32982
389.21446
391.05237
392.84264
394.58446
396.27712
397.92003
399.51269
401.05469
402.54571
403.98557
405.37452
300.78738
302.43581
304.1611
305.961
307.83294
309.77402
311.78104
313.85054
315.97883
318.162
320.39599
322.67657
324.99943
327.36015
329.75426
332.17729
334.62473
337.09212
339.575
342.06901
344.56986
347.07333
349.57532
352.07186
354.55911
357.03336
359.49106
361.92881
364.3434
366.73176
369.09104
371.41852
373.71168
375.96818
378.18584
380.36268
382.49686
384.58673
386.63078
388.62769
390.57626
392.47543
394.32431
396.12211
397.86817
399.56193
401.20296
402.7909
404.3255
405.80659
407.23413
408.60854
300.83577
302.58545
304.41656
306.3264
308.31195
310.36984
312.49641
314.68772
316.93958
319.24762
321.60728
324.01387
326.4626
328.94859
331.46696
334.01277
336.58111
339.16714
341.76602
344.37305
346.98358
349.59312
352.19728
354.79184
357.37273
359.93605
362.47807
364.99528
367.48432
369.94209
372.36565
374.75228
377.09945
379.40486
381.66638
383.88209
386.05027
388.16936
390.23799
392.25498
394.21929
396.13003
397.98647
399.788
401.53416
403.22458
404.859
406.43726
407.9593
409.42512
410.83488
412.18916
300.89092
302.75601
304.70772
306.74285
308.85782
311.04873
313.31134
315.64113
318.03335
320.48304
322.98508
325.53421
328.12509
330.75232
333.41046
336.0941
338.79786
341.51639
344.24447
346.97696
349.70884
352.43529
355.15159
357.85324
360.53592
363.19552
365.82815
368.43016
370.99809
373.52877
376.01924
378.46679
380.86892
383.22339
385.52818
387.78147
389.98169
392.12744
394.21755
396.251
398.22696
400.14478
402.00394
403.80405
405.54488
407.22629
408.84825
410.41083
411.91418
413.35853
414.74423
416.07207
300.95303
302.94809
305.03565
307.21189
309.47259
311.81318
314.22876
316.71413
319.26387
321.87233
324.53371
327.24211
329.99153
332.77595
335.58932
338.42564
341.27896
344.14343
347.01331
349.88299
352.74706
355.60027
358.43757
361.25415
364.04543
366.80709
369.53507
372.2256
374.87515
377.4805
380.03871
382.5471
385.00329
387.40512
389.75074
392.03851
394.26704
396.43517
398.54195
400.58663
402.56865
404.4876
406.34325
408.13549
409.86435
411.52998
413.13261
414.67257
416.15027
417.56617
418.92087
420.21536
301.02238
303.16257
305.40184
307.73563
310.15899
312.66657
315.25267
317.91131
320.63625
323.42106
326.25916
329.14386
332.06843
335.02608
338.01009
341.01377
344.03053
347.05391
350.07759
353.09547
356.10164
359.0904
362.05636
364.99437
367.8996
370.76752
373.59392
376.37492
379.10698
381.78688
384.41174
386.979
389.4864
391.93199
394.31412
396.63141
398.88274
401.06725
403.18428
405.2334
407.21438
409.12714
410.97178
412.74851
414.4577
416.09979
417.67532
419.18494
420.62931
422.00918
423.32541
424.57923
301.09931
303.40051
305.8081
308.31669
310.92045
313.61311
316.38807
319.23839
322.15691
325.13628
328.16898
331.24744
334.36404
337.51115
340.68123
343.8668
347.06055
350.25532
353.44416
356.62037
359.77751
362.90944
366.01036
369.07482
372.09772
375.07436
378.0004
380.87193
383.68542
386.43774
389.12614
391.74825
394.30202
396.7858
399.19823
401.53825
403.80512
405.99832
408.11759
410.1629
412.13439
414.03239
415.85736
417.60992
419.29077
420.90074
422.44069
423.91159
425.31444
426.65026
427.92019
429.1257
301.18424
303.66319
306.25665
308.95824
311.7611
314.65791
317.64098
320.7023
323.8336
327.02645
330.27227
333.56244
336.8883
340.24127
343.61285
346.99468
350.3786
353.75667
357.12122
360.4649
363.78072
367.06207
370.30274
373.49697
376.63944
379.7253
382.75019
385.71021
388.60195
391.42243
394.16913
396.83997
399.43325
401.94767
404.38228
406.73645
409.00988
411.20252
413.31458
415.34647
417.2988
419.17235
420.96803
422.68687
424.32999
425.89859
427.39393
428.81732
430.17007
431.45354
432.66914
433.81861
301.27764
303.95212
306.75006
309.66397
312.68577
315.80692
319.01847
322.31112
325.67535
329.10146
332.57962
336.09999
339.65275
343.22816
346.81665
350.40885
353.99562
357.56816
361.11801
364.63714
368.11796
371.55338
374.9368
378.26219
381.52408
384.71755
387.83829
390.88251
393.84703
396.72917
399.52675
402.23809
404.86195
407.39751
409.84434
412.20237
414.47182
416.65319
418.74725
420.75494
422.6774
424.5159
426.27187
427.94678
429.5422
431.05977
432.50112
433.86792
435.16185
436.38458
437.5378
438.62352
301.38009
304.26903
307.29132
310.43814
313.70003
317.067
320.52862
324.07413
327.69251
331.37259
335.10308
338.87275
342.67039
346.48498
350.30568
354.12196
357.92361
361.70087
365.44445
369.14557
372.79604
376.38831
379.91545
383.37122
386.75009
390.04719
393.25836
396.38012
399.40961
402.34458
405.18338
407.92484
410.56834
413.11368
415.56106
417.91106
420.16455
422.32268
424.38683
426.35857
428.2396
430.03178
431.73704
433.35737
434.8948
436.35141
437.72924
439.03034
440.25674
441.41042
442.49337
443.50784
301.49221
304.61588
307.88381
311.28561
314.81021
318.44593
322.18064
326.00184
329.89678
333.85254
337.85619
341.89483
345.95569
350.02621
354.09414
358.14764
362.17534
366.16641
370.11066
373.99857
377.82139
381.57112
385.24061
388.82354
392.31442
395.7086
399.00226
402.19235
405.27655
408.25321
411.12133
413.88049
416.53078
419.07278
421.50746
423.83616
426.06049
428.18235
430.2038
432.12709
433.95456
435.68867
437.33189
438.88676
440.35579
441.7415
443.04634
444.27276
445.42311
446.49969
447.50476
448.44084
301.61471
304.9949
308.53134
312.21184
316.02343
319.95249
323.98487
328.10603
332.30121
336.55547
340.85394
345.18178
349.52438
353.86747
358.1972
362.50027
366.764
370.97646
375.12653
379.20397
383.19949
387.10481
390.91266
394.61679
398.21196
401.69396
405.05947
408.30612
411.43231
414.4372
417.32064
420.0831
422.72559
425.24958
427.65695
429.9499
432.13091
434.20266
436.16799
438.02985
439.79128
441.45535
443.02512
444.50366
445.89398
447.19902
448.42168
449.56473
450.63088
451.62272
452.54279
453.39379
301.7484
305.40858
309.23819
313.22296
317.34771
321.5965
325.95284
330.39982
334.92029
339.49699
344.11271
348.75041
353.39338
358.02537
362.63075
367.1946
371.70284
376.1424
380.50122
384.76844
388.93436
392.99055
396.92983
400.74625
404.43509
407.99276
411.41676
414.70561
417.85866
420.87611
423.75887
426.50849
429.12704
431.61705
433.98141
436.2233
438.3461
440.35339
442.2488
444.03606
445.71889
447.30099
448.78604
450.17762
451.47921
452.69422
453.82589
454.87738
455.8517
456.75172
457.58019
458.34005
301.89418
305.8597
310.00916
314.32585
318.79197
323.38891
328.09739
332.89773
337.76999
342.69415
347.65029
352.61883
357.58066
362.5173
367.4111
372.24541
377.00471
381.67474
386.24264
390.69701
395.02796
399.22714
403.28774
407.2044
410.97319
414.59149
418.0579
421.37206
424.53457
427.5469
430.41122
433.13034
435.70757
438.1466
440.45145
442.62635
444.67568
446.60391
448.41555
450.11508
451.70692
453.19543
454.58484
455.87925
457.08261
458.19873
459.23124
460.1836
461.0591
461.86085
462.59182
463.25511
302.05303
306.35136
310.84959
315.52814
320.36616
325.34186
330.43273
335.61579
340.86777
346.16545
351.48581
356.8063
362.10505
367.36111
372.55464
377.66713
382.68159
387.58269
392.35688
396.99247
401.47966
405.81052
409.97892
413.98048
417.81242
421.47343
424.9635
428.28374
431.43624
434.42398
437.25062
439.92039
442.43796
444.80832
447.03669
449.12842
451.08891
452.92358
454.63778
456.23676
457.72566
459.10943
460.39285
461.58051
462.6768
463.6859
464.61177
465.45815
466.22857
466.92636
467.55466
468.11669
302.22607
306.88702
311.76544
316.83836
322.08135
327.46888
332.97457
338.57152
344.23264
349.9309
355.63969
361.33306
366.98603
372.57489
378.07745
383.47331
388.74409
393.87353
398.84768
403.65488
408.28579
412.73331
416.99247
421.06026
424.93548
428.6185
432.11104
435.41598
438.53722
441.47947
444.24804
446.84875
449.28776
451.57141
453.70619
455.69861
457.55511
459.28205
460.88561
462.37181
463.74642
465.01499
466.18282
467.25494
468.23612
469.13088
469.94345
470.67783
471.33773
471.92667
472.44791
472.90478
302.41455
307.47054
312.76335
318.266
323.94985
329.78488
335.74015
341.78414
347.88522
354.01197
360.13358
366.22021
372.24342
378.17651
383.99485
389.67619
395.20091
400.55215
405.71591
410.68104
415.43915
419.98451
424.31378
428.42587
432.32157
436.00332
439.47494
442.74145
445.80876
448.68352
451.37288
453.88436
456.22566
458.40457
460.42887
462.3062
464.04405
465.6497
467.13013
468.49206
469.74187
470.88566
471.92918
472.87787
473.73681
474.5108
475.20432
475.82153
476.36635
476.84238
477.253
477.60157
302.61984
308.10622
313.85071
319.82166
325.98532
332.30637
338.74843
345.27458
351.84781
358.43154
364.99014
371.48941
377.89708
384.18327
390.32091
396.28609
402.05827
407.62042
412.95903
418.06407
422.92872
427.54921
431.92447
436.0558
439.94646
443.60141
447.02694
450.23045
453.22013
456.00475
458.5934
460.99538
463.22
465.27649
467.17391
468.92103
470.52635
471.99798
473.34369
474.5708
475.68629
476.69672
477.60823
478.42657
479.15711
479.80488
480.37451
480.87034
481.29637
481.65629
481.95355
482.19149
302.84348
308.79885
315.03583
321.51711
328.2029
335.05157
342.02027
349.06563
356.14433
363.21383
370.23296
377.16264
383.96648
390.61136
397.06792
403.3109
409.31935
415.07672
420.5707
425.79309
430.73941
435.40855
439.80233
443.92498
447.78275
451.3835
454.73636
457.85137
460.73916
463.41074
465.87724
468.14975
470.23922
472.15628
473.91123
475.51393
476.9738
478.29974
479.50019
480.58306
481.55581
482.42538
483.19823
483.88038
484.4774
484.99447
485.43635
485.80749
486.11194
486.35341
486.53541
486.66107
303.0872
309.55383
316.32794
323.36549
330.61944
338.04062
345.57848
353.18198
360.80042
368.3843
375.88625
383.2618
390.47027
397.47537
404.24577
410.75545
416.98378
422.91549
428.5404
433.853
438.85199
443.53971
447.92148
452.00505
455.80015
459.31795
462.57067
465.57118
468.3327
470.86854
473.19189
475.31565
477.25232
479.01391
480.61187
482.05707
483.35973
484.52949
485.57537
486.50579
487.32855
488.05091
488.67959
489.22079
489.68021
490.06313
490.37433
490.61839
490.79935
490.92079
490.98658
490.99868
303.35296
310.37719
317.73739
325.38144
333.25366
341.29578
349.44804
357.65032
365.84328
373.96947
381.97455
389.80832
397.42574
404.78766
411.86141
418.621
425.04713
431.12686
436.85318
442.22433
447.24311
451.91603
456.25262
460.26475
463.96603
467.37125
470.49595
473.35598
475.96718
478.3452
480.50524
482.46194
484.2293
485.82059
487.24832
488.52421
489.65925
490.66367
491.54698
492.31796
492.98472
493.55473
494.03486
494.43145
494.75022
494.99658
495.17503
495.29052
495.34704
495.34735
495.29717
495.19569
303.64291
311.27568
319.27578
327.58142
336.12643
344.84162
353.65623
362.49939
371.30171
379.9967
388.5224
396.82264
404.84823
412.55779
419.91821
426.90469
433.50049
439.69633
445.48958
450.88334
455.88543
460.50735
464.7635
468.67038
472.24586
475.50858
478.47752
481.17155
483.60917
485.80827
487.786
489.55864
491.14155
492.54912
493.79478
494.89102
495.84945
496.68078
497.39486
498.00074
498.50672
498.92043
499.24876
499.49819
499.67421
499.78277
499.827
499.81332
499.74579
499.62484
499.45879
499.2469
303.95952
312.25692
320.9562
329.98384
339.26099
348.70527
358.23278
367.76
377.20589
386.49388
395.55382
404.32362
412.7505
420.79184
428.41539
435.59905
442.3302
448.60468
454.42562
459.8021
464.74791
469.28038
473.41937
477.1864
480.60385
483.69438
486.48044
488.98391
491.22583
493.22626
495.00414
496.57724
497.96212
499.17412
500.22745
501.13526
501.90959
502.56148
503.10104
503.53748
503.87915
504.13381
504.30812
504.40905
504.44079
504.41065
504.32238
504.17853
503.98754
503.74911
503.467
503.1417
304.30557
313.32955
322.79343
332.60942
342.68325
352.91668
363.21006
373.46502
383.58724
393.48904
403.0918
412.32791
421.14205
429.49179
437.34753
444.69171
451.51764
457.82795
463.63293
468.94882
473.79631
478.19928
482.18356
485.77595
489.00352
491.89294
494.47011
496.75978
498.78542
500.56906
502.13125
503.49105
504.66601
505.67229
506.52472
507.23687
507.82109
508.28867
508.64977
508.91374
509.08871
509.18286
509.20165
509.15354
509.04244
508.87244
508.65256
508.38329
508.06803
507.70875
507.31128
506.87688
304.68422
314.50339
324.80421
335.48147
346.42218
357.50886
368.62314
379.64933
390.47811
401.00987
411.15766
420.84927
430.02841
438.65493
446.70408
454.16506
461.03915
467.33753
473.07904
478.28824
482.99366
487.22624
491.0181
494.40153
497.40827
500.06894
502.41272
504.46708
506.25767
507.80826
509.14079
510.27537
511.23037
512.02257
512.66718
513.17804
513.56767
513.84748
514.02748
514.11732
514.12408
514.05747
513.92189
513.72307
513.47097
513.16665
512.81354
512.41513
511.9773
511.50187
510.99213
510.45029
305.09909
315.78961
327.00754
338.62636
350.51015
362.51825
374.50999
386.34969
397.9114
409.08315
419.77031
429.89775
439.41051
448.27335
456.46907
463.99618
470.86613
477.10037
482.72777
487.78227
492.30089
496.32206
499.88435
503.02555
505.78196
508.18796
510.27578
512.07531
513.61412
514.91746
516.00834
516.90774
517.63465
518.20621
518.63774
518.94327
519.13524
519.22531
519.22264
519.13825
518.97778
518.74813
518.46095
518.11764
517.72239
517.27959
516.79575
516.27336
515.71612
515.12656
514.50729
513.86051
305.55433
317.20102
329.42515
342.07393
354.98346
367.98497
380.91151
393.60453
405.92009
417.73401
428.9455
439.47899
449.28399
458.33345
466.62088
474.15687
480.96521
487.07946
492.53982
497.39049
501.67745
505.44681
508.7436
511.61093
514.08943
516.21695
518.02843
519.55586
520.82841
521.87244
522.71176
523.36808
523.86063
524.20678
524.42159
524.51931
524.51181
524.412
524.22765
523.96618
523.64199
523.25613
522.81491
522.32252
521.78708
521.21158
520.60031
519.95632
519.28264
518.58176
517.85591
517.10713
306.05473
318.75236
332.08191
345.85813
359.88275
373.95317
387.87155
401.45363
414.53663
426.98518
438.69493
449.59342
459.63864
468.81565
477.13218
484.6137
491.29863
497.23433
502.47342
507.07092
511.08201
514.56048
517.55763
520.12159
522.29694
524.1246
525.64181
526.88229
527.87644
528.65135
529.2313
529.63866
529.8924
530.01028
530.00613
529.89552
529.6894
529.39645
529.03466
528.60323
528.11307
527.56598
526.97345
526.33863
525.66665
524.96117
524.22573
523.46326
522.67641
521.86743
521.0383
520.19078
306.60585
320.46071
335.00647
350.01764
365.25371
380.47137
395.43686
409.93767
423.79214
436.85605
449.02536
460.23557
470.45796
479.69422
487.96995
495.32838
501.82481
507.52172
512.48492
516.78057
520.47305
523.62356
526.28929
528.52294
530.37257
531.88165
533.08931
534.0305
534.7365
535.23486
535.54958
535.70422
535.71627
535.60532
535.38345
535.05964
534.65987
534.18098
533.64064
533.03383
532.37902
531.67859
530.9391
530.16479
529.35988
528.52787
527.67185
526.79447
525.89805
524.98456
524.05569
523.11294
307.21419
322.34595
338.232
354.59669
371.14765
387.59273
403.65696
419.09761
433.71557
447.36168
459.9378
471.39339
481.71883
490.93719
499.09574
506.25835
512.49895
517.89622
522.52955
526.47622
529.80951
532.59757
534.90292
536.78225
538.28652
539.46118
540.34675
540.97878
541.38942
541.60632
541.65139
541.55178
541.32355
540.97937
540.5452
540.01361
539.42065
538.75165
538.03004
537.25779
536.44389
535.59315
534.71072
533.80072
532.86685
531.91224
530.93961
529.95125
528.94914
527.93496
526.91014
525.87591
307.8874
324.43137
341.79705
359.64608
377.62226
395.37531
412.58377
428.97397
444.33264
458.51179
471.4266
483.04783
493.3913
502.50651
510.46618
517.35728
523.27376
528.31103
532.56209
536.11499
539.05135
541.44557
543.36479
544.86901
546.01141
546.83874
547.39249
547.70798
547.81852
547.75088
547.52693
547.16905
546.70335
546.13443
545.48328
544.74919
543.95475
543.10492
542.20987
541.2749
540.30651
539.3096
538.28861
537.24726
536.18877
535.11587
534.03087
532.93573
531.83206
530.72123
529.60444
528.4826
308.63456
326.74447
345.74674
365.22428
384.74243
403.88228
422.27118
439.6058
455.66468
470.30973
483.47875
495.17236
505.43858
514.35847
522.03358
528.57589
534.10016
538.71864
542.53752
545.65497
548.16007
550.1326
551.64345
552.75514
553.52246
553.99242
554.20768
554.20139
554.01129
553.6585
553.16129
552.55746
551.85087
551.05974
550.18653
549.253
548.26912
547.24177
546.17861
545.08531
543.96727
542.82894
541.67416
540.50618
539.32775
538.14116
536.94833
535.75082
534.5499
533.34659
532.14196
530.93653
309.46653
329.31793
350.13415
371.39884
392.58109
413.18196
432.77433
451.02955
467.72744
482.75145
496.07334
507.73286
517.81736
526.44423
533.74659
539.8626
544.92805
549.07156
552.41171
555.05575
557.09917
558.626
559.70993
560.41518
560.79763
560.90281
560.77672
560.44808
559.95061
559.32011
558.55878
557.70572
556.7567
555.73782
554.65817
553.52994
552.36233
551.1624
549.93659
548.69017
547.42774
546.15317
544.86975
543.58018
542.28675
540.99131
539.69535
538.40008
537.10638
310.39642
332.19096
355.02211
378.24801
401.22011
423.34768
444.14868
463.27776
480.52983
495.82469
509.181
520.68766
530.47827
538.71053
545.55097
551.16437
555.70706
559.32301
562.14194
564.27887
565.83448
566.89572
567.53801
567.82634
567.81556
567.55781
567.08588
566.43145
565.64179
564.72654
563.70813
562.59489
561.41463
560.179
558.89756
557.58012
556.23478
554.86804
553.48545
552.09162
550.69045
549.2852
547.87855
546.47269
545.06942
543.67012
542.27591
540.88758
539.50573
311.44026
335.41092
360.48543
385.86268
410.75114
434.45748
456.44879
476.37763
494.07275
509.5082
522.76386
533.98799
543.36651
551.10041
557.39043
562.42751
566.38727
569.42749
571.6874
573.28826
574.33455
574.91454
575.10434
574.96942
574.5652
573.93508
573.12484
572.15797
571.07062
569.87083
568.58557
567.2327
565.82781
564.38225
562.90514
561.4048
559.88818
558.36096
556.82786
555.29275
553.75882
552.2287
550.70447
549.1878
547.67998
546.18196
544.69444
543.21785
541.75244
312.61782
339.03564
366.61378
394.34857
421.27641
446.59336
469.72689
490.34951
508.34806
523.77137
536.77578
547.57849
556.42261
563.55405
569.20744
573.59838
576.91987
579.34138
581.00966
582.05047
582.57083
582.65819
582.39124
581.82779
581.02502
580.04362
578.88416
577.61172
576.21669
574.74258
573.20519
571.61884
569.99648
568.34833
566.68259
565.00631
563.32534
561.64442
559.96742
558.29744
556.63698
554.988
553.35201
551.73013
550.12316
548.53163
546.9558
545.39575
543.8514
313.95383
343.13638
373.5152
403.8288
432.9093
459.84035
484.03126
505.20566
523.33784
538.57424
551.16281
561.39795
569.58322
576.00965
580.94405
584.62419
587.25776
589.02339
590.07304
590.53493
590.51616
590.112
589.37586
588.38431
587.20267
585.85396
584.36822
582.76611
581.08617
579.34793
577.56635
575.75414
573.92223
572.0794
570.23272
568.38801
566.55
564.7225
562.90848
561.11028
559.32968
557.568
555.82616
554.10476
552.4041
550.72428
549.06516
547.42647
545.80777
315.47971
347.80189
381.32074
414.44665
445.77463
474.28509
499.40468
520.94906
539.01415
553.86795
565.86391
575.38008
582.78201
588.40425
592.54262
595.45357
597.35609
598.43501
598.84488
598.71488
598.15521
597.24681
596.04535
594.64859
593.0784
591.36542
589.5388
587.63659
585.68025
583.68695
581.67011
579.64071
577.60785
575.5788
573.55936
571.55412
569.56673
567.6
565.65605
563.73642
561.8422
559.97406
558.13234
556.31712
554.52824
552.76536
551.02794
549.31536
547.62688
317.23593
353.14388
390.19007
426.36861
460.00851
490.01421
515.88311
537.57312
555.33949
569.59542
580.81181
589.45442
595.95048
600.67447
603.94657
606.03723
607.17274
607.54079
607.29824
606.57059
605.45435
604.05613
602.40907
600.59676
598.63144
596.55951
594.4155
592.22271
589.99975
587.76135
585.519
583.28184
581.05721
578.85085
576.6672
574.50965
572.38075
570.28234
568.21567
566.18151
564.18023
562.21189
560.27627
558.37294
556.50128
554.6605
552.84973
551.06799
549.31421
319.2757
359.30469
400.31865
439.78736
475.75761
507.11282
533.49193
555.05599
572.26093
585.68703
595.93092
603.5464
609.01867
612.75728
615.10095
616.32841
616.66867
616.31274
615.40718
614.07069
612.42805
610.52521
608.4433
606.2015
603.85783
601.44875
598.99814
596.52567
594.04697
591.57421
589.11678
586.6819
584.27514
581.90072
579.5617
577.26027
574.99789
572.77545
570.59333
568.45155
566.34979
564.28751
562.26394
560.27814
558.32907
556.41552
554.53626
552.68997
550.87529
321.67031
366.46772
411.94659
454.92463
493.17817
525.6558
552.23346
573.34964
589.70251
602.05592
611.13463
617.57591
621.91536
624.59054
625.95309
626.28343
625.81402
624.71837
623.14135
621.22948
619.03307
616.65901
614.11205
611.46849
608.7667
606.03315
603.28825
600.54818
597.82552
595.12985
592.46831
589.84618
587.26729
584.7343
582.24894
579.81218
577.42444
575.08565
572.79537
570.55287
568.35718
566.20715
564.10149
562.03881
560.0176
558.0363
556.09331
554.18699
552.31571
324.51754
374.87229
425.36927
472.03374
512.42453
545.69014
572.07452
592.37405
607.56362
618.59808
626.32549
631.45696
634.56777
636.11376
636.4531
635.86952
634.56934
632.7274
630.51656
627.99368
625.2885
622.40595
619.42968
616.40427
613.35857
610.31459
607.28894
604.29432
601.34024
598.43362
595.57937
592.7808
590.03999
587.3581
584.73551
582.17205
579.66707
577.21961
574.8284
572.49202
570.20884
567.97717
565.7952
563.66109
561.57293
559.52878
557.52669
555.56475
553.64104
327.95475
384.83433
440.95001
491.39182
533.62771
567.21941
592.93822
612.01413
625.71913
635.19401
641.39735
645.09967
646.90243
647.26828
646.56363
645.03942
642.90296
640.35754
637.46952
634.39213
631.1324
627.78576
624.40084
621.00967
617.6358
614.29662
611.00476
607.7694
604.59698
601.49182
598.45656
595.49254
592.60018
589.77911
587.02845
584.34687
581.73274
579.18419
576.69922
574.27568
571.91137
569.60404
567.35141
565.1512
563.00113
560.89888
558.8422
556.8289
554.85681
332.18007
396.77565
459.12927
513.28022
556.8731
590.1886
614.6972
632.11881
644.02125
651.71143
656.23808
658.41265
658.84705
658.00915
656.22805
653.75838
650.83493
647.53508
644.03731
640.35275
636.5888
632.80211
629.02666
625.28746
621.60247
617.98428
614.4415
610.97978
607.60254
604.31151
601.1071
597.98876
594.95523
592.00472
589.13509
586.34391
583.62861
580.98647
578.41476
575.91067
573.47142
571.09425
568.77645
566.51532
564.30825
562.1525
560.04559
557.98505
555.96847
337.48711
411.26457
480.42382
537.95459
582.17307
614.46952
637.16967
652.50273
662.30327
668.00909
670.73277
671.30549
670.34628
668.26656
665.40602
662.04911
658.2803
654.30385
650.13862
645.90131
641.66186
637.45619
633.31027
629.24218
625.26412
621.38389
617.60604
613.93275
610.36447
606.9004
603.53879
600.27725
597.1129
594.0426
591.06299
588.17062
585.36199
582.6336
579.982
577.40379
574.89564
572.45431
570.07665
567.75961
565.50027
563.29547
561.14251
559.0387
556.98137
344.32204
429.06328
505.40733
565.60097
609.43603
639.84952
660.11982
672.95097
680.38493
683.94116
684.76711
683.70743
681.31714
677.98909
674.12295
669.8141
665.28827
660.57487
655.79743
651.04374
646.35299
641.7514
637.25665
632.8799
628.62765
624.50292
620.50623
616.63638
612.89097
609.26673
605.75985
602.36614
599.08123
595.90065
592.8199
589.83456
586.94026
584.13277
581.40797
578.76188
576.19066
573.69063
571.25826
568.89013
353.37744
451.18404
534.66647
596.27449
638.43689
666.02698
683.26336
693.22669
698.07912
699.36205
698.2493
695.51849
691.69426
687.20485
682.26604
677.10698
671.76491
666.36476
661.02355
655.7816
650.66599
645.69317
640.87242
636.20812
631.70111
627.34975
623.15067
619.09939
615.19075
611.41915
607.7788
604.26384
600.86844
597.58689
594.41365
591.34335
588.37084
585.49118
582.69963
579.99169
577.36305
574.8096
572.32744
569.91283
365.75373
478.94393
568.70655
629.82478
668.7962
692.61636
706.27872
713.08115
715.19948
714.15141
711.06273
706.64519
701.51745
695.77846
689.89229
683.83467
677.70955
671.69055
665.81854
660.119
654.60682
649.28871
644.16568
639.23549
634.49352
629.9336
625.54862
621.33099
617.27293
613.36663
609.60443
605.97889
602.48285
599.10943
595.85209
592.70461
589.66109
586.71595
583.86389
581.0999
578.41925
575.81745
573.29025
570.83359
383.23861
513.97194
607.78659
665.82223
699.97684
719.16446
728.82277
732.26509
731.58813
728.18177
723.06866
717.13279
710.64863
703.75094
696.92381
689.95984
683.15266
676.55385
670.18686
664.0624
658.18332
652.54678
647.14579
641.97173
637.01472
632.26431
627.70985
623.3408
619.14692
615.11833
611.24565
607.51997
603.93284
600.47636
597.14304
593.92589
590.81832
587.81414
584.90755
582.09309
579.36562
576.72031
574.15259
571.65813
408.79409
558.06265
651.68288
703.5103
731.30501
745.17699
750.54963
750.55342
747.11987
741.24566
734.33167
726.81702
719.00323
711.17203
703.27597
695.54073
688.09598
680.95947
674.13559
667.62038
661.40508
655.47756
649.82322
644.42738
639.27523
634.35226
629.64452
625.13872
620.82233
616.68358
612.71147
608.89573
605.22679
601.69574
598.29427
595.01466
591.8497
588.79266
585.83727
582.97766
580.20832
577.52412
574.9202
572.39197
447.3892
612.6718
699.43043
741.81371
762.01711
770.15236
771.12827
767.78909
761.53599
753.43282
744.67646
735.54865
726.76772
717.83743
709.01538
700.57629
692.54456
684.91515
677.67414
670.80341
664.28313
658.09233
652.20932
646.6137
641.28607
636.2082
631.36305
626.73482
622.30888
618.07171
614.01087
610.11483
606.37299
602.77554
599.31343
595.97827
592.76229
589.65829
586.65956
583.75986
580.95338
578.23467
575.59864
573.04048
507.24277
677.80878
749.16331
779.42246
791.32654
793.61776
790.33922
783.67312
774.74896
764.70468
753.88471
743.5628
733.76978
723.75692
714.15327
705.07187
696.50685
688.4313
680.81401
673.62356
666.82975
660.40336
654.31614
648.54245
643.05867
637.84314
632.87604
628.13928
623.61632
619.29208
615.15278
611.18581
607.37961
603.72358
600.208
596.82388
593.56297
590.41762
587.38074
584.44578
581.60662
578.85757
576.19332
573.60885
600.47693
750.41275
798.20989
814.94652
818.4986
815.24616
807.85645
798.02297
786.91029
774.66015
762.02314
750.86983
739.93762
728.99841
718.69504
709.03692
699.99443
691.52066
683.56851
676.09427
669.05825
662.42367
656.15632
650.2258
644.60469
639.26826
634.19417
629.36228
624.75436
620.35394
616.14605
612.11709
608.25469
604.54754
600.98531
597.55851
594.25842
591.07704
588.00694
585.04126
582.17366
579.39821
576.70941
574.10206
736.56781
823.29999
843.52747
846.96992
843.01316
834.7267
823.30264
811.07236
797.58901
783.37215
769.23792
757.28693
745.27967
733.57552
722.65198
712.48462
703.02162
694.19804
685.95246
678.23012
670.98276
664.16686
657.74287
651.67617
645.93597
640.49478
635.3281
630.41394