/*--------------------------------*- C++ -*----------------------------------*\
| =========                 |                                                 |
| \\      /  F ield         | OpenFOAM: The Open Source CFD Toolbox           |
|  \\    /   O peration     | Version:  2312                                  |
|   \\  /    A nd           | Website:  www.openfoam.com                      |
|    \\/     M anipulation  |                                                 |
\*---------------------------------------------------------------------------*/
FoamFile
{
    version     2.0;
    format      ascii;
    arch        "LSB;label=32;scalar=64";
    class       volVectorField;
    location    "0.1";
    object      U;
}
// * * * * * * * * * * * * * * * * * * * * * * * * * * * * * * * * * * * * * //

dimensions      [0 1 -1 0 0 0 0];

internalField   nonuniform List<vector> 
3221
(
(1.1014076 -0.0070709313 0)
(1.1020581 -0.013974971 0)
(1.1014961 -0.016853094 0)
(1.1001526 -0.017509595 0)
(1.0983943 -0.016940389 0)
(1.0964289 -0.015731127 0)
(1.0943459 -0.01426419 0)
(1.0920917 -0.012803457 0)
(1.0895752 -0.011538873 0)
(1.0868305 -0.010612381 0)
(1.0839744 -0.010138492 0)
(1.0810882 -0.010209155 0)
(1.0782332 -0.010901953 0)
(1.0754824 -0.012283519 0)
(1.072951 -0.014408544 0)
(1.0707484 -0.017320709 0)
(1.0687864 -0.021056306 0)
(1.0668612 -0.025634248 0)
(1.0649706 -0.031057337 0)
(1.0632484 -0.037323346 0)
(1.0617827 -0.044428264 0)
(1.060621 -0.052356854 0)
(1.0597901 -0.061088555 0)
(1.0593069 -0.070606348 0)
(1.0591833 -0.08089168 0)
(1.0594265 -0.091922609 0)
(1.0600396 -0.10367396 0)
(1.0610222 -0.11611779 0)
(1.0623703 -0.12922383 0)
(1.0640771 -0.14295993 0)
(1.0661333 -0.15729237 0)
(1.0685267 -0.17218638 0)
(1.0712431 -0.18760642 0)
(1.0742658 -0.20351654 0)
(1.0775765 -0.21988059 0)
(1.0811549 -0.23666247 0)
(1.0849794 -0.25382638 0)
(1.0890269 -0.27133695 0)
(1.0932732 -0.2891594 0)
(1.0976932 -0.30725967 0)
(1.102261 -0.32560454 0)
(1.1069502 -0.34416167 0)
(1.111734 -0.36289969 0)
(1.1165854 -0.38178822 0)
(1.1214774 -0.40079795 0)
(1.126383 -0.41990056 0)
(1.1312755 -0.43906882 0)
(1.1361285 -0.4582765 0)
(1.1409162 -0.4774984 0)
(1.1456138 -0.49671021 0)
(1.1501975 -0.51588803 0)
(1.1546418 -0.53500811 0)
(1.1023765 -0.00055852622 0)
(1.104443 -0.00080346298 0)
(1.1049317 0.00014132109 0)
(1.104202 0.0020984121 0)
(1.1027113 0.0047133447 0)
(1.1006427 0.0076455077 0)
(1.098108 0.01059357 0)
(1.0953022 0.013322538 0)
(1.0924321 0.015678622 0)
(1.0895624 0.017564199 0)
(1.0866721 0.018880101 0)
(1.0837805 0.019536137 0)
(1.0809244 0.01945861 0)
(1.0781238 0.01858935 0)
(1.0753436 0.016876024 0)
(1.0725356 0.014249929 0)
(1.0698439 0.010633796 0)
(1.0675289 0.006026804 0)
(1.0656387 0.00048122467 0)
(1.0640774 -0.0059742404 0)
(1.0628184 -0.013317797 0)
(1.0618875 -0.02153505 0)
(1.061298 -0.030611456 0)
(1.0610552 -0.040522892 0)
(1.0611709 -0.051240421 0)
(1.0616555 -0.062732599 0)
(1.0625145 -0.074965706 0)
(1.0637495 -0.087903941 0)
(1.0653574 -0.10150979 0)
(1.0673319 -0.11574439 0)
(1.0696632 -0.13056793 0)
(1.0723385 -0.14593998 0)
(1.0753425 -0.16181986 0)
(1.0786573 -0.17816693 0)
(1.0822631 -0.19494087 0)
(1.0861383 -0.21210187 0)
(1.0902595 -0.22961088 0)
(1.0946022 -0.24742973 0)
(1.0991407 -0.2655213 0)
(1.1038485 -0.28384961 0)
(1.1086983 -0.3023799 0)
(1.1136626 -0.3210787 0)
(1.1187134 -0.3399139 0)
(1.1238226 -0.35885468 0)
(1.1289623 -0.37787162 0)
(1.1341049 -0.39693661 0)
(1.1392228 -0.41602286 0)
(1.1442892 -0.43510488 0)
(1.1492778 -0.45415838 0)
(1.1541633 -0.4731603 0)
(1.1589219 -0.49208876 0)
(1.1635283 -0.51092301 0)
(1.102414 0.0017852631 0)
(1.1054327 0.0054647294 0)
(1.1067878 0.0093407042 0)
(1.1067735 0.013430812 0)
(1.1057982 0.017616323 0)
(1.1041178 0.021748967 0)
(1.1019088 0.025709578 0)
(1.0993323 0.029381291 0)
(1.0965298 0.032616831 0)
(1.0935949 0.035252979 0)
(1.0905861 0.037171179 0)
(1.0875577 0.038283297 0)
(1.0845617 0.038520534 0)
(1.0816411 0.037831879 0)
(1.0788248 0.036191968 0)
(1.0761445 0.033620141 0)
(1.0736732 0.030162482 0)
(1.0715029 0.025791801 0)
(1.0696795 0.020436773 0)
(1.0682186 0.014076613 0)
(1.0671222 0.0067299801 0)
(1.0663835 -0.001579028 0)
(1.0660183 -0.010823284 0)
(1.0660484 -0.02096526 0)
(1.0664831 -0.031963594 0)
(1.0673256 -0.043775314 0)
(1.0685757 -0.056356396 0)
(1.0702299 -0.069661975 0)
(1.0722811 -0.083646576 0)
(1.0747191 -0.098264376 0)
(1.0775305 -0.11346943 0)
(1.0806991 -0.12921594 0)
(1.0842059 -0.14545854 0)
(1.0880302 -0.16215249 0)
(1.0921487 -0.17925388 0)
(1.0965369 -0.19671987 0)
(1.1011685 -0.21450876 0)
(1.1060162 -0.23258023 0)
(1.1110518 -0.25089534 0)
(1.1162464 -0.26941667 0)
(1.1215705 -0.28810839 0)
(1.1269946 -0.30693622 0)
(1.1324888 -0.32586754 0)
(1.1380237 -0.3448713 0)
(1.1435698 -0.36391807 0)
(1.1490984 -0.38297998 0)
(1.1545811 -0.40203066 0)
(1.1599902 -0.42104521 0)
(1.1652987 -0.44000016 0)
(1.1704811 -0.4588734 0)
(1.175513 -0.47764418 0)
(1.1803693 -0.49629307 0)
(1.1025775 0.003856952 0)
(1.1061953 0.011166006 0)
(1.1082743 0.018115616 0)
(1.1089807 0.024751378 0)
(1.1086361 0.031039796 0)
(1.1074795 0.036912845 0)
(1.1056966 0.042294075 0)
(1.1034474 0.04710011 0)
(1.1008702 0.051237215 0)
(1.0980788 0.054608364 0)
(1.0951657 0.057129635 0)
(1.0922103 0.05873193 0)
(1.0892824 0.059359927 0)
(1.0864438 0.058972547 0)
(1.08375 0.057545209 0)
(1.0812554 0.055072246 0)
(1.0790182 0.051558993 0)
(1.0770946 0.047000717 0)
(1.0755278 0.041388575 0)
(1.074348 0.034727672 0)
(1.073574 0.027032819 0)
(1.0732172 0.018336155 0)
(1.0732901 0.0086798128 0)
(1.0738032 -0.0018943718 0)
(1.0747611 -0.013342461 0)
(1.0761642 -0.025617661 0)
(1.0780087 -0.038671206 0)
(1.080287 -0.052453134 0)
(1.0829879 -0.066912854 0)
(1.0860966 -0.081999579 0)
(1.0895955 -0.097662701 0)
(1.093464 -0.11385213 0)
(1.0976789 -0.13051861 0)
(1.102215 -0.14761392 0)
(1.1070452 -0.16509116 0)
(1.1121409 -0.18290486 0)
(1.1174722 -0.20101115 0)
(1.1230083 -0.2193679 0)
(1.1287177 -0.23793474 0)
(1.1345684 -0.25667319 0)
(1.1405284 -0.27554663 0)
(1.1465655 -0.29452034 0)
(1.1526479 -0.31356149 0)
(1.1587441 -0.33263913 0)
(1.1648232 -0.3517241 0)
(1.170855 -0.37078903 0)
(1.17681 -0.38980825 0)
(1.1826598 -0.40875772 0)
(1.1883768 -0.42761499 0)
(1.1939349 -0.44635909 0)
(1.1993097 -0.46497051 0)
(1.204476 -0.48343108 0)
(1.1027224 0.005575131 0)
(1.1068286 0.016081451 0)
(1.1095182 0.025896774 0)
(1.1108808 0.035030759 0)
(1.1111674 0.043461513 0)
(1.1105826 0.051151317 0)
(1.1093003 0.058053885 0)
(1.107479 0.064115573 0)
(1.105262 0.069276446 0)
(1.102776 0.073474216 0)
(1.1001313 0.076650504 0)
(1.0974256 0.078754828 0)
(1.0947452 0.079746981 0)
(1.0921676 0.079598476 0)
(1.0897626 0.078293173 0)
(1.0875947 0.075826745 0)
(1.0857238 0.072203726 0)
(1.0842034 0.067433547 0)
(1.0830771 0.061530881 0)
(1.0823783 0.05451797 0)
(1.0821312 0.046424578 0)
(1.0823524 0.037289587 0)
(1.0830538 0.027158584 0)
(1.0842419 0.016080356 0)
(1.0859182 0.0041068344 0)
(1.0880792 -0.0087078111 0)
(1.0907168 -0.022307911 0)
(1.0938188 -0.036637028 0)
(1.0973687 -0.051638531 0)
(1.1013467 -0.067256071 0)
(1.1057297 -0.083433998 0)
(1.1104919 -0.10011772 0)
(1.1156049 -0.11725398 0)
(1.1210385 -0.13479114 0)
(1.1267606 -0.15267933 0)
(1.1327381 -0.17087062 0)
(1.1389365 -0.18931918 0)
(1.1453212 -0.20798128 0)
(1.1518567 -0.22681542 0)
(1.1585078 -0.24578231 0)
(1.1652392 -0.2648449 0)
(1.1720162 -0.28396834 0)
(1.1788045 -0.30311993 0)
(1.1855706 -0.32226911 0)
(1.1922819 -0.34138735 0)
(1.1989068 -0.3604481 0)
(1.205415 -0.37942667 0)
(1.211777 -0.39830018 0)
(1.2179649 -0.41704743 0)
(1.2239524 -0.43564883 0)
(1.229715 -0.45408631 0)
(1.2352277 -0.47234318 0)
(1.1028782 0.0070784123 0)
(1.1074234 0.020474452 0)
(1.1106476 0.032967808 0)
(1.1125991 0.044515226 0)
(1.113482 0.05507571 0)
(1.1134715 0.064612722 0)
(1.112727 0.073091306 0)
(1.1114018 0.080474514 0)
(1.1096412 0.08672223 0)
(1.1075796 0.091793043 0)
(1.1053392 0.095647945 0)
(1.1030309 0.098253832 0)
(1.1007547 0.099586133 0)
(1.0986008 0.099630415 0)
(1.09665 0.098382995 0)
(1.0949746 0.095850529 0)
(1.0936391 0.092048634 0)
(1.0926989 0.087000269 0)
(1.0921996 0.080735199 0)
(1.0921764 0.073290152 0)
(1.0926556 0.06470856 0)
(1.0936549 0.055040131 0)
(1.0951847 0.04433958 0)
(1.0972491 0.032665164 0)
(1.0998458 0.020077733 0)
(1.1029667 0.006639801 0)
(1.1065987 -0.0075852838 0)
(1.1107237 -0.022534016 0)
(1.1153195 -0.038143321 0)
(1.1203602 -0.054351047 0)
(1.1258164 -0.071096386 0)
(1.1316563 -0.088320226 0)
(1.1378456 -0.10596543 0)
(1.1443481 -0.12397704 0)
(1.1511263 -0.1423025 0)
(1.1581419 -0.1608917 0)
(1.1653557 -0.17969712 0)
(1.1727282 -0.19867386 0)
(1.1802203 -0.21777964 0)
(1.1877928 -0.23697479 0)
(1.1954074 -0.25622224 0)
(1.2030264 -0.2754874 0)
(1.2106132 -0.29473817 0)
(1.2181324 -0.31394477 0)
(1.2255496 -0.3330797 0)
(1.2328323 -0.35211759 0)
(1.2399489 -0.37103513 0)
(1.2468698 -0.38981089 0)
(1.2535667 -0.40842526 0)
(1.2600131 -0.4268603 0)
(1.2661852 -0.44509964 0)
(1.2720584 -0.46312833 0)
(1.1030529 0.0084520857 0)
(1.1080256 0.024525966 0)
(1.1117445 0.039545363 0)
(1.1142373 0.053414777 0)
(1.1156811 0.066062984 0)
(1.1162317 0.07743956 0)
(1.1160374 0.087506754 0)
(1.1152472 0.096232427 0)
(1.1140074 0.10358646 0)
(1.1124578 0.10954065 0)
(1.1107292 0.11407073 0)
(1.1089427 0.11715883 0)
(1.1072089 0.11879563 0)
(1.105628 0.11898168 0)
(1.1042896 0.11772789 0)
(1.1032728 0.11505524 0)
(1.1026463 0.11099385 0)
(1.1024684 0.10558186 0)
(1.1027861 0.098864586 0)
(1.1036357 0.090893889 0)
(1.1050434 0.081727486 0)
(1.1070258 0.071428058 0)
(1.1095908 0.060062164 0)
(1.1127388 0.047699092 0)
(1.1164624 0.034409856 0)
(1.1207483 0.020266277 0)
(1.1255769 0.0053401936 0)
(1.1309236 -0.010297217 0)
(1.1367592 -0.026576028 0)
(1.1430508 -0.043428051 0)
(1.1497622 -0.060787232 0)
(1.1568545 -0.078589978 0)
(1.1642866 -0.0967754 0)
(1.1720162 -0.1152855 0)
(1.1799997 -0.13406529 0)
(1.188193 -0.15306287 0)
(1.1965517 -0.17222948 0)
(1.2050319 -0.19151946 0)
(1.2135899 -0.21089024 0)
(1.222183 -0.23030227 0)
(1.2307697 -0.24971893 0)
(1.2393096 -0.26910645 0)
(1.2477638 -0.28843375 0)
(1.256095 -0.30767234 0)
(1.2642678 -0.3267962 0)
(1.2722484 -0.34578159 0)
(1.280005 -0.36460695 0)
(1.2875076 -0.38325271 0)
(1.2947281 -0.40170119 0)
(1.3016407 -0.41993641 0)
(1.3082219 -0.43794401 0)
(1.3144484 -0.45571102 0)
(1.1032494 0.0097461354 0)
(1.1086598 0.028356725 0)
(1.1128578 0.045788174 0)
(1.1158635 0.06189713 0)
(1.1178418 0.076579145 0)
(1.1189387 0.08976299 0)
(1.1192973 0.10140004 0)
(1.1190653 0.1114552 0)
(1.1183916 0.11990162 0)
(1.1174212 0.12671898 0)
(1.1162921 0.13189409 0)
(1.115134 0.13542238 0)
(1.114066 0.13730919 0)
(1.1131964 0.13757064 0)
(1.1126217 0.13623371 0)
(1.1124264 0.13333578 0)
(1.1126828 0.12892368 0)
(1.1134508 0.12305251 0)
(1.1147781 0.11578454 0)
(1.1167004 0.10718812 0)
(1.1192418 0.097336636 0)
(1.122416 0.086307364 0)
(1.1262266 0.074180379 0)
(1.1306683 0.061037405 0)
(1.1357278 0.046960824 0)
(1.1413846 0.032032756 0)
(1.1476115 0.016334298 0)
(1.1543762 -5.5160133e-05 0)
(1.1616415 -0.017058497 0)
(1.1693664 -0.034601317 0)
(1.1775068 -0.052612309 0)
(1.186016 -0.071023523 0)
(1.1948458 -0.089770559 0)
(1.2039468 -0.1087927 0)
(1.213269 -0.12803295 0)
(1.2227623 -0.1474381 0)
(1.2323772 -0.16695864 0)
(1.2420647 -0.18654871 0)
(1.2517772 -0.20616603 0)
(1.2614684 -0.22577173 0)
(1.2710936 -0.24533025 0)
(1.2806099 -0.26480916 0)
(1.2899768 -0.28417898 0)
(1.2991555 -0.30341306 0)
(1.3081096 -0.32248732 0)
(1.3168049 -0.34138015 0)
(1.3252096 -0.36007217 0)
(1.333294 -0.37854609 0)
(1.3410307 -0.39678651 0)
(1.3483947 -0.41477976 0)
(1.3553639 -0.43251378 0)
(1.3619166 -0.44997787 0)
(1.1034697 0.010993605 0)
(1.10934 0.03205215 0)
(1.1140171 0.051815978 0)
(1.1175223 0.070097728 0)
(1.120019 0.086759507 0)
(1.1216518 0.10170635 0)
(1.1225646 0.11487455 0)
(1.1229083 0.12622161 0)
(1.1228367 0.1357198 0)
(1.1225014 0.14335333 0)
(1.1220481 0.14911779 0)
(1.1216141 0.15302064 0)
(1.1213263 0.15508171 0)
(1.1212996 0.15533334 0)
(1.121636 0.15381993 0)
(1.1224238 0.15059702 0)
(1.1237374 0.14573007 0)
(1.125637 0.13929294 0)
(1.1281692 0.13136651 0)
(1.1313669 0.12203719 0)
(1.1352504 0.11139556 0)
(1.1398281 0.099535044 0)
(1.1450971 0.086550659 0)
(1.1510449 0.072537838 0)
(1.1576501 0.05759139 0)
(1.1648832 0.041804597 0)
(1.1727083 0.025268426 0)
(1.1810836 0.0080708839 0)
(1.1899627 -0.009703512 0)
(1.1992955 -0.027974131 0)
(1.209029 -0.046664534 0)
(1.2191082 -0.065702679 0)
(1.2294769 -0.085021034 0)
(1.2400783 -0.10455663 0)
(1.2508557 -0.12425102 0)
(1.2617531 -0.14405026 0)
(1.2727155 -0.16390474 0)
(1.2836893 -0.18376908 0)
(1.2946229 -0.20360192 0)
(1.3054666 -0.22336577 0)
(1.3161734 -0.24302677 0)
(1.3266984 -0.26255446 0)
(1.3369994 -0.2819216 0)
(1.3470371 -0.3011039 0)
(1.3567747 -0.32007982 0)
(1.3661781 -0.33883034 0)
(1.3752162 -0.35733874 0)
(1.3838601 -0.37559041 0)
(1.3920837 -0.39357261 0)
(1.3998637 -0.41127433 0)
(1.4071798 -0.42868608 0)
(1.4140123 -0.44579972 0)
(1.1037153 0.012219076 0)
(1.1100754 0.035678012 0)
(1.1152424 0.057724549 0)
(1.1192448 0.078129831 0)
(1.122253 0.096722981 0)
(1.1244175 0.11338418 0)
(1.1258889 0.12803269 0)
(1.1268256 0.14061632 0)
(1.1273898 0.1511044 0)
(1.1277418 0.15948403 0)
(1.1280361 0.16575862 0)
(1.1284182 0.16994746 0)
(1.1290221 0.17208532 0)
(1.1299685 0.17222182 0)
(1.1313635 0.17042032 0)
(1.1332977 0.16675637 0)
(1.1358458 0.161316 0)
(1.1390665 0.15419382 0)
(1.143003 0.14549111 0)
(1.1476833 0.13531409 0)
(1.1531212 0.12377214 0)
(1.1593175 0.11097633 0)
(1.1662605 0.09703793 0)
(1.1739282 0.082067205 0)
(1.1822887 0.066172298 0)
(1.1913021 0.049458297 0)
(1.2009216 0.032026467 0)
(1.2110946 0.013973641 0)
(1.2217641 -0.0046082544 0)
(1.2328697 -0.023632523 0)
(1.2443488 -0.043017922 0)
(1.2561372 -0.062688771 0)
(1.2681703 -0.082574965 0)
(1.2803838 -0.10261192 0)
(1.292714 -0.12274046 0)
(1.3050989 -0.14290664 0)
(1.3174784 -0.16306152 0)
(1.3297946 -0.18316097 0)
(1.3419924 -0.20316536 0)
(1.3540194 -0.2230393 0)
(1.3658265 -0.24275137 0)
(1.3773676 -0.2622738 0)
(1.3885999 -0.2815822 0)
(1.3994839 -0.3006553 0)
(1.4099832 -0.31947462 0)
(1.4200648 -0.33802427 0)
(1.4296987 -0.35629063 0)
(1.438858 -0.37426219 0)
(1.4475183 -0.39192925 0)
(1.4556587 -0.40928373 0)
(1.4632613 -0.42631904 0)
(1.4703093 -0.44302981 0)
(1.1039876 0.013442104 0)
(1.1108732 0.03928767 0)
(1.1165483 0.063593271 0)
(1.1210542 0.086089751 0)
(1.1245751 0.10657363 0)
(1.127274 0.12489991 0)
(1.1293133 0.14097009 0)
(1.1308641 0.15472157 0)
(1.1321004 0.16612013 0)
(1.133194 0.17515561 0)
(1.1343097 0.18183952 0)
(1.1356019 0.18620379 0)
(1.1372119 0.18829942 0)
(1.1392654 0.18819503 0)
(1.1418714 0.1859749 0)
(1.1451211 0.1817368 0)
(1.1490875 0.17558955 0)
(1.1538256 0.16765062 0)
(1.1593725 0.15804379 0)
(1.1657487 0.14689689 0)
(1.1729588 0.1343398 0)
(1.180993 0.12050264 0)
(1.1898284 0.10551419 0)
(1.1994308 0.089500513 0)
(1.2097556 0.072583763 0)
(1.2207503 0.054881276 0)
(1.2323552 0.036504815 0)
(1.2445054 0.017560007 0)
(1.2571319 -0.001854043 0)
(1.2701631 -0.021644988 0)
(1.2835257 -0.041727345 0)
(1.297146 -0.062022475 0)
(1.3109506 -0.082458478 0)
(1.3248674 -0.10297 0)
(1.3388262 -0.12349801 0)
(1.3527591 -0.14398949 0)
(1.3666014 -0.16439708 0)
(1.3802914 -0.18467881 0)
(1.3937713 -0.20479764 0)
(1.4069866 -0.22472115 0)
(1.4198872 -0.24442113 0)
(1.4324264 -0.26387325 0)
(1.4445618 -0.28305668 0)
(1.4562546 -0.30195376 0)
(1.4674699 -0.32054967 0)
(1.4781764 -0.33883212 0)
(1.4883463 -0.35679107 0)
(1.4979551 -0.37441847 0)
(1.5069816 -0.39170799 0)
(1.5154074 -0.40865482 0)
(1.5232181 -0.42525543 0)
(1.5304002 -0.44150743 0)
(1.1042881 0.014679126 0)
(1.1117394 0.042926391 0)
(1.1179469 0.06949019 0)
(1.1229693 0.094061118 0)
(1.1270115 0.11640313 0)
(1.1302544 0.13634601 0)
(1.132878 0.15377357 0)
(1.1350704 0.16861304 0)
(1.1370216 0.18082733 0)
(1.1389176 0.19040997 0)
(1.1409354 0.19738206 0)
(1.1432395 0.20179 0)
(1.1459783 0.20370323 0)
(1.149282 0.2032118 0)
(1.1532612 0.20042356 0)
(1.1580058 0.19546112 0)
(1.1635847 0.18845869 0)
(1.1700463 0.17955911 0)
(1.1774191 0.16891081 0)
(1.1857127 0.15666526 0)
(1.1949195 0.14297452 0)
(1.205016 0.12798922 0)
(1.2159652 0.11185671 0)
(1.2277175 0.094719596 0)
(1.2402136 0.07671455 0)
(1.2533857 0.057971335 0)
(1.2671597 0.038612122 0)
(1.2814564 0.018751018 0)
(1.2961938 -0.0015062226 0)
(1.3112879 -0.022062305 0)
(1.3266544 -0.042828346 0)
(1.3422094 -0.063723697 0)
(1.3578708 -0.084675677 0)
(1.373559 -0.10561924 0)
(1.3891974 -0.12649657 0)
(1.4047131 -0.14725665 0)
(1.4200374 -0.16785481 0)
(1.4351057 -0.18825221 0)
(1.4498583 -0.20841541 0)
(1.4642399 -0.22831585 0)
(1.4782001 -0.2479294 0)
(1.491693 -0.26723593 0)
(1.5046775 -0.28621886 0)
(1.5171167 -0.30486477 0)
(1.528978 -0.32316304 0)
(1.5402331 -0.34110547 0)
(1.5508572 -0.35868601 0)
(1.5608292 -0.37590042 0)
(1.5701316 -0.39274602 0)
(1.5787498 -0.40922145 0)
(1.5866732 -0.42532651 0)
(1.5938924 -0.44106189 0)
(1.1046187 0.01594459 0)
(1.1126798 0.046634004 0)
(1.1194492 0.075475292 0)
(1.1250072 0.10211788 0)
(1.129586 0.12629278 0)
(1.1333901 0.14780465 0)
(1.1366225 0.16652014 0)
(1.139493 0.18235743 0)
(1.1422116 0.19527809 0)
(1.1449814 0.20528149 0)
(1.1479938 0.21240084 0)
(1.151424 0.21669987 0)
(1.1554278 0.21826963 0)
(1.1601391 0.21722488 0)
(1.1656682 0.21370033 0)
(1.1721016 0.20784668 0)
(1.1795014 0.1998266 0)
(1.1879061 0.18981101 0)
(1.1973321 0.17797553 0)
(1.2077748 0.16449734 0)
(1.2192107 0.14955245 0)
(1.2315993 0.13331326 0)
(1.2448858 0.11594665 0)
(1.259003 0.097612335 0)
(1.2738735 0.078461684 0)
(1.2894123 0.058636761 0)
(1.3055286 0.038269737 0)
(1.3221279 0.017482526 0)
(1.3391138 -0.0036133349 0)
(1.3563892 -0.024916639 0)
(1.3738584 -0.046336259 0)
(1.3914275 -0.067790774 0)
(1.4090058 -0.089208009 0)
(1.4265067 -0.11052452 0)
(1.4438481 -0.131685 0)
(1.4609528 -0.15264171 0)
(1.4777492 -0.17335381 0)
(1.4941712 -0.19378679 0)
(1.5101581 -0.2139118 0)
(1.5256553 -0.23370514 0)
(1.5406134 -0.25314761 0)
(1.5549885 -0.27222406 0)
(1.568742 -0.29092285 0)
(1.5818401 -0.30923541 0)
(1.5942539 -0.3271558 0)
(1.6059587 -0.34468037 0)
(1.6169341 -0.36180737 0)
(1.6271633 -0.37853668 0)
(1.6366331 -0.39486949 0)
(1.6453338 -0.41080809 0)
(1.653259 -0.42635565 0)
(1.6604044 -0.44151604 0)
(1.104981 0.017251623 0)
(1.1137007 0.050446539 0)
(1.121066 0.081602594 0)
(1.1271845 0.11032627 0)
(1.132322 0.13631492 0)
(1.1367127 0.15934814 0)
(1.1405882 0.1792764 0)
(1.1441845 0.19601058 0)
(1.1477357 0.20951345 0)
(1.1514652 0.2197933 0)
(1.1555805 0.22689902 0)
(1.1602685 0.23091569 0)
(1.165692 0.23196003 0)
(1.1719871 0.2301757 0)
(1.1792621 0.2257284 0)
(1.187597 0.2188007 0)
(1.1970438 0.20958728 0)
(1.2076275 0.19829031 0)
(1.2193483 0.18511526 0)
(1.2321833 0.17026727 0)
(1.2460891 0.15394791 0)
(1.2610045 0.13635261 0)
(1.2768536 0.11766846 0)
(1.2935478 0.098072554 0)
(1.3109895 0.077730813 0)
(1.3290741 0.0567971 0)
(1.3476924 0.035412765 0)
(1.3667331 0.013706468 0)
(1.3860847 -0.0082057435 0)
(1.4056369 -0.030220155 0)
(1.4252823 -0.052244898 0)
(1.4449173 -0.074199324 0)
(1.4644437 -0.096013327 0)
(1.4837685 -0.11762659 0)
(1.5028053 -0.13898783 0)
(1.521474 -0.16005395 0)
(1.5397015 -0.18078929 0)
(1.5574215 -0.20116485 0)
(1.5745742 -0.2211575 0)
(1.5911067 -0.24074935 0)
(1.6069725 -0.25992702 0)
(1.6221309 -0.27868107 0)
(1.6365474 -0.29700546 0)
(1.6501925 -0.31489697 0)
(1.663042 -0.33235484 0)
(1.6750764 -0.34938029 0)
(1.6862802 -0.36597616 0)
(1.6966423 -0.38214664 0)
(1.7061545 -0.39789694 0)
(1.7148125 -0.41323306 0)
(1.7226152 -0.42816161 0)
(1.7295635 -0.44268962 0)
(1.1053774 0.018612447 0)
(1.1148083 0.054397266 0)
(1.1228086 0.087921492 0)
(1.1295183 0.11874615 0)
(1.1352441 0.1465338 0)
(1.1402562 0.17103918 0)
(1.14482 0.19209793 0)
(1.1492036 0.20961609 0)
(1.1536688 0.22356101 0)
(1.1584621 0.2339541 0)
(1.163809 0.24086466 0)
(1.1699084 0.24440409 0)
(1.1769293 0.24472002 0)
(1.1850082 0.24199013 0)
(1.1942486 0.2364159 0)
(1.2047204 0.22821635 0)
(1.2164612 0.21762219 0)
(1.2294784 0.20487034 0)
(1.2437512 0.190199 0)
(1.2592338 0.17384343 0)
(1.2758585 0.15603244 0)
(1.2935394 0.1369854 0)
(1.3121753 0.11691004 0)
(1.3316537 0.096000737 0)
(1.3518537 0.074437372 0)
(1.3726491 0.052384642 0)
(1.3939109 0.029991797 0)
(1.4155103 0.0073927076 0)
(1.4373201 -0.01529378 0)
(1.4592169 -0.037963251 0)
(1.4810821 -0.060524957 0)
(1.5028037 -0.082900893 0)
(1.5242764 -0.10502485 0)
(1.545403 -0.1268414 0)
(1.5660938 -0.14830492 0)
(1.5862679 -0.1693785 0)
(1.6058524 -0.19003306 0)
(1.6247823 -0.21024635 0)
(1.6430009 -0.23000207 0)
(1.6604586 -0.2492891 0)
(1.6771132 -0.2681007 0)
(1.6929292 -0.28643386 0)
(1.7078773 -0.30428865 0)
(1.7219339 -0.32166771 0)
(1.7350807 -0.33857577 0)
(1.7473044 -0.35501919 0)
(1.7585959 -0.37100559 0)
(1.7689499 -0.38654358 0)
(1.7783647 -0.40164243 0)
(1.7868417 -0.41631182 0)
(1.794386 -0.4305618 0)
(1.801004 -0.44440248 0)
(1.1058101 0.020038658 0)
(1.1160099 0.05851738 0)
(1.1246892 0.09447763 0)
(1.1320271 0.12743174 0)
(1.138379 0.15700611 0)
(1.1440576 0.18293086 0)
(1.1493687 0.20502863 0)
(1.1546173 0.22320385 0)
(1.1600971 0.2374329 0)
(1.1660808 0.24775556 0)
(1.1728127 0.25426745 0)
(1.1805037 0.25711259 0)
(1.1893275 0.25647574 0)
(1.1994184 0.25257468 0)
(1.2108711 0.24565242 0)
(1.223741 0.23596966 0)
(1.2380468 0.22379765 0)
(1.2537723 0.20941179 0)
(1.2708706 0.19308598 0)
(1.2892679 0.17508783 0)
(1.3088673 0.15567471 0)
(1.3295535 0.13509063 0)
(1.3511968 0.11356394 0)
(1.3736573 0.091305678 0)
(1.3967885 0.068508582 0)
(1.420441 0.045346668 0)
(1.444465 0.021975252 0)
(1.4687135 -0.001468625 0)
(1.4930443 -0.02486551 0)
(1.5173211 -0.048112531 0)
(1.5414158 -0.071122283 0)
(1.5652088 -0.093821582 0)
(1.5885901 -0.11615019 0)
(1.6114597 -0.13805953 0)
(1.6337273 -0.15951139 0)
(1.6553127 -0.1804767 0)
(1.6761454 -0.20093436 0)
(1.6961644 -0.2208701 0)
(1.7153172 -0.24027556 0)
(1.7335601 -0.25914726 0)
(1.7508568 -0.27748585 0)
(1.7671786 -0.2952953 0)
(1.7825029 -0.31258232 0)
(1.7968135 -0.32935571 0)
(1.8100993 -0.34562592 0)
(1.8223541 -0.36140461 0)
(1.833576 -0.37670425 0)
(1.843767 -0.39153784 0)
(1.8529319 -0.40591866 0)
(1.861079 -0.41986006 0)
(1.8682195 -0.43337528 0)
(1.8743662 -0.44647735 0)
(1.1062819 0.021541416 0)
(1.1173133 0.062836462 0)
(1.126721 0.10131347 0)
(1.1347313 0.13643215 0)
(1.1417562 0.16778112 0)
(1.1481588 0.19506635 0)
(1.1542917 0.21809988 0)
(1.1605025 0.23678871 0)
(1.1671209 0.25112373 0)
(1.1744479 0.26116972 0)
(1.1827477 0.26705592 0)
(1.192242 0.2689664 0)
(1.2031066 0.26713056 0)
(1.21547 0.2618135 0)
(1.2294131 0.25330638 0)
(1.2449715 0.24191736 0)
(1.2621382 0.22796318 0)
(1.2808678 0.2117617 0)
(1.3010811 0.1936255 0)
(1.3226703 0.1738565 0)
(1.3455042 0.15274169 0)
(1.3694337 0.13054992 0)
(1.3942967 0.10752955 0)
(1.4199231 0.083907054 0)
(1.446139 0.059886268 0)
(1.4727703 0.035648363 0)
(1.4996463 0.011352277 0)
(1.5266024 -0.012864411 0)
(1.5534817 -0.036884288 0)
(1.580137 -0.060608706 0)
(1.6064321 -0.083956193 0)
(1.6322424 -0.10686084 0)
(1.6574553 -0.12927068 0)
(1.6819704 -0.15114602 0)
(1.7056993 -0.17245797 0)
(1.7285653 -0.19318689 0)
(1.7505027 -0.21332106 0)
(1.7714564 -0.23285543 0)
(1.7913809 -0.25179048 0)
(1.81024 -0.27013122 0)
(1.8280054 -0.28788625 0)
(1.8446567 -0.30506703 0)
(1.8601798 -0.32168718 0)
(1.874567 -0.33776189 0)
(1.8878155 -0.35330744 0)
(1.8999276 -0.36834078 0)
(1.9109093 -0.38287914 0)
(1.9207703 -0.39693988 0)
(1.929523 -0.41054011 0)
(1.9371827 -0.42369655 0)
(1.9437674 -0.4364255 0)
(1.9492963 -0.44874266 0)
(1.1067958 0.023131584 0)
(1.118727 0.067382818 0)
(1.128919 0.10846867 0)
(1.1376535 0.1457916 0)
(1.1454091 0.17890068 0)
(1.1526075 0.20747847 0)
(1.1596554 0.2313296 0)
(1.1669485 0.25036884 0)
(1.1748568 0.26460855 0)
(1.1837114 0.27414665 0)
(1.1937962 0.27915461 0)
(1.2053416 0.27986559 0)
(1.2185222 0.27656253 0)
(1.2334548 0.2695661 0)
(1.2502008 0.25922306 0)
(1.2687686 0.24589548 0)
(1.2891187 0.22995086 0)
(1.3111688 0.2117536 0)
(1.3348006 0.19165774 0)
(1.3598661 0.17000114 0)
(1.3861943 0.14710093 0)
(1.4135979 0.1232503 0)
(1.441879 0.09871632 0)
(1.470835 0.073738871 0)
(1.500263 0.048530374 0)
(1.5299642 0.023276247 0)
(1.5597474 -0.0018640533 0)
(1.5894313 -0.026755619 0)
(1.6188465 -0.051286264 0)
(1.6478369 -0.075364616 0)
(1.676261 -0.098918051 0)
(1.7039919 -0.12189062 0)
(1.7309174 -0.14424103 0)
(1.75694 -0.16594066 0)
(1.7819759 -0.18697174 0)
(1.8059548 -0.20732568 0)
(1.8288184 -0.22700144 0)
(1.8505202 -0.24600424 0)
(1.871024 -0.26434426 0)
(1.8903029 -0.28203557 0)
(1.9083389 -0.29909523 0)
(1.9251212 -0.31554244 0)
(1.9406459 -0.3313979 0)
(1.9549149 -0.34668321 0)
(1.9679351 -0.36142043 0)
(1.9797176 -0.37563168 0)
(1.9902774 -0.38933885 0)
(1.9996324 -0.40256327 0)
(2.0078033 -0.41532568 0)
(2.0148126 -0.4276459 0)
(2.0206852 -0.43954295 0)
(2.0254471 -0.45103486 0)
(1.107355 0.024819848 0)
(1.1202607 0.072183718 0)
(1.1312996 0.1159803 0)
(1.1408192 0.15554949 0)
(1.1493757 0.1903989 0)
(1.1574585 0.22018893 0)
(1.1655362 0.24472092 0)
(1.1740591 0.26392409 0)
(1.1834406 0.27784081 0)
(1.1940434 0.28661182 0)
(1.2061698 0.29046142 0)
(1.2200557 0.2896826 0)
(1.2358686 0.28462204 0)
(1.2537073 0.27566541 0)
(1.2736052 0.26322339 0)
(1.2955355 0.24771892 0)
(1.3194171 0.22957575 0)
(1.3451228 0.20920874 0)
(1.3724875 0.18701587 0)
(1.4013163 0.16337193 0)
(1.4313932 0.13862394 0)
(1.4624882 0.11308806 0)
(1.494365 0.087047843 0)
(1.5267867 0.060753642 0)
(1.5595213 0.034423041 0)
(1.592346 0.0082420104 0)
(1.6250503 -0.017633331 0)
(1.6574385 -0.043074462 0)
(1.6893315 -0.067978098 0)
(1.7205676 -0.092263585 0)
(1.7510034 -0.11587029 0)
(1.7805133 -0.13875506 0)
(1.8089892 -0.16088974 0)
(1.8363397 -0.18225888 0)
(1.8624892 -0.20285765 0)
(1.8873766 -0.2226899 0)
(1.9109543 -0.24176647 0)
(1.9331867 -0.26010368 0)
(1.9540492 -0.27772206 0)
(1.9735267 -0.29464519 0)
(1.9916128 -0.31089879 0)
(2.0083084 -0.32650992 0)
(2.0236207 -0.34150632 0)
(2.0375624 -0.35591582 0)
(2.0501508 -0.36976613 0)
(2.061407 -0.38308426 0)
(2.0713554 -0.39589632 0)
(2.0800227 -0.40822743 0)
(2.0874376 -0.42010147 0)
(2.0936304 -0.43154102 0)
(2.098633 -0.44256738 0)
(2.1024781 -0.45320055 0)
(1.1079633 0.026616807 0)
(1.121925 0.0772656 0)
(1.1338813 0.12388301 0)
(1.1442573 0.16574029 0)
(1.1536994 0.20230171 0)
(1.1627749 0.23320737 0)
(1.1720232 0.25826082 0)
(1.1819549 0.27741401 0)
(1.1930304 0.29074972 0)
(1.2056441 0.29846353 0)
(1.2201138 0.30084519 0)
(1.2366758 0.29825994 0)
(1.2554832 0.29112997 0)
(1.2766077 0.2799166 0)
(1.300045 0.26510357 0)
(1.3257224 0.24718201 0)
(1.3535076 0.22663739 0)
(1.3832192 0.20393863 0)
(1.4146371 0.17952939 0)
(1.4475128 0.15382154 0)
(1.4815799 0.12719071 0)
(1.5165626 0.099973564 0)
(1.5521838 0.072466737 0)
(1.5881721 0.044927078 0)
(1.6242672 0.017572938 0)
(1.6602239 -0.0094137006 0)
(1.6958154 -0.035884522 0)
(1.7308351 -0.061721781 0)
(1.7650978 -0.086835134 0)
(1.7984407 -0.11115836 0)
(1.8307225 -0.13464611 0)
(1.8618232 -0.15727087 0)
(1.891643 -0.17902005 0)
(1.9201004 -0.19989337 0)
(1.9471317 -0.21990053 0)
(1.9726883 -0.23905906 0)
(1.996736 -0.25739258 0)
(2.0192531 -0.27492917 0)
(2.0402286 -0.29170006 0)
(2.0596614 -0.30773853 0)
(2.0775583 -0.32307898 0)
(2.093933 -0.33775619 0)
(2.1088053 -0.35180469 0)
(2.1221996 -0.36525835 0)
(2.1341442 -0.37814999 0)
(2.1446709 -0.39051114 0)
(2.1538135 -0.40237176 0)
(2.161608 -0.41376022 0)
(2.1680912 -0.42470309 0)
(2.1733013 -0.43522522 0)
(2.177277 -0.44534976 0)
(2.1800576 -0.45509823 0)
(1.1086247 0.028533074 0)
(1.1237319 0.082654233 0)
(1.1366848 0.13220908 0)
(1.1480005 0.17639334 0)
(1.1584299 0.21462611 0)
(1.1686299 0.2465302 0)
(1.1792199 0.27191829 0)
(1.1907767 0.2907754 0)
(1.2038104 0.30323783 0)
(1.2187455 0.30957038 0)
(1.2359114 0.31014309 0)
(1.2555368 0.30540798 0)
(1.2777504 0.29587623 0)
(1.3025856 0.28209659 0)
(1.3299883 0.26463561 0)
(1.3598278 0.24406015 0)
(1.3919093 0.22092257 0)
(1.425987 0.19574869 0)
(1.4617773 0.16902864 0)
(1.4989719 0.14121028 0)
(1.5372494 0.11269519 0)
(1.5762855 0.083836742 0)
(1.6157621 0.054939988 0)
(1.6553739 0.026263069 0)
(1.6948346 -0.0019802948 0)
(1.7338802 -0.029617488 0)
(1.7722712 -0.056513111 0)
(1.809795 -0.082565032 0)
(1.8462657 -0.10770024 0)
(1.8815239 -0.13187078 0)
(1.9154361 -0.15504991 0)
(1.9478924 -0.17722851 0)
(1.9788056 -0.19841178 0)
(2.0081088 -0.2186164 0)
(2.0357533 -0.23786788 0)
(2.0617069 -0.25619843 0)
(2.0859516 -0.27364503 0)
(2.108482 -0.29024785 0)
(2.1293032 -0.30604894 0)
(2.1484293 -0.32109118 0)
(2.1658821 -0.33541737 0)
(2.1816894 -0.34906971 0)
(2.1958842 -0.36208912 0)
(2.2085035 -0.37451489 0)
(2.2195872 -0.38638454 0)
(2.2291776 -0.39773352 0)
(2.2373186 -0.40859507 0)
(2.244055 -0.41900022 0)
(2.2494323 -0.42897772 0)
(2.2534957 -0.43855414 0)
(2.2562911 -0.44775394 0)
(2.2578636 -0.45659971 0)
(1.1093437 0.030579366 0)
(1.1256945 0.088374864 0)
(1.1397332 0.14098839 0)
(1.1520861 0.18753236 0)
(1.1636247 0.2273794 0)
(1.1751085 0.260139 0)
(1.1872467 0.28564202 0)
(1.2006885 0.30391988 0)
(1.2159947 0.31517822 0)
(1.2336172 0.31976833 0)
(1.2538891 0.31815814 0)
(1.2770214 0.31090323 0)
(1.3031059 0.29861891 0)
(1.3321231 0.28195428 0)
(1.3639546 0.26156889 0)
(1.3983981 0.23811266 0)
(1.4351835 0.21220928 0)
(1.47399 0.18444325 0)
(1.5144624 0.15535049 0)
(1.5562268 0.12541215 0)
(1.5989033 0.095051507 0)
(1.6421184 0.064633194 0)
(1.6855136 0.034464577 0)
(1.7287528 0.0047986543 0)
(1.7715277 -0.024161915 0)
(1.8135599 -0.052259952 0)
(1.8546035 -0.079378773 0)
(1.8944456 -0.105437 0)
(1.9329058 -0.13038348 0)
(1.9698343 -0.15419236 0)
(2.0051105 -0.17685866 0)
(2.0386405 -0.19839418 0)
(2.0703543 -0.21882389 0)
(2.1002037 -0.23818278 0)
(2.1281592 -0.25651321 0)
(2.154208 -0.2738626 0)
(2.1783512 -0.29028156 0)
(2.2006019 -0.30582236 0)
(2.2209832 -0.32053762 0)
(2.2395262 -0.33447941 0)
(2.2562685 -0.34769858 0)