/*--------------------------------*- C++ -*----------------------------------*\
| =========                 |                                                 |
| \\      /  F ield         | OpenFOAM: The Open Source CFD Toolbox           |
|  \\    /   O peration     | Version:  2312                                  |
|   \\  /    A nd           | Website:  www.openfoam.com                      |
|    \\/     M anipulation  |                                                 |
\*---------------------------------------------------------------------------*/
FoamFile
{
    version     2.0;
    format      ascii;
    arch        "LSB;label=32;scalar=64";
    class       volScalarField;
    location    "0.08";
    object      alphat;
}
// * * * * * * * * * * * * * * * * * * * * * * * * * * * * * * * * * * * * * //

dimensions      [1 -1 -1 0 0 0 0];

internalField   nonuniform List<scalar> 
3221
(
0.028172621
0.027988412
0.027810386
0.027638388
0.027472212
0.027311623
0.027156364
0.027006156
0.026860711
0.026719729
0.026582907
0.026449944
0.026320547
0.026194435
0.026071351
0.02595106
0.025833355
0.025718059
0.02560503
0.025494162
0.025385381
0.025278651
0.025173965
0.02507135
0.024970857
0.024872564
0.024776566
0.024682928
0.024591746
0.024503361
0.024417775
0.024335124
0.024255543
0.024179162
0.024106102
0.024036477
0.023970389
0.02390793
0.023849181
0.023794208
0.02374307
0.02369581
0.023652465
0.023613059
0.023577608
0.023546121
0.023518599
0.023495037
0.023475429
0.023459762
0.023448022
0.023440182
0.028171963
0.02798649
0.027807118
0.027633689
0.027465999
0.027303815
0.027146884
0.026994938
0.02684769
0.026704847
0.026566114
0.026431198
0.026299818
0.026171704
0.026046605
0.025924298
0.025804584
0.025687298
0.025572308
0.025459519
0.025348866
0.025240323
0.025133893
0.025029611
0.024927538
0.024827757
0.024730373
0.024635406
0.024543099
0.024453652
0.024367119
0.024283637
0.024203341
0.024126358
0.024052808
0.023982801
0.023916436
0.0238538
0.023794967
0.02374
0.02368895
0.023641856
0.023598745
0.023559638
0.023524544
0.023493464
0.023466394
0.023443324
0.023424238
0.023409117
0.023397942
0.023390693
0.028170768
0.027982773
0.027800715
0.027624443
0.027453763
0.027288448
0.027128252
0.026972911
0.02682215
0.026675687
0.02653324
0.026394533
0.026259301
0.026127294
0.025998286
0.025872076
0.025748493
0.025627397
0.02550868
0.02539226
0.025278086
0.025166152
0.025056478
0.024949114
0.024844136
0.024741641
0.024641741
0.024544406
0.024450094
0.024358781
0.024270606
0.024185707
0.024104215
0.024026254
0.023951937
0.023881367
0.023814633
0.023751812
0.023692968
0.023638151
0.023587401
0.023540743
0.023498194
0.02345976
0.023425438
0.023395219
0.023369085
0.023347015
0.023328984
0.023314963
0.023304924
0.023298842
0.028169026
0.027977359
0.027791377
0.027610949
0.027435896
0.027266006
0.027101044
0.026940761
0.026784896
0.026633185
0.026485369
0.026341195
0.026200423
0.026062834
0.025928232
0.025796449
0.025667348
0.025540822
0.025416798
0.025295239
0.025176135
0.025059489
0.024945331
0.024833735
0.024724796
0.024618628
0.024515248
0.024414969
0.024317923
0.024224199
0.02413394
0.02404728
0.023964344
0.023885249
0.023810096
0.023738975
0.02367196
0.023609112
0.023550478
0.023496089
0.023445966
0.023400117
0.02335854
0.023321222
0.023288142
0.023259275
0.023234587
0.023214042
0.023197599
0.023185217
0.023176855
0.023172478
0.02816675
0.027970292
0.02777919
0.027593335
0.027412573
0.027236712
0.027065541
0.02689883
0.026736346
0.02657785
0.026423114
0.026271916
0.026124055
0.025979349
0.025837643
0.02569881
0.025562757
0.02542942
0.02529877
0.02517081
0.025045571
0.024923114
0.024803513
0.024686824
0.024573161
0.02446257
0.024355305
0.02425156
0.024151417
0.024055019
0.023962505
0.023874002
0.023789626
0.023709476
0.023633638
0.02356218
0.023495157
0.023432605
0.023374547
0.023320991
0.023271932
0.023227354
0.023187229
0.023151524
0.023120195
0.023093194
0.023070468
0.023051963
0.02303762
0.023027382
0.023021195
0.02301901
0.028163948
0.027961592
0.027764195
0.027571674
0.027383901
0.027200719
0.027021944
0.026847382
0.026676832
0.026510096
0.026346984
0.026187319
0.026030946
0.025877733
0.025727575
0.0255804
0.025436164
0.025294859
0.025156506
0.025021155
0.024888885
0.024759794
0.024634002
0.024511643
0.024392712
0.024277456
0.02416607
0.024058648
0.02395534
0.023856288
0.023761621
0.023671453
0.023585879
0.02350498
0.023428813
0.023357422
0.023290829
0.023229043
0.023172055
0.023119841
0.023072367
0.023029587
0.022991446
0.022957881
0.022928823
0.022904201
0.022883939
0.022867961
0.022856191
0.022848553
0.022844978
0.022845404
0.028160614
0.027951254
0.027746389
0.027545968
0.027349901
0.027158069
0.026970332
0.026786539
0.026606537
0.026430178
0.026257324
0.026087855
0.025921676
0.025758713
0.025598927
0.025442306
0.02528887
0.025138671
0.024991788
0.024848325
0.024708411
0.024572188
0.024439808
0.024311326
0.02418709
0.024067153
0.02395162
0.023840652
0.023734396
0.023632982
0.023536521
0.023445105
0.023358801
0.023277658
0.023201702
0.023130938
0.023065353
0.023004919
0.022949588
0.022899301
0.022853989
0.022813571
0.022777961
0.022747065
0.022720787
0.022699029
0.022681692
0.022668679
0.022659894
0.022655244
0.022654643
0.022658017
0.028156739
0.027939245
0.027725722
0.027516159
0.027310512
0.027108713
0.026910675
0.026716308
0.026525517
0.02633822
0.026154346
0.025973847
0.025796696
0.025622897
0.025452481
0.025285512
0.02512208
0.024962304
0.024806327
0.024654311
0.024506432
0.024362884
0.024223676
0.024089328
0.023959849
0.023835404
0.023716057
0.023601956
0.023493234
0.023390001
0.023292338
0.023200302
0.023113926
0.023033215
0.022958152
0.0228887
0.022824801
0.022766381
0.022713353
0.022665616
0.02262306
0.02258557
0.022553024
0.022525298
0.022502267
0.022483807
0.022469796
0.022460115
0.022454649
0.02245329
0.022455938
0.022462506
0.028152302
0.027925508
0.027702105
0.027482132
0.027265603
0.027052514
0.02684285
0.02663659
0.026433722
0.02623424
0.02603816
0.025845515
0.025656369
0.025470809
0.025288954
0.025110948
0.024936961
0.024767185
0.024601825
0.024441101
0.024285218
0.0241343
0.02398882
0.023848831
0.023714516
0.023586032
0.023463477
0.023346912
0.023236447
0.023132155
0.023034079
0.022942229
0.022856588
0.022777111
0.022703729
0.022636353
0.022574874
0.022519169
0.022469105
0.022424536
0.022385314
0.022351284
0.022322291
0.022298179
0.022278796
0.022263993
0.022253626
0.022247556
0.022245654
0.022247796
0.022253871
0.02226378
0.028147276
0.027909965
0.027675412
0.027443719
0.027214977
0.026989263
0.026766647
0.026547204
0.026331014
0.026118172
0.025908794
0.025703016
0.025501001
0.025302938
0.025109038
0.024919538
0.02473469
0.024554763
0.024380019
0.024210643
0.024047023
0.023889438
0.023738051
0.02359306
0.023454633
0.023322906
0.023197976
0.023079836
0.022968551
0.022864142
0.022766598
0.022675868
0.022591875
0.022514514
0.022443655
0.022379151
0.022320838
0.022268541
0.022222078
0.022181259
0.022145894
0.022115793
0.022090767
0.022070632
0.02205521
0.02204433
0.022037829
0.022035553
0.022037359
0.022043112
0.022052692
0.022065993
0.028141626
0.027892513
0.027645476
0.027400703
0.027158378
0.026918679
0.026681788
0.026447891
0.026217187
0.025989888
0.02576623
0.025546469
0.025330882
0.025119768
0.024913445
0.024712241
0.024516495
0.024326571
0.024142547
0.023965186
0.02379453
0.023630861
0.0234744
0.023325329
0.023183784
0.02304986
0.022923605
0.02280497
0.022693951
0.022590503
0.022494542
0.022405947
0.022324569
0.022250234
0.022182747
0.022121897
0.022067464
0.02201922
0.021976933
0.021940371
0.021909305
0.02188351
0.02186277
0.021846875
0.021835624
0.02182883
0.021826315
0.021827912
0.021833468
0.021842842
0.021855908
0.021872556
0.028135308
0.027873025
0.027612096
0.027352817
0.027095491
0.026840425
0.026587934
0.026338341
0.026091986
0.025849225
0.025610429
0.025375991
0.025146318
0.024921829
0.024702951
0.024490105
0.024283669
0.024084012
0.023891722
0.023707005
0.023530152
0.023361414
0.023200987
0.02304901
0.022905567
0.022770687
0.022644345
0.022526441
0.022416891
0.022315565
0.022222294
0.022136876
0.022059082
0.021988663
0.021925355
0.021868885
0.021818974
0.021775342
0.021737713
0.021705814
0.021679382
0.021658165
0.021641919
0.021630415
0.021623437
0.021620783
0.021622266
0.021627712
0.021636963
0.021649873
0.021666315
0.02168618
0.02812827
0.027851352
0.027575035
0.027299753
0.027025956
0.026754111
0.026484696
0.0262182
0.025955131
0.025696007
0.025441359
0.025191731
0.02494767
0.024709725
0.024478435
0.024254136
0.024037642
0.023829283
0.023629434
0.023438438
0.023256571
0.023084045
0.022921001
0.02276751
0.022623575
0.022489134
0.022364067
0.022248216
0.022141397
0.022043383
0.021953909
0.021872683
0.021799393
0.021733713
0.02167531
0.021623848
0.021578994
0.021540422
0.021507815
0.021480866
0.021459284
0.021442793
0.021431132
0.021424057
0.021421342
0.021422778
0.021428172
0.021437347
0.021450145
0.021466422
0.021486051
0.021508927
0.028120452
0.027827324
0.027534024
0.027241158
0.026949365
0.026659305
0.026371651
0.026087094
0.025806332
0.025530073
0.025259026
0.024993898
0.024735383
0.024484165
0.024240648
0.02400592
0.023780242
0.023564111
0.023357925
0.023162003
0.022976575
0.022801781
0.022637676
0.022484232
0.022341344
0.022208837
0.022086474
0.02197403
0.021871206
0.021777665
0.021693041
0.021616947
0.021548988
0.021488762
0.02143587
0.021389919
0.021350529
0.021317333
0.021289979
0.021268137
0.021251494
0.021239757
0.021232655
0.021229936
0.02123137
0.021236746
0.021245871
0.021258571
0.021274691
0.021294093
0.021316652
0.021342278
0.028111785
0.027800746
0.027488757
0.027176643
0.026865273
0.02655554
0.026248355
0.025944639
0.025645315
0.025351303
0.025063506
0.0247828
0.024509931
0.024245797
0.023991258
0.023746854
0.023513146
0.023290602
0.023079587
0.022880353
0.022693043
0.022517693
0.022354236
0.022202515
0.02206229
0.02193325
0.021815028
0.021707318
0.021609697
0.021521709
0.021442886
0.021372746
0.021310813
0.021256616
0.021209697
0.021169615
0.021135949
0.021108302
0.021086298
0.021069587
0.021057846
0.021050775
0.021048096
0.021049559
0.021054935
0.021064015
0.021076615
0.021092565
0.021111719
0.021133949
0.021159117
0.021187234
0.028102192
0.027771402
0.0274389
0.027105784
0.026773201
0.026442327
0.026114352
0.025790464
0.025471842
0.025159638
0.024854965
0.024558633
0.024272107
0.023996085
0.023731345
0.023478573
0.023238324
0.023011018
0.022796938
0.022596229
0.022408902
0.022234847
0.022073842
0.021925569
0.02178963
0.021665565
0.021552868
0.021451141
0.021359823
0.021278343
0.021206127
0.02114261
0.021087239
0.021039485
0.020998842
0.02096483
0.020936999
0.020914932
0.020898238
0.020886561
0.020879571
0.02087697
0.020878484
0.020883868
0.020892899
0.02090538
0.020921136
0.020940008
0.020961851
0.020986608
0.02101409
0.021044229
0.028091587
0.027739052
0.027384087
0.027028122
0.026672644
0.026319163
0.025969194
0.025624229
0.025285727
0.024955102
0.024633355
0.024322383
0.024022934
0.023736012
0.023462449
0.023202917
0.022957911
0.022727753
0.022512594
0.022312419
0.022127065
0.021956233
0.021799511
0.021656397
0.021526311
0.021408627
0.02130275
0.021208126
0.021124062
0.021049876
0.020984902
0.020928497
0.02088005
0.020838983
0.020804753
0.020776857
0.020754828
0.020738237
0.020726693
0.020719837
0.020717348
0.020718932
0.020724329
0.020733303
0.020745645
0.020761168
0.020779722
0.02080116
0.020825396
0.020852209
0.020881595
0.02091347
0.028079875
0.027703436
0.027323923
0.026943173
0.026563078
0.026185541
0.025812449
0.02544564
0.025086792
0.024737524
0.024399747
0.024074622
0.023763354
0.023466969
0.023186283
0.022921894
0.022674178
0.022443298
0.022229213
0.022031697
0.021850365
0.021684693
0.02153405
0.021397723
0.021274944
0.021164905
0.021066999
0.020980423
0.020904375
0.020838076
0.020780783
0.020731794
0.020690451
0.020656143
0.020628308
0.020606428
0.020590033
0.020578697
0.020572034
0.020569696
0.020571374
0.02057679
0.020585697
0.020597882
0.020613152
0.020631308
0.020652368
0.020675933
0.02070206
0.020730626
0.020761563
0.020794814
0.028066949
0.027664269
0.027257986
0.026850428
0.026443965
0.026040959
0.02564372
0.025254286
0.024874944
0.024507789
0.024154377
0.023816227
0.023494609
0.023190532
0.022904727
0.022637651
0.022389492
0.022160183
0.021949432
0.021756749
0.021581481
0.021422847
0.021279973
0.021151925
0.021037741
0.020936517
0.020847481
0.020769674
0.020702187
0.02064416
0.020594789
0.02055333
0.020519096
0.020491461
0.020469854
0.020453763
0.020442722
0.020436319
0.020434184
0.020435987
0.020441439
0.020450282
0.020462286
0.020477272
0.020495095
0.020515558
0.020538505
0.020563861
0.020591547
0.020621484
0.020653612
0.020687888
0.028052697
0.027621246
0.027185828
0.026749355
0.026314761
0.025884933
0.025462394
0.02505017
0.024650689
0.024265993
0.02389799
0.023548277
0.023218119
0.022908435
0.022619795
0.022352432
0.022106262
0.021880922
0.021675804
0.021490103
0.021322862
0.021173016
0.021039437
0.020920964
0.020816443
0.020724995
0.020645527
0.020576988
0.020518387
0.020468808
0.020427407
0.020393415
0.020366137
0.020344945
0.02032928
0.02031864
0.020312582
0.020310714
0.02031269
0.020318208
0.020327002
0.020338841
0.020353493
0.020370985
0.02039082
0.020413081
0.020437631
0.02046438
0.020493257
0.020524205
0.020557178
0.020592146
0.028036992
0.027574037
0.027106974
0.026639407
0.026174923
0.025716679
0.025268533
0.024833429
0.02441401
0.024012688
0.023631489
0.023272025
0.022935468
0.022622556
0.022333602
0.022068522
0.02182688
0.021607938
0.021410716
0.021234051
0.021076654
0.020937165
0.020814193
0.020706354
0.020612479
0.020531428
0.020461968
0.02040296
0.020353355
0.020312202
0.020278639
0.020251894
0.020231281
0.020216187
0.020206074
0.020200469
0.020198956
0.020201172
0.020206803
0.020215578
0.020227261
0.020241684
0.020258664
0.020277952
0.020299491
0.02032319
0.02034896
0.020376732
0.020406449
0.020438071
0.020471566
0.020506917
0.028019701
0.027522295
0.027020928
0.02652002
0.026023538
0.025536285
0.025061947
0.024603915
0.024165261
0.023748579
0.023355943
0.022988882
0.022648376
0.022334869
0.022048308
0.021788192
0.021553646
0.02134349
0.02115632
0.020990583
0.020844644
0.020716843
0.020605549
0.020509221
0.020426641
0.020356382
0.020297133
0.020247697
0.020206998
0.020174072
0.020148062
0.020128215
0.020113864
0.020104432
0.020099412
0.020098367
0.020100917
0.020106738
0.020115545
0.020127112
0.020141339
0.020157835
0.020176546
0.020197368
0.020220201
0.020244967
0.020271602
0.020300055
0.020330289
0.020362277
0.020396004
0.020431454
0.028000678
0.027465645
0.02692717
0.026390221
0.0258607
0.025343292
0.024842336
0.024361767
0.023904929
0.023474523
0.023072568
0.022700397
0.022358667
0.022047401
0.021766061
0.021513629
0.021288704
0.021089606
0.02091447
0.020761333
0.020628211
0.020513157
0.020414312
0.02033023
0.020259279
0.020199953
0.02015089
0.020110869
0.02007881
0.020053764
0.0200349
0.020021496
0.020012928
0.020008658
0.020008224
0.020011233
0.020017348
0.020026286
0.020037784
0.020051865
0.020067933
0.020086092
0.020106206
0.020128181
0.020151942
0.02017743
0.020204603
0.020233429
0.020263889
0.020295967
0.020329676
0.020364981
0.027979776
0.027403696
0.026824742
0.026250099
0.025685749
0.025137237
0.024609621
0.024107238
0.023633635
0.023191514
0.022782714
0.02240822
0.022068219
0.021762174
0.021488936
0.021246868
0.021033973
0.020848022
0.020686666
0.020547534
0.020428305
0.020326772
0.020241114
0.020169537
0.020110289
0.020061806
0.020022704
0.019991769
0.019967943
0.019950313
0.019938093
0.019930609
0.019927289
0.019927646
0.019931271
0.019937818
0.019946998
0.019958601
0.019972498
0.019988274
0.020005933
0.020025382
0.020046529
0.020069308
0.020093666
0.020119566
0.020146986
0.020175909
0.020206347
0.02023826
0.020271765
0.020306745
0.02795686
0.027335624
0.026713767
0.026098889
0.025498073
0.024917827
0.024363803
0.023840688
0.023352124
0.022900675
0.022487832
0.022114066
0.021778919
0.021481146
0.021218865
0.020989727
0.020791082
0.020620123
0.020474016
0.020349996
0.020245438
0.020158077
0.020085891
0.020026851
0.019979156
0.019941228
0.019911697
0.019889383
0.019873275
0.019862514
0.019856375
0.019854246
0.019855615
0.019860055
0.019867211
0.01987679
0.019888631
0.019902484
0.019918042
0.019935301
0.01995416
0.019974543
0.019996392
0.020019662
0.020044327
0.020070364
0.020097782
0.020126553
0.020156785
0.020188366
0.020221369
0.020255798
0.027931492
0.027261665
0.026593472
0.025935861
0.025297184
0.024684814
0.024104968
0.023562582
0.023061253
0.022603226
0.022189445
0.021819663
0.021492601
0.021206149
0.020957576
0.020743749
0.020561324
0.020406913
0.020277215
0.020169103
0.020079787
0.020006945
0.019948212
0.019901505
0.019865019
0.0198372
0.019816721
0.019802463
0.019793484
0.019788996
0.019788346
0.019790992
0.01979649
0.019804476
0.019814654
0.019826907
0.019840884
0.019856366
0.019873342
0.01989172
0.019911435
0.019932436
0.019954695
0.019978185
0.020002912
0.020028843
0.020056067
0.020084525
0.020114258
0.020145298
0.020177808
0.020211398
0.027903704
0.027181074
0.026463073
0.025760381
0.025082605
0.024438
0.023833275
0.023273482
0.022761977
0.022300462
0.0218891
0.021526705
0.021210987
0.020938822
0.020706534
0.02051015
0.02034562
0.020208994
0.020096542
0.020004853
0.019931203
0.01987282
0.019827286
0.019792517
0.019766741
0.019748462
0.019736427
0.0197296
0.019727122
0.01972829
0.019732532
0.019739382
0.019748468
0.019759491
0.01977237
0.019786684
0.019802273
0.019819129
0.019837173
0.019856348
0.019876622
0.019897968
0.019920391
0.019943862
0.019968467
0.01999414
0.020020853
0.02004883
0.020078089
0.02010827
0.020140158
0.020172902
0.027873287
0.027093219
0.0263219
0.025571802
0.024853873
0.024177227
0.023548954
0.022974027
0.022455318
0.021993712
0.021588324
0.021236794
0.020935628
0.02068056
0.020466892
0.020289786
0.020144499
0.020026557
0.019931855
0.019857092
0.019799021
0.019754807
0.019722032
0.019698656
0.019682978
0.019673591
0.01966934
0.019669288
0.019672673
0.019678886
0.019687441
0.019697952
0.01971012
0.019723891
0.019738803
0.019754726
0.019771671
0.019789567
0.019808376
0.019828069
0.019848655
0.019870104
0.01989251
0.019915807
0.019939988
0.019965305
0.019991412
0.020018725
0.020047269
0.020076663
0.020107676
0.020139766
0.027839956
0.026997552
0.026169242
0.025369453
0.024610527
0.023902376
0.023252295
0.022664922
0.022142338
0.021684297
0.02128857
0.020951378
0.020667847
0.020432462
0.020239454
0.020083129
0.019958094
0.019859412
0.019782997
0.019725066
0.019682259
0.01965174
0.019631141
0.019618509
0.019612247
0.019611063
0.019613918
0.019619986
0.019628613
0.019639288
0.019651612
0.019665284
0.019680267
0.019696094
0.019712628
0.019729913
0.019747902
0.019766551
0.019785873
0.019805839
0.019826553
0.01984795
0.019870037
0.019893085
0.019916704
0.019941426
0.019966885
0.019993441
0.020021243
0.020049991
0.02007999
0.02011118
0.027803434
0.026893455
0.026004329
0.025152624
0.024352102
0.023613351
0.022943628
0.022346906
0.021824105
0.021373485
0.020991162
0.020671698
0.020408687
0.020195285
0.020024649
0.019890265
0.019786158
0.019707272
0.019649128
0.019607719
0.019579686
0.019562252
0.019553151
0.019550553
0.019552994
0.019559316
0.01956861
0.019580169
0.019593452
0.019608048
0.019623649
0.019640229
0.019657352
0.019674831
0.019692761
0.01971111
0.019729889
0.019749041
0.019768689
0.019788769
0.019809307
0.019830591
0.01985221
0.019874768
0.0198978
0.019921832
0.019946757
0.019972587
0.019999462
0.020027355
0.02005639
0.020086609
0.027763424
0.026780241
0.025826321
0.024920555
0.024078115
0.02331007
0.022623309
0.022020727
0.021501648
0.021062438
0.020697239
0.020398733
0.020158862
0.019969423
0.019822525
0.019710902
0.01962829
0.019569313
0.019529143
0.019503764
0.019489883
0.019484838
0.019486507
0.019493213
0.019503648
0.019516802
0.019531901
0.019548367
0.019565773
0.019583806
0.019602433
0.019621305
0.019640128
0.019659073
0.019678122
0.019697278
0.019716671
0.019736162
0.019755819
0.019775954
0.019796176
0.01981709
0.019838242
0.01986022
0.019882836
0.01990617
0.019930308
0.019955316
0.019981282
0.020008254
0.020036318
0.020065541
0.027719596
0.026657143
0.025634288
0.024672421
0.023788051
0.022992446
0.022291695
0.021687107
0.021175911
0.020752155
0.020407694
0.020133147
0.019918728
0.019754888
0.019632749
0.019544527
0.019483694
0.019444377
0.019421712
0.019411746
0.019411316
0.019417924
0.019429624
0.019444919
0.019462671
0.019482026
0.019502354
0.019523199
0.019544257
0.019565464
0.019586609
0.019607255
0.019627644
0.019647803
0.019667748
0.019687561
0.019707266
0.01972701
0.019746566
0.019766451
0.019786383
0.019806858
0.019827742
0.019849112
0.019871048
0.019893637
0.019916966
0.019941116
0.019966172
0.019992203
0.020019291
0.020047513
0.027671576
0.026523298
0.025427195
0.024407311
0.023481346
0.022660371
0.021949116
0.021346699
0.020847699
0.020443412
0.020123122
0.019875249
0.019688256
0.019551309
0.019454688
0.01939038
0.019351167
0.019331091
0.019325343
0.019330105
0.019342395
0.019359921
0.01938094
0.019404152
0.019428598
0.019453588
0.019478632
0.019503395
0.019527815
0.019551857
0.019574857
0.019597234
0.019618941
0.019640118
0.01966075
0.019681006
0.019701086
0.019720637
0.019740126
0.019759744
0.019779586
0.019799612
0.019819941
0.019840674
0.019861905
0.019883728
0.019906237
0.019929522
0.019953671
0.019978764
0.020004884
0.020032115
0.027618938
0.026377724
0.025203871
0.024124208
0.023157373
0.022313694
0.021595843
0.021000041
0.020517619
0.0201367
0.019843766
0.019624954
0.019467016
0.019357917
0.019287622
0.019247206
0.019229288
0.019227929
0.019238451
0.019257236
0.019281532
0.019309277
0.019338958
0.019369479
0.019400069
0.0194302
0.019459529
0.019487851
0.019515542
0.019541556
0.019566439
0.019590372
0.01961318
0.019635113
0.019656541
0.019676946
0.019697048
0.019716549
0.019736197
0.019755617
0.019775049
0.019794586
0.019814341
0.019834425
0.019854944
0.019876
0.019897694
0.019920123
0.019943379
0.019967551
0.019992723
0.020018983
0.02756119
0.026219291
0.024962985
0.02382197
0.022815421
0.021952194
0.021232046
0.020647495
0.020186011
0.019832162
0.019569463
0.019381767
0.019254194
0.019174024
0.019130227
0.019113526
0.019116485
0.019133274
0.019159419
0.019191552
0.019227186
0.019264521
0.01930228
0.019339583
0.019375848
0.019410709
0.01944396
0.019475899
0.01950588
0.019533986
0.019560558
0.019585796
0.019609721
0.019632161
0.01965406
0.019674643
0.019695031
0.019714743
0.019734142
0.019753273
0.019772296
0.019791334
0.019810513
0.019829953
0.019849769
0.019870071
0.019890968
0.01991256
0.019934949
0.019958226
0.019982479
0.020007797
0.027497755
0.026046686
0.024703013
0.023499304
0.022454674
0.021575552
0.020857742
0.020289179
0.019852868
0.01952952
0.019299607
0.019144757
0.019048875
0.018998178
0.018980934
0.018987704
0.019011102
0.019045488
0.019086653
0.019131526
0.019177914
0.019224294
0.019269639
0.019313287
0.019354844
0.019394103
0.019431293
0.019466065
0.019498353
0.019528328
0.019556418
0.019583076
0.019607555
0.019630717
0.019652954
0.019674194
0.019694609
0.019714297
0.019733487
0.019752313
0.019770929
0.019789477
0.019808093
0.019826906
0.01984604
0.019865613
0.019885738
0.019906525
0.019928079
0.019950499
0.019973867
0.019998279
0.027427952
0.025858372
0.024422197
0.023154738
0.022074187
0.021183307
0.02047273
0.019924879
0.019517756
0.019228014
0.019033109
0.018912725
0.018849564
0.018828691
0.018838008
0.018868014
0.018911459
0.018962963
0.019018636
0.019075737
0.019132394
0.019187376
0.019239914
0.019289559
0.019336113
0.019379704
0.019420462
0.019457657
0.019492205
0.019524177
0.019553401
0.019581198
0.019606385
0.019630588
0.019653294
0.019674771
0.019695239
0.019714869
0.019733864
0.019752393
0.019770619
0.019788698
0.019806775
0.019824988
0.01984347
0.019862345
0.019881733
0.019901751
0.01992251
0.019944122
0.019966641
0.019990185
0.027350961
0.025652536
0.024118505
0.0227866
0.021672857
0.020774804
0.020076505
0.019553952
0.019179714
0.018926327
0.018768386
0.018684069
0.018654364
0.01866367
0.018699615
0.018752714
0.018815925
0.018884186
0.01895397
0.019022904
0.019089459
0.019152705
0.019212143
0.019267525
0.019318906
0.01936693
0.019410385
0.019450212
0.019487118
0.019520454
0.019551187
0.019579905
0.019606482
0.019631237
0.019654343
0.019676048
0.019696584
0.019716159
0.019734978
0.019753231
0.019771094
0.019788732
0.019806301
0.01982395
0.019841816
0.019860032
0.019878723
0.019898012
0.019918019
0.02726579
0.025427024
0.023789581
0.022392982
0.021249383
0.020349117
0.019668147
0.019175194
0.018837149
0.018622517
0.01850365
0.018456568
0.01846112
0.018501095
0.018563898
0.018640115
0.018722969
0.018807773
0.018891412
0.018971913
0.019048109
0.019119385
0.01918553
0.019246447
0.019302907
0.019354437
0.019401113
0.019443198
0.019482047
0.019517044
0.019549631
0.019579528
0.019606964
0.019632306
0.019655815
0.019677757
0.019698382
0.019717921
0.019736592
0.019754599
0.019772131
0.019789364
0.019806464
0.019823586
0.019840878
0.019858477
0.019876514
0.019895116
0.019914402
0.027171218
0.025179262
0.023432698
0.021971716
0.020802216
0.019904947
0.01924617
0.018786693
0.018487726
0.01831427
0.018236166
0.018227639
0.01826749
0.0183389
0.018429056
0.018528645
0.018631218
0.018732522
0.018829904
0.018921832
0.019007524
0.019086685
0.019159456
0.01922584
0.019287219
0.019342215
0.019391556
0.019436338
0.019476933
0.019514387
0.019548369
0.019579331
0.019607608
0.019633558
0.019657489
0.01967969
0.019700431
0.019719962
0.019738517
0.019756313
0.019773551
0.019790418
0.019807089
0.019823729
0.019840489
0.019857515
0.019874944
0.019892904
0.019911518
0.027065734
0.024906169
0.023044697
0.021520325
0.020329471
0.01944047
0.018808325
0.018385643
0.018128327
0.017998257
0.017962696
0.017994407
0.018071041
0.018175072
0.018293423
0.018416919
0.018539502
0.018657432
0.018768588
0.018871922
0.01896707
0.019054134
0.019133213
0.019205645
0.019271219
0.01932933
0.019381775
0.019429333
0.019472584
0.019511699
0.019547061
0.019579109
0.019608236
0.019634819
0.019659198
0.019681686
0.019702574
0.019722131
0.019740606
0.019758228
0.019775212
0.019791754
0.01980804
0.01982424
0.019840514
0.019857013
0.019873879
0.019891244
0.019909234
0.026947435
0.024604031
0.022621923
0.02103597
0.019828811
0.018953122
0.018351347
0.017968099
0.017754939
0.017670315
0.017679515
0.017753801
0.017869352
0.018007746
0.018155555
0.018303792
0.01844689
0.018581736
0.01870682
0.018821639
0.018926288
0.019021023
0.019107192
0.019184949
0.01925417
0.019316031
0.019372105
0.019422606
0.019467984
0.019508809
0.019545565
0.019578725
0.019608724
0.019635967
0.019660822
0.019683629
0.019704698
0.019724316
0.019742747
0.019760235
0.019777004
0.019793263
0.019809205
0.01982501
0.019840843
0.01985686
0.019873208
0.019890025
0.01990744
0.026813907
0.024268365
0.02216015
0.020515366
0.019297249
0.018439305
0.017870624
0.017529034
0.017362127
0.017325483
0.017382473
0.01750267
0.017660145
0.01783532
0.018014303
0.01818841
0.018352722
0.018504904
0.018644169
0.018770563
0.018884678
0.018987606
0.019080353
0.019163291
0.01923661
0.019302994
0.01936241
0.019415524
0.019463049
0.019505619
0.019543793
0.019578092
0.019608989
0.019636919
0.019662282
0.019685438
0.019706721
0.019726435
0.019744858
0.019762248
0.019778842
0.019794859
0.019810499
0.019825951
0.019841387
0.019856967
0.019872843
0.019889157
0.019906043
0.026662042
0.023893735
0.021654487
0.01995463
0.018730846
0.017893954
0.017359766
0.017061397
0.016943205
0.016958035
0.017067086
0.017237947
0.017441422
0.017656563
0.017868885
0.018070253
0.018256619
0.01842665
0.01858029
0.018718487
0.01884253
0.018952915
0.019053121
0.019140544
0.019219446
0.019289723
0.019352305
0.019408049
0.019457742
0.019502085
0.019541703
0.019577165
0.019608983
0.019637628
0.019663525
0.019687061
0.019708589
0.01972843
0.01974688
0.019764208
0.019780664
0.019796476
0.019811855
0.019826995
0.019842076
0.019857262
0.019872709
0.019888564
0.019904965
0.026487781
0.023473524
0.021099256
0.019349031
0.018124241
0.017309939
0.016816412
0.016568045
0.016503402
0.016572681
0.016735461
0.016958175
0.017211621
0.017470737
0.017718946
0.017949157
0.01815849
0.018346744
0.018515274
0.018665694
0.018798675
0.01891849
0.01902427
0.019118397
0.019201919
0.019276029
0.019341799
0.019400189
0.019452067
0.019498204
0.019539286
0.01957593
0.019608691
0.019638073
0.019664528
0.019688468
0.019710268
0.019730266
0.019748773
0.019766073
0.019782425
0.019798068
0.019813223
0.01982809
0.019842855
0.019857688
0.019872747
0.019888185
0.019904143
0.026285725
0.022999642
0.020487811
0.018692549
0.017469902
0.016690399
0.016247544
0.016055862
0.016049079
0.016175304
0.016393075
0.016668235
0.016971539
0.017277723
0.017564598
0.017825328
0.018058282
0.018265605
0.018449456
0.01861112
0.018754925
0.018882746
0.018996126
0.019095853
0.019184015
0.019261977
0.019330945
0.01939199
0.019446062
0.019494003
0.01953656
0.019574399
0.019608117
0.019638251
0.019665283
0.019689648
0.019711743
0.019731923
0.019750514
0.019767814
0.019784093
0.0197996
0.019814564
0.019829195
0.019843683
0.0198582
0.019872911
0.01988797
0.019903525
0.026048529
0.022462153
0.019812242
0.017977073
0.01677329
0.016043146
0.015660832
0.015531988
0.015586664
0.015771698
0.016045187
0.016372835
0.01672548
0.017077823
0.017406634
0.017698844
0.017956788
0.018183687
0.018381823
0.018556843
0.018709911
0.018847969
0.018967703
0.01907305
0.019165855
0.019247668
0.019319831
0.019383525
0.019439787
0.019489531
0.019533563
0.019572601
0.019607282
0.019638177
0.019665797
0.019690603
0.01971301
0.019733392
0.01975209
0.019769415
0.019785648
0.019801048
0.019815853
0.01983028
0.019844527
0.019858765
0.019873163
0.01988788
0.019903068
0.025765928
0.021848781
0.01906288
0.017205614
0.016042421
0.015376757
0.015064317
0.015003581
0.015122431
0.015367397
0.015696731
0.016076384
0.016477442
0.016875114
0.017245503
0.017571183
0.017854712
0.018100076
0.018314901
0.018501144
0.018666748
0.01881284
0.018939244
0.019050169
0.019147593
0.019233231
0.019308565
0.019374886
0.019433319
0.01948485
0.019530348
0.019570577
0.019606218