/*--------------------------------*- C++ -*----------------------------------*\
| =========                 |                                                 |
| \\      /  F ield         | OpenFOAM: The Open Source CFD Toolbox           |
|  \\    /   O peration     | Version:  2312                                  |
|   \\  /    A nd           | Website:  www.openfoam.com                      |
|    \\/     M anipulation  |                                                 |
\*---------------------------------------------------------------------------*/
FoamFile
{
    version     2.0;
    format      ascii;
    arch        "LSB;label=32;scalar=64";
    class       volScalarField;
    location    "0.08";
    object      CO2;
}
// * * * * * * * * * * * * * * * * * * * * * * * * * * * * * * * * * * * * * //

dimensions      [0 0 0 0 0 0 0];

internalField   nonuniform List<scalar> 
3221
(
7.1715137e-05
0.0002224195
0.00038053634
0.00054603047
0.00071883907
0.00089887272
0.0010860163
0.00128013
0.0014810502
0.0016885901
0.0019025409
0.0021226735
0.0023487395
0.0025804729
0.0028175908
0.003059795
0.0033067741
0.0035582049
0.003813754
0.0040730794
0.0043358319
0.0046016565
0.004870194
0.005141082
0.0054139563
0.0056884526
0.005964207
0.006240858
0.0065180476
0.006795421
0.0070726283
0.0073493264
0.0076251794
0.0078998595
0.0081730478
0.0084444349
0.0087137217
0.0089806199
0.0092448527
0.0095061548
0.0097642732
0.010018967
0.010270008
0.01051718
0.01076028
0.010999116
0.01123351
0.011463292
0.011688307
0.011908408
0.012123457
0.012333322
7.2485818e-05
0.00022481637
0.00038464336
0.00055192912
0.00072660733
0.00090858464
0.0010977415
0.0012939331
0.00149699
0.0017067202
0.0019229092
0.0021453221
0.002373704
0.0026077823
0.0028472685
0.003091859
0.0033412374
0.0035950747
0.0038530318
0.0041147609
0.0043799073
0.00464811
0.0049190041
0.0051922215
0.0054673925
0.005744147
0.0060221159
0.0063009328
0.0065802345
0.006859661
0.0071388582
0.0074174786
0.0076951825
0.0079716384
0.0082465241
0.0085195273
0.0087903463
0.0090586906
0.0093242818
0.0095868531
0.0098461506
0.010101933
0.010353971
0.010602051
0.010845968
0.011085532
0.011320566
0.011550905
0.011776395
0.011996893
0.012212268
0.012422375
7.398755e-05
0.00022948483
0.00039263732
0.00056340185
0.00074170558
0.00092744742
0.0011204992
0.0013207067
0.0015278908
0.0017418489
0.0019623558
0.0021891653
0.0024220118
0.0026606113
0.0029046636
0.0031538537
0.0034078529
0.0036663213
0.0039289082
0.0041952541
0.0044649922
0.0047377505
0.0050131522
0.0052908181
0.0055703674
0.0058514195
0.0061335948
0.006416517
0.0066998129
0.006983113
0.0072660551
0.0075482837
0.0078294516
0.0081092207
0.0083872627
0.0086632601
0.0089369068
0.0092079088
0.0094759845
0.0097408654
0.010002296
0.010260035
0.010513854
0.010763538
0.011008886
0.01124971
0.011485837
0.011717103
0.01194336
0.012164469
0.012380303
0.012590721
7.6185235e-05
0.00023631739
0.00040433603
0.00058018817
0.00076379046
0.00095503024
0.0011537667
0.001359832
0.0015730327
0.0017931508
0.0020199456
0.0022531546
0.0024924955
0.0027376676
0.0029883536
0.0032442209
0.0035049234
0.0037701033
0.0040393924
0.0043124135
0.0045887826
0.0048681098
0.0051500015
0.0054340615
0.0057198927
0.0060070982
0.0062952837
0.0065840578
0.0068730325
0.0071618257
0.0074500627
0.0077373768
0.0080234106
0.0083078165
0.0085902583
0.0088704115
0.0091479644
0.0094226185
0.009694089
0.0099621054
0.010226411
0.010486766
0.010742942
0.010994727
0.011241924
0.011484349
0.011721834
0.011954221
0.01218137
0.012403148
0.012619434
0.012830096
7.9054588e-05
0.00024523969
0.00041961349
0.00060210876
0.00079262724
0.00099104034
0.0011971902
0.0014108907
0.0016319294
0.0018600681
0.0020950452
0.0023365767
0.0025843581
0.0028380662
0.0030973605
0.003361885
0.0036312702
0.0039051343
0.0041830853
0.0044647225
0.0047496381
0.0050374189
0.005327648
0.0056199067
0.0059137758
0.0062088379
0.0065046781
0.0068008847
0.0070970517
0.0073927803
0.0076876802
0.0079813702
0.0082734802
0.0085636514
0.0088515379
0.0091368075
0.0094191421
0.0096982387
0.0099738098
0.010245583
0.010513304
0.010776732
0.011035644
0.011289832
0.011539105
0.011783287
0.012022216
0.012255746
0.012483743
0.012706087
0.012922668
0.013133363
8.2580242e-05
0.00025620547
0.00043839216
0.00062905439
0.00082807425
0.0010353024
0.001250559
0.001473635
0.0017042933
0.0019422706
0.0021872788
0.0024390068
0.0026971219
0.0029612723
0.0032310882
0.0035061839
0.0037861599
0.0040706042
0.0043590944
0.0046511995
0.0049464816
0.005244498
0.0055448026
0.0058469479
0.0061504876
0.0064549774
0.0067599763
0.0070650489
0.0073697673
0.0076737122
0.0079764743
0.008277656
0.0085768721
0.0088737516
0.009167938
0.0094590909
0.0097468865
0.010031018
0.010311196
0.01058715
0.010858626
0.011125388
0.011387221
0.011643923
0.011895313
0.012141224
0.012381508
0.012616029
0.012844668
0.01306732
0.013283888
0.013494265
8.6754853e-05
0.00026919366
0.00046063798
0.00066097856
0.00087007288
0.0010877457
0.0013137899
0.0015479679
0.0017900126
0.0020396296
0.0022964984
0.0025602743
0.0028305905
0.0031070596
0.0033892761
0.0036768177
0.0039692476
0.0042661166
0.004566965
0.0048713245
0.0051787201
0.0054886726
0.0058007001
0.0061143212
0.0064290554
0.0067444254
0.0070599601
0.0073751962
0.0076896798
0.0080029678
0.0083146297
0.0086242491
0.0089314251
0.0092357733
0.0095369272
0.0098345389
0.01012828
0.010417841
0.010702935
0.010983293
0.011258667
0.01152883
0.011793574
0.012052712
0.012306074
0.012553508
0.012794882
0.013030077
0.013258993
0.01348154
0.013697643
0.013907212
9.1578298e-05
0.00028420601
0.00048635631
0.00069789176
0.00091864006
0.0011483945
0.0013869151
0.0016339294
0.0018891344
0.002152198
0.0024227606
0.0027004374
0.0029848199
0.0032754782
0.0035719632
0.0038738085
0.0041805323
0.0044916404
0.0048066278
0.0051249809
0.0054461804
0.0057697028
0.0060950247
0.0064216223
0.0067489746
0.0070765671
0.0074038937
0.0077304586
0.0080557784
0.0083793837
0.0087008208
0.0090196536
0.0093354649
0.0096478578
0.0099564565
0.010260908
0.010560881
0.010856068
0.011146185
0.01143097
0.011710187
0.01198362
0.012251076
0.012512383
0.01276739
0.013015965
0.013257995
0.013493384
0.013722054
0.013943939
0.014158985
0.014367127
9.7057009e-05
0.00030126508
0.00051558858
0.00073985686
0.00097386229
0.0012173608
0.0014700731
0.0017316856
0.0020018522
0.0022801959
0.0025663108
0.0028597639
0.0031600971
0.0034668297
0.0037794604
0.0040974698
0.0044203227
0.0047474707
0.0050783545
0.0054124071
0.0057490559
0.0060877264
0.0064278437
0.0067688348
0.0071101335
0.0074511823
0.0077914351
0.0081303598
0.0084674407
0.0088021801
0.0091341003
0.0094627454
0.0097876829
0.010108505
0.010424829
0.0107363
0.011042589
0.011343393
0.011638437
0.011927472
0.012210277
0.012486653
0.012756428
0.013019451
0.013275597
0.013524757
0.013766845
0.014001792
0.014229547
0.014450071
0.01466334
0.014869315
0.00010320344
0.00032041259
0.00054840966
0.00078698541
0.001035891
0.0012948385
0.0015635025
0.0018415209
0.0021284968
0.0024240003
0.0027275705
0.0030387172
0.0033569236
0.0036816486
0.0040123288
0.0043483819
0.0046892089
0.0050341969
0.0053827227
0.0057341562
0.0060878625
0.0064432051
0.00679955
0.0071562695
0.007512745
0.0078683705
0.0082225558
0.0085747294
0.0089243413
0.0092708647
0.0096137982
0.0099526675
0.010287027
0.010616462
0.010940588
0.01125905
0.011571528
0.01187773
0.012177397
0.012470299
0.012756235
0.013035032
0.013306544
0.013570651
0.013827254
0.014076279
0.01431767
0.014551391
0.014777423
0.014995761
0.015206412
0.015409369
0.00011003562
0.00034170822
0.00058492584
0.00083943492
0.0011049389
0.0013810993
0.0016675367
0.0019638324
0.0022695299
0.0025841372
0.0029071283
0.0032379459
0.0035760036
0.0039206883
0.0042713635
0.0046273719
0.004988039
0.005352676
0.005720585
0.0060910607
0.0064633938
0.0068368781
0.0072108126
0.0075845065
0.0079572827
0.0083284819
0.0086974662
0.009063623
0.0094263672
0.0097851436
0.010139429
0.010488734
0.010832605
0.011170624
0.01150241
0.011827619
0.012145943
0.012457111
0.012760886
0.013057064
0.013345475
0.013625979
0.013898462
0.014162841
0.014419056
0.014667067
0.014906859
0.015138434
0.01536181
0.01557702
0.015784107
0.015983102
0.00011757683
0.00036522861
0.00062527332
0.00089740688
0.0011812782
0.0014764901
0.0017826011
0.0020991263
0.0024255399
0.0027612768
0.0031057348
0.0034582771
0.0038182348
0.0041849102
0.0045575796
0.0049354975
0.0053179003
0.0057040102
0.0060930398
0.0064841952
0.0068766844
0.00726972
0.0076625254
0.008054339
0.0084444195
0.0088320503
0.0092165441
0.0095972462
0.0099735378
0.010344838
0.010710606
0.011070342
0.011423591
0.01176994
0.01210902
0.012440505
0.012764111
0.013079594
0.013386749
0.01368541
0.013975445
0.014256753
0.014529265
0.01479294
0.015047762
0.015293738
0.015530897
0.015759282
0.015978957
0.016189997
0.016392485
0.016586492
0.00012585533
0.00039106671
0.0006696172
0.00096114553
0.0012652383
0.0015814314
0.0019092111
0.0022480162
0.0025972398
0.0029562312
0.0033242985
0.003700711
0.0040847028
0.0044754754
0.0048722022
0.0052740342
0.005680102
0.0060895215
0.0065014013
0.006914848
0.0073289725
0.0077428964
0.0081557579
0.0085667181
0.0089749668
0.0093797279
0.0097802639
0.01017588
0.010565927
0.010949804
0.011326958
0.011696889
0.012059148
0.012413338
0.012759112
0.013096172
0.013424268
0.013743197
0.014052797
0.014352946
0.014643562
0.014924595
0.015196026
0.015457866
0.015710152
0.015952941
0.016186312
0.01641036
0.016625195
0.016830939
0.01702772
0.017215652
0.00013490418
0.00041933131
0.00071815092
0.0010309372
0.0013572061
0.0016964166
0.0020479721
0.0024112226
0.0027854666
0.0031699531
0.0035638844
0.0039664192
0.0043766762
0.0047937381
0.0052166578
0.0056444614
0.0060761538
0.0065107293
0.0069471766
0.0073844867
0.0078216608
0.0082577183
0.0086917042
0.0091226967
0.0095498139
0.0099722195
0.010389129
0.010799811
0.011203592
0.011599859
0.011988059
0.012367701
0.012738354
0.013099649
0.013451275
0.013792975
0.014124547
0.014445838
0.014756742
0.015057194
0.015347171
0.015626683
0.015895771
0.016154508
0.016402987
0.016641325
0.016869657
0.017088132
0.017296912
0.01749617
0.017686082
0.017866807
0.0001447611
0.00045014682
0.00077109605
0.0011071105
0.0014576258
0.0018220131
0.0021995803
0.0025895743
0.0029911828
0.0034035371
0.0038257146
0.004256743
0.0046956051
0.0051412428
0.0055925632
0.0060484455
0.0065077509
0.0069693307
0.0074320353
0.0078947239
0.0083562751
0.0088155957
0.0092716308
0.0097233721
0.010169865
0.010610217
0.011043601
0.011469257
0.0118865
0.012294713
0.012693357
0.013081964
0.013460138
0.013827552
0.014183945
0.014529118
0.01486293
0.015185291
0.015496165
0.015795556
0.016083509
0.016360105
0.016625455
0.016879698
0.017122995
0.017355526
0.017577487
0.017789086
0.017990541
0.018182078
0.018363925
0.018536285
0.00015546839
0.00048365325
0.00082870253
0.0011900366
0.0015670003
0.0019588639
0.0023648252
0.0027840109
0.0032154792
0.0036582222
0.0041111697
0.0045731956
0.0050431193
0.0055197134
0.0060017146
0.0064878316
0.0069767562
0.0074671742
0.0079577782
0.0084472794
0.0089344207
0.0094179882
0.0098968223
0.010369827
0.010835981
0.011294338
0.01174404
0.012184311
0.012614465
0.013033903
0.013442113
0.01383867
0.014223228
0.014595523
0.014955359
0.015302611
0.015637214
0.01595916
0.01626849
0.016565291
0.01684969
0.017121846
0.017381948
0.01763021
0.017866864
0.01809216
0.01830636
0.018509735
0.018702561
0.018885119
0.019057687
0.019220521
0.00016707294
0.00052000636
0.00089124929
0.001280131
0.001685893
0.0021076903
0.0025445928
0.0029955871
0.0034595788
0.0039353957
0.0044217943
0.0049174616
0.0054210216
0.0059310501
0.0064460826
0.006964627
0.007485178
0.0080062321
0.0085263035
0.0090439396
0.0095577366
0.010066354
0.010568525
0.011063072
0.011548911
0.012025059
0.012490637
0.012944872
0.013387096
0.013816745
0.014233358
0.014636572
0.015026116
0.015401802
0.015763524
0.016111245
0.016444994
0.016764858
0.017070971
0.017363513
0.017642702
0.017908786
0.018162038
0.018402753
0.018631243
0.01884783
0.019052845
0.019246623
0.019429501
0.019601816
0.0197639
0.019916055
0.00017962626
0.00055937812
0.00095904521
0.0013778546
0.0018149306
0.0022692955
0.0027398706
0.0032254778
0.0037248433
0.004236601
0.0047592965
0.005291394
0.0058312903
0.0063773257
0.0069277987
0.0074809829
0.008035146
0.0085885695
0.0091395691
0.009686514
0.010227846
0.010762094
0.011287892
0.011803985
0.012309243
0.012802662
0.013283364
0.013750598
0.014203739
0.014642284
0.015065848
0.015474153
0.015867022
0.016244372
0.016606202
0.016952583
0.017283655
0.017599611
0.017900694
0.018187189
0.018459411
0.018717707
0.018962441
0.019193994
0.01941276
0.019619138
0.019813528
0.019996334
0.020167953
0.020328779
0.020479194
0.020619549
0.00019318454
0.00060195721
0.0010324306
0.001483717
0.0019548072
0.00244457
0.0029517532
0.003474986
0.0040127811
0.0045635376
0.0051255503
0.0056970222
0.006276077
0.0068607767
0.0074491419
0.0080391747
0.0086288837
0.0092163098
0.0097995515
0.010376788
0.010946304
0.011506502
0.012055923
0.012593257
0.013117343
0.013627182
0.01412192
0.014600859
0.015063446
0.015509268
0.01593804
0.0163496
0.01674389
0.017120951
0.017480908
0.017823962
0.018150375
0.018460464
0.018754592
0.019033156
0.019296581
0.019545314
0.019779819
0.020000568
0.020208036
0.020402701
0.020585037
0.020755514
0.02091459
0.021062712
0.021200316
0.021327796
0.00020780882
0.00064794984
0.0011117787
0.0015982789
0.0021062881
0.0026344971
0.0031814516
0.0037455508
0.0043250495
0.0049180687
0.0055226063
0.0061365509
0.0067577019
0.0073837932
0.0080125217
0.0086415776
0.0092686775
0.009891597
0.010508202
0.011116476
0.011714547
0.012300705
0.012873417
0.013431337
0.013973307
0.014498357
0.015005695
0.015494706
0.015964945
0.016416119
0.01684808
0.017260802
0.017654377
0.018028991
0.018384917
0.0187225
0.019042144
0.0193443
0.019629459
0.019898142
0.02015089
0.020388257
0.020610806
0.020819102
0.021013706
0.021195176
0.021364059
0.021520886
0.021666177
0.021800434
0.021924139
0.022037734
0.00022356513
0.00069758075
0.0011974984
0.0017221562
0.0022702158
0.0028401625
0.0034303001
0.004038751
0.004663466
0.0053022334
0.0059526935
0.0066123601
0.007278648
0.0079489067
0.0086204584
0.0092906393
0.0099568413
0.010616553
0.011267398
0.011907166
0.012533841
0.013145617
0.013740916
0.01431839
0.014876918
0.015415597
0.015933736
0.016430846
0.016906624
0.017360936
0.017793797
0.018205354
0.018595868
0.018965698
0.019315281
0.019645124
0.019955785
0.020247861
0.020521982
0.020778797
0.021018966
0.021243155
0.021452028
0.021646244
0.021826452
0.021993286
0.02214736
0.022289272
0.022419596
0.022538888
0.022647676
0.022746464
0.00024052476
0.00075109442
0.0012900365
0.0018560244
0.0024475191
0.00306276
0.0036997615
0.0043563201
0.005030021
0.0057182517
0.0064182237
0.0071270041
0.0078415539
0.0085587746
0.0092755597
0.0099888483
0.010695678
0.011393236
0.0120789
0.012750277
0.013405228
0.014041886
0.014658664
0.015254255
0.015827614
0.016377956
0.016904735
0.017407633
0.017886531
0.018341487
0.018772717
0.019180567
0.019565494
0.01992805
0.020268856
0.020588593
0.020887986
0.021167787
0.021428769
0.021671716
0.021897409
0.022106627
0.022300137
0.022478692
0.022643021
0.022793834
0.022931811
0.023057612
0.023171856
0.023275162
0.023368074
0.023451253
0.00025876451
0.00080875653
0.0013898812
0.0020006271
0.0026392169
0.0033035977
0.0039914438
0.0047001591
0.0054268873
0.006168533
0.0069217947
0.0076832083
0.0084492025
0.0092161614
0.0099804932
0.010738699
0.011487439
0.012223589
0.012944295
0.013647002
0.014329484
0.014989856
0.015626571
0.016238411
0.016824464
0.017384114
0.017917017
0.018423068
0.018902375
0.019355229
0.019782077
0.020183494
0.020560157
0.020912829
0.021242331
0.021549531
0.021835329
0.022100638
0.022346381
0.022573474
0.022782825
0.022975325
0.02315184
0.023313213
0.02346025
0.023593735
0.023714404
0.023822986
0.023920111
0.024006521
0.024082578
0.024149442
0.00027836702
0.00087085573
0.0014975685
0.0021567778
0.0028464249
0.0035641151
0.0043071133
0.0050723483
0.0058564307
0.0066556839
0.0074661925
0.0082838645
0.009104508
0.009923916
0.010737955
0.011542654
0.012334278
0.013109402
0.013864958
0.014598271
0.015307077
0.015989529
0.01664418
0.017269959
0.017866153
0.018432379
0.018968543
0.019474806
0.019951547
0.020399326
0.020818853
0.021210958
0.021576562
0.021916652
0.022232265
0.022524464
0.022794328
0.023042939
0.023271365
0.023480662
0.023671861
0.02384596
0.024003921
0.024146673
0.02427509
0.024390036
0.024492265
0.024582651
0.024661641
0.024730541
0.024788445
0.024837699
0.00029942111
0.00093770803
0.0016136825
0.0023253652
0.0030703713
0.0038458957
0.004648708
0.0054751621
0.0063212232
0.0071825158
0.0080543925
0.0089320231
0.0098104991
0.010684946
0.011550638
0.012403101
0.01323821
0.014052257
0.014842002
0.015604705
0.01633813
0.017040536
0.017710643
0.018347608
0.018950986
0.019520686
0.020056926
0.020560181
0.021031143
0.021470678
0.021879791
0.022259587
0.02261125
0.022936009
0.023235121
0.023509852
0.023761463
0.023991202
0.024200289
0.024389916
0.024561227
0.02471533
0.024853265
0.024976062
0.025084616
0.025179953
0.025262632
0.025334143
0.025393638
0.025443565
0.025483652
0.025515372
0.00032202428
0.0010096555
0.0017388592
0.0025073682
0.0033124091
0.0041506816
0.005018355
0.0059110848
0.0068240556
0.007752052
0.0086895584
0.009630883
0.010570298
0.011502188
0.012421189
0.013322316
0.014201067
0.015053492
0.015876242
0.016666585
0.017422395
0.018142113
0.018824718
0.019469676
0.020076884
0.020646612
0.021179444
0.021676221
0.022137988
0.022565953
0.022961437
0.023325847
0.02366064
0.023967298
0.024247305
0.024502128
0.024733211
0.024941972
0.025129775
0.025297945
0.025447725
0.025580344
0.025696873
0.025798529
0.025886009
0.025960975
0.026022651
0.026073726
0.026113973
0.026145117
0.026166997
0.026180191
0.00034627876
0.0010870689
0.0018737987
0.0027038654
0.0035740295
0.0044803912
0.0054183888
0.0063828286
0.0073679508
0.0083675346
0.0093750398
0.010383778
0.011387099
0.012378575
0.013352178
0.014302417
0.015224451
0.016114156
0.016968156
0.017783821
0.018559224
0.019293093
0.019984763
0.020634094
0.021241405
0.021807394
0.02233307
0.022819684
0.023268676
0.02368162
0.024060181
0.024406079
0.024721059
0.025006861
0.025265195
0.025497728
0.025706085
0.025891852
0.026056517
0.026201558
0.026328256
0.026438065
0.026531841
0.026611492
0.02667636
0.02672928
0.02677017
0.02680096
0.026821544
0.026832753
0.026835529
0.026830352
0.00037229513
0.0011703541
0.002019271
0.0029160462
0.0038568789
0.0048371392
0.0058513731
0.006893353
0.0079561783
0.0090324294
0.010114367
0.011194161
0.012264137
0.013317003
0.014346051
0.015345321
0.016309699
0.017234978
0.018117862
0.018955927
0.019747563
0.020491903
0.021188737
0.021838417
0.022441759
0.022999956
0.023514496
0.023987086
0.024419593
0.024813984
0.025172283
0.025496535
0.02578878
0.026051013
0.026285179
0.026493134
0.026676658
0.026837533
0.0269773
0.027097711
0.02719981
0.02728582
0.027355174
0.027410968
0.027453524
0.027484593
0.027503867
0.027513326
0.027513317
0.027504743
0.027488004
0.027463941
0.00040019337
0.0012599561
0.0021761243
0.0031452257
0.0041627791
0.0052232611
0.0063201258
0.0074458865
0.0085922686
0.0097504313
0.010911243
0.012065586
0.013204667
0.014320291
0.015405097
0.01645271
0.017457847
0.018416334
0.01932508
0.020182001
0.020985942
0.021736562
0.022434218
0.023079842
0.023674828
0.02422093
0.024720164
0.025174734
0.025586961
0.025959224
0.026293916
0.026593412
0.026860048
0.027096079
0.027303694
0.027484902
0.027641572
0.027775838
0.027888975
0.02798362
0.028059273
0.028119441
0.028164706
0.028196842
0.028215865
0.028223837
0.028221174
0.028209068
0.028188047
0.028159065
0.028122704
0.028079625
0.00043010321
0.0013563633
0.002345296
0.003392863
0.0044937514
0.0056413411
0.0068277468
0.0080439503
0.0092800284
0.010525467
0.011769535
0.013001683
0.014211922
0.015391152
0.016531402
0.017625991
0.018669592
0.019658213
0.020589117
0.021460725
0.02227248
0.023024696
0.023718408
0.024355224
0.024937192
0.025466685
0.025946296
0.026378756
0.026766862
0.027113421
0.027421195
0.027692878
0.02793112
0.028138418
0.028317243
0.028469713
0.028597513
0.028703854
0.028788268
0.028854877
0.028904412
0.028938919
0.028958613
0.028965762
0.028961004
0.028945589
0.028920269
0.028886152
0.028843955
0.028794465
0.028738336
0.028676182
0.00046216517
0.0014601134
0.0025278267
0.0036605821
0.0048520457
0.0060942447
0.0073776503
0.0086913847
0.010023556
0.011361697
0.012693263
0.014006139
0.015289093
0.016532146
0.017726818
0.018866259
0.019945263
0.020960193
0.021908858
0.022790356
0.023604881
0.024353538
0.025038152
0.025661097
0.026225149
0.026733354
0.027188922
0.027595132
0.027955274
0.028272595
0.028550207
0.028791104
0.028998302
0.029174427
0.02932241
0.029444504
0.029541004
0.029616865
0.029672828
0.02971155
0.029733278
0.029740649
0.029734513
0.029716277
0.029686929
0.029647708
0.029599503
0.02954325
0.029479731
0.029409687
0.029333773
0.029252578
0.00049653192
0.0015718014
0.0027248761
0.0039501991
0.0052401747
0.0065851581
0.0079736023
0.0093923785
0.010827259
0.012263519
0.013686586
0.015082669
0.016439286
0.017745654
0.018992925
0.020174264
0.021284787
0.022321429
0.023282755
0.024168723
0.024980443
0.025719942
0.026389948
0.026993693
0.027534741
0.02801686
0.028443907
0.028819724
0.029148093
0.029432729
0.029677057
0.029884287
0.030057999
0.030200517
0.030315801
0.030404123
0.03046951
0.030514983
0.03054066
0.030549774
0.030543365
0.030523131
0.030490236
0.030446158
0.030391977
0.030328788
0.03025753
0.030179084
0.03009423
0.030003678
0.029908065
0.029807955
0.00053336991
0.0016920883
0.0029377433
0.0042637536
0.0056609564
0.0071176339
0.0086197633
0.010151502
0.01169587
0.013235565
0.014753788
0.016234995
0.017665494
0.019033834
0.020330994
0.021550376
0.022687668
0.023740633
0.024708813
0.025593225
0.026396056
0.027120389
0.027769966
0.028348958
0.028861774
0.029312934
0.029706981
0.030048303
0.030341153
0.030589799
0.03079793
0.030968607
0.031106849
0.031213056
0.031292669
0.031348245
0.031381196
0.031394068
0.031388976
0.031368
0.031332386
0.031283976
0.031224054
0.03115393
0.031074731
0.0309875
0.030893168
0.030792578
0.030686485
0.030575568
0.030460438
0.030341625
0.00057286133
0.0018217131
0.0031678924
0.0046035492
0.0061175649
0.0076956467
0.0093207389
0.010973742
0.012634468
0.014282708
0.015899262
0.017466816
0.018970567
0.020398594
0.021741946
0.022994547
0.024152964
0.025216056
0.026184584
0.027060823
0.027848202
0.028550994
0.029174051
0.029722572
0.030201838
0.030617141
0.030973763
0.031276595
0.031530225
0.031739798
0.031909218
0.032040033
0.032139248
0.03220954
0.032253492
0.032273388
0.032272264
0.03225246
0.032215418
0.032163585
0.032098459
0.032021634
0.031934462
0.031838196
0.031733948
0.031622722
0.031505417
0.031382839
0.031255708
0.031124665
0.030990285
0.030853064
0.00061520663
0.001961507
0.0034169835
0.0049722028
0.0066135928
0.0083236585
0.010081637
0.011864548
0.013648498
0.015410057
0.017127499
0.018781782
0.020357174
0.021841537
0.023226308
0.02450629
0.025679257
0.026745461
0.027707138
0.028568026
0.029332957
0.030007506
0.030597736
0.031109958
0.031550334
0.031924887
0.03223979
0.032500327
0.032711002
0.032878684
0.033004517
0.033095749
0.033155893
0.033186923
0.033193257
0.033177202
0.033140982
0.033087226
0.033017863
0.032934902
0.032839979
0.032734611
0.032620138
0.032497768
0.032368575
0.032233521
0.032093461
0.031949156
0.031801283
0.031650441
0.031497159
0.031341897
0.00066062747
0.0021124118
0.0036869133
0.0053727065
0.0071531283
0.0090066985
0.01090814
0.012829879
0.0147438
0.016622966
0.01844307
0.020183469
0.021827758
0.02336392
0.024784185
0.026084634
0.027264614
0.028326095
0.029273046
0.030110881
0.030845979
0.031485317
0.032036237
0.032506307
0.032902509
0.03323142
0.033500526
0.033715404
0.033879002
0.034000449
0.034084067
0.034133022
0.034151177
0.034142463
0.034110158
0.034056628
0.03398469
0.033896672
0.033794589
0.033680327
0.033555518
0.033421629
0.033279956
0.033131655
0.03297775
0.032819151
0.032656659
0.032490986
0.032322758
0.032152524
0.031980763
0.031807896
0.00070937055
0.0022755029
0.0039798657
0.005808506
0.0077408505
0.0097504594
0.011806581
0.013876262
0.01592664
0.017927043
0.019850616
0.021675345
0.023384495
0.024966617
0.026415205
0.027728067
0.028906535
0.029954635
0.030878344
0.031684946
0.032382507
0.032979464
0.033484447
0.033906589
0.03425353
0.034531777
0.034751327
0.034914296
0.035031113
0.035106087
0.035142953
0.03514747
0.035123207
0.035073089
0.035001016
0.034909631
0.034801528
0.034678995
0.034544038
0.034398462
0.034243854
0.034081616
0.033912987
0.033739059
0.033560795
0.033379041
0.033194542
0.03300795
0.032819835
0.032630693
0.03244094
0.032250963
0.00076171232
0.0024520197
0.0042983772
0.0062835995
0.0083821476
0.010561415
0.012784051
0.015010864
0.01720375
0.019328159
0.021354834
0.023260724
0.025029242
0.026650051
0.028118444
0.029434465
0.030601886
0.031627145
0.03251849
0.033285269
0.033937354
0.034484656
0.034936906
0.035305563
0.035598663
0.035820664
0.035984992
0.036097692
0.036163887
0.036188774
0.036178291
0.036136975
0.036068299
0.03597615
0.035863867
0.035734225
0.03558974
0.035432632
0.035264853
0.035088126
0.034903967
0.034713701
0.034518495
0.034319366
0.034117206
0.033912791
0.0337068
0.03349982
0.033292361
0.00081796493
0.0026434039
0.0046454219
0.0068026644
0.0090832653
0.011446966
0.013848517
0.016241588
0.018582387
0.020832468
0.022960444
0.024942718
0.026763471
0.028414105
0.029892327
0.031200992
0.032346814
0.033339
0.034188319
0.034906359
0.035504904
0.035995352
0.036387708
0.036697729
0.036928622
0.037094372
0.037203042
0.037259437
0.037272293
0.037246331
0.037186473
0.037097789
0.03698425
0.036849477
0.03669669
0.03652865
0.036347793
0.036156252
0.035955893
0.035748348
0.035535041
0.035317209
0.035095931
0.034872142
0.034646651
0.034420161
0.034193275
0.033966512
0.033740314
0.00087848376
0.0028513511
0.0050245223
0.0073712198
0.009851495
0.012415621
0.015008979
0.017577181
0.020070405
0.022446417
0.02467216
0.026724177
0.028588161
0.030257993
0.031734496
0.033023975
0.034136646
0.03508482
0.035882
0.036542156
0.037079095
0.037505961
0.037830309
0.038073839
0.038244328
0.038349269
0.038396897
0.038396093
0.038353873
0.038274503
0.038164222
0.038027635
0.037868738
0.037691065
0.037497719
0.037291381
0.037074381
0.036848746
0.036616233
0.036378364
0.036136458
0.035891651
0.035644924
0.035397119
0.035148959
0.034901061
0.034653951
0.034408076
0.034163807
0.00094367691
0.0030778774
0.0054398945
0.0079958372
0.010695412
0.013477231
0.016275672
0.019027398
0.021676338
0.024176766
0.026494649
0.028607564
0.030503635
0.032180084
0.033641642
0.034898748
0.035965779
0.036858401
0.037593
0.038186017
0.038653326
0.039004396
0.039259941
0.039436008
0.039539167
0.039578308
0.039563978
0.039503698
0.039403793
0.039270432
0.039109018
0.038924127
0.038719694
0.038499141
0.038265435
0.038021132
0.037768432
0.037509231
0.037245158
0.036977612
0.036707792
0.036436722
0.036165275
0.035894193
0.035624105
0.035355539
0.035088942
0.034824682
0.034563056
0.0010140174
0.0033254107
0.0058966432
0.0086844165
0.011625187
0.014643287
0.017660333
0.020603207
0.023409517
0.0260306
0.028432427
0.030594767
0.03250933
0.034177669
0.035609295
0.036819469
0.03782757
0.038652662
0.039314071
0.039830749
0.040215015
0.040490711
0.040674225
0.040774731
0.040806645
0.040778625
0.040699579
0.040577444
0.040419396
0.040231318
0.040018418
0.039785148
0.039535315
0.039272187
0.03899857
0.038716859
0.038429101
0.038137041
0.037842162
0.037545725
0.037248799
0.036952286
0.036656943
0.036363407
0.036072206
0.035783778
0.035498482
0.03521661
0.034938384
0.0010900587
0.0035969131
0.0064010233
0.0094465505
0.012652988
0.015927329
0.019176571
0.022317055
0.025280202
0.028015298
0.030489662
0.032686799
0.034603473
0.036246663
0.037631605
0.038778916
0.039714247
0.040459618
0.041037274
0.041462535
0.041764992
0.041960332
0.042061494
0.042085344
0.042043448
0.041944819
0.041799107
0.041614451
0.041397687
0.041154619
0.040890257
0.040608868
0.040314073
0.040008949
0.039696107
0.039377759
0.039055773
0.038731725
0.038406938
0.038082524
0.037759411
0.03743837
0.03712004
0.036804943
0.036493507
0.036186074
0.035882916
0.035584245
0.035290207
0.0011724549
0.0038960517
0.0069607976
0.010294013
0.01379353
0.017345494
0.020840375
0.024183242
0.027299732
0.030138418
0.032669853
0.034883356
0.036782661
0.038381253
0.039701123
0.040768247
0.041616875
0.042270406
0.042747318
0.043083446
0.043296072
0.043401176
0.043418658
0.043362358
0.043243195
0.043072453
0.042859307
0.042611604
0.042335993
0.04203809
0.041722664
0.041393744
0.041054717
0.040708432
0.04035728
0.040003263
0.039648051
0.039293036
0.03893937
0.038588005
0.03823972
0.037895152
0.037554813
0.037219112
0.036888369
0.036562832
0.036242686
0.035928058
0.035619022
0.0012619875
0.0042274389
0.0075857326
0.011241428
0.015064823
0.018917305
0.02267051
0.02621768
0.02947973
0.032406647
0.034974835
0.037182089
0.039041346
0.040573495
0.041808681
0.042776711
0.04352543
0.044067862
0.044447091
0.044683258
0.044796312
0.044809559
0.044739499
0.044598898
0.044401529
0.044157864
0.043876862
0.043566108
0.043231977
0.042879809
0.04251408
0.042138532
0.041756279
0.04136991
0.040981569
0.04059303
0.040205751
0.039820924
0.039439522
0.03906233
0.038689974
0.038322949
0.03796164
0.037606339
0.03725726
0.036914555
0.036578319
0.036248601
0.035925398
0.0013596006
0.0045969786
0.0082882977
0.012307195
0.016489243
0.020666028
0.024687894
0.028436652
0.031830573
0.034824225
0.03740336
0.03957744
0.041371202
0.042812876
0.043943479
0.0447912
0.045420556
0.045855636
0.046123643
0.046249621
0.046261338
0.046178548
0.046016256
0.045790706
0.045514349
0.0451975
0.044848815
0.044475527
0.044083655
0.043678188
0.043263261
0.042842285
0.042418068
0.041992911
0.041568693
0.041146942
0.040728889
0.040315523
0.039907628
0.039505815
0.039110555
0.038722202
0.03834101
0.037967153
0.037600739
0.037241825
0.036890421
0.036546493
0.036209966
0.0014664503
0.0050123781
0.0090846719