/*--------------------------------*- C++ -*----------------------------------*\
| =========                 |                                                 |
| \\      /  F ield         | OpenFOAM: The Open Source CFD Toolbox           |
|  \\    /   O peration     | Version:  2312                                  |
|   \\  /    A nd           | Website:  www.openfoam.com                      |
|    \\/     M anipulation  |                                                 |
\*---------------------------------------------------------------------------*/
FoamFile
{
    version     2.0;
    format      ascii;
    arch        "LSB;label=32;scalar=64";
    class       volScalarField;
    location    "0.08";
    object      Ma;
}
// * * * * * * * * * * * * * * * * * * * * * * * * * * * * * * * * * * * * * //

dimensions      [0 0 0 0 0 0 0];

internalField   nonuniform List<scalar> 
3221
(
0.0031625584
0.0031580723
0.0031499894
0.0031394713
0.0031275038
0.0031146019
0.0031010629
0.0030869296
0.0030722136
0.0030570763
0.003041705
0.0030262596
0.0030106858
0.0029948795
0.0029790071
0.0029633491
0.0029481282
0.0029335342
0.0029197271
0.002906832
0.0028949673
0.0028842463
0.0028747723
0.0028666383
0.0028599265
0.0028547084
0.0028510434
0.0028489787
0.0028485482
0.0028497727
0.0028526598
0.0028572038
0.0028633863
0.0028711769
0.0028805336
0.0028914041
0.0029037264
0.0029174302
0.0029324382
0.0029486665
0.0029660267
0.0029844264
0.0030037704
0.0030239616
0.0030449021
0.0030664939
0.0030886392
0.0031112414
0.0031342057
0.0031574304
0.0031808328
0.0032044576
0.003165081
0.0031641886
0.0031587512
0.0031497739
0.0031385417
0.0031256453
0.0031113831
0.0030961413
0.0030802566
0.0030638604
0.0030470311
0.0030298559
0.003012641
0.0029957594
0.0029793182
0.0029632965
0.0029476831
0.0029326754
0.002918488
0.002905177
0.0028928492
0.0028816317
0.0028716446
0.0028629943
0.002855774
0.0028500636
0.0028459284
0.0028434193
0.002842572
0.0028434075
0.0028459319
0.0028501367
0.0028559996
0.0028634855
0.0028725468
0.0028831252
0.0028951525
0.0029085519
0.0029232394
0.0029391252
0.0029561146
0.0029741098
0.0029930102
0.0030127139
0.0030331187
0.0030541222
0.003075623
0.0030975205
0.003119717
0.003142108
0.0031645926
0.0031872193
0.0031651004
0.0031666386
0.0031634137
0.003156246
0.0031462614
0.0031341747
0.0031204597
0.0031055102
0.0030896479
0.0030731091
0.0030560864
0.0030387628
0.0030213554
0.0030040769
0.0029870776
0.0029704973
0.0029545329
0.0029392318
0.0029246444
0.0029109817
0.0028983987
0.0028870178
0.0028769491
0.0028682939
0.002861142
0.0028555689
0.0028516357
0.0028493879
0.0028488552
0.0028500516
0.0028529753
0.0028576094
0.0028639227
0.0028718706
0.0028813963
0.0028924319
0.0029049002
0.0029187155
0.0029337858
0.0029500134
0.0029672968
0.0029855319
0.0030046126
0.0030244326
0.0030448853
0.0030658652
0.0030872678
0.0031089906
0.0031309342
0.0031529941
0.0031750704
0.0031972069
0.0031654562
0.0031684646
0.003167083
0.0031617609
0.0031533717
0.0031425626
0.0031298265
0.0031155756
0.0031001598
0.0030838736
0.0030669734
0.0030496926
0.0030322537
0.0030148632
0.0029977063
0.0029809593
0.0029647972
0.0029493534
0.0029347597
0.0029211781
0.0029087536
0.0028976131
0.0028878717
0.0028796321
0.0028729823
0.0028679942
0.0028647233
0.0028632076
0.0028634683
0.0028655089
0.0028693166
0.0028748628
0.0028821038
0.0028909826
0.0029014297
0.0029133654
0.0029267005
0.0029413386
0.0029571773
0.0029741101
0.0029920273
0.0030108174
0.0030303688
0.0030505698
0.0030713101
0.003092481
0.0031139761
0.0031356914
0.0031575273
0.0031793797
0.0032011492
0.0032228783
0.0031657243
0.0031698745
0.003170029
0.0031663939
0.0031596273
0.0031502651
0.0031387587
0.0031255138
0.003110895
0.0030952268
0.0030788013
0.0030618863
0.0030447309
0.0030275674
0.0030106114
0.0029940645
0.0029781168
0.0029629428
0.0029487084
0.0029355747
0.0029236902
0.0029131891
0.0029041904
0.0028967967
0.0028910929
0.0028871455
0.0028850017
0.0028846897
0.0028862183
0.0028895781
0.0028947416
0.0029016649
0.0029102892
0.0029205416
0.0029323378
0.0029455833
0.0029601752
0.0029760045
0.0029929574
0.0030109169
0.0030297646
0.0030493816
0.00306965
0.0030904534
0.0031116779
0.0031332124
0.0031549493
0.0031767844
0.0031986186
0.0032203497
0.0032418791
0.0032632477
0.0031659907
0.0031711067
0.0031725758
0.0031704499
0.0031652278
0.0031573414
0.0031471842
0.0031351362
0.0031215583
0.0031067871
0.003091136
0.0030748984
0.0030583499
0.0030417503
0.0030253434
0.0030093586
0.0029940111
0.0029795017
0.0029660176
0.0029537327
0.0029428051
0.0029333752
0.0029255645
0.0029194742
0.0029151843
0.0029127533
0.0029122175
0.0029135918
0.0029168699
0.0029220253
0.0029290129
0.0029377704
0.0029482203
0.0029602717
0.0029738226
0.002988762
0.0030049718
0.0030223288
0.003040707
0.0030599787
0.0030800164
0.0031006939
0.0031218874
0.0031434763
0.003165344
0.0031873781
0.0032094707
0.0032315186
0.0032534245
0.0032750893
0.0032964168
0.003317446
0.0031662785
0.0031722836
0.0031749334
0.0031741801
0.0031704116
0.0031639752
0.0031552092
0.0031444617
0.0031320808
0.0031184052
0.0031037609
0.0030884606
0.0030728033
0.0030570743
0.0030415446
0.0030264702
0.0030120916
0.0029986326
0.0029862997
0.0029752807
0.0029657434
0.0029578331
0.002951672
0.0029473578
0.0029449628
0.0029445342
0.0029460942
0.0029496404
0.0029551476
0.0029625687
0.0029718374
0.0029828697
0.0029955667
0.0030098168
0.0030254984
0.0030424824
0.0030606341
0.0030798159
0.003099889
0.0031207151
0.003142158
0.0031640848
0.0031863667
0.00320888
0.0032315064
0.0032541336
0.0032766546
0.0032989689
0.0033209825
0.0033426006
0.0033637308
0.0033844112
0.0031665957
0.0031734697
0.0031772278
0.0031777555
0.0031753647
0.0031703387
0.0031629695
0.0031535753
0.0031424898
0.0031300499
0.0031165899
0.0031024383
0.0030879151
0.0030733296
0.0030589782
0.0030451427
0.0030320873
0.0030200572
0.0030092763
0.0029999454
0.0029922397
0.0029863075
0.0029822686
0.0029802136
0.0029802035
0.0029822699
0.0029864164
0.0029926191
0.0030008294
0.0030109758
0.0030229669
0.0030366937
0.0030520334
0.0030688515
0.0030870052
0.0031063461
0.0031267226
0.0031479824
0.0031699743
0.00319255
0.0032155655
0.0032388824
0.0032623685
0.0032858982
0.0033093534
0.003332623
0.0033556033
0.0033781975
0.0034003166
0.0034218719
0.0034427762
0.0034630677
0.003166947
0.0031747025
0.0031795377
0.0031812913
0.0031802244
0.003176573
0.0031705931
0.0031625791
0.0031528527
0.0031417493
0.0031296112
0.0031167818
0.0031036014
0.0030904026
0.003077507
0.0030652206
0.0030538306
0.0030436018
0.0030347736
0.0030275568
0.0030221316
0.0030186452
0.0030172109
0.0030179076
0.0030207796
0.003025838
0.0030330618
0.0030424011
0.0030537788
0.0030670947
0.0030822285
0.0030990435
0.0031173901
0.0031371093
0.0031580361
0.0031800025
0.00320284
0.0032263821
0.0032504663
0.0032749356
0.0032996398
0.0033244368
0.0033491926
0.0033737819
0.0033980885
0.0034220049
0.003445432
0.003468279
0.0034904635
0.0035119044
0.0035325215
0.0035523542
0.0031673358
0.0031760065
0.0031819166
0.0031848704
0.0031850951
0.0031827931
0.0031781941
0.003171576
0.003163253
0.0031535628
0.0031428576
0.0031314977
0.0031198445
0.0031082552
0.0030970763
0.0030866383
0.0030772502
0.0030691946
0.0030627236
0.0030580549
0.0030553692
0.0030548077
0.0030564716
0.0030604217
0.0030666792
0.0030752281
0.0030860172
0.003098964
0.0031139583
0.0031308665
0.003149536
0.0031697992
0.0031914781
0.0032143882
0.0032383418
0.0032631516
0.0032886332
0.0033146072
0.0033409016
0.0033673527
0.0033938065
0.0034201191
0.0034461573
0.0034717985
0.0034969305
0.0035214516
0.0035452696
0.0035683014
0.0035904732
0.0036117132
0.0036319498
0.0036512248
0.0031677654
0.0031774005
0.003184405
0.0031885561
0.0031900599
0.0031890952
0.003185874
0.0031806648
0.0031737812
0.0031655681
0.0031563921
0.0031466337
0.003136679
0.0031269116
0.0031177045
0.0031094128
0.0031023663
0.0030968636
0.003093166
0.0030914936
0.0030920217
0.0030948792
0.0031001477
0.0031078622
0.0031180134
0.0031305504
0.0031453848
0.0031623956
0.0031814338
0.0032023282
0.0032248904
0.0032489202
0.0032742098
0.0033005489
0.0033277279
0.0033555412
0.0033837904
0.0034122856
0.0034408476
0.0034693088
0.0034975141
0.0035253208
0.0035525992
0.003579232
0.0036051139
0.003630151
0.0036542604
0.0036773688
0.0036994128
0.0037203315
0.0037400637
0.0037586547
0.0031682388
0.0031789002
0.0031870366
0.0031924017
0.0031951897
0.0031955636
0.0031937255
0.003189942
0.0031845328
0.0031778567
0.0031703012
0.0031622723
0.0031541852
0.0031464533
0.0031394783
0.0031336406
0.0031292899
0.0031267376
0.00312625
0.0031280435
0.0031322809
0.00313907
0.0031484641
0.0031604634
0.0031750187
0.0031920361
0.0032113824
0.0032328915
0.0032563706
0.003281607
0.0033083742
0.0033364377
0.0033655602
0.0033955062
0.0034260459
0.003456958
0.0034880325
0.0035190724
0.0035498945
0.0035803308
0.0036102282
0.0036394488
0.0036678694
0.003695381
0.0037218877
0.0037473064
0.0037715654
0.0037946034
0.0038163691
0.0038368144
0.0038558895
0.0038736449
0.0031687593
0.0031805207
0.0031898418
0.003196455
0.0032005489
0.003202277
0.0032018379
0.003199504
0.0031956092
0.003190534
0.003184694
0.0031785282
0.0031724864
0.0031670165
0.0031625514
0.0031594974
0.0031582222
0.0031590465
0.0031622354
0.0031679936
0.003176462
0.0031877173
0.0032017734
0.003218585
0.0032380531
0.0032600317
0.0032843349
0.0033107454
0.0033390221
0.0033689079
0.0034001367
0.0034324399
0.0034655517
0.0034992139
0.003533179
0.0035672136
0.0036011002
0.0036346382
0.0036676449
0.0036999556
0.0037314233
0.0037619185
0.0037913278
0.0038195536
0.0038465124
0.0038721343
0.0038963611
0.0039191454
0.0039404499
0.0039602404
0.0039784803
0.0039952262
0.0031693306
0.003182277
0.0031928508
0.0032007624
0.0032062001
0.0032093123
0.0032103007
0.0032094512
0.0032071205
0.0032037201
0.0031997029
0.003195549
0.00319175
0.0031887933
0.0031871459
0.0031872395
0.0031894577
0.0031941242
0.0032014949
0.0032117525
0.0032250044
0.0032412834
0.0032605516
0.0032827061
0.0033075872
0.0033349873
0.0033646607
0.0033963333
0.0034297124
0.0034644949
0.0035003754
0.0035370527
0.0035742354
0.0036116459
0.0036490238
0.003686128
0.0037227381
0.003758655
0.003793701
0.0038277194
0.0038605736
0.0038921459
0.0039223367
0.0039510628
0.003978256
0.0040038619
0.004027838
0.0040501526
0.004070784
0.0040897131
0.0041069177
0.0041224612
0.0031699567
0.0031841851
0.0031960943
0.0032053712
0.0032122068
0.0032167483
0.0032192069
0.0032198901
0.0032191873
0.003217552
0.003215485
0.003213517
0.0032121894
0.0032120343
0.003213555
0.0032172079
0.0032233869
0.0032324109
0.0032445156
0.0032598486
0.003278469
0.0033003512
0.0033253908
0.0033534144
0.0033841904
0.0034174406
0.003452853
0.003490093
0.0035288143
0.0035686685
0.0036093128
0.0036504172
0.0036916688
0.0037327762
0.0037734714
0.0038135114
0.0038526789
0.0038907817
0.0039276523
0.0039631467
0.003997143
0.0040295398
0.0040602545
0.0040892214
0.0041163903
0.0041417244
0.0041651991
0.0041867998
0.0042065215
0.0042243617
0.0042403129
0.0042544466
0.003170642
0.0031862622
0.0031996053
0.0032103313
0.0032186356
0.0032246679
0.0032286549
0.0032309356
0.0032319436
0.0032321864
0.0032322253
0.0032326525
0.0032340679
0.0032370532
0.003242149
0.0032498328
0.0032605013
0.0032744572
0.0032919012
0.0033129291
0.0033375347
0.0033656162
0.0033969876
0.0034313911
0.0034685123
0.0035079952
0.0035494564
0.0035924991
0.003636724
0.00368174
0.0037271717
0.0037726653
0.0038178934
0.0038625571
0.0039063878
0.0039491476
0.0039906283
0.0040306509
0.0040690636
0.0041057403
0.0041405781
0.0041734956
0.0042044307
0.0042333382
0.0042601881
0.0042849634
0.0043076588
0.0043282783
0.0043468344
0.0043633417
0.0043778083
0.0043903144
0.0031713916
0.0031885272
0.0032034196
0.0032156961
0.0032255576
0.0032331593
0.0032387507
0.0032427132
0.0032455383
0.0032478022
0.0032501403
0.003253219
0.0032577047
0.0032642331
0.003273381
0.0032856403
0.0033013988
0.0033209272
0.003344372
0.0033717573
0.0034029905
0.0034378754
0.0034761273
0.0035173913
0.0035612609
0.0036072961
0.0036550406
0.0037040359
0.0037538335
0.003804005
0.0038541491
0.0039038963
0.0039529125
0.0040008997
0.0040475967
0.0040927779
0.0041362515
0.0041778578
0.0042174665
0.0042549741
0.0042903013
0.0043233903
0.0043542024
0.0043827155
0.0044089218
0.004432826
0.004454443
0.0044737962
0.0044909165
0.0045058359
0.0045185784
0.0045292333
0.0031722111
0.003191001
0.003207576
0.0032215235
0.0032330495
0.0032423175
0.0032496091
0.0032553609
0.0032601384
0.0032646038
0.0032694828
0.0032755283
0.0032834817
0.0032940349
0.0033077959
0.00332526
0.0033467895
0.0033726012
0.0034027644
0.0034372064
0.003475726
0.0035180119
0.0035636649
0.0036122212
0.0036631755
0.0037160015
0.003770171
0.0038251683
0.0038805026
0.0039357166
0.0039903923
0.0040441545
0.0040966719
0.0041476569
0.0041968644
0.0042440891
0.0042891629
0.0043319517
0.0043723521
0.004410288
0.0044457076
0.00447858
0.0045088925
0.0045366483
0.0045618634
0.0045845649
0.0046047892
0.0046225795
0.0046379853
0.004651056
0.0046618316
0.0046704102
0.0031731065
0.0031937068
0.0032121177
0.0032278767
0.0032411941
0.0032522454
0.0032613547
0.0032690305
0.0032759316
0.003282826
0.0032905474
0.0032999488
0.0033118531
0.0033270069
0.0033460399
0.0033694336
0.0033975009
0.0034303778
0.003468027
0.0035102513
0.003556716
0.0036069749
0.0036605001
0.0037167102
0.0037749979
0.0038347524
0.003895379
0.0039563132
0.0040170321
0.0040770608
0.0041359765
0.0041934096
0.0042490427
0.0043026089
0.0043538883
0.0044027041
0.0044489189
0.0044924306
0.0045331675
0.0045710854
0.0046061632
0.0046383996
0.0046678104
0.0046944252
0.004718285
0.0047394403
0.0047579488
0.0047738741
0.0047872836
0.0047982442
0.0048068111
0.0048130917
0.0031740847
0.0031966704
0.0032170917
0.0032348245
0.0032500809
0.0032630538
0.0032741235
0.0032838903
0.0032931298
0.0033027388
0.0033136788
0.0033269153
0.0033433564
0.0033637968
0.0033888714
0.0034190226
0.0034544826
0.003495272
0.0035412132
0.0035919542
0.0036470014
0.003705756
0.0037675499
0.0038316808
0.003897441
0.003964142
0.0040311325
0.0040978119
0.0041636387
0.0042281348
0.004290886
0.0043515413
0.0044098092
0.0044654537
0.0045182895
0.0045681766
0.0046150148
0.0046587393
0.0046993152
0.0047367333
0.0047710063
0.0048021647
0.0048302538
0.0048553307
0.0048774622
0.004896722
0.0049131895
0.0049269474
0.0049380815
0.0049466747
0.0049527973
0.0049565653
0.0031751535
0.0031999203
0.00322255
0.0032424415
0.0032598068
0.0032748628
0.0032880639
0.0033001274
0.0033119737
0.003324655
0.0033392812
0.0033569408
0.003378626
0.0034051653
0.0034371727
0.0034750163
0.0035188075
0.0035684106
0.0036234696
0.003683446
0.0037476647
0.0038153594
0.0038857172
0.0039579163
0.0040311571
0.0041046851
0.004177808
0.0042499055
0.0043204345
0.0043889294
0.0044550004
0.0045183284
0.0045786601
0.0046358011
0.0046896095
0.0047399893
0.0047868839
0.0048302706
0.0048701548
0.0049065655
0.0049395509
0.0049691745
0.0049955121
0.0050186488
0.0050386769
0.0050556932
0.0050697976
0.0050810919
0.0050896788
0.0050956564
0.0050991092
0.0051001608
0.0031763213
0.0032034882
0.0032285494
0.0032508088
0.0032704761
0.0032878023
0.0033033387
0.0033179516
0.0033327395
0.00334894
0.0033678313
0.0033906323
0.0034184095
0.0034520005
0.0034919606
0.0035385369
0.0035916705
0.0036510223
0.0037160178
0.0037859025
0.0038598003
0.0039367706
0.004015857
0.004096128
0.0041767064
0.0042567905
0.0043356666
0.0044127149
0.0044874097
0.0045593164
0.0046280847
0.0046934422
0.0047551854
0.0048131714
0.0048673101
0.004917556
0.0049639012
0.0050063689
0.0050450077
0.0050798867
0.0051110905
0.0051387167
0.0051628715
0.0051836677
0.0052012222
0.0052156539
0.0052270825
0.0052356273
0.0052414075
0.0052445348
0.0052451063
0.0052432514
0.0031775976
0.0032074092
0.0032351519
0.0032600142
0.0032822011
0.0033020124
0.0033201274
0.0033376001
0.0033557471
0.0033760235
0.0033998944
0.0034287081
0.0034635852
0.0035053332
0.0035543961
0.0036108411
0.0036743806
0.0037444212
0.0038201308
0.0039005135
0.0039844816
0.0040709208
0.0041587426
0.004246923
0.0043345294
0.0044207366
0.0045048338
0.0045862246
0.0046644219
0.0047390402
0.0048097855
0.0048764451
0.0049388765
0.0049969979
0.0050507776
0.0051002261
0.0051453882
0.005186336
0.005223163
0.0052559788
0.0052849056
0.0053100742
0.0053316208
0.0053496848
0.0053644066
0.0053759255
0.0053843794
0.0053899035
0.0053926345
0.0053926947
0.0053901917
0.0053852548
0.0031789928
0.0032117218
0.0032424259
0.0032701523
0.0032951021
0.0033176456
0.0033386299
0.0033593449
0.0033813715
0.0034064159
0.0034361429
0.0034720187
0.0035151811
0.0035663505
0.0036257904
0.0036933165
0.0037683474
0.0038499839
0.0039371024
0.0040284489
0.0041227239
0.0042186517
0.0043150322
0.0044107753
0.0045049216
0.0045966518
0.0046852851
0.0047702732
0.0048511894
0.004927716
0.0049996305
0.0050667926
0.0051291311
0.0051866322
0.0052393291
0.0052872921
0.0053306214
0.0053694393
0.0054038849
0.0054341087
0.0054602698
0.0054825309
0.005501057
0.0055160123
0.0055275591
0.0055358552
0.005541054
0.0055433036
0.0055427627
0.0055395581
0.0055338098
0.0055256402
0.0031805184
0.0032164692
0.0032504452
0.0032813243
0.0033093082
0.0033348683
0.0033590711
0.003383502
0.0034100579
0.0034407281
0.0034773806
0.0035215705
0.0035743947
0.0036364078
0.0037076059
0.0037874705
0.0038750587
0.0039691188
0.004068211
0.00417082
0.0042754473
0.0043806804
0.0044852386
0.0045880004
0.004688015
0.004784501
0.0048768372
0.0049645488
0.005047291
0.0051248314
0.0051970334
0.0052638402
0.00532526
0.0053813534
0.0054322219
0.0054779988
0.0055188405
0.0055549202
0.005586422
0.0056135368
0.005636458
0.0056553791
0.0056704917
0.0056819828
0.0056900347
0.0056948207
0.0056965065
0.0056952442
0.0056912357
0.005684599
0.0056754419
0.0056639015
0.0031821875
0.0032216988
0.0032592894
0.0032936387
0.0033249584
0.003353864
0.0033817089
0.0034104446
0.0034423407
0.0034796961
0.003524569
0.0035785502
0.0036426104
0.0037170352
0.0038014493
0.0038949109
0.0039960509
0.0041032285
0.0042146793
0.0043286394
0.0044434396
0.0045575673
0.0046697033
0.0047787369
0.0048837645
0.0049840776
0.0050791447
0.0051685894
0.0052521691
0.0053297529
0.0054013022
0.0054668526
0.0055264981
0.0055803778
0.0056286641
0.0056715536
0.0057092592
0.0057420042
0.0057700165
0.0057935241
0.0058127533
0.0058279256
0.005839257
0.0058469544
0.0058512183
0.0058522342
0.0058501782
0.005845184
0.0058375269
0.005827316
0.0058146345
0.0057995966
0.0031840147
0.003227462
0.0032690449
0.0033072114
0.0033422024
0.003374838
0.0034068435
0.0034406204
0.0034788687
0.003524211
0.0035788577
0.0036443498
0.0037214133
0.0038099365
0.0039090558
0.0040173164
0.0041328696
0.0042536675
0.0043776316
0.0045027817
0.0046273217
0.004749689
0.0048685769
0.0049829322
0.0050919404
0.0051950013
0.0052917021
0.0053817887
0.0054651385
0.0055417359
0.0056116499
0.0056750153
0.005732016
0.0057828717
0.0058278259
0.0058671378
0.0059010759
0.0059299114
0.0059539124
0.0059733416
0.0059884552
0.0059994991
0.0060067114
0.0060103148
0.0060105304
0.0060075548
0.0060015507
0.0059925973
0.0059811582
0.0059672746
0.0059509518
0.0059323317
0.0031860158
0.003233816
0.0032798048
0.0033221662
0.0033612036
0.0033980242
0.0034348321
0.0034745747
0.0035204359
0.003575354
0.0036416173
0.0037205891
0.0038125966
0.0039169791
0.0040322618
0.004156398
0.0042870254
0.0044216954
0.0045580506
0.004693946
0.0048275184
0.0049572175
0.0050818054
0.0052003365
0.0053121275
0.0054167214
0.0055138511
0.0056034054
0.0056853972
0.0057599369
0.0058272078
0.0058874481
0.0059409335
0.0059879636
0.0060288521
0.0060639189
0.0060934849
0.0061178651
0.0061373652
0.0061522778
0.006162886
0.0061694551
0.0061722458
0.0061714919
0.0061674134
0.0061602579
0.0061501518
0.0061370753
0.0061216737
0.0061040716
0.0060840055
0.0060617627
0.0031882086
0.0032408239
0.0032916689
0.0033386355
0.0033821422
0.0034236948
0.0034661082
0.0035129803
0.0035680197
0.0036344359
0.0037144708
0.0038091329
0.0039181583
0.0040401706
0.0041729669
0.0043138509
0.0044599432
0.0046084303
0.0047567364
0.0049026233
0.0050442362
0.0051801056
0.0053091231
0.0054305015
0.0055437295
0.0056485251
0.0057447911
0.0058325763
0.0059120409
0.0059834283
0.0060470405
0.0061032199
0.0061523332
0.006194758
0.0062308757
0.0062610618
0.0062856857
0.0063051022
0.00631965
0.0063296456
0.006335399
0.0063371888
0.0063352749
0.0063299379
0.0063213589
0.0063098125
0.0062954326
0.0062783234
0.0062588766
0.0062372963
0.0062134501
0.0061875545
0.0031906131
0.0032485543
0.0033047445
0.0033567617
0.0034052212
0.0034521749
0.0035012076
0.0035566763
0.003622826
0.0037030399
0.0037993243
0.003912099
0.004040286
0.0041816232
0.0043330847
0.0044913014
0.0046529105
0.004814803
0.0049742701
0.0051290722
0.0052774469
0.0054180795
0.0055500522
0.0056727854
0.0057859776
0.0058895494
0.0059835934
0.0060683311
0.0061440781
0.0062112145
0.0062701611
0.0063213627
0.0063652747
0.0064023491
0.0064330289
0.0064577391
0.0064768942
0.006490881
0.0065000711
0.0065047963
0.0065053693
0.0065021222
0.006495272
0.006485143
0.0064719076
0.0064558389
0.0064371007
0.006415843
0.0063923125
0.0063667013
0.0063390326
0.0063094525
0.0031932516
0.0032570829
0.0033191465
0.0033766997
0.0034306747
0.0034838625
0.0035408047
0.003606716
0.0036863422
0.0037830654
0.0038983887
0.0040318535
0.0041813257
0.0043435044
0.0045144845
0.0046902485
0.0048670266
0.0050415159
0.0052109861
0.0053733002
0.0055268791
0.0056706376
0.0058039079
0.0059263629
0.0060379435
0.006138796
0.0062292174
0.0063096099
0.0063804477
0.0064422483
0.0064955469
0.0065408875
0.0065788101
0.0066098331
0.0066344542
0.0066531413
0.0066663534
0.0066744976
0.0066779519
0.0066771066
0.0066722319
0.0066637058
0.0066517425
0.0066366659
0.0066186772
0.0065979958
0.00657481
0.0065492929
0.0065216408
0.0064920176
0.0064605075
0.0064272355
0.0031961489
0.0032664926
0.0033349984
0.0033986207
0.0034587815
0.0035192579
0.003585758
0.0036644261
0.0037603945
0.0038767683
0.0040141909
0.0041709893
0.0043437349
0.0045279757
0.0047189287
0.0049120073
0.0051031547
0.0052890099
0.0054669503
0.0056350536
0.0057920165
0.0059370558
0.0060698083
0.0061902382
0.0062985557
0.0063951492
0.0064805289
0.0065552807
0.0066200367
0.0066754475
0.0067221555
0.0067607996
0.0067919959
0.0068163202
0.0068343162
0.0068464953
0.0068533243
0.00685527
0.0068526808
0.0068459772
0.0068354513
0.0068214662
0.006804276
0.0067841376
0.0067612806
0.006735919
0.0067082403
0.0066784177
0.0066466227
0.0066130041
0.0065776641
0.0065407182
0.003199333
0.0032768747
0.003352434
0.0034227191
0.0034898844
0.003559003
0.0036371717
0.0037314769
0.0038472091
0.0039867932
0.0041495677
0.0043322857
0.0045300202
0.0047371233
0.0049480066
0.005157653
0.0053618832
0.0055574391
0.0057419466
0.0059138135
0.0060721018
0.0062163972
0.0063466886
0.0064632628
0.0065666179
0.0066573947
0.0067363195
0.0068041588
0.0068616972
0.0069097109
0.0069489408
0.0069801117
0.0070039049
0.0070209457
0.0070318059
0.0070370375
0.0070371477
0.007032539
0.0070236654
0.0070108973
0.0069945824
0.0069750071
0.0069524538
0.0069271742
0.0068993933
0.0068693164
0.0068371259
0.0068029881
0.006767058
0.0067294717
0.006690334
0.0066497528
0.0032028356
0.0032883304
0.0033716003
0.0034492233
0.0035244194
0.0036039361
0.0036964712
0.0038099629
0.0039494706
0.0041161908
0.0043076388
0.0045186483
0.0047426627
0.0049728841
0.0052030712
0.0054279745
0.0056434944
0.0058466535
0.0060354714
0.0062087988
0.0063661464
0.0065075268
0.0066333187
0.0067441538
0.0068408289
0.0069242397
0.0069953257
0.0070550249
0.0071042635
0.0071439366
0.0071748666
0.0071978586
0.0072136379
0.0072228642
0.0072261824
0.0072240733
0.007217126
0.0072057397
0.0071904138
0.0071714361
0.0071491708
0.0071239109
0.0070959281
0.0070654646
0.007032737
0.0069979401
0.0069612474
0.0069228147
0.0068827824
0.0068412731
0.0067983875
0.0067542277
0.0032066924
0.0033009725
0.0033926619
0.0034784123
0.0035629578
0.003655166
0.0037654986
0.0039024898
0.0040703715
0.0042684138
0.004491756
0.0047330319
0.0049840351
0.005236971
0.0054851807
0.0057234355
0.0059479418
0.006156189
0.0063467339
0.0065189752
0.0066729448
0.0068091287
0.0069283228
0.0070315158
0.007119804
0.007194334
0.0072562495
0.0073066425
0.0073465719
0.0073770364
0.0073989242
0.0074130916
0.0074203454
0.0074212952
0.0074166733
0.0074069334
0.0073927276
0.0073744138
0.0073524347
0.0073271298
0.0072988363
0.0072678397
0.007234399
0.007198744
0.0071610792
0.0071215867
0.0070804284
0.0070377472
0.0069936687
0.0069482981
0.0069017308
0.0068540653
0.0032109444
0.0033149291
0.0034158088
0.0035106421
0.0036062659
0.0037141689
0.0038466258
0.0040122643
0.0042136444
0.0044472859
0.0047054282
0.0049783489
0.0052563147
0.005530803
0.0057950521
0.0060441454
0.0062748359
0.0064852655
0.0066746633
0.0068430683
0.0069910921
0.0071197274
0.0072302021
0.0073238628
0.0074020971
0.0074662911
0.0075177758
0.0075577769
0.0075874768
0.0076079375
0.0076201231
0.0076249577
0.0076231578
0.0076155067
0.0076026355
0.0075851092
0.0075634274
0.0075380233
0.007509303
0.0074776066
0.0074432496
0.0074065047
0.0073676147
0.0073267938
0.0072842315
0.0072400951
0.0071945325
0.0071476733
0.0070996271
0.0070504731
0.0070003032
0.0069492203
0.0032156392
0.0033303482
0.0034412691
0.0035463854
0.003655391
0.0037829159
0.0039428844
0.0041431761
0.0043835673
0.0046569409
0.0049522263
0.0052573707
0.005561399
0.0058554456
0.0061330217
0.0063898375
0.0066234371
0.0068327912
0.0070179209
0.0071795809
0.0073190049
0.0074377098
0.0075373576
0.0076196412
0.0076862228
0.0077387086
0.0077785923
0.0078072133
0.0078258442
0.0078356493
0.0078375278
0.0078325471
0.0078213514
0.0078048573
0.0077835405
0.007758004
0.0077287342
0.0076961565
0.0076606516
0.007622546
0.0075821329
0.0075396666
0.0074953704
0.0074494404
0.0074020481
0.0073533442
0.0073034611
0.0072525146
0.0072005931
0.0071477553
0.0070940829
0.0070396795
0.0032208328
0.0033474057
0.0034693287
0.0035862918
0.0037117798
0.0038640324
0.0040581075
0.0042998613
0.0045849353
0.0049017325
0.005235673
0.0055726264
0.005900831
0.0062115604
0.0064990145
0.0067598561
0.0069926557
0.0071973715
0.0073749161
0.0075268144
0.0076549453
0.0077613505
0.0078481152
0.0079172537
0.0079706785
0.0080101888
0.0080373947
0.0080537639
0.008060646
0.0080591147
0.0080502885
0.0080350964
0.0080143387
0.0079887121
0.007958795
0.0079251466
0.0078882311
0.0078484536
0.0078061687
0.0077616811
0.007715259
0.0076671338
0.0076175069
0.0075665529
0.0075144236
0.0074612509
0.00740715
0.007352218
0.0072965158
0.0032265924
0.0033663179
0.0035003635
0.003631278
0.0037774419
0.0039609941
0.0041970725
0.004487735
0.0048229937
0.0051861192
0.0055591252
0.0059263087
0.0062757329
0.006599362
0.006892523
0.0071531506
0.0073810575
0.0075773239
0.0077438269
0.0078828924
0.0079970461
0.0080888373
0.0081607512
0.0082150824
0.008253966
0.0082793323
0.0082929752
0.0082962871
0.0082907674
0.0082774752
0.0082576281
0.0082319998
0.0082014054
0.0081665237
0.0081279241
0.0080861251
0.0080415623
0.0079946117
0.0079455974
0.0078947968
0.0078424496
0.0077887612
0.007733908
0.0076780412
0.0076212907
0.0075637679
0.007505568
0.0074467669
0.00738741
0.0032330009
0.0033873601
0.003534889
0.0036826595
0.0038551693
0.0040783559
0.0043656302
0.0047129813
0.0051033353
0.0055145338
0.0059256577
0.0063201894
0.0066867488
0.0070185851
0.0073125919
0.0075682748
0.0077868752
0.0079706969
0.0081226242
0.0082457877
0.0083433381
0.0084182975
0.0084735187
0.0085114961
0.0085345965
0.0085448643
0.0085440251
0.0085337283
0.0085152868
0.0084900152
0.0084588064
0.0084225477
0.0083820032
0.0083378125
0.0082905165
0.0082405902
0.0081884328
0.0081343845
0.0080787346
0.0080217281
0.0079635736
0.0079044474
0.0078444987
0.0077838535
0.007722618
0.0076608818
0.0075987193
0.0075361843
0.0074733118
0.0032401624
0.0034108975
0.0035736377
0.003742345
0.0039488239
0.0042220055
0.0045708017
0.0049824965
0.0054317693
0.0058912481
0.0063379586
0.0067555438
0.0071339951
0.0074684569
0.0077578092
0.0080033926
0.0082080237
0.0083752926
0.008509099
0.0086133519
0.0086917821
0.0087478432
0.0087846274
0.008804922
0.0088111787
0.00880537
0.0087894764
0.0087650755
0.0087335101
0.0086958785
0.0086531564
0.0086061776
0.0085556507
0.008502168
0.0084462273
0.0083882548
0.0083286064
0.0082675808
0.0082054284
0.0081423581
0.0080785445
0.0080141325
0.0079492425
0.0078839734
0.0078184069
0.0077526097
0.0076866349
0.0076205158
0.0075542735
0.0032482108
0.0034374307
0.0036176798
0.0038131144
0.004063703
0.0043994243
0.0048208293
0.0053037895
0.0058141777
0.0063202464
0.0067982319
0.0072330809
0.0076170168
0.0079476754
0.0082263025
0.0084562887
0.0086421214
0.0087886946
0.0089008922
0.0089833453
0.0090402979
0.0090755141
0.0090924425
0.0090937986
0.0090822052
0.0090597273
0.0090283571
0.008989529
0.0089445096
0.0088943945
0.0088401013
0.0087824008
0.0087219389
0.00865925
0.0085947775
0.0085288934
0.0084619041
0.0083940624
0.0083255761
0.0082566149
0.0081873172
0.0081177951
0.008048138
0.0079784172
0.0079086886
0.0078389958
0.0077693703
0.0076998256
0.0076303672
0.0032573214
0.0034676684
0.0036686105
0.003899014
0.0042069843
0.0046199344
0.0051251744
0.0056848576
0.0062563751
0.0068051101
0.0073081054
0.0077528764
0.0081347454
0.0084543907
0.0087157405
0.0089243848
0.0090865163
0.0092082993
0.0092955291
0.0093534584
0.0093867496
0.0093995257
0.0093951142
0.009376649
0.0093464774
0.009306957
0.0092597058
0.0092061804
0.0091475992
0.0090849742
0.0090191454
0.0089508073
0.0088805323
0.0088087868
0.0087359518
0.0086623393
0.0085882015
0.0085137413
0.0084391211
0.0083644691
0.0082898859
0.0082154491
0.0081412166
0.0080672309
0.0079935216
0.0079201088
0.007847003
0.007774198
0.0077016829
0.0032677252
0.0035026392
0.0037288393
0.0040059039
0.0043882414
0.0048949079
0.0054944778
0.0061340677
0.0067639989
0.007348919
0.0078685442
0.0083143002
0.0086854537
0.0089861886
0.0092233394
0.0094047629
0.0095383183
0.0096313538
0.0096904313
0.0097213642
0.0097291552
0.0097178379
0.0096912265
0.0096520085
0.0096029894
0.0095459558
0.0094826077
0.009414309
0.009342174
0.009267115
0.0091898772
0.0091110651
0.0090311671
0.0089505738
0.0088695963
0.0087884822
0.0087074255
0.0086265766
0.0085460498