/*--------------------------------*- C++ -*----------------------------------*\
| =========                 |                                                 |
| \\      /  F ield         | OpenFOAM: The Open Source CFD Toolbox           |
|  \\    /   O peration     | Version:  2312                                  |
|   \\  /    A nd           | Website:  www.openfoam.com                      |
|    \\/     M anipulation  |                                                 |
\*---------------------------------------------------------------------------*/
FoamFile
{
    version     2.0;
    format      ascii;
    arch        "LSB;label=32;scalar=64";
    class       volScalarField;
    location    "0.08";
    object      N2;
}
// * * * * * * * * * * * * * * * * * * * * * * * * * * * * * * * * * * * * * //

dimensions      [0 0 0 0 0 0 0];

internalField   nonuniform List<scalar> 
3221
(
0.76981164
0.76941587
0.76900081
0.76856669
0.76811382
0.76764258
0.76715344
0.76664692
0.76612362
0.76558421
0.7650294
0.76445998
0.76387677
0.76328062
0.76267246
0.76205322
0.76142388
0.76078542
0.76013886
0.75948524
0.75882557
0.75816091
0.7574923
0.75682077
0.75614735
0.75547308
0.75479896
0.75412599
0.75345514
0.75278736
0.75212359
0.75146474
0.75081168
0.75016527
0.74952632
0.74889563
0.74827395
0.74766199
0.74706045
0.74646998
0.7458912
0.74532469
0.74477099
0.74423063
0.74370409
0.74319181
0.7426942
0.74221167
0.74174457
0.74129323
0.74085796
0.74043914
0.76980942
0.76940896
0.76898898
0.76854972
0.76809149
0.7676147
0.76711982
0.7666074
0.76607807
0.76553249
0.76497142
0.76439565
0.76380602
0.76320341
0.76258876
0.76196303
0.76132719
0.76068226
0.76002927
0.75936927
0.75870329
0.75803241
0.75735767
0.75668013
0.75600084
0.75532082
0.75464111
0.75396271
0.75328661
0.75261377
0.75194513
0.75128161
0.75062409
0.74997345
0.74933048
0.748696
0.74807077
0.74745549
0.74685087
0.74625756
0.74567618
0.7451073
0.74455148
0.74400922
0.74348101
0.74296729
0.74246848
0.74198496
0.74151707
0.74106515
0.74062949
0.74021046
0.76980509
0.76939551
0.76896596
0.7685167
0.76804808
0.76756053
0.76705455
0.76653074
0.76598975
0.76543228
0.76485912
0.7642711
0.7636691
0.76305404
0.76242689
0.76178864
0.7611403
0.76048293
0.75981759
0.75914535
0.75846729
0.75778451
0.75709807
0.75640908
0.75571859
0.75502768
0.75433738
0.75364872
0.75296272
0.75228035
0.75160259
0.75093035
0.75026453
0.74960602
0.74895564
0.74831419
0.74768244
0.74706112
0.74645092
0.7458525
0.74526646
0.74469339
0.74413384
0.74358831
0.74305726
0.74254114
0.74204035
0.74155526
0.74108622
0.74063352
0.74019747
0.73977839
0.76979874
0.7693758
0.76893223
0.76846834
0.76798452
0.76748125
0.76695907
0.76641862
0.76586061
0.76528581
0.76469504
0.76408919
0.76346919
0.76283603
0.76219072
0.7615343
0.76086786
0.76019247
0.75950927
0.75881936
0.75812387
0.75742395
0.75672071
0.75601529
0.75530878
0.7546023
0.75389691
0.75319369
0.75249366
0.75179785
0.75110723
0.75042276
0.74974536
0.7490759
0.74841525
0.74776421
0.74712355
0.746494
0.74587626
0.74527098
0.74467878
0.74410022
0.74353583
0.74298612
0.74245154
0.74193251
0.74142942
0.74094262
0.74047244
0.74001915
0.73958303
0.73916438
0.76979045
0.76935002
0.76888812
0.7684051
0.76790141
0.76737759
0.76683426
0.7662721
0.76569191
0.76509451
0.76448081
0.76385176
0.76320838
0.76255171
0.76188284
0.76120288
0.76051299
0.75981432
0.75910805
0.75839537
0.75767747
0.75695554
0.75623076
0.75550432
0.75477738
0.75405108
0.75332656
0.7526049
0.7518872
0.75117449
0.75046779
0.74976807
0.74907629
0.74839334
0.74772008
0.74705734
0.74640589
0.74576646
0.74513975
0.7445264
0.74392701
0.74334215
0.74277233
0.74221803
0.74167969
0.74115769
0.74065241
0.74016416
0.73969325
0.73923993
0.73880443
0.73838703
0.76978024
0.76931827
0.76883378
0.7683272
0.76779905
0.76724994
0.76668057
0.76609172
0.76548427
0.76485912
0.76421729
0.76355981
0.76288778
0.76220235
0.7615047
0.76079602
0.76007755
0.75935054
0.75861626
0.75787596
0.75713092
0.75638241
0.75563168
0.75487998
0.75412854
0.75337856
0.75263123
0.7518877
0.75114909
0.75041648
0.74969093
0.74897345
0.74826499
0.74756648
0.74687879
0.74620275
0.74553914
0.7448887
0.74425209
0.74362996
0.7430229
0.74243143
0.74185606
0.74129722
0.74075534
0.74023077
0.73972383
0.73923482
0.73876399
0.73831157
0.73787773
0.73746272
0.76976811
0.76928056
0.76876924
0.76823467
0.76767746
0.76709832
0.76649805
0.76587755
0.76523777
0.76457977
0.76390464
0.76321355
0.76250769
0.76178834
0.76105677
0.7603143
0.75956227
0.75880203
0.75803495
0.75726239
0.75648573
0.75570631
0.75492549
0.75414458
0.7533649
0.75258772
0.7518143
0.75104584
0.75028351
0.74952845
0.74878173
0.74804441
0.74731746
0.74660183
0.74589839
0.74520798
0.74453137
0.74386928
0.74322238
0.74259128
0.74197653
0.74137865
0.74079809
0.74023526
0.73969053
0.7391642
0.73865658
0.73816789
0.73769834
0.73724809
0.7368173
0.73640615
0.76975405
0.76923684
0.7686944
0.76812735
0.76753643
0.76692247
0.76628639
0.76562921
0.76495202
0.76425601
0.7635424
0.7628125
0.76206764
0.76130921
0.76053863
0.75975736
0.75896686
0.75816861
0.75736409
0.75655479
0.7557422
0.75492777
0.75411295
0.75329917
0.75248782
0.75168027
0.75087783
0.75008178
0.74929334
0.7485137
0.74774397
0.74698523
0.74623848
0.74550466
0.74478468
0.74407934
0.74338941
0.74271559
0.74205851
0.74141876
0.74079685
0.74019324
0.73960835
0.73904252
0.73849608
0.73796928
0.73746233
0.73697544
0.73650872
0.73606231
0.73563626
0.73523072
0.76973803
0.76918698
0.76860902
0.76800492
0.76737554
0.76672185
0.76604492
0.76534594
0.76462615
0.76388687
0.76312952
0.76235554
0.76156643
0.76076375
0.75994908
0.75912401
0.75829016
0.75744918
0.75660268
0.75575229
0.75489963
0.75404628
0.75319382
0.75234377
0.75149763
0.75065686
0.74982286
0.74899696
0.74818046
0.74737457
0.74658046
0.74579922
0.74503187
0.74427936
0.74354256
0.74282228
0.74211926
0.74143415
0.74076756
0.74012001
0.73949196
0.73888382
0.73829593
0.73772858
0.73718201
0.73665641
0.73615192
0.73566867
0.73520671
0.73476608
0.7343468
0.7339489
0.76971998
0.76913078
0.76851278
0.76786689
0.76719412
0.76649563
0.76577268
0.7650266
0.76425883
0.7634709
0.76266439
0.76184094
0.76100225
0.76015006
0.75928612
0.75841223
0.75753019
0.75664179
0.75574885
0.75485314
0.75395643
0.75306046
0.75216693
0.75127751
0.75039379
0.74951733
0.74864961
0.74779204
0.74694598
0.74611269
0.74529335
0.74448907
0.74370087
0.74292968
0.74217638
0.74144172
0.74072639
0.740031
0.7393561
0.73870213
0.73806949
0.73745849
0.73686942
0.73630246
0.73575778
0.73523547
0.7347356
0.73425818
0.73380321
0.73337064
0.73296038
0.73257241
0.76969982
0.769068
0.76840523
0.7677126
0.76699132
0.76624275
0.76546834
0.76466965
0.76384834
0.76300615
0.76214489
0.76126641
0.76037265
0.75946556
0.75854711
0.75761932
0.75668419
0.75574374
0.75479995
0.7538548
0.75291023
0.75196816
0.75103042
0.75009882
0.74917507
0.74826085
0.74735771
0.74646714
0.74559054
0.7447292
0.74388433
0.74305704
0.74224832
0.7414591
0.74069018
0.73994227
0.73921601
0.73851191
0.73783045
0.73717197
0.73653679
0.73592512
0.73533713
0.73477292
0.73423254
0.73371599
0.73322323
0.73275417
0.73230872
0.73188671
0.731488
0.73111244
0.76967747
0.76899832
0.76828581
0.76754125
0.76676607
0.76596186
0.7651303
0.76427322
0.76339253
0.76249022
0.76156836
0.76062908
0.75967457
0.75870703
0.75772872
0.75674187
0.75574875
0.75475161
0.75375265
0.75275408
0.75175804
0.75076661
0.74978181
0.74880559
0.74783979
0.74688618
0.74594641
0.74502202
0.74411445
0.74322502
0.74235493
0.74150527
0.740677
0.73987098
0.73908795
0.73832855
0.7375933
0.73688264
0.73619692
0.73553638
0.7349012
0.7342915
0.7337073
0.73314859
0.7326153
0.73210731
0.73162446
0.73116656
0.7307334
0.73032471
0.72994023
0.72957974
0.76965279
0.76892135
0.76815387
0.76735188
0.76651709
0.76565134
0.76475662
0.76383504
0.7628888
0.76192021
0.76093164
0.75992553
0.75890436
0.75787066
0.75682697
0.75577583
0.75471979
0.75366135
0.75260302
0.75154721
0.75049629
0.74945256
0.74841821
0.74739534
0.74638592
0.74539181
0.74441475
0.74345632
0.74251799
0.74160105
0.7407067
0.73983597
0.73898976
0.73816884
0.73737385
0.73660531
0.73586364
0.73514912
0.73446197
0.73380231
0.73317016
0.73256549
0.73198819
0.73143811
0.73091503
0.7304187
0.72994884
0.72950512
0.72908722
0.72869476
0.72832737
0.72798472
0.76962565
0.76883666
0.76800863
0.76714337
0.76624288
0.76530934
0.76434506
0.76335248
0.76233416
0.76129277
0.76023104
0.75915177
0.7580578
0.75695202
0.7558373
0.75471655
0.75359264
0.75246839
0.75134659
0.75022993
0.74912103
0.74802241
0.74693643
0.74586536
0.74481129
0.74377618
0.7427618
0.74176977
0.74080155
0.7398584
0.73894145
0.73805165
0.7371898
0.73635654
0.73555237
0.73477768
0.7340327
0.73331759
0.73263237
0.73197699
0.73135132
0.73075515
0.73018822
0.7296502
0.72914074
0.72865942
0.72820583
0.72777951
0.72738
0.7270068
0.72665944
0.72633746
0.7695959
0.76874375
0.76784921
0.76691442
0.76594173
0.76493369
0.763893
0.7628225
0.76172516
0.76060406
0.75946235
0.75830327
0.75713008
0.75594608
0.75475456
0.75355882
0.75236211
0.75116762
0.74997845
0.74879762
0.74762799
0.74647231
0.74533315
0.74421292
0.74311381
0.74203784
0.74098683
0.73996237
0.73896587
0.73799854
0.73706139
0.73615525
0.73528075
0.73443838
0.73362847
0.73285121
0.73210663
0.7313947
0.73071523
0.73006799
0.72945265
0.7288688
0.72831601
0.72779376
0.72730154
0.72683877
0.72640489
0.7259993
0.72562139
0.72527056
0.72494621
0.72464778
0.76956336
0.76864203
0.76767459
0.76666356
0.76561169
0.76452196
0.76339751
0.76224166
0.76105787
0.7598497
0.75862081
0.75737493
0.75611581
0.75484725
0.75357303
0.7522969
0.75102253
0.74975353
0.74849338
0.74724539
0.74601274
0.74479839
0.7436051
0.7424354
0.74129157
0.74017567
0.73908949
0.73803456
0.73701222
0.73602353
0.73506935
0.73415032
0.73326689
0.73241933
0.73160772
0.73083204
0.73009209
0.72938759
0.72871814
0.72808327
0.72748243
0.72691501
0.72638036
0.72587779
0.7254066
0.72496606
0.72455542
0.72417395
0.72382091
0.72349557
0.7231972
0.72292514
0.76952783
0.76853087
0.76748366
0.76638914
0.76525055
0.76407136
0.76285525
0.76160609
0.76032789
0.75902482
0.75770109
0.75636104
0.75500902
0.75364938
0.75228647
0.75092456
0.74956782
0.7482203
0.74688588
0.74556824
0.74427082
0.74299683
0.74174918
0.7405305
0.73934311
0.73818903
0.73707
0.73598744
0.73494251
0.7339361
0.73296885
0.73204115
0.7311532
0.73030498
0.72949633
0.72872693
0.72799631
0.72730393
0.72664912
0.72603116
0.72544926
0.72490259
0.72439028
0.72391144
0.72346518
0.72305059
0.72266677
0.72231283
0.7219879
0.72169112
0.72142165
0.72117872
0.7694891
0.76840955
0.76727513
0.76608931
0.76485584
0.7635788
0.7622625
0.76091143
0.75953031
0.75812394
0.75669728
0.75525534
0.75380316
0.75234577
0.75088814
0.74943515
0.74799154
0.74656185
0.74515037
0.74376116
0.74239794
0.74106411
0.7397627
0.7384964
0.7372675
0.73607794
0.73492931
0.73382284
0.73275948
0.73173983
0.73076425
0.72983282
0.72894542
0.72810171
0.7273012
0.72654325
0.72582709
0.72515186
0.72451662
0.72392036
0.72336205
0.7228406
0.72235493
0.72190393
0.72148652
0.72110162
0.72074816
0.72042511
0.72013146
0.71986623
0.71962847
0.71941731
0.76944691
0.76827726
0.7670476
0.76576197
0.76442479
0.76304081
0.76161507
0.76015284
0.75865962
0.75714104
0.75560288
0.75405096
0.75249112
0.75092918
0.74937085
0.74782169
0.74628705
0.744772
0.74328129
0.74181932
0.74039008
0.7389971
0.73764351
0.73633194
0.73506459
0.73384323
0.73266923
0.73154353
0.73046676
0.72943919
0.72846078
0.72753126
0.72665011
0.72581661
0.72502991
0.72428899
0.72359275
0.72293999
0.72232947
0.72175988
0.72122991
0.72073823
0.72028353
0.71986449
0.71947983
0.7191283
0.71880867
0.71851976
0.71826044
0.71802961
0.71782622
0.71764931
0.76940099
0.7681331
0.76679946
0.7654048
0.76395429
0.76245349
0.7609083
0.75932491
0.75770976
0.75606945
0.75441073
0.75274038
0.7510652
0.7493919
0.74772702
0.74607689
0.74444753
0.74284458
0.74127323
0.7397382
0.73824367
0.7367933
0.73539015
0.73403675
0.7327351
0.73148669
0.73029254
0.72915324
0.72806898
0.72703959
0.72606459
0.72514325
0.7242746
0.72345751
0.72269068
0.72197271
0.72130212
0.72067734
0.72009682
0.71955894
0.71906212
0.71860477
0.71818534
0.71780231
0.7174542
0.71713959
0.71685711
0.71660544
0.71638333
0.71618957
0.71602303
0.71588266
0.76935105
0.76797608
0.76652896
0.76501521
0.76344089
0.76181251
0.760137
0.75842165
0.75667402
0.75490185
0.75311304
0.75131551
0.74951717
0.74772574
0.74594873
0.7441933
0.74246618
0.74077357
0.73912109
0.73751374
0.73595581
0.73445093
0.73300204
0.73161143
0.73028076
0.72901113
0.72780309
0.72665674
0.72557175
0.7245474
0.72358271
0.72267639
0.72182699
0.72103288
0.72029231
0.71960344
0.71896438
0.71837322
0.71782805
0.71732694
0.71686803
0.71644949
0.71606952
0.71572641
0.7154185
0.71514421
0.71490201
0.71469049
0.71450826
0.71435405
0.71422662
0.71412484
0.76929675
0.7678051
0.76623413
0.76459031
0.76288072
0.76111303
0.75929541
0.75743643
0.75554499
0.7536302
0.75170131
0.74976761
0.74783824
0.74592212
0.74402781
0.74216338
0.74033627
0.73855325
0.73682029
0.73514255
0.73352434
0.73196915
0.73047962
0.72905764
0.72770441
0.72642047
0.72520581
0.72405987
0.7229817
0.72196996
0.72102304
0.72013908
0.71931604
0.71855179
0.71784407
0.71719059
0.71658905
0.71603716
0.71553264
0.71507329
0.71465696
0.71428156
0.71394509
0.71364563
0.71338136
0.71315054
0.71295155
0.71278283
0.71264294
0.71253049
0.71244419
0.71238284
0.76923771
0.7676189
0.76591276
0.76412684
0.76226946
0.76034968
0.75837712
0.7563619
0.75431451
0.75224572
0.75016638
0.74808732
0.74601916
0.74397214
0.74195598
0.73997967
0.73805138
0.73617837
0.73436685
0.73262205
0.7309481
0.72934815
0.72782441
0.72637819
0.72501005
0.72371982
0.72250673
0.7213695
0.72030642
0.71931544
0.71839425
0.71754035
0.7167511
0.71602377
0.71535561
0.71474387
0.71418581
0.71367876
0.71322012
0.71280737
0.71243809
0.71210997
0.71182079
0.71156847
0.71135103
0.71116661
0.71101346
0.71088996
0.71079457
0.71072585
0.71068245
0.71066313
0.76917353
0.76741613
0.7655624
0.76362118
0.76160231
0.75951645
0.75737499
0.75518992
0.75297365
0.75073887
0.74849834
0.7462647
0.74405024
0.74186666
0.73972489
0.73763488
0.73560548
0.73364429
0.73175765
0.7299506
0.72822696
0.72658931
0.72503918
0.72357714
0.72220289
0.72091539
0.71971299
0.71859352
0.71755442
0.71659285
0.71570573
0.71488986
0.71414196
0.71345872
0.71283686
0.71227315
0.71176444
0.71130767
0.71089992
0.71053839
0.7102204
0.70994342
0.70970507
0.7095031
0.7093354
0.70919998
0.70909503
0.70901885
0.70896987
0.70894654
0.70894756
0.70897144
0.76910376
0.76719524
0.76518029
0.7630693
0.76087387
0.75860664
0.75628112
0.75391152
0.75151257
0.74909925
0.74668657
0.74428924
0.74192141
0.73959637
0.73732632
0.73512211
0.73299312
0.73094718
0.72899049
0.72712771
0.72536201
0.72369522
0.72212795
0.72065977
0.71928934
0.71801456
0.71683274
0.71574072
0.71473501
0.71381186
0.71296741
0.7121977
0.7114988
0.7108668
0.71029788
0.70978835
0.70933465
0.70893337
0.70858128
0.7082753
0.70801254
0.70779029
0.70760598
0.70745725
0.70734186
0.70725775
0.70720302
0.70717595
0.70717502
0.70719836
0.70724453
0.7073126
0.76902787
0.76695452
0.76476336
0.76246665
0.76007812
0.75761276
0.75508667
0.75251677
0.74992052
0.74731565
0.74471974
0.7421499
0.73962231
0.73715197
0.73475229
0.73243494
0.73020964
0.72808416
0.72606432
0.72415407
0.72235565
0.72066984
0.71909606
0.71763264
0.71627698
0.71502576
0.71387511
0.71282076
0.7118582
0.71098275
0.71018969
0.70947432
0.708832
0.70825826
0.70774875
0.70729933
0.70690605
0.70656517
0.70627317
0.70602675
0.70582282
0.7056585
0.70553111
0.70543815
0.70537734
0.70534647
0.70534366
0.70536714
0.70541494
0.70548612
0.70558016
0.70569138
0.76894532
0.76669203
0.76430814
0.76180812
0.75920826
0.75652644
0.75378187
0.75099472
0.74818577
0.74537594
0.74258582
0.73983517
0.73714243
0.73452426
0.73199525
0.72956765
0.72725127
0.72505348
0.72297933
0.72103172
0.71921164
0.71751846
0.71595013
0.71450349
0.71317448
0.71195839
0.71085005
0.70984399
0.70893461
0.70811624
0.70738331
0.70673035
0.70615205
0.70564336
0.70519946
0.70481576
0.70448797
0.70421204
0.7039842
0.70380095
0.70365907
0.70355551
0.70348755
0.70345252
0.70344822
0.70347226
0.70352176
0.70359728
0.70369664
0.70381428
0.7039565
0.70411277
0.76885547
0.76640563
0.76381074
0.76108795
0.75825667
0.7553383
0.75235581
0.74933331
0.74629551
0.74326709
0.74027208
0.73733318
0.73447115
0.73170432
0.72904822
0.72651539
0.72411533
0.72185461
0.71973707
0.71776413
0.71593515
0.71424774
0.71269808
0.71128126
0.70999157
0.70882277
0.70776828
0.70682137
0.70597528
0.70522337
0.70455919
0.70397652
0.70346941
0.70303227
0.7026598
0.70234706
0.70208942
0.70188256
0.70172253
0.70160565
0.70152863
0.70148823
0.70148187
0.70150659
0.70155942
0.70164058
0.70174382
0.70187147
0.70202154
0.7021882
0.70237731
0.70258165
0.76875761
0.76609287
0.76326675
0.76029964
0.75721477
0.75403781
0.75079634
0.74751921
0.7442358
0.74097516
0.73776519
0.73463176
0.73159798
0.72868367
0.725905
0.72327435
0.72080042
0.71848844
0.71634054
0.71435624
0.71253279
0.71086568
0.70934901
0.70797592
0.70673888
0.70562997
0.70464113
0.7037643
0.70299159
0.70231537
0.70172832
0.70122351
0.7007944
0.70043489
0.70013926
0.69990225
0.69971898
0.69958486
0.69949586
0.69944805
0.69943835
0.69946314
0.69951911
0.69960602
0.69971695
0.69985475
0.70001314
0.70019354
0.70039528
0.70061329
0.70084875
0.70109926
0.76865095
0.76575098
0.76267116
0.75943581
0.75607284
0.75261316
0.74908996
0.74553778
0.74199152
0.73848528
0.73505123
0.73171855
0.72851263
0.72545444
0.72256032
0.71984192
0.71730649
0.71495733
0.71279432
0.71081448
0.70901256
0.70738154
0.7059132
0.70459847
0.70342786
0.70239171
0.7014804
0.70068454
0.69999512
0.69940351
0.69890163
0.69848185
0.69813711
0.69786082
0.69764693
0.69748991
0.69738481
0.69732651
0.69731138
0.69733496
0.69739346
0.69748613
0.69760535
0.69775408
0.69792467
0.69811968
0.69833545
0.69856983
0.69882207
0.69908982
0.69937242
0.69966853
0.76853459
0.76537684
0.76201827
0.75848806
0.75481987
0.75105104
0.74722157
0.74337287
0.7395463
0.73578167
0.73211579
0.7285812
0.72520525
0.72200961
0.71901008
0.71621685
0.71363503
0.71126526
0.70910452
0.7071468
0.70538384
0.70380584
0.70240194
0.70116074
0.70007066
0.69912021
0.69829823
0.69759403
0.69699746
0.69649902
0.69608987
0.69576182
0.69550723
0.69531922
0.69519143
0.69511805
0.69509459
0.69511486
0.69517458
0.69527244
0.69540031
0.69556046
0.6957448
0.69595592
0.69618894
0.69644193
0.69671317
0.69700097
0.69730407
0.69762089
0.69795041
0.69829158
0.76840753
0.76496686
0.76130158
0.75744682
0.75344334
0.74933643
0.74517437
0.74100676
0.73688246
0.73284769
0.72894411
0.72520747
0.72166661
0.71834313
0.71525147
0.71239946
0.70978919
0.70741788
0.70527887
0.70336257
0.70165733
0.70015019
0.69882748
0.69767531
0.69667995
0.69582808
0.695107
0.69450475
0.69401017
0.69361291
0.69330351
0.69307328
0.69291406
0.69281881
0.69278091
0.6927946
0.69285428
0.69295602
0.69309234
0.69326379
0.69346323
0.69369168
0.69394419
0.69421826
0.69451165
0.69482244
0.69514897
0.69548971
0.69584336
0.69620863
0.69658449
0.69697001
0.76826861
0.76451694
0.7605136
0.75630109
0.751929
0.74745236
0.74292958
0.73841994
0.73398098
0.72966584
0.72552116
0.72158545
0.71788828
0.7144502
0.7112832
0.70839173
0.70577386
0.70342249
0.70132665
0.69947262
0.69784495
0.69642726
0.69520289
0.69415539
0.69326885
0.69252815
0.69191913
0.69142864
0.69104461
0.69075594
0.69055261
0.69042573
0.69036634
0.69036771
0.69042241
0.6905253
0.69067202
0.69085341
0.69106875
0.69131523
0.69158937
0.69188685
0.69220522
0.69254217
0.69289563
0.6932638
0.6936451
0.69403813
0.69444167
0.69485461
0.69527599
0.695705
0.76811651
0.76402236
0.75964569
0.75503822
0.75026049
0.74537961
0.74046622
0.73559107
0.73082143
0.7262179
0.72183182
0.71770375
0.71386288
0.71032743
0.70710569
0.70419747
0.70159572
0.69928813
0.69725872
0.69548914
0.69395977
0.69265061
0.69154192
0.69061463
0.68985073
0.68923337
0.68874699
0.68837742
0.68811186
0.6879384
0.68784665
0.6878282
0.68787211
0.68797227
0.68812455
0.68831667
0.68854925
0.68881347
0.68911136
0.68943443
0.68978065
0.69014696
0.69053089
0.69093028
0.69134321
0.69176804
0.69220331
0.69264776
0.69310029
0.69355993
0.69402583
0.69449729
0.76794974
0.76347764
0.75868784
0.75364355
0.74841906
0.74309635
0.73776086
0.73249671
0.72738202
0.72248498
0.71786107
0.71355173
0.7095843
0.70597311
0.70272122
0.6998224
0.69726332
0.69502557
0.69308747
0.6914256
0.6900159
0.68883461
0.68785886
0.68706704
0.68643912
0.68595664
0.68560276
0.6853625
0.68522261
0.68517015
0.68519482
0.68528791
0.68543983
0.68563978
0.68588916
0.68617282
0.68649537
0.68684601
0.68722301
0.68762197
0.6880401
0.68847474
0.68892358
0.68938463
0.68985617
0.69033668
0.69082488
0.69131967
0.69182008
0.69232528
0.69283453
0.69334724
0.76776655
0.76287639
0.75762833
0.75210005
0.74638304
0.74057771
0.73478728
0.72911127
0.72363955
0.71844767
0.71359418
0.70911973
0.70504795
0.70138738
0.69813406
0.69527423
0.69278708
0.69064723
0.68882672
0.68729665
0.68602835
0.68499426
0.68416842
0.68352679
0.6830475
0.68271069
0.68249833
0.68239478
0.68238709
0.68245981
0.68260458
0.68281469
0.68307222
0.68337657
0.68372347
0.6841047
0.68451532
0.68495031
0.68540664
0.68588086
0.68637024
0.68687237
0.68738515
0.6879068
0.68843578
0.68897077
0.68951066
0.6900545
0.69060149
0.69115093
0.69170222
0.69225489
0.76756494
0.76221114
0.75645341
0.75038775
0.74412736
0.73779535
0.73151616
0.72540679
0.7195694
0.71408616
0.70901693
0.70439937
0.70025104
0.69657245
0.69335064
0.69056276
0.68817935
0.68616724
0.68449168
0.68311803
0.68201293
0.68114506
0.68048555
0.68000807
0.67968921
0.67950804
0.6794452
0.67948461
0.67961356
0.67981812
0.68008316
0.68041052
0.68077734
0.68119091
0.68163755
0.68211249
0.68261133
0.68312986
0.6836649
0.68421346
0.68477304
0.68534148
0.68591693
0.68649784
0.68708287
0.68767092
0.68826104
0.68885248
0.68944459
0.69003682
0.69062872
0.69121993
0.76734254
0.76147302
0.75514679
0.7484832
0.74162283
0.73471681
0.72791465
0.72135277
0.71514562
0.70938044
0.70411589
0.6993838
0.69519279
0.69153276
0.68837965
0.68569992
0.68345437
0.68160131
0.68009882
0.6789064
0.67798606
0.67730286
0.67682534
0.67652496
0.67637727
0.67636084
0.67645345
0.6766413
0.67691324
0.67724702
0.677639
0.67808328
0.6785677
0.67908606
0.67963174
0.68019987
0.68078628
0.6813873
0.68199992
0.68262153
0.6832499
0.68388317
0.68451976
0.68515835
0.68579784
0.68643732
0.68707607
0.68771349
0.68834911
0.7670966
0.76065151
0.75368905
0.74635858
0.73883535
0.73130487
0.72394596
0.71691601
0.71034091
0.70431044
0.69887869
0.69406802
0.6898747
0.68627519
0.68323217
0.68069985
0.67862828
0.67696668
0.67566578
0.67467926
0.67396463
0.67348367
0.67320284
0.67309124
0.67312451
0.67327874
0.673536
0.67387347
0.67428778
0.6747564
0.67528077
0.67584553
0.67644231
0.67706547
0.67770945
0.67836973
0.67904252
0.67972459
0.68041326
0.68110628
0.68180174
0.6824981
0.68319404
0.68388852
0.68458067
0.68526981
0.68595541
0.68663708
0.6873145
0.76682385
0.75973393
0.75205685
0.74398074
0.73572487
0.72751673
0.71956883
0.71206038
0.70512669
0.69885632
0.69329435
0.68844915
0.6843008
0.68080927
0.6779218
0.67557891
0.67371905
0.67228203
0.67121122
0.6704547
0.66996587
0.66970345
0.669633
0.6697194
0.669942
0.67027572
0.67069503
0.67119035
0.67174717
0.67236074
0.6730132
0.67369711
0.67440535
0.6751324
0.6758734
0.67662431
0.67738181
0.67814311
0.67890594
0.67966841
0.68042899
0.68118643
0.68193974
0.68268813
0.68343099
0.68416787
0.68489845
0.68562252
0.68633994
0.76652041
0.75870493
0.75022188
0.74130986
0.7322441
0.72330298
0.71473689
0.70674652
0.69947306
0.69299865
0.68735351
0.68252675
0.67847793
0.67514737
0.67246476
0.6703557
0.66874643
0.66756733
0.66675464
0.66625131
0.66600714
0.66597933
0.66612763
0.66642317
0.66684308
0.66735312
0.66794279
0.66859909
0.66930957
0.6700597
0.67083957
0.67164179
0.67246009
0.67328945
0.67412564
0.6749652
0.67580531
0.67664367
0.67747844
0.67830815
0.67913162
0.67994794
0.68075645
0.68155662
0.68234811
0.6831307
0.68390428
0.68466882
0.68542439
0.76618158
0.75754569
0.74814949
0.73829782
0.72833697
0.7186064
0.70939787
0.70093149
0.69334886
0.68671857
0.68104882
0.67630321
0.67241607
0.66930492
0.66687998
0.66505105
0.66373186
0.66284368
0.6623162
0.66208789
0.662106
0.66232287
0.6627059
0.66321366
0.6638293
0.66452526
0.66529324
0.66611331
0.66697145
0.66785777
0.66876374
0.66968264
0.67060903
0.67153853
0.67246761
0.6733934
0.67431365
0.67522658
0.67613081
0.67702527
0.6779092
0.67878204
0.67964341
0.68049311
0.68133103
0.68215721
0.68297173
0.68377477
0.68456657
0.76580171
0.7562329
0.74579684
0.7348859
0.72393655
0.71336034
0.70349253
0.69456823
0.68672149
0.67999802
0.67437523
0.66978413
0.66612872
0.66330062
0.66118917
0.65968796
0.65869831
0.65813316
0.65791653
0.65798284
0.6582764
0.6587547
0.65936973
0.66010141
0.66091686
0.66180985
0.66275346
0.66373302
0.66473772
0.66575875
0.66678878
0.66782205
0.66885396
0.66988092
0.67090011
0.67190934
0.67290693
0.67389166
0.6748626
0.67581916
0.67676095
0.67768777
0.67859957
0.67949643
0.68037852
0.68124608
0.68209944
0.68293895
0.68376504
0.76537385
0.75473732
0.7431104
0.731002
0.71896245
0.70748674
0.69695318
0.68760467
0.67955661
0.67281986
0.66733051
0.66297892
0.65963326
0.65715669
0.65541684
0.65429159
0.6536701
0.65345856
0.65357525
0.6539537
0.65453998
0.65527647
0.6561422
0.65709283
0.65812661
0.65920941
0.66032565
0.66146315
0.66261234
0.66376565
0.66491698
0.66606164
0.66719597
0.66831724
0.66942339
0.67051292
0.67158478
0.67263829
0.67367303
0.67468884
0.67568574
0.6766639
0.67762359
0.67856518
0.67948909
0.6803958
0.68128585
0.68215978
0.6830182
0.7648894
0.75302176
0.74002246
0.72655667
0.71331735
0.7008932
0.68970282
0.67998511
0.67182081
0.66517068
0.65991723
0.65590165
0.6529514
0.65089904
0.64959029
0.64888909
0.64867267
0.64884117
0.64931382
0.65002264
0.65089836
0.65191701
0.65302318
0.65421675
0.65545736
0.6567279
0.65801484
0.65930768
0.66059836
0.66188068
0.66314988
0.66440237
0.66563556
0.66684758
0.66803719
0.6692036
0.6703464
0.67146546
0.6725609
0.67363299
0.67468216
0.67570893
0.6767139
0.67769772
0.67866108
0.67960468
0.68052926
0.68143554
0.68232431
0.76433762
0.75103815
0.73644632
0.72143789
0.70688221
0.69347202
0.68165796
0.67165462
0.66348614
0.65704462
0.65214563
0.64857307
0.64610996
0.64455755
0.64373945
0.64350956
0.64372946
0.64430673
0.64515544
0.64619131
0.6473861
0.64867163
0.65004803
0.65146894
0.65291475
0.6543706
0.6558251
0.65726967
0.65869797
0.6601053
0.66148828
0.66284456
0.66417258
0.66547145
0.66674072
0.66798034
0.66919056
0.67037182
0.67152473
0.67265002
0.67374852
0.67482111
0.67586871
0.67689225
0.67789267
0.67887088
0.67982781
0.68076439
0.68168156
0.76370485
0.74872324
0.73226938
0.71550367
0.69951353
0.6851026
0.67273241
0.6625628
0.65453321
0.64844593
0.6440358
0.64102236
0.63914179
0.63816607
0.637901
0.638176
0.63887076
0.63988037
0.64110189
0.64250061
0.64399446
0.64558216
0.64721021
0.64885648
0.65050439
0.65214173
0.6537595
0.65535126
0.6569125
0.65844018
0.65993234
0.66138789
0.66280639
0.66418788
0.66553277
0.66684176
0.66811572
0.66935568
0.67056274
0.67173809
0.67288294
0.67399853
0.67508607
0.6761468
0.67718189
0.67819244
0.67917958
0.68014441
0.68108803
0.76297343
0.74599215
0.72734312
0.70857503
0.6910429
0.67565361
0.66284105
0.65266777
0.64495464
0.63939137
0.63561906
0.63328777
0.63208624
0.63176701
0.63209798
0.63292783
0.63412498
0.63556399
0.63720116
0.63893818
0.64077233
0.6426405
0.64451757
0.64638536
0.64823073
0.65004445
0.65182016
0.65355371
0.65524253
0.6568853
0.65848156
0.6600315
0.66153579
0.66299546
0.66441175
0.6657861
0.66712002
0.6684151
0.66967294
0.67089515
0.67208335
0.67323908
0.67436391
0.6754593
0.67652667
0.67756731
0.67858252
0.67957358
0.68054175
0.76212004
0.74272824
0.72146995
0.70042918
0.68127596
0.66498646
0.65190507
0.64194116
0.63475875
0.62991258
0.62693905
0.62541698
0.62499398
0.62538808
0.62637778
0.62779737
0.62949437
0.63141381
0.63343789
0.63556075
0.63771011
0.63985532
0.64197662
0.6440603
0.64609705
0.64808089
0.65000828
0.65187743
0.65368786
0.65543998
0.65713486
0.65877399
0.66035917
0.66189238
0.66337571
0.6648113
0.66620132
0.66754789
0.6688531
0.67011898
0.6713475
0.67254056
0.67369999
0.67482755
0.67592486
0.67699337
0.67803455
0.67904987
0.68004072
0.76111293
0.73876721
0.71438638
0.6907916
0.66999345
0.65296155
0.63985924
0.63037399
0.62397342
0.62005812
0.61805245
0.61746606
0.61790484
0.61908798
0.62077941
0.62278705
0.62504485
0.62741197
0.62987671
0.63235814
0.6348176
0.63723379
0.63959249
0.64188481
0.64410555
0.6462522
0.64832414
0.65032206
0.6522476
0.65410293
0.65589064
0.65761353
0.65927449
0.66087647
0.66242237
0.66391504
0.66535726
0.66675167
0.66810083
0.66940719
0.67067305
0.67190064
0.67309205
0.67424929
0.67537424
0.67646843
0.67753353
0.67857119
0.67958291
0.75990714
0.73387354
0.70574142
0.6793283
0.65695619
0.63944813
0.6266611
0.61798309
0.61264975
0.60989511
0.6090292
0.60949215
0.61088347
0.61291641
0.61530625
0.61797458
0.62075662
0.62363136
0.62650909
0.62934064
0.6321028
0.63478157
0.63736892
0.63986113
0.6422573
0.64455853
0.64676719
0.64888652
0.65092023
0.6528723
0.65474682
0.65654784
0.65827938
0.65994527
0.66154923
0.66309478
0.66458529
0.66602391
0.66741364
0.6687573
0.67005756
0.67131691
0.67253771
0.67372221
0.75843622
0.727702
0.69506645
0.66564167
0.64191627
0.62433834
0.61230208
0.60481766
0.60086498
0.59951013
0.59994368
0.601574
0.60399486
0.60687894
0.6100507
0.61333899
0.61671084
0.62006841
0.62334501
0.62651736
0.62957197
0.63250273
0.63530831
0.63799032
0.64055235
0.64299914
0.64533612
0.64756902
0.64970366
0.65174576
0.65370088
0.65557433
0.65737113
0.65909605
0.66075355
0.66234779
0.66388271
0.66536194
0.6667889
0.66816676
0.66949851
0.67078692
0.67203459
0.67324397
0.7565949
0.71973348
0.6817397
0.64927476
0.62463692
0.6075659
0.59681982
0.59096532
0.58872441
0.58900099
0.59089103
0.59380328
0.59724228
0.6010907
0.60499173
0.60896782
0.61291501
0.6167314
0.62039503
0.62389544
0.62722963
0.63039986
0.6334117
0.63627231