/*--------------------------------*- C++ -*----------------------------------*\
| =========                 |                                                 |
| \\      /  F ield         | OpenFOAM: The Open Source CFD Toolbox           |
|  \\    /   O peration     | Version:  2312                                  |
|   \\  /    A nd           | Website:  www.openfoam.com                      |
|    \\/     M anipulation  |                                                 |
\*---------------------------------------------------------------------------*/
FoamFile
{
    version     2.0;
    format      ascii;
    arch        "LSB;label=32;scalar=64";
    class       volScalarField;
    location    "0.08";
    object      nut;
}
// * * * * * * * * * * * * * * * * * * * * * * * * * * * * * * * * * * * * * //

dimensions      [0 2 -1 0 0 0 0];

internalField   nonuniform List<scalar> 
3221
(
0.024423841
0.024383607
0.024352916
0.024331529
0.024319145
0.024315421
0.024319973
0.024332386
0.024352215
0.024378991
0.024412228
0.024451429
0.024496091
0.024545714
0.024599805
0.024657888
0.024719508
0.024784234
0.024851667
0.024921442
0.024993231
0.025066742
0.025141721
0.025217954
0.025295262
0.025373501
0.025452558
0.025532301
0.025612641
0.025693759
0.0257755
0.02585786
0.025940848
0.026024483
0.026108788
0.026193791
0.02627952
0.026366004
0.026453271
0.026541346
0.02663025
0.026720003
0.02681062
0.026902113
0.026994492
0.027087763
0.027181929
0.027276995
0.027372963
0.027469838
0.027567624
0.027666332
0.024423963
0.024384022
0.024353597
0.024332434
0.024320227
0.024316628
0.02432125
0.024333675
0.024353454
0.024380119
0.024413181
0.024452146
0.024496511
0.024545779
0.024599465
0.024657097
0.024718223
0.024782419
0.024849293
0.024918486
0.024989677
0.025062582
0.025136955
0.025212589
0.025289313
0.025366991
0.025445519
0.025524719
0.025604657
0.025685371
0.025766758
0.025848821
0.02593157
0.026015024
0.026099209
0.02618415
0.026269875
0.026356411
0.026443784
0.026532014
0.026621121
0.026711119
0.02680202
0.026893831
0.026986556
0.027080199
0.027174758
0.027270231
0.027366615
0.027463906
0.027562104
0.027661231
0.024424234
0.024384797
0.0243548
0.024333987
0.024322047
0.024318622
0.02432332
0.024335712
0.024355345
0.024381746
0.024414426
0.024452891
0.024496644
0.024545193
0.024598061
0.024654788
0.02471494
0.02477811
0.024843921
0.024912022
0.024982099
0.025053886
0.025127151
0.0252017
0.025277379
0.025354062
0.025431659
0.02550994
0.025589199
0.025669243
0.025750065
0.02583167
0.025914073
0.025997295
0.026081358
0.026166288
0.026252108
0.026338841
0.026426505
0.026515116
0.026604684
0.026695216
0.026786715
0.02687918
0.026972607
0.027066988
0.027162316
0.027258578
0.027355765
0.027453865
0.027552872
0.027652806
0.024424646
0.024385966
0.024356605
0.024336305
0.024324749
0.024321572
0.02432637
0.024338707
0.024358123
0.024384141
0.02441627
0.024454019
0.024496896
0.02454442
0.024596128
0.024651574
0.024710343
0.024772048
0.024836338
0.024902896
0.024971444
0.02504172
0.025113497
0.025186607
0.025260912
0.02533631
0.025412612
0.025489948
0.025568279
0.025647538
0.025727727
0.025808857
0.025890945
0.02597401
0.026058074
0.026143157
0.026229275
0.026316442
0.026404667
0.026493953
0.026584299
0.026675701
0.026768148
0.026861626
0.026956118
0.027051605
0.027148067
0.027245481
0.027343827
0.027443083
0.027543235
0.027644295
0.024425189
0.024387507
0.024358983
0.024339351
0.024328288
0.024325419
0.024330332
0.024342584
0.024361709
0.024387227
0.024418649
0.024455487
0.024497261
0.024543503
0.024593765
0.024647625
0.024704692
0.024764606
0.024827045
0.024891724
0.024958397
0.025026855
0.025096915
0.025168389
0.025241161
0.02531506
0.025390148
0.025466439
0.025543852
0.025622384
0.025702043
0.025782845
0.025864806
0.025947943
0.026032269
0.026117796
0.026204528
0.026292467
0.026381605
0.026471932
0.02656343
0.026656076
0.026749845
0.026844705
0.026940624
0.027037569
0.027135502
0.02723439
0.027334199
0.027434897
0.027536458
0.027638888
0.024425857
0.024389408
0.024361917
0.024343107
0.024332645
0.024330148
0.024335195
0.024347337
0.024366105
0.024391019
0.024421595
0.024457355
0.024497832
0.024542578
0.024591168
0.024643208
0.024698338
0.024756234
0.024816609
0.024879217
0.024943849
0.025010331
0.025078525
0.025148323
0.025219493
0.025292076
0.025366081
0.02544143
0.025518124
0.025596169
0.025675581
0.025756371
0.025838553
0.025922134
0.026007117
0.026093498
0.026181265
0.026270399
0.026360876
0.026452663
0.026545721
0.026640009
0.026735479
0.026832082
0.026929767
0.027028483
0.027128178
0.027228802
0.027330309
0.027432656
0.027535807
0.027639758
0.024426645
0.024391653
0.024365386
0.024347549
0.024337795
0.024335733
0.024340935
0.024352948
0.024371304
0.024395526
0.024425143
0.024459689
0.02449872
0.024541812
0.024588572
0.024638643
0.024691703
0.024747469
0.024805699
0.02486619
0.024928777
0.024993327
0.025059736
0.025127822
0.025197718
0.02526928
0.025342434
0.025417186
0.025493547
0.025571529
0.025651144
0.0257324
0.025815297
0.025899829
0.025985979
0.026073722
0.026163024
0.026253842
0.026346126
0.026439819
0.026534859
0.026631178
0.026728708
0.026827379
0.026927119
0.02702786
0.027129534
0.027232077
0.02733543
0.027439538
0.027544358
0.027649877
0.024427547
0.024394231
0.02436937
0.024352648
0.024343706
0.024342141
0.024347522
0.024359395
0.024377297
0.024400763
0.024429336
0.024462576
0.024500065
0.024541415
0.024586273
0.024634325
0.024685297
0.024738956
0.024795108
0.0248536
0.024914313
0.024977167
0.025041916
0.02510886
0.0251778
0.025248722
0.025321521
0.02539621
0.025472804
0.025551314
0.025631742
0.025714082
0.025798314
0.025884409
0.025972324
0.026062007
0.026153394
0.026246413
0.026340985
0.026437025
0.026534442
0.026633145
0.026733041
0.026834039
0.026936048
0.027038983
0.02714276
0.027247303
0.027352542
0.027458414
0.027564869
0.027671887
0.024428559
0.024397127
0.024373844
0.024358373
0.024350339
0.024349333
0.02435492
0.024366652
0.024384078
0.02440675
0.024434237
0.02446613
0.02450205
0.024541654
0.024584639
0.024630742
0.024679746
0.024731473
0.024785783
0.024842576
0.024901761
0.024963193
0.025027109
0.025093347
0.025161899
0.025232763
0.025305893
0.025381231
0.025458789
0.025538568
0.025620551
0.025704707
0.025790987
0.02587933
0.02596966
0.026061891
0.026155923
0.026251651
0.026348964
0.026447746
0.026547879
0.026649246
0.026751731
0.026855222
0.026959611
0.027064798
0.027170688
0.027277194
0.02738424
0.027491756
0.027599687
0.027708014
0.024429676
0.024400326
0.024378783
0.024364688
0.024357653
0.024357264
0.024363091
0.024374696
0.024391647
0.024413525
0.024439934
0.024470508
0.024504917
0.024542875
0.024584135
0.0246285
0.024675813
0.02472596
0.024778853
0.024834355
0.024892567
0.024953514
0.025017133
0.025083426
0.025152396
0.025224038
0.025298335
0.025375183
0.025454575
0.025536484
0.025620863
0.025707642
0.025796737
0.025888044
0.025981448
0.02607682
0.026174025
0.02627292
0.02637336
0.026475198
0.026578291
0.026682496
0.026787678
0.026893708
0.027000464
0.027107834
0.027215716
0.027324019
0.02743266
0.02754157
0.027650696
0.027760018
0.024430892
0.024403808
0.024384154
0.024371551
0.0243656
0.024365889
0.024371997
0.024383509
0.024400021
0.024421153
0.024446558
0.024475925
0.024508986
0.02454552
0.024585351
0.024628349
0.024674426
0.024723558
0.024775467
0.024830613
0.024888757
0.024949944
0.025014192
0.025081512
0.025151902
0.025225344
0.025301801
0.025381153
0.025463356
0.025548341
0.025636014
0.025726259
0.025818943
0.025913914
0.02601101
0.026110059
0.026210886
0.026313312
0.026417158
0.026522251
0.02662842
0.026735507
0.026843357
0.026951831
0.027060799
0.027170142
0.027279756
0.027389549
0.027499442
0.02760937
0.027719282
0.027829166
0.024432198
0.024407554
0.024389925
0.024378918
0.024374132
0.024375162
0.024381609
0.024393089
0.024409242
0.02442974
0.024454298
0.024482674
0.024514675
0.024550157
0.024589023
0.024631214
0.024676671
0.024725375
0.024777574
0.024833174
0.024892213
0.024954726
0.025020738
0.025090246
0.025163228
0.025239631
0.025319376
0.025402327
0.025488387
0.025577431
0.025669307
0.025763842
0.025860845
0.025960113
0.026061434
0.026164592
0.026269372
0.02637556
0.026482951
0.026591346
0.026700558
0.026810412
0.026920748
0.027031418
0.027142291
0.02725325
0.027364194
0.027475037
0.027585709
0.027696151
0.027806327
0.027916232
0.024433587
0.024411539
0.024396058
0.024386743
0.024383199
0.024385042
0.024391908
0.024403457
0.02441939
0.024439446
0.024463417
0.024491144
0.024522523
0.024557499
0.024596063
0.024638056
0.024683859
0.024733421
0.02478679
0.024844036
0.024905211
0.024970346
0.025039442
0.025112466
0.025189348
0.025269981
0.025354224
0.025441918
0.025532899
0.025626971
0.025723915
0.025823491
0.025925449
0.026029531
0.026135476
0.026243027
0.026351932
0.026461951
0.026572856
0.026684431
0.02679648
0.026908822
0.027021295
0.027133754
0.027246074
0.027358147
0.027469882
0.027581206
0.027692061
0.027802407
0.027912218
0.028021509
0.024435049
0.024415737
0.024402513
0.024394978
0.024392757
0.024395502
0.024402898
0.024414671
0.024430596
0.024450502
0.024474271
0.024501843
0.024533212
0.024568426
0.02460732
0.024650494
0.024697778
0.024749307
0.024805185
0.024865488
0.024930259
0.024999498
0.02507316
0.025151153
0.025233338
0.025319531
0.025409508
0.025503082
0.025600005
0.025700002
0.025802777
0.025908021
0.026015425
0.026124675
0.026235469
0.026347513
0.02646053
0.026574258
0.026688456
0.026802905
0.026917406
0.027031782
0.02714588
0.027259567
0.02737273
0.027485279
0.027597141
0.027708261
0.027818601
0.027928142
0.028036876
0.028144847
0.024436572
0.024420119
0.024409247
0.024403576
0.024402767
0.024406526
0.02441461
0.02442683
0.024443058
0.024463228
0.024487335
0.024515426
0.024547502
0.024583805
0.024624624
0.024670015
0.024720132
0.024775117
0.024835073
0.024900057
0.024970069
0.025045048
0.025124875
0.025209369
0.025298297
0.025391379
0.025488291
0.025588813
0.0256926
0.025799286
0.025908499
0.026019862
0.026133008
0.026247581
0.026363241
0.02647967
0.026596575
0.026713686
0.026830762
0.026947589
0.027063978
0.027179768
0.027294823
0.02740903
0.027522302
0.027634569
0.027745786
0.027855921
0.027964963
0.028072922
0.028179781
0.028285734
0.024438144
0.024424654
0.024416219
0.024412495
0.024413204
0.024418128
0.024427119
0.024440097
0.024457054
0.024478055
0.024503221
0.02453248
0.02456652
0.024605375
0.024649264
0.024698409
0.024752999
0.024813169
0.024878992
0.024950466
0.025027512
0.025109974
0.025197624
0.025290165
0.025387248
0.025488479
0.025593435
0.025701843
0.025813251
0.025927204
0.026043255
0.026160967
0.026279925
0.026399742
0.026520054
0.026640535
0.026760887
0.026880849
0.027000191
0.027118717
0.027236262
0.02735269
0.027467894
0.027581791
0.027694322
0.027805452
0.027915167
0.028023464
0.02813035
0.028235942
0.028340172
0.028443135
0.024439752
0.02442931
0.024423389
0.024421703
0.02442406
0.02443035
0.024440545
0.024454703
0.024472958
0.02449553
0.024522361
0.024554417
0.02459166
0.024634436
0.024683046
0.024737738
0.024798692
0.024866001
0.024939665
0.025019582
0.025105552
0.025197286
0.025294412
0.025396493
0.025503039
0.025613526
0.025727491
0.025844535
0.025964105
0.026085665
0.026208703
0.026332738
0.026457325
0.026582057
0.026706568
0.026830537
0.02695368
0.027075759
0.027196571
0.027315951
0.027433769
0.027549926
0.027664352
0.027777005
0.027887862
0.027996921
0.02810422
0.02820979
0.028313731
0.028415953
0.028516647
0.028615901
0.02444138
0.024434057
0.02443072
0.024431178
0.024435354
0.024443277
0.024455076
0.024470972
0.024491188
0.024516048
0.024546338
0.024582276
0.024624281
0.024672749
0.024728009
0.024790296
0.024859736
0.024936329
0.025019951
0.025110352
0.025207168
0.025309936
0.025418114
0.025531098
0.025648244
0.025768887
0.025892617
0.026018798
0.0261468
0.026276027
0.026405923
0.026535979
0.026665741
0.026794805
0.026922822
0.027049493
0.027174568
0.027297847
0.027419168
0.027538412
0.027655495
0.027770364
0.027882996
0.027993397
0.02810159
0.028207575
0.02831164
0.028413482
0.028513416
0.028611496
0.028707839
0.028802578
0.024443015
0.024438864
0.024438185
0.024440915
0.024447133
0.024457045
0.024470969
0.024489154
0.024512284
0.02454108
0.024575943
0.02461744
0.024666085
0.024722306
0.024786417
0.024858588
0.024938829
0.025026993
0.025122773
0.025225718
0.025335257
0.02545072
0.025571367
0.025696414
0.025825064
0.02595661
0.026090511
0.026226008
0.026362401
0.026499047
0.02663537
0.026770861
0.026905077
0.027037643
0.027168245
0.027296629
0.027422597
0.027546
0.027666735
0.027784738
0.027899982
0.028012468
0.028122222
0.028229319
0.02833387
0.028435898
0.028535464
0.028632731
0.028727837
0.02882091
0.028912089
0.029001537
0.024444642
0.024443705
0.024445765
0.024450932
0.024459485
0.024471849
0.024488323
0.024509936
0.024537411
0.024571357
0.024612506
0.024661532
0.024718998
0.02478532
0.024860735
0.02494528
0.025038787
0.025140888
0.025251034
0.025368525
0.025492539
0.025622171
0.025756468
0.02589446
0.0260352
0.02617809
0.026322272
0.026466935
0.026611343
0.026754841
0.026896861
0.027036921
0.027174617
0.027309626
0.027441692
0.027570625
0.027696295
0.027818621
0.027937569
0.028053142
0.02816538
0.028274348
0.02838009
0.028482995
0.028582702
0.028679642
0.028773918
0.028865686
0.028955111
0.029042359
0.029127601
0.029211025
0.024446245
0.024448558
0.024453456
0.024461275
0.024472544
0.024487647
0.024507924
0.024534182
0.024567258
0.024608093
0.024657558
0.024716394
0.024785162
0.024864198
0.024953588
0.025053156
0.025162473
0.025280881
0.025407531
0.02554142
0.025681449
0.025826459
0.02597528
0.026126756
0.026280012
0.026434211
0.026588393
0.026741709
0.026893417
0.027042885
0.027189585
0.027333089
0.027473062
0.027609256
0.027741495
0.027869672
0.027993739
0.028113695
0.028229585
0.028341493
0.028449526
0.028553865
0.028654649
0.028751903
0.028845897
0.028936838
0.029024913
0.029110319
0.029193252
0.029273911
0.029352497
0.029429223
0.024447813
0.024453408
0.024461272
0.024472022
0.024486149
0.024505273
0.024530363
0.024562513
0.024602918
0.024652698
0.024712831
0.024784074
0.02486691
0.02496151
0.025067714
0.02518504
0.025312716
0.025449721
0.025594845
0.025746752
0.025904039
0.026065294
0.02622915
0.026394356
0.026560071
0.026725182
0.026888708
0.027049808
0.027207775
0.027362034
0.027512133
0.027657729
0.027798584
0.027934544
0.028065535
0.028191548
0.02831263
0.028428871
0.028540399
0.02864739
0.028750176
0.028848646
0.028943147
0.029033928
0.029121219
0.029205258
0.029286282
0.029364524
0.029440217
0.02951359
0.02958487
0.029654293
0.024449336
0.024458254
0.024469249
0.024482922
0.024501133
0.024525089
0.02455617
0.024595879
0.024645653
0.02470677
0.024780256
0.024866808
0.024966735
0.025079935
0.025205894
0.025343726
0.025492224
0.025649937
0.025815251
0.025986469
0.026161883
0.02633984
0.02651879
0.026697717
0.02687535
0.027050565
0.027222404
0.027390077
0.027552957
0.027710566
0.027862558
0.028008708
0.028148895
0.028283085
0.028411319
0.028533699
0.028650377
0.028761547
0.028867398
0.028968499
0.029064498
0.029156017
0.029243309
0.029326655
0.029406337
0.029482634
0.029555825
0.02962618
0.029693961
0.029759427
0.029822826
0.029884418
0.024450814
0.024463106
0.024477073
0.024494762
0.024517675
0.024547509
0.024586135
0.024635378
0.024696902
0.024772091
0.024861942
0.024966987
0.025087241
0.025222201
0.025370881
0.025531881
0.02570348
0.025883741
0.026070614
0.026262035
0.026456009
0.026650671
0.026844647
0.027036584
0.027225159
0.027409272
0.027588036
0.027760763
0.027926946
0.02808624
0.028238441
0.028383466
0.028521332
0.028652142
0.028776064
0.028893322
0.02900418
0.029108975
0.029208129
0.029301604
0.029389944
0.029473508
0.029552634
0.029627656
0.029698906
0.029766705
0.029831366
0.029893192
0.029952475
0.030009496
0.030064525
0.030117837
0.024452272
0.024467631
0.024485466
0.024507592
0.02453606
0.02457316
0.02462118
0.024682267
0.024758274
0.024850616
0.024960154
0.025087119
0.025231087
0.025391012
0.025565307
0.025751956
0.025948651
0.026152929
0.0263623
0.02657435
0.026786833
0.026997945
0.027206186
0.02741001
0.027608147
0.027799591
0.02798358
0.028159577
0.028327237
0.028486383
0.02863698
0.028779109
0.028912944
0.029038735
0.029156789
0.029267455
0.029371225
0.02946842
0.029559227
0.029644244
0.02972388
0.029798544
0.029868634
0.029934537
0.029996627
0.030055262
0.030110789
0.030163539
0.030213826
0.030261953
0.030308207
0.030352876
0.02445349
0.02447248
0.024494387
0.024521566
0.024556752
0.024602772
0.024662355
0.024737951
0.024831537
0.024944451
0.025077275
0.025229775
0.02540092
0.025588965
0.025791594
0.026006082
0.026229484
0.026458797
0.026691106
0.026923693
0.027154246
0.02738104
0.027602255
0.027816411
0.028022357
0.028219245
0.028406497
0.028583769
0.028750918
0.028907966
0.02905507
0.029192492
0.029320576
0.029439727
0.029550393
0.029653229
0.029748493
0.029836579
0.029918149
0.029993692
0.030063689
0.030128607
0.030188894
0.030244983
0.030297285
0.030346193
0.030392081
0.0304353
0.030476185
0.030515062
0.030552222
0.030587967
0.024454675
0.024477478
0.024503855
0.024536989
0.024580294
0.024637185
0.024710845
0.024803982
0.024918602
0.02505582
0.025215758
0.025397523
0.025599289
0.025818455
0.026051851
0.026295977
0.026547221
0.026802057
0.0270572
0.027309723
0.027557581
0.027798605
0.028031056
0.0282536
0.028465278
0.028665461
0.028853807
0.029030209
0.029194758
0.0293477
0.029489399
0.029620313
0.02974096
0.029851903
0.029953967
0.030047394
0.03013276
0.030210816
0.030282143
0.030347304
0.030406843
0.030461278
0.030511105
0.030556793
0.030598787
0.030637507
0.03067335
0.030706686
0.030737853
0.030767209
0.030795046
0.030821668
0.024455846
0.024482601
0.024514059
0.024554237
0.024607314
0.024677345
0.024767956
0.024882041
0.025021495
0.025187024
0.025378067
0.025592853
0.025828561
0.026081577
0.026347783
0.026622854
0.026902522
0.027182784
0.027460052
0.02773175
0.027995305
0.028248641
0.028490191
0.028718849
0.028933919
0.029135052
0.029322183
0.029495483
0.029655301
0.029802123
0.029936535
0.030059191
0.030170789
0.030272325
0.030364086
0.030446797
0.030521329
0.030588366
0.030648566
0.030702558
0.030750939
0.030794275
0.030833099
0.030867912
0.030899185
0.03092736
0.030952852
0.030976054
0.030997269
0.031016924
0.031035289
0.031052669
0.024456979
0.024487963
0.024525234
0.024573743
0.024638523
0.0247243
0.024835111
0.024973921
0.025142327
0.025340388
0.025566606
0.025818086
0.026090815
0.026380027
0.026680584
0.026987334
0.027295397
0.02760038
0.027898943
0.02818807
0.028465233
0.028728552
0.028976728
0.029208965
0.029424897
0.029624503
0.029808041
0.029975982
0.030128951
0.030267689
0.030393003
0.030505748
0.030607096
0.030697452
0.030777648
0.03084871
0.030911439
0.030966602
0.031014923
0.031057087
0.031093738
0.031125479
0.031152875
0.03117645
0.031196697
0.031214071
0.031228999
0.031241881
0.031253055
0.031262893
0.031271706
0.031279796
0.024458089
0.024493687
0.024537652
0.024596002
0.024674709
0.024779195
0.024913832
0.025081494
0.025283241
0.025518195
0.025783631
0.026075278
0.026387742
0.026714997
0.027050858
0.027389382
0.027725169
0.028053921
0.028372004
0.028676323
0.028964581
0.029235211
0.029487279
0.029720376
0.029934523
0.030130072
0.030307631
0.03046799
0.030612064
0.030740846
0.030855367
0.030956983
0.0310463
0.031124202
0.031191922
0.031250392
0.031300497
0.031343071
0.031378899
0.031408709
0.031433184
0.031452956
0.031468613
0.031480699
0.031489717
0.031496135
0.031500383
0.031502862
0.03150393
0.031503936
0.031503199
0.031502019
0.024459207
0.024499912
0.02455162
0.02462156
0.024716734
0.024843254
0.025005715
0.025206676
0.025446355
0.025722602
0.026031152
0.026366106
0.026720531
0.027087079
0.027458534
0.027828251
0.028190725
0.028541499
0.028876721
0.029193544
0.029490032
0.029765042
0.030018091
0.030249225
0.0304589
0.030647876
0.030817126
0.030967771
0.031101018
0.03121811
0.031320585
0.03140935
0.031485283
0.031549873
0.031604203
0.031649295
0.031686103
0.03171552
0.031738377
0.03175544
0.031767418
0.031774966
0.031778686
0.031779135
0.031776822
0.031772217
0.031765754
0.031757831
0.031748812
0.031739035
0.031728815
0.031718448
0.024460374
0.024506802
0.02456748
0.024651014
0.024765521
0.024917768
0.025112401
0.02535137
0.025633684
0.025955543
0.026310817
0.026691752
0.027089761
0.02749617
0.027902802
0.028302636
0.028690133
0.02906044
0.029409957
0.029736235
0.030037825
0.030314111
0.030565139
0.030791464
0.030994015
0.031173979
0.031332706
0.03147164
0.031592288
0.031696378
0.031785228
0.031859635
0.031921409
0.031971805
0.032011998
0.032043084
0.032066077
0.032081913
0.03209146
0.03209551
0.032094792
0.032089973
0.032081664
0.032070423
0.032056765
0.032041158
0.032024033
0.032005783
0.031986768
0.03196732
0.031947743
0.031928328
0.024461643
0.024514541
0.024585605
0.024685002
0.024822041
0.025004066
0.025235529
0.025517399
0.025847042
0.026218604
0.026623778
0.027052771
0.02749529
0.027941395
0.028382146
0.02881059
0.029220558
0.029607425
0.029968019
0.030300438
0.030603837
0.030878217
0.031124218
0.031342947
0.031535826
0.031704478
0.031850632
0.031976035
0.032082688
0.03217244
0.032245911
0.032305302
0.03235207
0.032387567
0.032413045
0.032429659
0.032438466
0.032440439
0.03243647
0.032427366
0.032413865
0.032396639
0.032376303
0.032353415
0.032328484
0.032301974
0.032274308
0.032245871
0.032217016
0.032188063
0.032159308
0.032131031
0.024463078
0.024523334
0.024606395
0.024724195
0.024887297
0.025103483
0.025376681
0.025706414
0.026087923
0.026512888
0.026970552
0.027448965
0.027936147
0.028420998
0.028894598
0.029349095
0.029778479
0.030178554
0.030546745
0.030881834
0.031183688
0.031452998
0.031691049
0.031899521
0.032080344
0.032235577
0.03236732
0.03247764
0.032569329
0.032642641
0.032700234
0.032743802
0.032774905
0.032794978
0.03280533
0.032807158
0.032801559
0.032789522
0.032771952
0.032749663
0.032723397
0.032693825
0.032661558
0.032627146
0.03259109
0.032553845
0.032515823
0.032477398
0.032438911
0.032400672
0.032362964
0.032326054
0.024464753
0.024533401
0.024630267
0.024769283
0.024962299
0.025217316
0.025537296
0.025919773
0.026357344
0.026838842
0.027350855
0.027879248
0.028410453
0.028932965
0.029436916
0.029914393
0.030359757
0.030769432
0.031141596
0.031475843
0.031772839
0.032034024
0.032261356
0.032457108
0.03262371
0.032763645
0.032879371
0.032973873
0.033048248
0.033104768
0.033145711
0.033172848
0.033187814
0.033192111
0.033187087
0.033173973
0.033153879
0.033127807
0.033096665
0.033061268
0.033022354
0.032980585
0.032936561
0.032890823
0.032843858
0.032796108
0.032747971
0.032699808
0.032651946
0.032604681
0.032558282
0.032513004
0.024466753
0.024544974
0.024657647
0.02482096
0.025048033
0.025346754
0.025718563
0.026158386
0.026655661
0.027196061
0.027763431
0.028341515
0.02891576
0.029473725
0.030005037
0.030502051
0.030959719
0.031375264
0.031747765
0.032077729
0.032366694
0.032616889
0.032830965
0.033011781
0.033162257
0.033285276
0.03338416
0.033460842
0.033517309
0.033556378
0.033580128
0.033590424
0.033588966
0.033577304
0.033556809
0.033528727
0.033494176
0.033454161
0.033409584
0.033361252
0.033309892
0.033256154
0.033200621
0.033143818
0.033086218
0.033028245
0.032970282
0.032912673
0.032855732
0.032799739
0.032744946
0.032691593
0.024469174
0.024558292
0.024688959
0.024879901
0.02514541
0.025492789
0.025921269
0.026422508
0.02698233
0.027583066
0.028205866
0.028832756
0.029448243
0.03003882
0.030594144
0.031107046
0.031573263
0.031990976
0.032360289
0.032682709
0.032960699
0.033197305
0.03339587
0.03355983
0.033692571
0.033797651
0.033878366
0.033936026
0.033974224
0.033995344
0.034001558
0.033994795
0.033976803
0.033949149
0.033913224
0.033870277
0.033821425
0.033767664
0.033709883
0.033648875
0.033585349
0.033519936
0.033453202
0.033385653
0.033317741
0.033249872
0.033182412
0.033115687
0.033049995
0.032985602
0.032922737
0.032861626
0.024472117
0.02457359
0.024724613
0.024946737
0.025255205
0.025656082
0.026145589
0.026711472
0.027335626
0.027997045
0.028674424
0.029348764
0.030002866
0.030622902
0.031198744
0.031723876
0.032194978
0.03261133
0.032974162
0.033286056
0.033550437
0.033771177
0.033952308
0.034097818
0.03421161
0.034298173
0.034358839
0.03439743
0.034416935
0.034419833
0.034408365
0.034384502
0.034350015
0.034306481
0.034255298
0.034197708
0.034134814
0.034067597
0.033996926
0.033923573
0.033848225
0.033771492
0.033693918
0.033615986
0.033538127
0.033460728
0.033384132
0.033308649
0.033234559
0.02447569
0.024591092
0.024764984
0.02502201
0.025377954
0.025836776
0.0263908
0.027023345
0.027712302
0.028433557
0.029164338
0.029883666
0.030573501
0.031219807
0.031812786
0.032346692
0.032819283
0.033231052
0.033584454
0.0338832
0.034131706
0.034334676
0.034496808
0.03462259
0.034717149
0.034783281
0.034823885
0.034843073
0.034843695
0.03482831
0.034799191
0.034758343
0.034707547
0.034648378
0.034582226
0.034510315
0.03443373
0.034353426
0.034270248
0.034184944
0.034098175
0.034010526
0.033922515
0.033834602
0.033747196
0.033660659
0.033575316
0.033491455
0.033409338
0.024479999
0.024610996
0.024810391
0.025106114
0.025513808
0.026034215
0.026654887
0.027354485
0.028107187
0.02888671
0.029668506
0.030430175
0.031152983
0.031822683
0.032429808
0.032969455
0.033440565
0.033844965
0.034186417
0.034469821
0.034700604
0.034884296
0.035026256
0.035131693
0.035206181
0.035251049
0.035271617
0.035271303
0.035253065
0.035219511
0.035172938
0.035115371
0.035048584
0.03497414
0.034893408
0.034807588
0.034717738
0.034624784
0.034529544
0.034432736
0.034334991
0.034236868
0.034138858
0.034041397
0.033944867
0.03384961
0.033755928
0.033664088
0.033574332
0.024485149
0.024633466
0.024861064
0.0251992
0.025662303
0.02624655
0.026934009
0.027698979
0.028512845
0.029347959
0.030177972
0.030979605
0.031733222
0.032424146
0.033043117
0.0335861
0.034053335
0.034448108
0.034775591
0.035041929
0.035253582
0.0354169
0.035537889
0.035623205
0.035675838
0.03569998
0.035700485
0.03568078
0.035643887
0.035592446
0.035528772
0.035454882
0.035372537
0.035283274
0.035188436
0.035089194
0.03498657
0.03488146
0.034774649
0.034666824
0.034558585
0.034450462
0.034342919
0.034236364
0.034131156
0.034027612
0.033926012
0.033826603
0.033729607
0.024491231
0.024658605
0.024917097
0.025301025
0.025822015
0.026470159
0.027221767
0.028047887
0.028919065
0.029806066
0.030681769
0.03152194
0.032305378
0.033016505
0.033646001
0.034190723
0.034652371
0.035035858
0.035347891
0.035595931
0.035787498
0.035929753
0.036029812
0.036094158
0.036124934
0.03612858
0.03610924
0.03607045
0.03601528
0.035946392
0.035866096
0.035776392
0.035679016
0.035575476
0.035467078
0.035354958
0.035240105
0.035123378
0.035005526
0.034887202
0.034768979
0.034651353
0.034534761
0.034419583
0.034306155
0.034194769
0.034085682
0.033979121
0.03387529
0.024498313
0.024686434
0.024978363
0.025410695
0.025990016
0.026698819
0.027508237
0.028388863
0.029311628
0.030246869
0.031166861
0.032045989
0.032860107
0.033592022
0.034231956
0.034777765
0.035232864
0.035604033
0.035899684
0.036128684
0.036299657
0.036420568
0.036500346
0.036542467
0.03655227
0.036535712
0.036496937
0.036439545
0.036366632
0.036280864
0.036184534
0.036079618
0.035967819
0.035850608
0.035729253
0.035604851
0.035478353
0.035350579
0.035222244
0.035093967
0.034966287
0.034839671
0.034714527
0.034591209
0.034470026
0.034351248
0.034235109
0.034121816
0.034011555
0.024506428
0.024716845
0.025044377
0.025526249
0.026161035
0.026922505
0.027778654
0.028704069
0.029672056
0.030653029
0.031618161
0.032539666
0.03338789
0.034143231
0.034794942
0.035342193
0.035790538
0.036148979
0.036427849
0.036637539
0.036787817
0.03688785
0.036947162
0.036967342
0.03695677
0.036920541
0.036862925
0.036787564
0.036697568
0.036595592
0.036483907
0.036364456
0.036238905
0.036108683
0.035975018
0.035838966
0.035701436
0.035563213
0.035424973
0.035287302
0.035150705
0.035015621
0.034882429
0.034751457
0.034622989
0.034497271
0.034374515
0.03425491
0.034138622
0.024515542
0.024749533
0.025114051
0.025643937
0.026326149
0.027125658
0.028022045
0.028989827
0.030000592
0.031024348
0.032031463
0.032992953
0.033879435
0.034663308
0.035329629
0.035879661
0.036321762
0.036667636
0.036929815
0.037120338
0.037250122
0.037330686
0.037368474
0.037368066
0.037337729
0.037282537
0.03720682
0.037114247
0.037007929
0.036890505
0.036764214
0.036630964
0.036492379
0.036349845
0.036204548
0.036057502
0.035909575
0.035761514
0.03561396
0.035467462
0.035322496
0.03517947
0.035038736
0.034900597
0.034765311
0.034633102
0.034504163
0.034378659
0.034256744
0.024525506
0.024783873
0.025185254
0.025756995
0.026470731
0.027305767
0.028240812
0.029248491
0.030299306
0.031362842
0.032408887
0.033407699
0.034329687
0.035146479
0.035831634
0.036386647
0.036823623
0.037157577
0.037403568
0.037575472
0.037685523
0.037747374
0.037763975
0.037743989
0.037694737
0.037621436
0.037528476
0.037419545
0.037297748
0.037165699
0.037025606
0.036879336
0.036728469
0.03657435
0.036418121
0.036260753
0.036103075
0.035945797
0.035789522
0.035634768
0.03548198
0.035331537
0.035183764
0.03503894
0.034897301
0.034759045
0.034624346
0.034493354
0.034366202
0.024535944
0.024818689
0.025254021
0.025853517
0.026596422
0.027466093
0.028437783
0.029482651
0.030570534
0.031670745
0.032752674
0.033786036
0.034740839
0.035587839
0.036297706
0.036860556
0.037293964
0.03761701
0.037847671
0.038001774
0.038093396
0.038136829
0.038133437
0.038094849
0.038027658
0.037937215
0.037827962
0.037703601
0.037567226
0.037421424
0.037268368
0.037109884
0.03694751
0.036782548
0.036616096
0.036449086
0.036282308
0.036116433
0.035952032
0.03578959
0.035629522
0.03547218
0.035317865
0.035166832
0.035019296
0.03487543
0.034735389
0.034599305
0.0344673
0.024546005
0.024851844
0.02531309
0.025934125
0.026706819
0.027609968
0.028615942
0.029694971
0.030816692
0.03195036
0.033065107
0.034130212
0.035115226
0.035990242
0.036725993
0.037299756
0.037731377
0.038044791
0.038261212
0.038398485
0.03847363
0.038498431
0.038476795
0.038420657
0.0383366
0.038230063
0.038105532
0.03796672
0.037816707
0.037658053
0.037492895
0.03732302
0.037149925