/*--------------------------------*- C++ -*----------------------------------*\
| =========                 |                                                 |
| \\      /  F ield         | OpenFOAM: The Open Source CFD Toolbox           |
|  \\    /   O peration     | Version:  2312                                  |
|   \\  /    A nd           | Website:  www.openfoam.com                      |
|    \\/     M anipulation  |                                                 |
\*---------------------------------------------------------------------------*/
FoamFile
{
    version     2.0;
    format      ascii;
    arch        "LSB;label=32;scalar=64";
    class       volScalarField;
    location    "0.08";
    object      omega;
}
// * * * * * * * * * * * * * * * * * * * * * * * * * * * * * * * * * * * * * //

dimensions      [0 0 -1 0 0 0 0];

internalField   nonuniform List<scalar> 
3221
(
446.58348
440.13298
433.89517
427.87367
422.07195
416.49335
411.14096
406.01755
401.12541
396.46625
392.04114
387.85042
383.89361
380.16934
376.67539
373.40868
370.36521
367.54014
364.92776
362.52158
360.31434
358.29814
356.46443
354.80417
353.30786
351.96566
350.76744
349.70291
348.76169
347.93338
347.20766
346.57434
346.02342
345.54518
345.13019
344.76939
344.45409
344.17604
343.9274
343.70082
343.48938
343.28666
343.08668
342.88394
342.67339
342.45041
342.21083
341.95086
341.66712
341.35659
341.01658
340.64472
446.59071
440.15761
433.93933
427.93919
422.16059
416.60681
411.28092
406.18567
401.32333
396.6956
392.30349
388.14727
384.22634
380.5393
377.08381
373.85663
370.8536
368.06973
365.49915
363.13518
360.97039
358.99666
357.20528
355.58699
354.13211
352.83059
351.67211
350.6462
349.74229
348.94983
348.25833
347.65747
347.13713
346.68748
346.29901
345.96259
345.66947
345.41137
345.18045
344.96933
344.77113
344.57944
344.38832
344.19233
343.98647
343.7662
343.52742
343.26643
342.97995
342.66504
342.31915
341.93991
446.60544
440.2045
434.02208
428.06156
422.32628
416.81948
411.54416
406.50295
401.69803
397.13099
392.80272
388.71332
384.86205
381.24727
377.86639
374.71588
371.79125
369.08708
366.59716
364.3145
362.23143
360.33941
358.62934
357.09157
355.71601
354.49222
353.4095
352.45702
351.62385
350.89911
350.27204
349.73204
349.26877
348.87222
348.53271
348.24099
347.98824
347.76614
347.56681
347.3829
347.20757
347.03448
346.85779
346.67217
346.47274
346.25513
346.01537
345.74995
345.45575
345.13004
344.77042
344.37473
446.62735
440.2739
434.14411
428.24157
422.56971
417.13172
411.93053
406.96865
402.24809
397.77027
393.53584
389.54466
385.79569
382.28695
379.01547
375.9773
373.16746
370.58005
368.20823
366.0443
364.0798
362.3059
360.71312
359.2912
358.02945
356.91685
355.94214
355.09394
354.36084
353.73149
353.19472
352.73957
352.35539
352.03192
351.7593
351.52813
351.32951
351.15507
350.99696
350.84788
350.70109
350.55037
350.39006
350.215
350.02056
349.80257
349.55734
349.28161
348.97253
348.62764
348.24483
347.82221
446.65634
440.36565
434.30526
428.47901
422.89044
417.54279
412.43892
407.58122
402.97151
398.61093
394.49986
390.63776
387.02319
383.65367
380.52568
377.63464
374.97493
372.53992
370.32201
368.31271
366.50274
364.8821
363.44031
362.16699
361.05072
360.07971
359.24198
358.52544
357.91803
357.40785
356.98319
356.63269
356.34533
356.11058
355.91836
355.75915
355.624
355.50454
355.39299
355.28218
355.16554
355.03708
354.89138
354.72359
354.52938
354.30493
354.04689
353.75237
353.4189
353.04438
352.62708
352.16547
446.69254
440.48026
434.50651
428.77534
423.29046
418.05513
413.07218
408.34385
403.87172
399.65662
395.69851
391.99639
388.54823
385.3509
382.40015
379.69057
377.21568
374.9679
372.93863
371.11837
369.49679
368.06283
366.80487
365.71076
364.76895
363.967
363.29201
362.73104
362.27126
361.90011
361.6053
361.37499
361.1978
361.06291
360.96009
360.87974
360.8129
360.75129
360.6873
360.61398
360.52504
360.41482
360.27828
360.11097
359.90899
359.66897
359.38803
359.06375
358.69412
358.27752
357.81269
357.29855
446.73626
440.61873
434.74962
429.13318
423.77322
418.67307
413.83547
409.26249
404.95543
400.91472
397.13981
393.62908
390.37975
387.38787
384.64822
382.15438
379.89871
377.87246
376.06579
374.46791
373.06717
371.85123
370.80718
369.92166
369.18104
368.57269
368.08294
367.69788
367.40385
367.18753
367.03603
366.93703
366.87881
366.85034
366.84128
366.84204
366.84377
366.83841
366.81861
366.77779
366.71008
366.61028
366.47386
366.29689
366.07605
365.80853
365.49203
365.1247
364.70511
364.23222
363.7053
363.12382
446.78797
440.7825
435.03708
429.5561
424.34348
419.40255
414.73594
410.34549
406.23215
402.39583
398.83537
395.54835
392.53108
389.77852
387.28429
385.04066
383.0386
381.26786
379.71707
378.37389
377.22509
376.25678
375.45454
374.80358
374.28893
373.89562
373.61016
373.41759
373.30334
373.25334
373.25411
373.29291
373.35775
373.43747
373.52176
373.60118
373.66715
373.71194
373.72868
373.71128
373.65445
373.55361
373.40489
373.20504
372.95142
372.64192
372.27492
371.84928
371.36423
370.81937
370.21461
369.55005
446.84824
440.97337
435.37198
430.04859
425.00715
420.25097
415.78249
411.60326
407.71375
404.11328
400.79985
397.77009
395.01915
392.54068
390.32682
388.36825
386.65421
385.17267
383.91039
382.85315
381.98588
381.29286
380.75791
380.36462
380.09648
379.93715
379.87113
379.88349
379.95867
380.08186
380.23908
380.41727
380.60432
380.7891
380.96151
381.11242
381.23371
381.31821
381.35967
381.35272
381.2928
381.17614
380.99966
380.76095
380.45818
380.09007
379.6558
379.155
378.58767
377.95412
377.25496
376.49097
446.91778
441.19349
435.75801
430.61592
425.77119
421.22699
416.98554
413.04796
409.41414
406.08262
403.05039
400.31288
397.86381
395.69521
393.79742
392.15916
390.7676
389.60854
388.66654
387.92519
387.36722
386.97485
386.72991
386.61418
386.60952
386.69817
386.86287
387.08815
387.35764
387.65594
387.96871
388.28278
388.58611
388.86784
389.11827
389.32885
389.49214
389.60174
389.65225
389.6392
389.55899
389.40878
389.18648
388.89064
388.52039
388.07536
387.55565
386.96173
386.29444
385.55488
384.74439
383.86446
446.9974
441.44532
436.19936
431.2641
426.64346
422.34041
418.35682
414.69329
411.34895
408.32134
405.60622
403.19752
401.0872
399.26531
397.72001
396.43763
395.40286
394.59894
394.00787
393.61062
393.3875
393.31833
393.38282
393.56076
393.83233
394.17828
394.58011
395.02126
395.48472
395.95472
396.41683
396.858
397.26654
397.63213
397.94578
398.19977
398.38759
398.50387
398.54429
398.50548
398.38498
398.18109
397.89283
397.51985
397.06234
396.52096
395.89677
395.19119
394.40592
393.54289
392.60421
391.59209
447.08798
441.7316
436.70067
431.99976
427.63263
423.60198
419.90922
416.55424
413.53523
410.84847
408.48821
406.44649
404.71315
403.27581
402.11997
401.22913
400.58505
400.16794
399.95679
399.92966
400.06407
400.33729
400.7267
401.21008
401.76587
402.37344
403.01329
403.66764
404.31909
404.9518
405.55155
406.10573
406.60334
407.03494
407.39254
407.66956
407.86072
407.96192
407.97014
407.88336
407.7004
407.42088
407.04505
406.57378
406.0084
405.35067
404.60269
403.76684
402.84572
401.8421
400.75888
399.59899
447.19052
442.05532
437.26702
432.83009
428.74809
425.02333
421.65658
418.64688
415.9912
413.68429
411.71847
410.0835
408.76659
407.75244
407.02335
406.55949
406.3391
406.33891
406.53447
406.90059
407.41173
408.04243
408.76765
409.56314
410.40575
411.27363
412.14649
413.00546
413.83308
414.61379
415.33397
415.98188
416.54758
417.02286
417.40111
417.6772
417.84734
417.90896
417.8606
417.70172
417.43264
417.05438
416.56856
415.97733
415.28325
414.48921
413.59838
412.61411
411.53991
410.37938
409.13619
407.81397
447.30607
442.41967
437.90381
433.76277
429.99981
426.61674
423.61354
420.98813
418.73599
416.84994
415.31993
414.13293
413.27296
412.72117
412.45608
412.45385
412.68868
413.13331
413.75944
414.5383
415.44109
416.43949
417.50606
418.61465
419.74067
420.86139
421.95607
423.00494
423.99093
424.89926
425.71738
426.43486
427.04326
427.53599
427.90814
428.15636
428.27865
428.2742
428.14328
427.88702
427.50734
427.00679
426.38842
425.65571
424.81248
423.86277
422.81079
421.66089
420.41745
419.08489
417.66758
416.16984
447.43577
442.82807
438.61674
434.80584
431.39823
428.39504
425.79529
423.59551
421.7893
420.3671
419.31594
418.61938
418.25759
418.20745
418.44298
418.93565
419.65506
420.56943
421.64624
422.85284
424.15707
425.52775
426.93518
428.35153
429.75113
431.11073
432.40962
433.62746
434.74819
435.75838
436.64707
437.40561
438.02749
438.50816
438.84477
439.03603
439.08195
438.98371
438.74346
438.36412
437.84931
437.20316
436.43018
435.53523
434.52333
433.39969
432.16954
430.83816
429.41078
427.89256
426.28856
424.6037
447.58081
443.28405
439.41174
435.96764
432.95409
430.37141
428.21742
426.48688
425.17111
424.25758
423.72978
423.56711
423.74504
424.23539
425.00687
426.02561
427.25595
428.66111
430.20403
431.84802
433.55753
435.29869
437.03984
438.75185
440.40848
441.98643
443.46543
444.82528
446.05164
447.13301
448.06059
448.82803
449.43118
449.86788
450.13766
450.24152
450.18173
449.96159
449.58522
449.05746
448.38363
447.56946
446.62094
445.54424
444.34561
443.03132
441.60761
440.08061
438.45632
436.7406
434.93912
433.05735
447.74242
443.79126
440.29489
437.25667
434.67833
432.55922
430.89562
429.68019
428.90135
428.54299
428.58421
428.99938
429.75833
430.82691
432.16767
433.74066
435.50433
437.41652
439.43536
441.52013
443.63205
445.73489
447.7955
449.78407
451.67442
453.44401
455.07248
456.54167
457.8396
458.95731
459.88867
460.63009
461.1802
461.53952
461.71024
461.69588
461.50106
461.13131
460.59283
459.89232
459.03686
458.03373
456.89035
455.61416
454.21256
452.69282
451.06209
449.32726
447.49507
445.57196
443.56416
441.4776
447.92187
444.35342
441.27231
438.68148
436.58192
434.97178
433.84552
433.19314
432.99956
433.24423
433.90093
434.93786
436.31824
438.00093
439.9414
442.09285
444.40732
446.83695
449.33499
451.85687
454.36096
456.80923
459.16768
461.40662
463.50075
465.42919
467.1705
468.71149
470.04292
471.15891
472.05649
472.73524
473.19688
473.44493
473.48438
473.32141
472.9631
472.41723
471.69206
470.79615
469.73827
468.52719
467.17169
465.68038
464.0617
462.32385
460.47476
458.52206
456.47305
454.33474
452.11376
449.81645
448.12043
444.97423
442.35011
440.25053
438.67564
437.62218
437.08235
437.04292
437.48451
438.38108
439.69991
441.40195
443.44254
445.77246
448.33917
451.08829
453.96506
456.91576
459.88894
462.83656
465.71476
468.48451
471.11186
473.56813
475.8298
477.8767
479.69061
481.26234
482.58635
483.66047
484.48535
485.06409
485.40178
485.50511
485.382
485.04133
484.49265
483.74598
482.81157
481.69979
480.42096
478.98528
477.40272
475.68302
473.83549
471.86917
469.79267
467.61423
465.34167
462.98238
460.54337
458.03127
448.33938
445.65734
443.53423
441.97201
440.96992
440.52298
440.6207
441.24587
442.37373
443.97159
445.99895
448.40809
451.14517
454.15168
457.36619
460.72616
464.16976
467.63752
471.07373
474.42756
477.65383
480.71349
483.57378
486.20817
488.59591
490.71588
492.55784
494.11646
495.39036
496.3815
497.09452
497.53631
497.71549
497.64201
497.32675
496.7813
496.01761
495.04784
493.88413
492.53852
491.0228
489.34843
487.52646
485.56754
483.48184
481.27907
478.96843
476.55862
474.05785
471.47384
468.81387
466.08479
448.57996
446.40627
444.83036
443.85373
443.47461
443.68605
444.47422
445.81699
447.68307
450.0317
452.81302
455.96907
459.43539
463.14304
467.02087
470.99778
475.00488
478.97737
482.85601
486.5882
490.1286
493.4394
496.49027
499.25818
501.72233
503.8686
505.69212
507.19249
508.37308
509.24034
509.8032
510.07247
510.06038
509.78014
509.24557
508.47084
507.4702
506.2578
504.84755
503.25299
501.4872
499.56272
497.49159
495.28523
492.95452
490.50969
487.96039
485.31569
482.5841
479.77356
476.89153
473.945
448.84336
447.22431
446.24374
445.90285
446.19878
447.12222
448.65523
450.76969
453.42633
456.57464
460.15357
464.0932
468.31697
472.74441
477.29399
481.88591
486.44459
490.90068
495.19252
499.26705
503.08021
506.59684
509.79029
512.6409
515.13014
517.25323
519.01073
520.4076
521.45231
522.15612
522.53233
522.59576
522.36221
521.84806
521.06994
520.04445
518.78798
517.31649
515.64545
513.78974
511.76351
509.58029
507.2529
504.79342
502.21322
499.52297
496.73264
493.85157
490.88844
487.85136
484.74785
481.58497
449.13068
448.11444
447.77911
448.12577
449.15045
450.84096
453.17442
456.11535
459.61477
463.61036
468.02789
472.78363
477.78742
482.94628
488.16796
493.36419
498.45347
503.36307
508.03039
512.40358
516.44151
520.11335
523.39768
526.2737
528.73601
530.78597
532.4302
533.67942
534.54749
535.05053
535.2063
535.03353
534.55147
533.77952
532.73692
531.44251
529.91458
528.17072
526.22773
524.10157
521.8074
519.35952
516.77134
514.05544
511.22355
508.28664
505.25491
502.13783
498.94421
495.68218
492.35931
488.98264
449.44289
449.07921
449.44044
450.52785
452.33625
454.85012
458.04052
461.86294
466.25655
471.14494
476.43846
482.03758
487.8372
493.73112
499.61637
505.39691
510.98652
516.31077
521.30793
525.92925
530.1384
533.91053
537.22462
540.07205
542.45537
544.38306
545.86835
546.92799
547.58134
547.84942
547.75429
547.31844
546.56441
545.51435
544.18989
542.61185
540.80019
538.77384
536.55074
534.1478
531.58096
528.86505
526.01395
523.04055
519.95686
516.77401
513.50231
510.15129
506.72977
503.24587
499.70708
496.1204
449.78081
450.12067
451.23083
453.11315
455.76125
459.15566
463.25995
468.01855
473.35628
479.18002
485.38222
491.84569
498.44915
505.07289
511.6037
517.939
523.98962
529.6814
534.9557
539.76895
544.09151
547.90161
551.18714
553.9513
556.20453
557.96276
559.24606
560.07734
560.48139
560.484
560.11134
559.38944
558.34379
556.99907
555.37898
553.50607
551.40165
549.08582
546.57743
543.89417
541.05246
538.06754
534.95358
531.72369
528.38999
524.96367
521.45505
517.87364
514.22818
510.52673
506.77665
502.98481
450.14505
451.24018
453.15219
455.88421
459.42869
463.76129
468.83644
474.58498
480.91448
487.71216
494.85001
502.19136
509.59796
516.93671
524.08532
530.93644
537.40018
543.4051
548.89797
553.84264
558.21543
562.0001
565.20021
567.82802
569.90239
571.44699
572.48879
573.05679
573.18102
572.89182
572.21915
571.19226
569.83929
568.18713
566.26123
564.08554
561.68253
559.07322
556.2772
553.31258
550.19615
546.9434
543.56866
540.0851
536.50486
532.83909
529.09803
525.29107
521.42681
517.51321
513.55744
509.56619
450.53596
452.4383
455.2052
458.84187
463.33961
468.66817
474.77061
481.56126
488.92704
496.73226
504.82589
513.05025
521.24977
529.27882
537.00776
544.32687
551.14823
557.40584
563.0543
568.06638
572.42085
576.12098
579.18066
581.62179
583.472
584.76273
585.52777
585.80195
585.62031
585.01733
584.02646
582.67975
581.00768
579.03898
576.80049
574.31734
571.61295
568.70898
565.62542
562.38073
558.99186
555.47442
551.84273
548.10995
544.28809
540.38821
536.4204
532.39387
528.31686
524.19744
520.04241
515.85823
450.95357
453.71466
457.38897
461.98495
467.49265
473.87453
481.05966
488.94222
497.38467
506.22497
515.28664
524.38986
533.36209
542.04675
550.30927
558.04055
565.15773
571.60315
577.34194
582.34809
586.6229
590.18151
593.04886
595.25682
596.84185
597.84307
598.30079
598.25538
597.74644
596.81222
595.4892
593.81191
591.81273
589.52183
586.96725
584.17505
581.16923
577.97186
574.60317
571.08174
567.42459
563.64728
559.76403
555.78783
551.73055
547.60302
543.41515
539.17602
534.89301
530.57485
526.22762
521.85759
451.39756
455.06778
459.70092
465.30998
471.8837
479.37543
487.69691
496.718
506.27238
516.16814
526.20121
536.16923
545.88379
555.1797
563.92069
572.00162
579.348
585.91345
591.6665
596.60312
600.73925
604.10277
606.73005
608.66301
609.9468
610.6279
610.75278
610.36688
609.5139
608.2354
606.57049
604.5557
602.2249
599.60946
596.73837
593.63824
590.33339
586.84609
583.19667
579.40369
575.48403
571.45312
567.32497
563.11234
558.82685
554.47906
550.07857
545.63415
541.15338
536.64381
532.11186
527.56347
451.86717
456.49493
462.13647
468.81099
476.50567
485.16236
494.67144
504.87351
515.56883
526.53219
537.53037
548.33881
558.75532
568.60929
577.76644
586.12939
593.63537
600.24402
605.94374
610.74951
614.69161
617.81095
620.15542
621.77683
622.72868
623.06437
622.83601
622.0936
620.88445
619.25294
617.24031
614.88466
612.22106
609.28185
606.09653
602.69198
599.09267
595.32089
591.39688
587.33903
583.16404
578.88702
574.52173
570.08062
565.57497
561.01504
556.41009
551.76853
547.09784
542.40501
537.69629
532.97734
452.36114
457.99197
464.68888
472.47925
481.34816
491.22294
501.96759
513.38789
525.24576
537.27964
549.22633
560.84051
571.9092
582.26035
591.76585
600.33995
607.92852
614.50841
620.09153
624.70928
628.40682
631.23828
633.26284
634.54185
635.13664
635.107
634.51011
633.39994
631.8269
629.83765
627.47511
624.77857
621.78413
618.52458
615.02965
611.32633
607.43903
603.38987
599.1989
594.88421
590.46216
585.94754
581.35374
576.69283
571.97573
567.21231
562.4115
557.58135
552.72911
547.86136
542.98404
538.10256
452.87765
459.5532
467.34906
476.30306
486.3973
497.54056
509.56455
522.23391
535.26734
548.36448
561.23247
573.60777
585.27062
596.05197
605.83442
614.54335
622.13818
628.62415
634.03178
638.40957
641.81784
644.3237
645.9973
646.90895
647.12723
646.71766
645.74187
644.25723
642.3167
639.9687
637.25738
634.22309
630.90239
627.32825
623.53044
619.53583
615.36861
611.0506
606.60152
602.03905
597.37918
592.63625
587.82321
582.95172
578.03233
573.0745
568.08679
563.0769
558.05174
553.01754
547.97995
542.94408
453.41426
461.1712
470.10537
480.26758
491.63541
504.09401
517.43568
531.37716
545.58935
559.73164
573.48316
586.56593
598.75819
609.89863
619.88349
628.64664
636.18097
642.51259
647.6915
651.78363
654.86432
657.01332
658.31114
658.83641
658.66427
657.86529
656.50493
654.64336
652.33551
649.63107
646.5753
643.20904
639.56896
635.68804
631.59585
627.31897
622.88124
618.30406
613.60672
608.8064
603.91859
598.95717
593.93466
588.86227
583.7501
578.60723
573.4418
568.26115
563.07183
557.87977
552.69027
547.50817
453.96786
462.83672
472.94347
484.35462
497.04082
510.85701
525.5479
540.77526
556.15835
571.31635
585.90355
599.6325
612.28486
623.71226
633.81518
642.56478
649.97703
656.10003
661.00371
664.77138
667.49305
669.26055
670.16403
670.28973
669.71861
668.52561
666.77937
664.54229
661.87062
658.81526
655.42206
651.73185
647.78127
643.6031
639.22652
634.67766
629.97994
625.1542
620.21917
615.19149
610.08614
604.91654
599.69467
594.43131
589.1361
583.81769
578.48383
573.14145
567.79679
562.45542
557.12236
551.80214
454.5346
464.53859
475.84629
488.54257
502.58751
517.79762
533.86067
550.37661
566.91058
583.04344
598.40941
612.71755
625.7585
637.38855
647.5417
656.21572
663.4511
669.31855
673.908
677.31981
679.65812
681.02611
681.52285
681.2414
680.26779
678.68065
676.55122
673.94342
670.91466
667.51664
663.7952
659.79107
655.54055
651.07609
646.42632
641.61684
636.67044
631.60736
626.44572
621.20166
615.88958
610.52235
605.11147
599.66722
594.19879
588.71439
583.22137
577.72631
572.23505
566.75287
561.28449
555.83416
455.10984
466.26366
478.79392
492.80627
508.24483
524.87745
542.32484
560.11905
577.77072
594.82647
610.9069
625.72414
639.07349
650.83598
660.97746
669.52145
676.5334
682.10668
686.35097
689.38318
691.3209
692.27791
692.3614
691.6705
690.29559
688.31832
685.81184
682.84129
679.46503
675.73476
671.69625
667.38982
662.85132
658.1127
653.20188
648.14381
642.9606
637.67192
632.29522
626.84605
621.33823
615.78409
610.1946
604.57957
598.94772
593.30685
587.6639
582.02506
576.39585
570.7812
565.18562
559.61304
455.6882
467.99682
481.76365
497.11693
513.97698
532.05061
550.88092
569.9279
588.65012
606.56667
623.29215
638.54325
652.12789
663.96275
674.03985
682.40893
689.16033
694.40985
698.28647
700.92307
702.44996
702.99077
702.66009
701.56232
699.79155
697.43181
694.55755
691.23516
687.52314
683.47293
679.13009
674.53435
669.72098
664.7211
659.562
654.26791
648.86027
643.35803
637.77802
632.13515
626.44267
620.71235
614.95464
609.17888
603.39333
597.60538
591.82158
586.04775
580.28904
574.55007
568.83527
563.14811
456.2635
469.721
484.73006
501.44196
519.74227
539.26204
559.45683
579.71345
599.44472
618.15155
635.45025
651.05802
664.82047
676.67868
686.65033
694.81087
701.27506
706.18073
709.6757
711.90826
713.02082
713.14616
712.40549
710.90789
708.75054
706.01906
702.78928
699.12817
695.09396
690.73777
686.10463
681.23358
676.1591
670.91149
665.5174
660.00026
654.38077
648.6772
642.90571
637.08057
631.21447
625.31862
619.40298
613.47639
607.5467
601.62089
595.70512
589.80486
583.92494
456.82879
471.41733
487.66516
505.74481
525.49203
546.44532
567.96466
589.36755
610.03214
629.45328
647.24351
663.15257
677.04895
688.89616
698.73539
706.66644
712.82794
717.3794
720.48721
722.31465
723.01572
722.73173
721.58996
719.70354
717.17205
714.08252
710.51185
706.52692
702.18568
697.53872
692.63019
687.49845
682.17719
676.69589
671.08037
665.35332
659.53468
653.642
647.6908
641.69475
635.66593
629.61504
623.55155
617.48385
611.41936
605.36466
599.32557
593.30723
587.31421
457.37646
473.06535
490.53849
509.98446
531.16885
553.51924
576.2962
598.75896
620.26765
640.31515
658.53523
674.70551
688.71066
700.53103
710.22735
717.92196
723.77691
727.97354
730.69684
732.12499
732.42323
731.74101
730.21113
727.95033
725.05994
721.62857
717.73343
713.44112
708.80916
703.88737
698.71901
693.34178
687.78845
682.08766
676.26441
670.3406
664.33543
658.26579
652.14652
645.9907
639.80987
633.61421
627.41272
621.21334
615.02311
608.84823
602.69419
596.56582
590.46743
457.8983
474.64318
493.31729
514.11462
536.70376
560.38291
584.31655
607.72689
629.97588
650.56748
669.17404
685.58929
699.70315
711.50365
721.06536
728.53149
734.08783
737.93842
740.28757
741.3286
741.23797
740.17293
738.27155
735.65355
732.42203
728.66689
724.46517
719.88301
714.97734
709.79722
704.38513
698.77786
693.00731
687.10126
681.08391
674.97638
668.79717
662.56248
656.28654
649.98185
643.65944
637.32898
630.99902
624.67712
618.36991
612.08326
605.82234
599.59167
593.39533
458.38556
476.12787
495.96641
518.08199
542.01184
566.9084
591.85486
616.07279
638.94249
660.01636
678.99213
695.66979
709.92486
721.73999
731.19641
738.45752
743.73477
747.25702
749.24936
749.92108
749.46008
748.03142
745.77807
742.82231
739.26959
735.21009
730.72059
725.86678
720.70497
715.28347
709.64387
703.82207
697.84911
691.75192
685.55392
679.2755
672.93445
666.54634
660.12482
653.68185
647.22794
640.77233
634.32313
627.88751
621.47175
615.08141
608.72134
602.3958
596.1086
458.82914
477.49561
498.44788
521.82331
546.98515
572.92973
598.69019
623.53568
646.91758
668.43492
687.8013
704.80583
719.2762
731.17323
740.57653
747.67167
752.70027
755.91987
757.57891
757.90397
757.09496
755.32485
752.74132
749.46949
745.61664
741.273
736.51515
731.40839
726.00834
720.36249
714.51158
708.49064
702.32987
696.05541
689.68992
683.25308
676.76206
670.23182
663.67545
657.10441
650.52874
643.95725
637.39766
630.85677
624.34054
617.85423
611.40241
604.9891
598.61786
459.21952
478.72184
500.71965
525.25973
551.48125
578.226
604.5296
629.79291
653.59089
675.55292
695.38724
712.84882
727.66098
739.74589
749.17227
756.15546
760.97557
763.92504
765.27936
765.28432
764.15263
762.06567
759.17546
755.61064
751.47945
746.87241
741.86609
736.52526
730.90484
725.05156
719.00532
712.80034
706.46603
700.0278
693.50758
686.92444
680.2949
673.6334
666.95251
660.2632
653.5751
646.89661
640.23509
633.59701
626.98803
620.41312
613.87662
607.3823
600.93348
459.54667
479.781
502.73281
528.28684
555.30423
582.49479
609.19576
634.86706
659.08334
681.48556
701.77676
719.69738
734.9887
747.41286
756.96242
763.90093
768.56067
771.27787
772.35992
772.07416
770.64748
768.26971
765.09774
761.26353
756.87616
752.02685
746.79197
741.23582
735.41267
729.36854
723.14257
716.76825
710.27425
703.68529
697.02267
690.30484
683.5478
676.76546
669.96991
663.17173
656.38011
649.6031
642.84773
636.12015
629.42574
622.76926
616.15478
609.58588
603.06565
459.79942
480.64553
504.42592
530.75651
558.17217
585.7408
612.82258
638.89255
663.52715
686.36969
707.11596
725.49582
741.25298
754.14572
763.93972
770.91126
775.46436
777.9906
778.8352
778.29019
776.59748
773.95583
770.5277
766.44778
761.82668
756.75606
751.31226
745.55917
739.55051
733.33165
726.94108
720.41158
713.77121
707.04404
700.25082
693.40944
686.53541
679.64217
672.7414
665.84326
658.9566
652.08913
645.24758
638.4378
631.66494
624.93352
618.24745
611.61005
605.02426
459.96359
481.28333
505.71398
532.44335
560.16988
588.08124
615.52487
641.98411
667.03741
690.32409
711.52891
730.36988
746.58535
759.92465
770.11246
777.20111
781.70381
784.0817
784.72504
783.9529
782.02376
779.14546
775.48661
771.18475
766.35201
761.08065
755.44706
749.51486
743.33731
736.95925
730.41856
723.74748
716.97346
710.12005
703.20746
696.25313
689.27211
682.27741
675.28036
668.29074
661.31709
654.36681
647.44633
640.56127
633.71654
626.9165
620.16485
613.46474
606.81891
460.01765
481.65211
506.46734
533.39705
561.40168
589.6207
617.40308
644.24208
669.71591
693.45354
715.12386
734.43003
751.10112
764.88076
775.50875
782.79647
787.30377
789.57557
790.05337
789.08617
786.94991
783.86191
779.99746
775.49685
770.47393
765.02172
759.21679
753.12259
746.79207
740.26961
733.59264
726.79288
719.89731
712.929
705.90772
698.85048
691.77192
684.68473
677.59984
670.52676
663.47372
656.44785
649.45534
642.50153
635.59113
628.72841
621.91689
615.15951
608.45886
459.92204
481.68741
506.59927
533.72275
561.96558
590.45193
618.5468
645.75643
671.65447
695.85234
717.99733
737.77426
754.90014
769.11187
780.14841
787.73298
792.29611
794.50111
794.8477
793.71654
791.40134
788.13014
784.08424
779.4072
774.21468
768.60062
762.64191
756.40199
749.93359
743.28078
736.48061
729.56439
722.5587
715.48621
708.36631
701.21562
694.04848
686.87721
679.71249
672.56351
665.43826
658.34361
651.28553
644.26913
637.29889
630.37914
623.51311
616.70359
609.95305
459.59431
481.24339
506.23505
533.52393
561.95382
590.65932
619.03795
646.61001
672.93793
697.60707
720.23693
740.4906
758.07123
772.70768
784.13536
792.06051
796.71806
798.89101
799.13828
797.87228
795.40528
791.97595
787.77157
782.93924
777.59662
771.83866
765.74274
759.37244
752.78038
746.01043
739.09937
732.07818
724.97312
717.80653
710.59747
703.36226
696.11493
688.86753
681.63047
674.41271
667.22199
660.06499
652.94744
645.87426
638.84963
631.87819
624.96272
618.10591
611.31008
459.08998
480.45485
505.49625
532.90309
561.45285
590.32148
618.95359
646.88124
673.64642
698.79879
721.92353
742.65925
760.69405
775.74792
787.55544
795.83062
800.60985
802.78052
802.95699
801.58334
798.9897
795.42562
791.08426
786.11644
780.64193
774.75687
768.53925
762.05289
755.35047
748.47575
741.4653
734.3499
727.15555
719.9043
712.61495
705.30358
697.98394
690.66786
683.36552
676.08565
668.83581
661.62247
654.4512
647.32672
458.45896
479.44317
504.50373
531.95981
560.54449
589.51337
618.36831
646.64628
673.85728
699.50457
723.1328
744.35383
762.8403
778.30376
790.47805
799.092
804.01306
806.20609
806.33712
804.88022
802.18292
798.50553
794.04701
788.96199
783.37244
777.37582
771.05086
764.46176
757.66134
750.69333
743.59423
736.39464
729.12038
721.79329
714.43196
707.05223
699.66766
692.28987
684.92884
677.59312
670.29009
663.02607
655.80647
648.63593
457.74457
478.32833
503.38174
530.78972
559.3066
588.30817
617.35617
645.98063
673.64618
699.7987
723.93599
745.64204
764.57567
780.43866
792.963
801.889
806.96924
809.20507
809.31223
807.7935
805.01311
801.24174
796.68409
791.49852
785.80935
779.71544
773.29636
766.61679
759.72977
752.67913
745.50132
738.22686
730.88142
723.4867
716.06111
708.62032
701.1777
693.74472
686.33116
678.94545
671.59479
664.28538
657.02248
649.81069
456.99211
477.2431
502.25407
529.48237
557.81335
586.77871
615.99205
644.96009
673.08796
699.75301
724.4002
746.58707
765.9598
782.20957
795.06472
804.26584
809.52059
811.81467
811.91556
810.35334
807.50791
803.65971
799.01902
793.74795
787.97312
781.7949
775.29378
768.53499
761.57187
754.4484
747.20107
739.86036
732.45185
724.99712
717.51446
710.01939
702.52515
695.04303
687.58271
680.15247
672.75938
665.4095
658.10802
650.85943
456.25887
476.34751
501.24121
528.11764
556.13504
584.99822
614.35237
643.66121
672.25649
699.43668
724.58909
747.24771
767.0466
783.66785
796.83334
806.28252
811.70973
814.07126
814.17953
812.58904
809.69406
805.78395
801.07446
795.73125
789.88331
783.63251
777.06031
770.23256
763.20296
756.01568
748.70729
741.30829
733.8442
726.33654
718.80348
711.26043
703.72053
696.19494
688.69322
681.22353
673.79285
666.40713
659.07145
651.79023
455.63067
475.83105
500.44787
526.76045
554.33718
583.04036
612.51498
642.16121
671.22352
698.91606
724.56283
747.67646
767.88589
784.86001
798.31273
807.98768
813.57656
816.00961
816.13521
814.52866
811.59706
807.63784
802.87192
797.46839
791.5585
785.24564
778.61228
771.72489
764.63757
757.39474
750.03308
742.58312
735.07038
727.51631
719.93903
712.35387
704.77385
697.21005
689.67193
682.16754
674.70378
667.2865
659.92072
652.61077
455.24818
475.89606
499.9406
525.45427
552.47908
580.97841
610.55865
640.53641
670.05931
698.25363
724.3751
747.92199
768.52324
785.8262
799.54228
809.42201
815.15762
817.66236
817.8119
816.1987
813.24101
809.24346
804.43175
798.97819
793.01622
786.65071
779.96509
773.0265
765.88946
758.59862
751.19082
743.69665
736.14164
728.54722
720.93145
713.30959
705.6946
698.09747
690.52758
682.99292
675.50027
668.05544
660.66336
653.32831
455.36624
476.69556
499.71625
524.21523
550.61254
578.88428
608.56063
638.86063
668.83136
697.50732
724.07404
748.02882
768.99803
786.60172
800.55687
810.6203
816.48595
819.05959
819.23684
817.62388
814.64841
810.62143
805.77297
800.27831
794.27294
787.86312
781.13324
774.15107
766.97156
759.6396
752.1922
744.66002
737.06863
729.43943
721.79046
714.13694
706.49174
698.86583
691.26849
683.70764
676.19002
668.72136
661.30653
653.94975
456.48862
478.19267
499.67454
523.03314
548.78203
576.82578
606.59534
637.20469
667.60157
696.72623
723.70529
748.03707
769.34343
787.21772
801.38677
811.61254
817.59106
820.22872
820.43506
818.82699
815.84012
811.79093
806.9133
801.3852
795.34402