/*--------------------------------*- C++ -*----------------------------------*\
| =========                 |                                                 |
| \\      /  F ield         | OpenFOAM: The Open Source CFD Toolbox           |
|  \\    /   O peration     | Version:  2312                                  |
|   \\  /    A nd           | Website:  www.openfoam.com                      |
|    \\/     M anipulation  |                                                 |
\*---------------------------------------------------------------------------*/
FoamFile
{
    version     2.0;
    format      ascii;
    arch        "LSB;label=32;scalar=64";
    class       volScalarField;
    location    "0.08";
    object      p;
}
// * * * * * * * * * * * * * * * * * * * * * * * * * * * * * * * * * * * * * //

dimensions      [1 -1 -2 0 0 0 0];

internalField   nonuniform List<scalar> 
3221
(
100000.51
100000.48
100000.48
100000.5
100000.53
100000.57
100000.6
100000.62
100000.64
100000.66
100000.68
100000.68
100000.68
100000.68
100000.67
100000.66
100000.65
100000.65
100000.64
100000.63
100000.62
100000.62
100000.61
100000.6
100000.59
100000.59
100000.58
100000.57
100000.56
100000.56
100000.55
100000.54
100000.54
100000.53
100000.53
100000.52
100000.52
100000.51
100000.51
100000.51
100000.51
100000.51
100000.51
100000.51
100000.51
100000.52
100000.52
100000.52
100000.53
100000.54
100000.55
100000.57
100000.41
100000.36
100000.31
100000.28
100000.25
100000.23
100000.22
100000.21
100000.21
100000.21
100000.21
100000.22
100000.23
100000.25
100000.26
100000.28
100000.29
100000.3
100000.3
100000.31
100000.31
100000.31
100000.32
100000.32
100000.32
100000.32
100000.32
100000.32
100000.32
100000.32
100000.32
100000.32
100000.32
100000.32
100000.32
100000.32
100000.32
100000.32
100000.32
100000.32
100000.32
100000.33
100000.33
100000.33
100000.34
100000.34
100000.34
100000.35
100000.36
100000.37
100000.38
100000.4
100000.41
100000.36
100000.31
100000.28
100000.26
100000.24
100000.23
100000.23
100000.22
100000.22
100000.22
100000.22
100000.22
100000.22
100000.22
100000.23
100000.23
100000.23
100000.23
100000.24
100000.24
100000.24
100000.24
100000.25
100000.25
100000.25
100000.26
100000.26
100000.26
100000.26
100000.27
100000.27
100000.27
100000.28
100000.28
100000.28
100000.29
100000.29
100000.29
100000.3
100000.3
100000.31
100000.31
100000.32
100000.32
100000.33
100000.33
100000.34
100000.35
100000.36
100000.38
100000.4
100000.36
100000.32
100000.27
100000.24
100000.21
100000.2
100000.18
100000.17
100000.16
100000.16
100000.16
100000.15
100000.15
100000.16
100000.16
100000.16
100000.17
100000.17
100000.17
100000.18
100000.18
100000.19
100000.2
100000.2
100000.21
100000.21
100000.22
100000.22
100000.23
100000.23
100000.24
100000.25
100000.25
100000.26
100000.27
100000.27
100000.28
100000.28
100000.29
100000.3
100000.3
100000.31
100000.32
100000.33
100000.33
100000.34
100000.35
100000.36
100000.37
100000.38
100000.39
100000.42
100000.29
100000.25
100000.21
100000.18
100000.15
100000.13
100000.12
100000.1
100000.1
100000.09
100000.09
100000.08
100000.08
100000.09
100000.09
100000.09
100000.1
100000.1
100000.11
100000.12
100000.13
100000.13
100000.14
100000.15
100000.16
100000.17
100000.17
100000.18
100000.19
100000.2
100000.21
100000.22
100000.23
100000.24
100000.25
100000.25
100000.26
100000.27
100000.28
100000.29
100000.3
100000.31
100000.32
100000.33
100000.34
100000.34
100000.35
100000.36
100000.38
100000.39
100000.41
100000.43
100000.22
100000.18
100000.14
100000.11
100000.08
100000.06
100000.05
100000.03
100000.02
100000.02
100000.01
100000.01
100000.01
100000.01
100000.02
100000.02
100000.03
100000.04
100000.05
100000.06
100000.07
100000.08
100000.09
100000.1
100000.11
100000.12
100000.13
100000.14
100000.16
100000.17
100000.18
100000.19
100000.2
100000.21
100000.23
100000.24
100000.25
100000.26
100000.27
100000.28
100000.29
100000.31
100000.32
100000.33
100000.34
100000.35
100000.36
100000.37
100000.38
100000.4
100000.42
100000.44
100000.13
100000.1
100000.06
100000.03
100000.01
99999.986
99999.969
99999.956
99999.946
99999.94
99999.937
99999.936
99999.938
99999.942
99999.948
99999.955
99999.964
99999.974
99999.985
99999.996
100000.01
100000.02
100000.04
100000.05
100000.06
100000.08
100000.09
100000.11
100000.12
100000.14
100000.15
100000.16
100000.18
100000.19
100000.21
100000.22
100000.24
100000.25
100000.26
100000.28
100000.29
100000.3
100000.32
100000.33
100000.34
100000.35
100000.37
100000.38
100000.39
100000.41
100000.43
100000.45
100000.05
100000.01
99999.978
99999.947
99999.922
99999.902
99999.885
99999.873
99999.864
99999.859
99999.857
99999.858
99999.861
99999.867
99999.875
99999.885
99999.896
99999.909
99999.922
99999.937
99999.953
99999.969
99999.985
100000
100000.02
100000.04
100000.05
100000.07
100000.09
100000.11
100000.12
100000.14
100000.16
100000.18
100000.19
100000.21
100000.22
100000.24
100000.26
100000.27
100000.29
100000.3
100000.32
100000.33
100000.35
100000.36
100000.38
100000.39
100000.41
100000.42
100000.44
100000.47
99999.957
99999.923
99999.887
99999.857
99999.832
99999.812
99999.797
99999.785
99999.778
99999.774
99999.774
99999.777
99999.783
99999.791
99999.802
99999.814
99999.829
99999.844
99999.861
99999.879
99999.898
99999.918
99999.938
99999.958
99999.979
99999.999
100000.02
100000.04
100000.06
100000.08
100000.1
100000.12
100000.14
100000.16
100000.18
100000.2
100000.22
100000.24
100000.25
100000.27
100000.29
100000.31
100000.32
100000.34
100000.35
100000.37
100000.39
100000.4
100000.42
100000.44
100000.46
100000.48
99999.862
99999.828
99999.791
99999.761
99999.737
99999.718
99999.703
99999.693
99999.687
99999.686
99999.688
99999.693
99999.702
99999.713
99999.727
99999.743
99999.761
99999.781
99999.801
99999.823
99999.846
99999.869
99999.893
99999.917
99999.941
99999.965
99999.989
100000.01
100000.04
100000.06
100000.08
100000.1
100000.13
100000.15
100000.17
100000.19
100000.21
100000.23
100000.25
100000.27
100000.29
100000.31
100000.33
100000.35
100000.37
100000.38
100000.4
100000.42
100000.44
100000.46
100000.48
100000.5
99999.763
99999.728
99999.69
99999.66
99999.636
99999.617
99999.604
99999.595
99999.592
99999.593
99999.598
99999.607
99999.619
99999.634
99999.652
99999.672
99999.694
99999.718
99999.743
99999.769
99999.795
99999.823
99999.85
99999.878
99999.906
99999.934
99999.961
99999.988
100000.02
100000.04
100000.07
100000.09
100000.12
100000.14
100000.17
100000.19
100000.21
100000.24
100000.26
100000.28
100000.3
100000.32
100000.34
100000.36
100000.38
100000.4
100000.42
100000.44
100000.46
100000.48
100000.5
100000.53
99999.66
99999.622
99999.583
99999.552
99999.529
99999.511
99999.499
99999.493
99999.492
99999.496
99999.504
99999.517
99999.533
99999.553
99999.575
99999.6
99999.627
99999.655
99999.685
99999.716
99999.747
99999.779
99999.811
99999.843
99999.875
99999.906
99999.937
99999.968
99999.998
100000.03
100000.06
100000.08
100000.11
100000.14
100000.17
100000.19
100000.22
100000.24
100000.27
100000.29
100000.31
100000.33
100000.36
100000.38
100000.4
100000.42
100000.44
100000.46
100000.48
100000.5
100000.52
100000.55
99999.551
99999.511
99999.471
99999.439
99999.416
99999.399
99999.389
99999.385
99999.387
99999.395
99999.407
99999.424
99999.445
99999.47
99999.498
99999.528
99999.56
99999.594
99999.629
99999.665
99999.701
99999.738
99999.774
99999.811
99999.847
99999.882
99999.917
99999.952
99999.985
100000.02
100000.05
100000.08
100000.11
100000.14
100000.17
100000.2
100000.22
100000.25
100000.28
100000.3
100000.33
100000.35
100000.37
100000.4
100000.42
100000.44
100000.46
100000.48
100000.51
100000.53
100000.55
100000.58
99999.436
99999.394
99999.351
99999.319
99999.296
99999.28
99999.272
99999.271
99999.277
99999.289
99999.306
99999.329
99999.355
99999.386
99999.419
99999.455
99999.493
99999.533
99999.574
99999.615
99999.657
99999.699
99999.741
99999.782
99999.822
99999.862
99999.901
99999.939
99999.976
100000.01
100000.05
100000.08
100000.11
100000.15
100000.18
100000.21
100000.24
100000.26
100000.29
100000.32
100000.34
100000.37
100000.39
100000.42
100000.44
100000.47
100000.49
100000.51
100000.53
100000.56
100000.58
100000.61
99999.315
99999.27
99999.225
99999.192
99999.169
99999.155
99999.149
99999.152
99999.162
99999.178
99999.201
99999.229
99999.262
99999.299
99999.339
99999.382
99999.427
99999.473
99999.52
99999.568
99999.616
99999.663
99999.71
99999.756
99999.801
99999.845
99999.888
99999.93
99999.97
100000.01
100000.05
100000.08
100000.12
100000.15
100000.19
100000.22
100000.25
100000.28
100000.31
100000.34
100000.37
100000.39
100000.42
100000.44
100000.47
100000.49
100000.52
100000.54
100000.56
100000.59
100000.61
100000.64
99999.187
99999.138
99999.09
99999.056
99999.033
99999.021
99999.019
99999.025
99999.04
99999.063
99999.092
99999.127
99999.167
99999.211
99999.259
99999.309
99999.361
99999.414
99999.468
99999.522
99999.576
99999.63
99999.682
99999.733
99999.783
99999.832
99999.879
99999.925
99999.969
100000.01
100000.05
100000.09
100000.13
100000.17
100000.2
100000.24
100000.27
100000.3
100000.33
100000.36
100000.39
100000.42
100000.45
100000.47
100000.5
100000.52
100000.55
100000.57
100000.6
100000.62
100000.64
100000.67
99999.05
99998.997
99998.946
99998.911
99998.889
99998.879
99998.88
99998.891
99998.912
99998.941
99998.978
99999.021
99999.069
99999.122
99999.177
99999.236
99999.296
99999.357
99999.418
99999.479
99999.54
99999.599
99999.657
99999.714
99999.769
99999.822
99999.873
99999.923
99999.97
100000.02
100000.06
100000.1
100000.14
100000.18
100000.22
100000.25
100000.29
100000.32
100000.35
100000.39
100000.42
100000.45
100000.47
100000.5
100000.53
100000.55
100000.58
100000.6
100000.63
100000.65
100000.68
100000.71
99998.904
99998.846
99998.792
99998.756
99998.735
99998.728
99998.733
99998.75
99998.778
99998.814
99998.859
99998.911
99998.968
99999.03
99999.095
99999.163
99999.231
99999.301
99999.37
99999.438
99999.506
99999.572
99999.636
99999.698
99999.758
99999.816
99999.871
99999.925
99999.976
100000.02
100000.07
100000.12
100000.16
100000.2
100000.24
100000.28
100000.31
100000.35
100000.38
100000.41
100000.44
100000.47
100000.5
100000.53
100000.56
100000.59
100000.61
100000.64
100000.66
100000.69
100000.71
100000.74
99998.748
99998.684
99998.627
99998.59
99998.571
99998.567
99998.577
99998.601
99998.636
99998.682
99998.736
99998.798
99998.865
99998.937
99999.012
99999.09
99999.168
99999.246
99999.324
99999.4
99999.475
99999.547
99999.618
99999.686
99999.751
99999.813
99999.873
99999.93
99999.984
100000.04
100000.09
100000.13
100000.18
100000.22
100000.26
100000.3
100000.34
100000.37
100000.41
100000.44
100000.47
100000.51
100000.54
100000.57
100000.59
100000.62
100000.65
100000.67
100000.7
100000.72
100000.75
100000.78
99998.579
99998.51
99998.449
99998.412
99998.394
99998.395
99998.411
99998.442
99998.487
99998.543
99998.608
99998.681
99998.76
99998.843
99998.929
99999.017
99999.105
99999.193
99999.28
99999.364
99999.447
99999.526
99999.603
99999.677
99999.747
99999.814
99999.878
99999.939
99999.996
100000.05
100000.1
100000.15
100000.2
100000.24
100000.29
100000.33
100000.37
100000.4
100000.44
100000.47
100000.51
100000.54
100000.57
100000.6
100000.63
100000.66
100000.68
100000.71
100000.74
100000.76
100000.79
100000.81
99998.398
99998.323
99998.257
99998.22
99998.205
99998.211
99998.234
99998.275
99998.33
99998.398
99998.475
99998.561
99998.652
99998.748
99998.846
99998.945
99999.045
99999.142
99999.238
99999.332
99999.422
99999.509
99999.592
99999.671
99999.747
99999.818
99999.886
99999.951
100000.01
100000.07
100000.12
100000.18
100000.22
100000.27
100000.32
100000.36
100000.4
100000.44
100000.47
100000.51
100000.54
100000.57
100000.6
100000.64
100000.66
100000.69
100000.72
100000.75
100000.77
100000.8
100000.82
100000.85
99998.202
99998.12
99998.051
99998.013
99998.002
99998.014
99998.046
99998.098
99998.165
99998.246
99998.337
99998.437
99998.543
99998.652
99998.763
99998.875
99998.986
99999.094
99999.2
99999.302
99999.401
99999.495
99999.584
99999.67
99999.75
99999.827
99999.899
99999.967
100000.03
100000.09
100000.15
100000.2
100000.25
100000.3
100000.35
100000.39
100000.43
100000.47
100000.51
100000.54
100000.58
100000.61
100000.64
100000.67
100000.7
100000.73
100000.76
100000.78
100000.81
100000.84
100000.86
100000.89
99997.99
99997.9
99997.827
99997.79
99997.784
99997.803
99997.846
99997.91
99997.992
99998.088
99998.195
99998.31
99998.431
99998.556
99998.681
99998.806
99998.929
99999.049
99999.165
99999.277
99999.383
99999.485
99999.581
99999.672
99999.758
99999.839
99999.915
99999.986
100000.05
100000.12
100000.17
100000.23
100000.28
100000.33
100000.38
100000.42
100000.46
100000.5
100000.54
100000.58
100000.61
100000.64
100000.68
100000.71
100000.74
100000.77
100000.79
100000.82
100000.85
100000.87
100000.9
100000.92
99997.761
99997.662
99997.585
99997.55
99997.549
99997.578
99997.633
99997.712
99997.81
99997.923
99998.048
99998.18
99998.319
99998.459
99998.6
99998.739
99998.875
99999.007
99999.134
99999.255
99999.37
99999.479
99999.582
99999.679
99999.769
99999.855
99999.934
100000.01
100000.08
100000.14
100000.2
100000.26
100000.31
100000.37
100000.41
100000.46
100000.5
100000.54
100000.58
100000.61
100000.65
100000.68
100000.71
100000.74
100000.77
100000.8
100000.83
100000.86
100000.89
100000.91
100000.93
100000.96
99997.511
99997.403
99997.322
99997.289
99997.296
99997.336
99997.407
99997.502
99997.619
99997.752
99997.896
99998.048
99998.205
99998.363
99998.52
99998.675
99998.824
99998.969
99999.106
99999.237
99999.361
99999.478
99999.587
99999.69
99999.785
99999.874
99999.958
100000.03
100000.11
100000.17
100000.24
100000.29
100000.35
100000.4
100000.45
100000.49
100000.54
100000.58
100000.61
100000.65
100000.69
100000.72
100000.75
100000.78
100000.81
100000.84
100000.87
100000.9
100000.92
100000.95
100000.97
100001
99997.239
99997.121
99997.037
99997.008
99997.024
99997.078
99997.166
99997.281
99997.419
99997.574
99997.74
99997.914
99998.091
99998.268
99998.443
99998.613
99998.778
99998.935
99999.084
99999.225
99999.358
99999.482
99999.597
99999.705
99999.806
99999.899
99999.985
100000.06
100000.14
100000.21
100000.27
100000.33
100000.39
100000.44
100000.49
100000.53
100000.57
100000.61
100000.65
100000.69
100000.72
100000.76
100000.79
100000.82
100000.85
100000.88
100000.9
100000.93
100000.96
100000.98
100001.01
100001.03
99996.942
99996.814
99996.726
99996.703
99996.731
99996.802
99996.91
99997.049
99997.211
99997.391
99997.581
99997.779
99997.978
99998.175
99998.369
99998.556
99998.735
99998.906
99999.067
99999.218
99999.359
99999.491
99999.613
99999.726
99999.83
99999.927
100000.02
100000.1
100000.17
100000.24
100000.31
100000.37
100000.42
100000.48
100000.53
100000.57
100000.61
100000.65
100000.69
100000.73
100000.76
100000.79
100000.83
100000.86
100000.88
100000.91
100000.94
100000.96
100001
100001.02
100001.04
100001.07
99996.618
99996.479
99996.389
99996.373
99996.415
99996.506
99996.639
99996.804
99996.994
99997.201
99997.419
99997.642
99997.866
99998.085
99998.299
99998.504
99998.699
99998.883
99999.056
99999.217
99999.367
99999.505
99999.634
99999.752
99999.86
99999.96
100000.05
100000.14
100000.21
100000.28
100000.35
100000.41
100000.47
100000.52
100000.57
100000.61
100000.65
100000.69
100000.73
100000.77
100000.8
100000.83
100000.86
100000.89
100000.92
100000.95
100000.97
100000.99
100001.04
100001.06
100001.08
100001.1
99996.263
99996.113
99996.022
99996.016
99996.076
99996.191
99996.351
99996.547
99996.769
99997.007
99997.255
99997.506
99997.756
99997.999
99998.233
99998.457
99998.668
99998.866
99999.051
99999.223
99999.381
99999.526
99999.66
99999.783
99999.895
99999.997
100000.09
100000.18
100000.25
100000.33
100000.39
100000.45
100000.51
100000.56
100000.61
100000.65
100000.69
100000.73
100000.77
100000.8
100000.84
100000.87
100000.9
100000.93
100000.96
100000.98
100001.01
100001.03
100001.07
100001.09
100001.11
100001.13
99995.875
99995.712
99995.621
99995.628
99995.71
99995.854
99996.048
99996.279
99996.536
99996.809
99997.09
99997.372
99997.649
99997.917
99998.174
99998.417
99998.645
99998.857
99999.054
99999.235
99999.402
99999.554
99999.693
99999.819
99999.934
100000.04
100000.13
100000.22
100000.3
100000.37
100000.44
100000.5
100000.55
100000.6
100000.65
100000.69
100000.73
100000.77
100000.81
100000.84
100000.88
100000.91
100000.94
100000.97
100000.99
100001.02
100001.05
100001.07
100001.1
100001.12
100001.14
100001.16
99995.45
99995.273
99995.185
99995.209
99995.318
99995.495
99995.727
99995.998
99996.296
99996.608
99996.925
99997.24
99997.547
99997.842
99998.122
99998.385
99998.63
99998.857
99999.065
99999.256
99999.43
99999.588
99999.732
99999.861
99999.979
100000.08
100000.18
100000.27
100000.35
100000.42
100000.48
100000.54
100000.6
100000.65
100000.69
100000.74
100000.78
100000.81
100000.85
100000.88
100000.91
100000.94
100000.97
100001
100001.03
100001.05
100001.08
100001.1
100001.13
100001.15
100001.17
100001.19
99994.982
99994.792
99994.708
99994.754
99994.895
99995.114
99995.39
99995.707
99996.05
99996.404
99996.761
99997.112
99997.451
99997.774
99998.079
99998.362
99998.625
99998.866
99999.086
99999.286
99999.467
99999.63
99999.777
99999.91
100000.03
100000.14
100000.23
100000.32
100000.4
100000.47
100000.53
100000.59
100000.64
100000.69
100000.74
100000.78
100000.82
100000.85
100000.89
100000.92
100000.95
100000.98
100001.01
100001.04
100001.06
100001.09
100001.11
100001.14
100001.16
100001.18
100001.2
100001.22
99994.468
99994.263
99994.187
99994.26
99994.442
99994.708
99995.036
99995.406
99995.799
99996.201
99996.601
99996.991
99997.364
99997.717
99998.046
99998.351
99998.63
99998.885
99999.116
99999.324
99999.511
99999.679
99999.829
99999.964
100000.08
100000.19
100000.29
100000.37
100000.45
100000.52
100000.58
100000.64
100000.69
100000.74
100000.78
100000.82
100000.86
100000.89
100000.93
100000.96
100000.99
100001.02
100001.04
100001.07
100001.1
100001.12
100001.14
100001.17
100001.19
100001.21
100001.23
100001.25
99993.901
99993.681
99993.618
99993.726
99993.956
99994.279
99994.667
99995.096
99995.545
99995.999
99996.446
99996.878
99997.287
99997.67
99998.025
99998.351
99998.648
99998.916
99999.157
99999.373
99999.565
99999.736
99999.888
100000.02
100000.14
100000.25
100000.34
100000.43
100000.5
100000.57
100000.63
100000.69
100000.74
100000.78
100000.82
100000.86
100000.9
100000.93
100000.96
100000.99
100001.02
100001.05
100001.08
100001.1
100001.13
100001.15
100001.17
100001.2
100001.22
100001.24
100001.26
100001.28
99993.275
99993.04
99992.996
99993.148
99993.436
99993.825
99994.282
99994.778
99995.291
99995.802
99996.3
99996.776
99997.223
99997.638
99998.019
99998.366
99998.678
99998.959
99999.209
99999.431
99999.628
99999.801
99999.954
100000.09
100000.21
100000.31
100000.41
100000.49
100000.56
100000.63
100000.68
100000.74
100000.79
100000.83
100000.87
100000.91
100000.94
100000.97
100001
100001.03
100001.06
100001.08
100001.11
100001.14
100001.16
100001.18
100001.2
100001.22
100001.24
100001.26
100001.28
100001.3
99992.582
99992.333
99992.315
99992.521
99992.881
99993.348
99993.884
99994.456
99995.038
99995.612
99996.165
99996.687
99997.174
99997.621
99998.029
99998.396
99998.724
99999.015
99999.273
99999.5
99999.699
99999.874
100000.03
100000.16
100000.28
100000.38
100000.47
100000.55
100000.62
100000.68
100000.74
100000.79
100000.84
100000.88
100000.91
100000.95
100000.98
100001.01
100001.04
100001.07
100001.09
100001.12
100001.14
100001.17
100001.19
100001.21
100001.23
100001.25
100001.27
100001.28
100001.3
100001.32
99991.813
99991.551
99991.57
99991.844
99992.289
99992.848
99993.474
99994.132
99994.791
99995.433
99996.045
99996.617
99997.144
99997.624
99998.057
99998.443
99998.785
99999.086
99999.35
99999.58
99999.78
99999.954
100000.1
100000.24
100000.35
100000.45
100000.54
100000.61
100000.68
100000.74
100000.79
100000.84
100000.88
100000.92
100000.96
100000.99
100001.02
100001.05
100001.07
100001.1
100001.13
100001.15
100001.17
100001.2
100001.22
100001.24
100001.26
100001.28
100001.29
100001.31
100001.32
100001.35
99990.958
99990.685
99990.753
99991.112
99991.659
99992.326
99993.057
99993.81
99994.555
99995.271
99995.944
99996.567
99997.136
99997.648
99998.105
99998.509
99998.863
99999.172
99999.439
99999.67
99999.87
100000.04
100000.19
100000.32
100000.43
100000.52
100000.61
100000.68
100000.74
100000.8
100000.85
100000.89
100000.93
100000.97
100001
100001.03
100001.06
100001.08
100001.11
100001.13
100001.16
100001.18
100001.2
100001.22
100001.25
100001.27
100001.28
100001.3
100001.31
99990.005
99989.723
99989.858
99990.323
99990.993
99991.785
99992.635
99993.495
99994.334
99995.129
99995.868
99996.544
99997.153
99997.697
99998.176
99998.595
99998.959
99999.272
99999.541
99999.772
99999.968
100000.14
100000.28
100000.4
100000.51
100000.6
100000.68
100000.74
100000.8
100000.85
100000.9
100000.94
100000.98
100001.01
100001.04
100001.07
100001.1
100001.12
100001.14
100001.17
100001.19
100001.21
100001.23
100001.25
100001.27
100001.29
100001.31
100001.32
100001.34
99988.938
99988.652
99988.877
99989.473
99990.29
99991.229
99992.215
99993.195
99994.135
99995.015
99995.822
99996.551
99997.2
99997.773
99998.272
99998.703
99999.073
99999.388
99999.656
99999.883
100000.07
100000.24
100000.37
100000.49
100000.59
100000.68
100000.75
100000.81
100000.86
100000.91
100000.95
100000.99
100001.02
100001.05
100001.08
100001.11
100001.13
100001.15
100001.18
100001.2
100001.22
100001.24
100001.26
100001.28
100001.3
100001.31
100001.33
100001.35
100001.36
99987.74
99987.457
99987.802
99988.56
99989.554
99990.663
99991.803
99992.916
99993.968
99994.936
99995.813
99996.594
99997.281
99997.878
99998.393
99998.833
99999.206
99999.52
99999.783
100000
100000.19
100000.34
100000.47
100000.58
100000.68
100000.76
100000.82
100000.88
100000.92
100000.97
100001.01
100001.04
100001.07
100001.1
100001.12
100001.14
100001.17
100001.19
100001.21
100001.23
100001.25
100001.27
100001.28
100001.3
100001.32
100001.34
100001.35
100001.37
100001.38
99986.391
99986.119
99986.626
99987.582
99988.788
99990.096
99991.411
99992.671
99993.841
99994.903
99995.848
99996.679
99997.399
99998.017
99998.543
99998.986
99999.357
99999.666
99999.922
100000.13
100000.31
100000.46
100000.58
100000.68
100000.76
100000.83
100000.89
100000.94
100000.99
100001.02
100001.06
100001.09
100001.11
100001.14
100001.16
100001.18
100001.2
100001.22
100001.24
100001.26
100001.27
100001.29
100001.31
100001.33
100001.34
100001.36
100001.37
100001.39
100001.4
99984.867
99984.618
99985.339
99986.54
99988
99989.537
99991.05
99992.472
99993.769
99994.925
99995.937
99996.811
99997.558
99998.191
99998.721
99999.162
99999.527
99999.827
100000.07
100000.27
100000.44
100000.57
100000.68
100000.78
100000.85
100000.91
100000.96
100001.01
100001.05
100001.08
100001.11
100001.13
100001.16
100001.18
100001.2
100001.22
100001.23
100001.25
100001.27
100001.28
100001.3
100001.32
100001.33
100001.35
100001.36
100001.38
100001.39
100001.41
100001.42
99983.14
99982.926
99983.936
99985.436
99987.198
99989.002
99990.738
99992.336
99993.764
99995.013
99996.088
99996.999
99997.763
99998.401
99998.929
99999.362
99999.715
100000
100000.23
100000.42
100000.57
100000.69
100000.79
100000.87
100000.93
100000.99
100001.03
100001.07
100001.11
100001.13
100001.16
100001.18
100001.2
100001.22
100001.23
100001.25
100001.26
100001.28
100001.29
100001.31
100001.32
100001.34
100001.35
100001.37
100001.38
100001.4
100001.41
100001.42
100001.44
99981.18
99981.016
99982.41
99984.274
99986.397
99988.507
99990.491
99992.277
99993.84
99995.179
99996.307
99997.245
99998.017
99998.65
99999.165
99999.583
99999.919
100000.19
100000.4
100000.57
100000.7
100000.81
100000.9
100000.96
100001.02
100001.07
100001.11
100001.14
100001.16
100001.19
100001.21
100001.22
100001.24
100001.25
100001.27
100001.28
100001.29
100001.31
100001.32
100001.33
100001.35
100001.36
100001.37
100001.39
100001.4
100001.41
100001.43
100001.44
100001.45
99978.952
99978.849
99980.758
99983.063
99985.615
99988.074
99990.328
99992.31
99994.006
99995.427
99996.6
99997.554
99998.321
99998.937
99999.431
99999.825
100000.14
100000.38
100000.57
100000.72
100000.84
100000.93
100001
100001.06
100001.11
100001.14
100001.17
100001.2
100001.22
100001.24
100001.25
100001.26
100001.28
100001.29
100001.3
100001.31
100001.32
100001.33
100001.35
100001.36
100001.37
100001.38
100001.39
100001.41
100001.42
100001.43
100001.44
100001.46
100001.47
99976.419
99976.384
99978.982
99981.818
99984.873
99987.723
99990.267
99992.45
99994.273
99995.764
99996.968
99997.925
99998.673
99999.261
99999.724
100000.09
100000.37
100000.59
100000.75
100000.88
100000.98
100001.05
100001.11
100001.16
100001.19
100001.22
100001.24
100001.26
100001.27
100001.28
100001.3
100001.3
100001.31
100001.32
100001.33
100001.34
100001.35
100001.36
100001.37
100001.38
100001.39
100001.4
100001.41
100001.42
100001.43
100001.44
100001.46
100001.47
100001.48
99973.543
99973.57
99977.087
99980.555
99984.198
99987.479
99990.33
99992.711
99994.648
99996.194
99997.412
99998.356
99999.072
99999.62
100000.04
100000.36
100000.61
100000.8
100000.94
100001.04
100001.11
100001.17
100001.21
100001.25
100001.27
100001.29
100001.3
100001.31
100001.32
100001.33
100001.34
100001.34
100001.35
100001.35
100001.36
100001.37
100001.37
100001.38
100001.39
100001.4
100001.41
100001.42
100001.43
100001.44
100001.44
100001.46
100001.47
100001.48
100001.49
99970.287
99970.346
99975.09
99979.3
99983.62
99987.372
99990.538
99993.107
99995.14
99996.718
99997.931
99998.844
99999.513
100000.01
100000.38
100000.65
100000.86
100001.01
100001.11
100001.19
100001.25
100001.29
100001.32
100001.34
100001.35
100001.36
100001.37
100001.37
100001.37
100001.37
100001.38
100001.38
100001.38
100001.38
100001.39
100001.39
100001.4
100001.4
100001.41
100001.42
100001.43
100001.44
100001.44
100001.45
100001.46
100001.47
100001.48
100001.49
100001.5
99966.621
99966.645
99973.012
99978.085
99983.178
99987.432
99990.912
99993.65
99995.751
99997.336
99998.521
99999.385
99999.988
100000.42
100000.73
100000.95
100001.11
100001.22
100001.29
100001.34
100001.38
100001.4
100001.42
100001.42
100001.43
100001.43
100001.42
100001.42
100001.42
100001.42
100001.41
100001.41
100001.41
100001.41
100001.41
100001.42
100001.42
100001.42
100001.43
100001.44
100001.44
100001.45
100001.46
100001.46
100001.47
100001.48
100001.49
100001.5
100001.51
99962.528
99962.382
99970.889
99976.955
99982.917
99987.694
99991.474
99994.349
99996.484
99998.043
99999.177
99999.972
100000.49
100000.86
100001.1
100001.25
100001.36
100001.42
100001.47
100001.49
100001.51
100001.51
100001.51
100001.5
100001.5
100001.49
100001.48
100001.47
100001.46
100001.45
100001.45
100001.44
100001.44
100001.44
100001.44
100001.44
100001.44
100001.44
100001.45
100001.45
100001.46
100001.46
100001.47
100001.47
99958
99957.462
99968.77
99975.969
99982.891
99988.194
99992.241
99995.21
99997.334
99998.831
99999.889
100000.6
100001.02
100001.3
100001.46
100001.55
100001.6
100001.63
100001.64
100001.64
100001.63
100001.62
100001.6
100001.58
100001.56
100001.55
100001.53
100001.51
100001.5
100001.49
100001.48
100001.47
100001.47
100001.46
100001.46
100001.46
100001.46
100001.46
100001.46
100001.47
100001.47
100001.48
100001.48
100001.49
99953.015
99951.767
99966.726
99975.208
99983.161
99988.967
99993.227
99996.23
99998.293
99999.689
100000.65
100001.25
100001.56
100001.74
100001.83
100001.83
100001.83
100001.83
100001.81
100001.78
100001.75
100001.72
100001.68
100001.65
100001.63
100001.6
100001.58
100001.56
100001.54
100001.52
100001.51
100001.5
100001.49
100001.48
100001.48
100001.48
100001.47
100001.48
100001.48
100001.48
100001.49
100001.49
100001.49
100001.5
99947.539
99945.196
99964.862
99974.776
99983.794
99990.044
99994.437
99997.405
99999.344
100000.6
100001.44
100001.93
100002.1
100002.18
100002.18
100002.11
100002.07
100002.02
100001.97
100001.91
100001.86
100001.81
100001.76
100001.72
100001.68
100001.65
100001.62
100001.59
100001.57
100001.55
100001.54
100001.52
100001.51
100001.5
100001.5
100001.49
100001.49
100001.49
100001.49
100001.49
100001.5
100001.5
100001.5
100001.51
99941.843
99937.765
99963.323
99974.803
99984.855
99991.447
99995.869
99998.718
100000.47
100001.54
100002.25
100002.61
100002.64
100002.6
100002.5
100002.39
100002.29
100002.2
100002.12
100002.03
100001.96
100001.89
100001.84
100001.78
100001.74
100001.7
100001.66
100001.63
100001.6
100001.58
100001.56
100001.54
100001.53
100001.52
100001.51
100001.51
100001.5
100001.5
100001.5
100001.5
100001.51
100001.51
100001.51
100001.52
99937.074
99929.63
99962.253
99975.431
99986.399
99993.183
99997.505
100000.14
100001.66
100002.49
100003.05
100003.3
100003.17
100002.99
100002.81
100002.65
100002.5
100002.37
100002.25
100002.15
100002.05
100001.97
100001.9
100001.84
100001.78
100001.74
100001.69
100001.66
100001.63
100001.6
100001.58
100001.56
100001.55
100001.54
100001.53
100001.52
100001.51
100001.51
100001.51
100001.51
100001.52
100001.52
100001.52
100001.53
99932.543
99920.433
99961.763
99976.816
99988.466
99995.232
99999.308
100001.65
100002.88
100003.41
100003.84
100003.98
100003.65
100003.35
100003.12
100002.89
100002.7
100002.53
100002.38
100002.25
100002.14
100002.04
100001.96
100001.89
100001.83
100001.77
100001.73
100001.69
100001.65
100001.62
100001.6
100001.58
100001.56
100001.55
100001.54
100001.53
100001.53
100001.52
100001.52
100001.52
100001.52
100001.53
100001.53
100001.53
99912.265
99908.458
99962.216
99979.21
99991.094
99997.549
100001.23
100003.2
100004.07
100004.28
100004.63
100004.64
100004.07
100003.7
100003.4
100003.12
100002.87
100002.67
100002.49
100002.34
100002.21
100002.1
100002.01
100001.93
100001.86
100001.8
100001.75
100001.71
100001.67
100001.64
100001.62
100001.59
100001.58
100001.56
100001.55
100001.54
100001.53
100001.53
100001.53
100001.53
100001.53
100001.53
100001.53
100001.54
99836.4
99895.144
99965.031
99982.974
99994.346
100000.11
100003.22
100004.74
100005.2
100005.11
100005.39
100005.25
100004.44
100004.02
100003.65
100003.31
100003.03
100002.79
100002.59
100002.42
100002.28
100002.16
100002.06
100001.97
100001.9
100001.83
100001.78
100001.73
100001.69