/*--------------------------------*- C++ -*----------------------------------*\
| =========                 |                                                 |
| \\      /  F ield         | OpenFOAM: The Open Source CFD Toolbox           |
|  \\    /   O peration     | Version:  2312                                  |
|   \\  /    A nd           | Website:  www.openfoam.com                      |
|    \\/     M anipulation  |                                                 |
\*---------------------------------------------------------------------------*/
FoamFile
{
    version     2.0;
    format      ascii;
    arch        "LSB;label=32;scalar=64";
    class       surfaceScalarField;
    location    "0.08";
    object      phi;
}
// * * * * * * * * * * * * * * * * * * * * * * * * * * * * * * * * * * * * * //

dimensions      [1 0 -1 0 0 0 0];

oriented        oriented;

internalField   nonuniform List<scalar> 
6325
(
4.4916215e-07
-4.6366268e-10
4.4703562e-07
-9.9413623e-10
4.4449129e-07
-1.133693e-09
4.4166585e-07
-1.0198734e-09
4.3863856e-07
-7.8372619e-10
4.3547213e-07
-5.1689656e-10
4.3220899e-07
-2.6695596e-10
4.2882633e-07
-1.6883358e-11
4.2535527e-07
1.3462945e-10
4.2182174e-07
1.595672e-10
4.1825118e-07
3.4319415e-11
4.1467413e-07
-2.6174339e-10
4.1104676e-07
-6.6076722e-10
4.0738206e-07
-1.2322362e-09
4.0372114e-07
-2.017308e-09
4.0009453e-07
-3.0090342e-09
3.9652456e-07
-4.1992899e-09
3.9303219e-07
-5.5860285e-09
3.8963086e-07
-7.1560465e-09
3.863316e-07
-8.9010231e-09
3.8314378e-07
-1.0813359e-08
3.80075e-07
-1.288447e-08
3.771312e-07
-1.5105039e-08
3.7431689e-07
-1.7465284e-08
3.7163521e-07
-1.9955087e-08
3.6908807e-07
-2.2564108e-08
3.666762e-07
-2.528191e-08
3.6439921e-07
-2.8098077e-08
3.6225572e-07
-3.1002312e-08
3.6024342e-07
-3.3984525e-08
3.5835916e-07
-3.7034909e-08
3.5659903e-07
-4.0144009e-08
3.5495844e-07
-4.3302765e-08
3.5343223e-07
-4.6502547e-08
3.5201473e-07
-4.9735181e-08
3.5069985e-07
-5.299297e-08
3.4948116e-07
-5.6268696e-08
3.4835195e-07
-5.9555626e-08
3.4730532e-07
-6.2847504e-08
3.4633421e-07
-6.6138544e-08
3.4543148e-07
-6.9423412e-08
3.4458996e-07
-7.269721e-08
3.4380248e-07
-7.5955461e-08
3.4306193e-07
-7.9194086e-08
3.4236125e-07
-8.2409387e-08
3.4169348e-07
-8.5598036e-08
3.410517e-07
-8.8757059e-08
3.4042901e-07
-9.188382e-08
3.3981823e-07
-9.4975996e-08
3.392117e-07
-9.8031461e-08
3.3860254e-07
-1.0104841e-07
-1.0402521e-07
4.376706e-07
2.114561e-10
4.3606381e-07
6.7897427e-10
4.3384905e-07
1.1950088e-09
4.312327e-07
1.7599833e-09
4.2832166e-07
2.3422384e-09
4.2517079e-07
2.9020868e-09
4.2182073e-07
3.406021e-09
4.1835633e-07
3.8268286e-09
4.1479904e-07
4.1291694e-09
4.1116944e-07
4.2858112e-09
4.0748452e-07
4.2766526e-09
4.037532e-07
4.089083e-09
4.000555e-07
3.7197472e-09
3.9641623e-07
3.1540483e-09
3.9283127e-07
2.3797148e-09
3.8930459e-07
1.3955336e-09
3.8581805e-07
2.3159403e-10
3.8243933e-07
-1.1958674e-09
3.79151e-07
-2.7888375e-09
3.7596331e-07
-4.5667703e-09
3.7288643e-07
-6.5220925e-09
3.6992862e-07
-8.6444728e-09
3.6709649e-07
-1.0923096e-08
3.6439502e-07
-1.3346666e-08
3.6182758e-07
-1.59036e-08
3.5939606e-07
-1.8582205e-08
3.57101e-07
-2.1370823e-08
3.549417e-07
-2.4257936e-08
3.5291639e-07
-2.7232265e-08
3.5102232e-07
-3.028285e-08
3.4925586e-07
-3.3399123e-08
3.4761263e-07
-3.657096e-08
3.4608758e-07
-3.978873e-08
3.4467512e-07
-4.3043322e-08
3.4336918e-07
-4.6326166e-08
3.4216331e-07
-4.9629242e-08
3.4105074e-07
-5.2945088e-08
3.4002452e-07
-5.626679e-08
3.390775e-07
-5.9587973e-08
3.3820245e-07
-6.2902787e-08
3.3739209e-07
-6.6205886e-08
3.3663916e-07
-6.9492404e-08
3.3593642e-07
-7.2757935e-08
3.352767e-07
-7.5998506e-08
3.3465288e-07
-7.9210551e-08
3.3405795e-07
-8.2390891e-08
3.3348495e-07
-8.5536709e-08
3.32927e-07
-8.8645524e-08
3.3237715e-07
-9.1715163e-08
3.3182789e-07
-9.4743709e-08
3.3127121e-07
-9.7729424e-08
-1.0067073e-07
4.260316e-07
7.2835621e-10
4.2473888e-07
2.0343871e-09
4.2282586e-07
3.2165117e-09
4.2044043e-07
4.3015011e-09
4.176946e-07
5.2934973e-09
4.146701e-07
6.1830478e-09
4.1143135e-07
6.9538975e-09
4.0803527e-07
7.5862201e-09
4.0452415e-07
8.05922e-09
4.009324e-07
8.3534794e-09
3.9728992e-07
8.4533022e-09
3.9362533e-07
8.3472909e-09
3.8997216e-07
8.0270511e-09
3.8635544e-07
7.486384e-09
3.827916e-07
6.7214842e-09
3.7929509e-07
5.7330551e-09
3.7590633e-07
4.5251091e-09
3.7258408e-07
3.0952526e-09
3.693678e-07
1.4608632e-09
3.6626793e-07
-3.6868909e-10
3.6329277e-07
-2.3838415e-09
3.6044892e-07
-4.5726718e-09
3.5774137e-07
-6.9229297e-09
3.5517358e-07
-9.421879e-09
3.5274754e-07
-1.2056601e-08
3.5046384e-07
-1.4814158e-08
3.4832183e-07
-1.7681732e-08
3.4631966e-07
-2.0646753e-08
3.4445445e-07
-2.3697003e-08
3.4272239e-07
-2.6820691e-08
3.4111885e-07
-3.0006528e-08
3.3963848e-07
-3.3243778e-08
3.3827536e-07
-3.6522295e-08
3.3702306e-07
-3.9832549e-08
3.3587476e-07
-4.3165641e-08
3.3482332e-07
-4.6513303e-08
3.3386141e-07
-4.9867897e-08
3.3298152e-07
-5.3222404e-08
3.3217607e-07
-5.6570404e-08
3.3143747e-07
-5.9906057e-08
3.3075814e-07
-6.3224074e-08
3.3013057e-07
-6.6519689e-08
3.2954735e-07
-6.9788632e-08
3.2900118e-07
-7.3027096e-08
3.2848488e-07
-7.6231702e-08
3.2799136e-07
-7.9399476e-08
3.2751369e-07
-8.2527808e-08
3.27045e-07
-8.5614428e-08
3.2657852e-07
-8.8657365e-08
3.2610701e-07
-9.1654914e-08
3.2562287e-07
-9.4605571e-08
-9.7508041e-08
4.1465882e-07
1.1381309e-09
4.1356893e-07
3.18328e-09
4.1188818e-07
5.0000735e-09
4.0972187e-07
6.6161108e-09
4.0716392e-07
8.0468595e-09
4.0429451e-07
9.2965518e-09
4.011818e-07
1.0360903e-08
3.9788383e-07
1.1230104e-08
3.9445033e-07
1.1891632e-08
3.9092408e-07
1.2332918e-08
3.8734273e-07
1.2543294e-08
3.8374032e-07
1.2514904e-08
3.8014737e-07
1.2242753e-08
3.7659054e-07
1.1724421e-08
3.7309225e-07
1.096023e-08
3.6967224e-07
9.9534338e-09
3.6634865e-07
8.7095602e-09
3.6312883e-07
7.2368847e-09
3.6002691e-07
5.5458785e-09
3.5705396e-07
3.6488553e-09
3.5421773e-07
1.558559e-09
3.5152424e-07
-7.1150379e-10
3.4897762e-07
-3.1472899e-09
3.4658029e-07
-5.7344864e-09
3.4433307e-07
-8.4586978e-09
3.4223531e-07
-1.1305639e-08
3.4028504e-07
-1.4261281e-08
3.3847911e-07
-1.7311983e-08
3.3681333e-07
-2.0444584e-08
3.3528261e-07
-2.3646489e-08
3.3388108e-07
-2.6905728e-08
3.3260224e-07
-3.0211008e-08
3.3143905e-07
-3.3551736e-08
3.3038407e-07
-3.691804e-08
3.2942955e-07
-4.0300773e-08
3.2856754e-07
-4.3691507e-08
3.2778993e-07
-4.7082521e-08
3.270886e-07
-5.0466781e-08
3.264554e-07
-5.3837914e-08
3.2588229e-07
-5.7190176e-08
3.2536131e-07
-6.0518424e-08
3.2488468e-07
-6.3818074e-08
3.2444477e-07
-6.7085069e-08
3.2403414e-07
-7.0315839e-08
3.2364553e-07
-7.3507263e-08
3.2327186e-07
-7.6656634e-08
3.2290622e-07
-7.9761617e-08
3.2254189e-07
-8.2820215e-08
3.2217228e-07
-8.5830726e-08
3.217904e-07
-8.8791715e-08
3.2138885e-07
-9.170196e-08
-9.4560465e-08
4.0354643e-07
1.489281e-09
4.0258913e-07
4.1958594e-09
4.0107777e-07
6.6084122e-09
3.9908917e-07
8.7449417e-09
3.9670003e-07
1.0620998e-08
3.9398242e-07
1.2245351e-08
3.9100232e-07
1.3619812e-08
3.8781919e-07
1.4740983e-08
3.8448622e-07
1.5602565e-08
3.8105079e-07
1.6197713e-08
3.775552e-07
1.6520769e-08
3.7403724e-07
1.6568271e-08
3.705305e-07
1.6339352e-08
3.6706434e-07
1.5835711e-08
3.63664e-07
1.5061688e-08
3.6035101e-07
1.4024165e-08
3.5714316e-07
1.2732265e-08
3.5405528e-07
1.1197161e-08
3.510995e-07
9.4318747e-09
3.4828582e-07
7.4507366e-09
3.4562176e-07
5.2688596e-09
3.4311254e-07
2.9019163e-09
3.4076131e-07
3.6592432e-10
3.3856928e-07
-2.3229932e-09
3.3653591e-07
-5.148823e-09
3.3465913e-07
-8.0958351e-09
3.3293549e-07
-1.1148734e-08
3.3136034e-07
-1.4292779e-08
3.29928e-07
-1.7513877e-08
3.2863192e-07
-2.0798656e-08
3.2746486e-07
-2.413452e-08
3.2641897e-07
-2.7509685e-08
3.2548601e-07
-3.0913194e-08
3.246574e-07
-3.4334925e-08
3.2392436e-07
-3.7765582e-08
3.2327803e-07
-4.1196682e-08
3.2270949e-07
-4.4620526e-08
3.2220991e-07
-4.8030171e-08
3.2177058e-07
-5.1419396e-08
3.2138296e-07
-5.4782657e-08
3.2103872e-07
-5.8115052e-08
3.2072978e-07
-6.1412273e-08
3.2044833e-07
-6.4670562e-08
3.2018681e-07
-6.7886669e-08
3.1993794e-07
-7.1057806e-08
3.1969466e-07
-7.4181601e-08
3.194502e-07
-7.7256061e-08
3.1919802e-07
-8.0279522e-08
3.1893175e-07
-8.3250614e-08
3.1864475e-07
-8.6168222e-08
3.1832978e-07
-8.903144e-08
-9.1839584e-08
3.9271082e-07
1.8056769e-09
3.9183819e-07
5.1200929e-09
3.9044435e-07
8.0933826e-09
3.8858905e-07
1.0732356e-08
3.8633654e-07
1.3047958e-08
3.8375144e-07
1.5048583e-08
3.8089625e-07
1.6738122e-08
3.7782993e-07
1.8116646e-08
3.7460712e-07
1.9182121e-08
3.7127781e-07
1.993226e-08
3.6788735e-07
2.0365984e-08
3.6447651e-07
2.0484316e-08
3.6108157e-07
2.0290784e-08
3.5773432e-07
1.9791487e-08
3.544622e-07
1.8995029e-08
3.512885e-07
1.7912331e-08
3.4823259e-07
1.655633e-08
3.4531029e-07
1.4941665e-08
3.4253415e-07
1.3084486e-08
3.3991383e-07
1.1001932e-08
3.374562e-07
8.711789e-09
3.3516553e-07
6.2322028e-09
3.3304377e-07
3.5814249e-09
3.3109073e-07
7.7757584e-10
3.2930439e-07
-2.1615657e-09
3.2768104e-07
-5.2187341e-09
3.2621561e-07
-8.3773151e-09
3.2490178e-07
-1.1621456e-08
3.2373225e-07
-1.4936149e-08
3.2269891e-07
-1.8307296e-08
3.21793e-07
-2.1721741e-08
3.210053e-07
-2.5167295e-08
3.2032624e-07
-2.8632737e-08
3.1974608e-07
-3.2107804e-08
3.1925499e-07
-3.5583168e-08
3.1884314e-07
-3.9050409e-08
3.1850083e-07
-4.250197e-08
3.1821853e-07
-4.5931121e-08
3.1798697e-07
-4.9331907e-08
3.1779716e-07
-5.2699097e-08
3.1764043e-07
-5.6028137e-08
3.1750847e-07
-5.9315093e-08
3.1739332e-07
-6.2556601e-08
3.1728738e-07
-6.5749815e-08
3.1718341e-07
-6.8892357e-08
3.1707447e-07
-7.1982265e-08
3.1695398e-07
-7.5017948e-08
3.1681564e-07
-7.7998139e-08
3.1665344e-07
-8.092185e-08
3.1646107e-07
-8.3788336e-08
3.162316e-07
-8.6597042e-08
-8.9347624e-08
3.82154e-07
2.1010861e-09
3.8133463e-07
5.9874817e-09
3.8001944e-07
9.4939541e-09
3.7825913e-07
1.2616715e-08
3.7611053e-07
1.5360542e-08
3.7363319e-07
1.773109e-08
3.7088683e-07
1.9732006e-08
3.6792962e-07
2.1364904e-08
3.6481685e-07
2.2630549e-08
3.616001e-07
2.3530268e-08
3.5832681e-07
2.4067087e-08
3.5503991e-07
2.4246413e-08
3.5177774e-07
2.4076305e-08
3.4857394e-07
2.3567464e-08
3.454575e-07
2.2733037e-08
3.4245295e-07
2.1588341e-08
3.3958049e-07
2.0150511e-08
3.368563e-07
1.8438143e-08
3.3429284e-07
1.6470963e-08
3.3189919e-07
1.4269426e-08
3.2968126e-07
1.1854362e-08
3.276421e-07
9.2466779e-09
3.2578219e-07
6.4670917e-09
3.2409974e-07
3.5358925e-09
3.2259097e-07
4.7274215e-10
3.2125043e-07
-2.7034843e-09
3.2007119e-07
-5.9748266e-09
3.1904517e-07
-9.3243328e-09
3.1816332e-07
-1.2736128e-08
3.1741586e-07
-1.6195454e-08
3.1679248e-07
-1.9688691e-08
3.1628251e-07
-2.3203355e-08
3.1587508e-07
-2.6728081e-08
3.1555925e-07
-3.0252594e-08
3.1532415e-07
-3.376767e-08
3.1515906e-07
-3.7265084e-08
3.1505353e-07
-4.0737559e-08
3.1499739e-07
-4.4178705e-08
3.1498087e-07
-4.7582962e-08
3.1499462e-07
-5.094553e-08
3.150297e-07
-5.4262314e-08
3.1507767e-07
-5.752986e-08
3.1513051e-07
-6.0745291e-08
3.1518067e-07
-6.3906253e-08
3.1522104e-07
-6.7010854e-08
3.152449e-07
-7.0057612e-08
3.1524593e-07
-7.3045402e-08
3.1521822e-07
-7.5973407e-08
3.1515612e-07
-7.8841067e-08
3.150538e-07
-8.1648051e-08
3.1490467e-07
-8.4394189e-08
-8.7079503e-08
3.7187305e-07
2.3843263e-09
3.7108523e-07
6.8198475e-09
3.6981956e-07
1.0839374e-08
3.6812301e-07
1.4429425e-08
3.6604898e-07
1.7588298e-08
3.6365457e-07
2.0317934e-08
3.6099825e-07
2.2620565e-08
3.5813799e-07
2.4498271e-08
3.5512977e-07
2.5953752e-08
3.5202644e-07
2.6991368e-08
3.4887697e-07
2.761796e-08
3.4572591e-07
2.7843275e-08
3.4261306e-07
2.7680045e-08
3.3957327e-07
2.7143807e-08
3.3663647e-07
2.6252576e-08
3.3382769e-07
2.502644e-08
3.311673e-07
2.3487131e-08
3.2867122e-07
2.1657592e-08
3.2635125e-07
1.9561569e-08
3.2421539e-07
1.7223213e-08
3.2226821e-07
1.4666715e-08
3.2051113e-07
1.1915994e-08
3.1894286e-07
8.9944211e-09
3.1755969e-07
5.9245858e-09
3.1635588e-07
2.7281152e-09
3.1532395e-07
-5.7447641e-10
3.1445501e-07
-3.9638948e-09
3.1373903e-07
-7.4221402e-09
3.1316514e-07
-1.093255e-08
3.1272183e-07
-1.4479814e-08
3.1239719e-07
-1.8049971e-08
3.1217912e-07
-2.1630379e-08
3.1205544e-07
-2.5209677e-08
3.1201409e-07
-2.8777731e-08
3.1204321e-07
-3.2325571e-08
3.1213128e-07
-3.5845321e-08
3.1226715e-07
-3.9330129e-08
3.1244015e-07
-4.2774089e-08
3.1264012e-07
-4.6172165e-08
3.1285745e-07
-4.9520116e-08
3.1308307e-07
-5.281442e-08
3.1330849e-07
-5.6052204e-08
3.1352578e-07
-5.9231175e-08
3.1372755e-07
-6.2349554e-08
3.1390692e-07
-6.5406009e-08
3.140575e-07
-6.8399603e-08
3.1417336e-07
-7.1329733e-08
3.1424902e-07
-7.4196078e-08
3.1427932e-07
-7.6998551e-08
3.1425897e-07
-7.9737263e-08
3.1418185e-07
-8.2412459e-08
-8.5024547e-08
3.618629e-07
2.6616103e-09
3.6109067e-07
7.6332695e-09
3.5985213e-07
1.2152214e-08
3.5819403e-07
1.6196035e-08
3.561694e-07
1.9756688e-08
3.5383528e-07
2.2832128e-08
3.5125051e-07
2.5422736e-08
3.4847387e-07
2.7530613e-08
3.4556249e-07
2.9160052e-08
3.4257058e-07
3.031826e-08
3.3954848e-07
3.1015872e-08
3.3654195e-07
3.1267111e-08
3.3359178e-07
3.1089631e-08
3.3073349e-07
3.0504139e-08
3.2799727e-07
2.9533895e-08
3.2540803e-07
2.8204171e-08
3.229856e-07
2.65417e-08
3.2074499e-07
2.4574161e-08
3.1869671e-07
2.2329696e-08
3.1684718e-07
1.9836476e-08
3.1519907e-07
1.7122313e-08
3.137518e-07
1.4214331e-08
3.125019e-07
1.1138691e-08
3.1144341e-07
7.9203649e-09
3.1056834e-07
4.5829687e-09
3.0986698e-07
1.1486327e-09
3.0932827e-07
-2.3620811e-09
3.0894015e-07
-5.9302232e-09
3.0868982e-07
-9.5384688e-09
3.0856402e-07
-1.3171103e-08
3.0854926e-07
-1.6813982e-08
3.0863201e-07
-2.0454479e-08
3.0879886e-07
-2.4081411e-08
3.0903671e-07
-2.7684959e-08
3.0933281e-07
-3.1256581e-08
3.0967495e-07
-3.4788918e-08
3.1005145e-07
-3.8275699e-08
3.1045126e-07
-4.1711651e-08
3.1086396e-07
-4.5092402e-08
3.1127983e-07
-4.8414393e-08
3.1168982e-07
-5.167479e-08
3.1208554e-07
-5.4871404e-08
3.1245927e-07
-5.8002615e-08
3.1280392e-07
-6.1067295e-08
3.1311296e-07
-6.4064742e-08
3.1338045e-07
-6.6994619e-08
3.1360095e-07
-6.9856892e-08
3.1376951e-07
-7.2651775e-08
3.1388155e-07
-7.5379684e-08
3.139324e-07
-7.8041199e-08
3.1391649e-07
-8.0636997e-08
-8.3167881e-08
3.521176e-07
2.9376565e-09
3.5134857e-07
8.4402647e-09
3.5011936e-07
1.3450496e-08
3.4847897e-07
1.7937561e-08
3.4648248e-07
2.1887354e-08
3.4418885e-07
2.5293937e-08
3.4165885e-07
2.8155858e-08
3.3895317e-07
3.0475262e-08
3.3613074e-07
3.2258119e-08
3.3324742e-07
3.3514656e-08
3.3035492e-07
3.4259573e-08
3.2750004e-07
3.4511927e-08
3.2472415e-07
3.4294714e-08
3.2206291e-07
3.3634266e-08
3.1954618e-07
3.2559561e-08
3.1719811e-07
3.1101509e-08
3.1503732e-07
2.9292278e-08
3.1307723e-07
2.7164667e-08
3.1132644e-07
2.4751554e-08
3.0978915e-07
2.2085404e-08
3.0846569e-07
1.9197852e-08
3.0735294e-07
1.6119367e-08
3.0644485e-07
1.2878973e-08
3.0573289e-07
9.5040378e-09
3.052065e-07
6.0201251e-09
3.0485355e-07
2.4508936e-09
3.0466066e-07
-1.1819514e-09
3.0461363e-07
-4.8586656e-09
3.046977e-07
-8.5614392e-09
3.0489785e-07
-1.2274345e-08
3.0519902e-07
-1.598326e-08
3.0558634e-07
-1.9675776e-08
3.060453e-07
-2.3341092e-08
3.0656185e-07
-2.6969906e-08
3.0712254e-07
-3.0554292e-08
3.0771458e-07
-3.4087587e-08
3.0832594e-07
-3.7564271e-08
3.0894536e-07
-4.0979856e-08
3.0956234e-07
-4.4330772e-08
3.1016723e-07
-4.7614267e-08
3.1075114e-07
-5.0828305e-08
3.1130596e-07
-5.3971477e-08
3.1182431e-07
-5.7042914e-08
3.1229954e-07
-6.0042212e-08
3.1272563e-07
-6.2969354e-08
3.1309718e-07
-6.5824648e-08
3.1340934e-07
-6.8608666e-08
3.136578e-07
-7.1322186e-08
3.1383865e-07
-7.3966146e-08
3.139479e-07
-7.6541605e-08
3.139806e-07
-7.9049683e-08
-8.1491581e-08
3.4263078e-07
3.2162842e-09
3.4185489e-07
9.2510624e-09
3.4062035e-07
1.4749101e-08
3.3898043e-07
1.9671581e-08
3.3699416e-07
2.3998655e-08
3.3472412e-07
2.77208e-08
3.3223442e-07
3.0835051e-08
3.295887e-07
3.3343971e-08
3.2684842e-07
3.525564e-08
3.2407145e-07
3.6583805e-08
3.2131097e-07
3.734779e-08
3.1861465e-07
3.7572077e-08
3.1602411e-07
3.7285615e-08
3.1357468e-07
3.6520962e-08
3.1129533e-07
3.5313381e-08
3.0920876e-07
3.3699946e-08
3.0733173e-07
3.1718718e-08
3.0567538e-07
2.9408008e-08
3.0424574e-07
2.6805733e-08
3.0304424e-07
2.3948881e-08
3.0206826e-07
2.0873062e-08
3.0131169e-07
1.7612161e-08
3.0076548e-07
1.4198065e-08
3.0041819e-07
1.0660478e-08
3.0025645e-07
7.0267935e-09
3.0026549e-07
3.3220425e-09
3.0042951e-07
-4.3111874e-10
3.0073209e-07
-4.2123679e-09
3.0115651e-07
-8.0036442e-09
3.0168603e-07
-1.1789049e-08
3.0230413e-07
-1.5554725e-08
3.0299471e-07
-1.9288723e-08
3.0374228e-07
-2.2980856e-08
3.0453204e-07
-2.6622556e-08
3.0534998e-07
-3.0206721e-08
3.0618298e-07
-3.3727574e-08
3.0701884e-07
-3.7180518e-08
3.0784625e-07
-4.0562002e-08
3.0865488e-07
-4.3869396e-08
3.0943529e-07
-4.7100871e-08
3.1017895e-07
-5.0255292e-08
3.1087819e-07
-5.3332112e-08
3.1152615e-07
-5.6331288e-08
3.1211674e-07
-5.9253191e-08
3.1264457e-07
-6.2098535e-08
3.1310491e-07
-6.4868307e-08
3.1349361e-07
-6.7563706e-08
3.1380707e-07
-7.0186091e-08
3.1404213e-07
-7.2736926e-08
3.1419554e-07
-7.5217756e-08
3.1426305e-07
-7.7630134e-08
-7.9975652e-08
3.3339595e-07
3.5007511e-09
3.3260465e-07
1.0074374e-08
3.313524e-07
1.6060684e-08
3.2969839e-07
2.1413033e-08
3.2770722e-07
2.6106173e-08
3.2544664e-07
3.0127448e-08
3.2298532e-07
3.3472943e-08
3.2039083e-07
3.6146298e-08
3.1772782e-07
3.8158449e-08
3.1505654e-07
3.952746e-08
3.1243172e-07
4.0278105e-08
3.0990176e-07
4.0441124e-08
3.075082e-07
4.0052217e-08
3.0528555e-07
3.9150922e-08
3.0326127e-07
3.7779463e-08
3.0145599e-07
3.5981668e-08
2.9988386e-07
3.380198e-08
2.985531e-07
3.1284601e-08
2.9746651e-07
2.8472774e-08
2.9662212e-07
2.5408185e-08
2.9601382e-07
2.2130505e-08
2.9563203e-07
1.867703e-08
2.9546433e-07
1.508243e-08
2.9549604e-07
1.1378598e-08
2.9571078e-07
7.5945641e-09
2.9609098e-07
3.7564932e-09
2.9661836e-07
-1.1227061e-10
2.9727426e-07
-3.9911103e-09
2.9804004e-07
-7.8620052e-09
2.9889735e-07
-1.1709376e-08
2.9982834e-07
-1.5519915e-08
3.0081586e-07
-1.9282404e-08
3.0184363e-07
-2.2987527e-08
3.028963e-07
-2.6627686e-08
3.0395955e-07
-3.0196822e-08
3.0502014e-07
-3.3690235e-08
3.0606589e-07
-3.7104421e-08
3.0708573e-07
-4.0436918e-08
3.0806964e-07
-4.3686162e-08
3.0900863e-07
-4.6851356e-08
3.098947e-07
-4.993235e-08
3.107208e-07
-5.2929534e-08
3.1148074e-07
-5.5843743e-08
3.1216912e-07
-5.8676166e-08
3.1278132e-07
-6.1428275e-08
3.1331336e-07
-6.4101753e-08
3.1376191e-07
-6.6698438e-08
3.1412415e-07
-6.9220264e-08
3.1439771e-07
-7.1669224e-08
3.1458014e-07
-7.4047329e-08
3.1466797e-07
-7.6356555e-08
-7.8598865e-08
3.2440663e-07
3.7939531e-09
3.2359242e-07
1.0917865e-08
3.2231172e-07
1.7396258e-08
3.2063116e-07
2.3174755e-08
3.1862242e-07
2.8223082e-08
3.1635975e-07
3.2526039e-08
3.1391754e-07
3.6079543e-08
3.1136816e-07
3.888924e-08
3.0878002e-07
4.0969947e-08
3.0621606e-07
4.2345132e-08
3.0373259e-07
4.3046113e-08
3.0137852e-07
4.3110947e-08
2.9919496e-07
4.2583083e-08
2.9721502e-07
4.1509932e-08
2.9546403e-07
3.9941462e-08
2.9395982e-07
3.7928899e-08
2.9271329e-07
3.5523574e-08
2.9172897e-07
3.2775957e-08
2.9100576e-07
2.9734854e-08
2.905377e-07
2.6446773e-08
2.9031466e-07
2.2955445e-08
2.9032317e-07
1.9301486e-08
2.9054707e-07
1.5522178e-08
2.9096818e-07
1.1651365e-08
2.9156694e-07
7.7194286e-09
2.9232294e-07
3.7533483e-09
2.9321534e-07
-2.2318486e-10
2.9422335e-07
-4.1896083e-09
2.9532652e-07
-8.1282886e-09
2.9650504e-07
-1.2024304e-08
2.9773992e-07
-1.5865216e-08
2.9901321e-07
-1.9640836e-08
3.0030805e-07
-2.3342995e-08
3.0160882e-07
-2.6965315e-08
3.0290113e-07
-3.0502993e-08
3.0417186e-07
-3.3952602e-08
3.0540913e-07
-3.7311895e-08
3.066023e-07
-4.0579636e-08
3.0774192e-07
-4.3755441e-08
3.0881963e-07
-4.6839637e-08
3.0982817e-07
-4.9833129e-08
3.1076124e-07
-5.2737298e-08
3.1161347e-07
-5.555389e-08
3.1238032e-07
-5.8284938e-08
3.1305801e-07
-6.0932681e-08
3.1364343e-07
-6.3499502e-08
3.1413411e-07
-6.5987866e-08
3.145281e-07
-6.8400274e-08
3.1482385e-07
-7.0739221e-08
3.1501978e-07
-7.3007168e-08
3.1511317e-07
-7.5206484e-08
-7.7339473e-08
3.1565635e-07
4.0985472e-09
3.148125e-07
1.1788455e-08
3.1349389e-07
1.8765574e-08
3.1177607e-07
2.4967845e-08
3.0973926e-07
3.0360402e-08
3.0746545e-07
3.4926255e-08
3.0503581e-07
3.8662153e-08
3.0252827e-07
4.157695e-08
3.0001549e-07
4.3690665e-08
2.9756328e-07
4.5033537e-08
2.9522947e-07
4.564479e-08
2.930632e-07
4.5571086e-08
2.9110461e-07
4.4864802e-08
2.8938484e-07
4.3582258e-08
2.8792637e-07
4.178203e-08
2.867435e-07
3.9523431e-08
2.8584305e-07
3.68652e-08
2.8522519e-07
3.3864414e-08
2.8488425e-07
3.0575625e-08
2.8480966e-07
2.7050194e-08
2.8498681e-07
2.3335827e-08
2.8539791e-07
1.9476266e-08
2.8602279e-07
1.5511128e-08
2.8683961e-07
1.147587e-08
2.8782551e-07
7.4018437e-09
2.8895721e-07
3.3164351e-09
2.9021144e-07
-7.5673484e-10
2.9156539e-07
-4.7975713e-09
2.92997e-07
-8.7892281e-09
2.944852e-07
-1.2717818e-08
2.9601016e-07
-1.6572124e-08
2.9755337e-07
-2.0343306e-08
2.9909771e-07
-2.4024623e-08
3.0062757e-07
-2.7611167e-08
3.0212875e-07
-3.1099611e-08
3.0358856e-07
-3.4487977e-08
3.0499566e-07
-3.7775427e-08
3.0634009e-07
-4.0962071e-08
3.0761317e-07
-4.4048801e-08
3.088074e-07
-4.7037133e-08
3.0991639e-07
-4.9929084e-08
3.1093479e-07
-5.2727049e-08
3.1185818e-07
-5.5433707e-08
3.1268295e-07
-5.8051936e-08
3.134063e-07
-6.0584736e-08
3.1402605e-07
-6.3035168e-08
3.1454065e-07
-6.5406305e-08
3.1494903e-07
-6.7701185e-08
3.1525054e-07
-6.9922775e-08
3.1544443e-07
-7.2073947e-08
3.1552881e-07
-7.4157427e-08
-7.6175822e-08
3.0713879e-07
4.4170309e-09
3.0625912e-07
1.2692504e-08
3.0489415e-07
2.0177352e-08
3.0312991e-07
2.6801872e-08
3.0105652e-07
3.2527143e-08
2.9876497e-07
3.7335322e-08
2.9634416e-07
4.122526e-08
2.9387826e-07
4.4210509e-08
2.9144452e-07
4.631792e-08
2.891117e-07
4.7586174e-08
2.8693894e-07
4.8064023e-08
2.8497516e-07
4.7808258e-08
2.8325895e-07
4.6881534e-08
2.8181873e-07
4.5350232e-08
2.8067332e-07
4.3282476e-08
2.7983266e-07
4.0746384e-08
2.7929873e-07
3.7808591e-08
2.7906655e-07
3.4533069e-08
2.7912524e-07
3.0980208e-08
2.7945906e-07
2.7206158e-08
2.8004846e-07
2.3262394e-08
2.8087103e-07
1.9195474e-08
2.8190237e-07
1.5046958e-08
2.8311687e-07
1.0853464e-08
2.8448841e-07
6.6468317e-09
2.859909e-07
2.4543586e-09
2.8759883e-07
-1.7008968e-09
2.8928757e-07
-5.7997797e-09
2.9103371e-07
-9.8266761e-09
2.9281528e-07
-1.3769144e-08
2.9461188e-07
-1.7617555e-08
2.9640478e-07
-2.1364747e-08
2.9817695e-07
-2.5005692e-08
2.9991307e-07
-2.8537194e-08
3.0159949e-07
-3.1957599e-08
3.0322418e-07
-3.5266545e-08
3.0477664e-07
-3.8464728e-08
3.0624781e-07
-4.1553703e-08
3.0763e-07
-4.4535702e-08
3.0891674e-07
-4.7413482e-08
3.1010272e-07
-5.0190188e-08
3.1118363e-07
-5.2869245e-08
3.1215611e-07
-5.5454255e-08
3.1301762e-07
-5.7948921e-08
3.1376636e-07
-6.0356976e-08
3.1440115e-07
-6.2682128e-08
3.149214e-07
-6.4928019e-08
3.1532696e-07
-6.7098179e-08
3.1561805e-07
-6.9196002e-08
3.1579479e-07
-7.1224728e-08
3.1585608e-07
-7.3187393e-08
-7.5086859e-08
2.9884771e-07
4.7517938e-09
2.9792647e-07
1.3635936e-08
2.9650759e-07
2.1639432e-08
2.9468915e-07
2.8685e-08
2.9257262e-07
3.4730358e-08
2.902592e-07
3.9757988e-08
2.8784641e-07
4.3770411e-08
2.8542521e-07
4.6787707e-08
2.8307767e-07
4.8845529e-08
2.8087541e-07
4.9992986e-08
2.7887847e-07
5.0290268e-08
2.7713499e-07
4.9806027e-08
2.7568122e-07
4.8614713e-08
2.7454201e-07
4.6794032e-08
2.7373162e-07
4.4422638e-08
2.7325472e-07
4.1578155e-08
2.7310758e-07
3.8335554e-08
2.7327935e-07
3.4765891e-08
2.7375327e-07
3.0935378e-08
2.7450795e-07
2.6904758e-08
2.7551853e-07
2.2728933e-08
2.7675773e-07
1.8456829e-08
2.7819682e-07
1.4131425e-08
2.7980644e-07
9.7899366e-09
2.8155729e-07
5.4641024e-09
2.8342073e-07
1.1805517e-09
2.8536923e-07
-3.0387801e-09
2.8737668e-07
-7.1762006e-09
2.8941868e-07
-1.1217806e-08
2.9147271e-07
-1.515303e-08
2.935182e-07
-1.897421e-08
2.9553655e-07
-2.2676186e-08
2.9751119e-07
-2.6255916e-08
2.9942744e-07
-2.9712134e-08
3.012725e-07
-3.3045039e-08
3.0303531e-07
-3.6256019e-08
3.0470643e-07
-3.9347404e-08
3.0627798e-07
-4.2322258e-08
3.0774341e-07
-4.5184196e-08
3.0909748e-07
-4.7937228e-08
3.1033606e-07
-5.058563e-08
3.1145602e-07
-5.3133832e-08
3.1245517e-07
-5.5586331e-08
3.1333207e-07
-5.7947616e-08
3.1408599e-07
-6.0222107e-08
3.1471677e-07
-6.2414109e-08
3.1522479e-07
-6.4527776e-08
3.1561082e-07
-6.6567078e-08
3.1587596e-07
-6.853578e-08
3.1602115e-07
-7.0437433e-08
3.1604609e-07
-7.2275331e-08
-7.4052537e-08
2.9077703e-07
5.1051544e-09
2.8980883e-07
1.4624317e-08
2.8832927e-07
2.3158849e-08
2.8645019e-07
3.0624035e-08
2.8428593e-07
3.6975132e-08
2.8194905e-07
4.2196431e-08
2.7954653e-07
4.6296049e-08
2.7717655e-07
4.9302822e-08
2.7492611e-07
5.1263548e-08
2.7286932e-07
5.22401e-08
2.7106661e-07
5.2306293e-08
2.6956453e-07
5.1544598e-08
2.6839605e-07
5.0042931e-08
2.6758141e-07
4.7891656e-08
2.671293e-07
4.5180944e-08
2.6703816e-07
4.1998576e-08
2.6729768e-07
3.84282e-08
2.6789037e-07
3.4548023e-08
2.6879302e-07
3.042991e-08
2.6997814e-07
2.6138835e-08
2.7141528e-07
2.1732632e-08
2.7307219e-07
1.7261989e-08
2.7491583e-07
1.2770644e-08
2.769132e-07
8.2957193e-09
2.7903211e-07
3.8681697e-09
2.8124165e-07
-4.8670429e-10
2.8351264e-07
-4.7487048e-09
2.8581793e-07
-8.9021629e-09
2.8813256e-07
-1.2935384e-08
2.9043387e-07
-1.684011e-08
2.9270154e-07
-2.0611016e-08
2.9491755e-07
-2.4245248e-08
2.9706613e-07
-2.7741996e-08
2.9913362e-07
-3.1102119e-08
3.0110836e-07
-3.432781e-08
3.0298053e-07
-3.7422305e-08
3.0474204e-07
-4.0389632e-08
3.0638633e-07
-4.3234396e-08
3.0790824e-07
-4.5961599e-08
3.0930383e-07
-4.8576492e-08
3.1057029e-07
-5.1084447e-08
3.1170579e-07
-5.3490858e-08
3.127093e-07
-5.5801062e-08
3.1358056e-07
-5.8020276e-08
3.1431993e-07
-6.0153542e-08
3.1492829e-07
-6.2205692e-08
3.1540695e-07
-6.4181328e-08
3.1575761e-07
-6.6084794e-08
3.1598219e-07
-6.792016e-08
3.1608244e-07
-6.9691228e-08
3.1605882e-07
-7.1401488e-08
-7.3054145e-08
2.8292079e-07
5.4793864e-09
2.8190054e-07
1.5662906e-08
2.8035429e-07
2.4741875e-08
2.7840948e-07
3.2624423e-08
2.7619487e-07
3.9264518e-08
2.7383561e-07
4.4650126e-08
2.7144887e-07
4.8797331e-08
2.6914036e-07
5.1746395e-08
2.6700181e-07
5.3558044e-08
2.6510939e-07
5.4309613e-08
2.635231e-07
5.4091029e-08
2.6228685e-07
5.3000763e-08
2.614292e-07
5.114198e-08
2.6096465e-07
4.8619066e-08
2.6089515e-07
4.553466e-08
2.6121187e-07
4.1987254e-08
2.6189706e-07
3.8069368e-08
2.6292588e-07
3.3866251e-08
2.6426812e-07
2.9455063e-08
2.6588989e-07
2.490446e-08
2.67755e-07
2.0274519e-08
2.6982623e-07
1.5616927e-08
2.7206638e-07
1.097537e-08
2.7443917e-07
6.3860732e-09
2.7690981e-07
1.8784294e-09
2.7944561e-07
-2.5243145e-09
2.8201622e-07
-6.8043493e-09
2.8459392e-07
-1.0948612e-08
2.8715369e-07
-1.4948117e-08
2.8967324e-07
-1.8797339e-08
2.9213295e-07
-2.2493635e-08
2.945158e-07
-2.6036728e-08
2.9680722e-07
-2.9428248e-08
2.9899488e-07
-3.2671329e-08
3.0106859e-07
-3.5770258e-08
3.0302005e-07
-3.8730177e-08
3.0484269e-07
-4.1556833e-08
3.0653148e-07
-4.4256366e-08
3.0808274e-07
-4.6835136e-08
3.09494e-07
-4.9299586e-08
3.1076384e-07
-5.1656126e-08
3.1189173e-07
-5.3911045e-08
3.1287791e-07
-5.6070442e-08
3.1372327e-07
-5.8140184e-08
3.1442925e-07
-6.0125855e-08
3.1499775e-07
-6.2032736e-08
3.15431e-07
-6.3865797e-08
3.1573157e-07
-6.5629681e-08
3.1590217e-07
-6.7328693e-08
3.159453e-07
-6.8966816e-08
3.1586214e-07
-7.0547672e-08
-7.2074541e-08
2.7527319e-07
5.87674e-09
2.7419606e-07
1.6756685e-08
2.7257784e-07
2.6394024e-08
2.705636e-07
3.4690197e-08
2.6829817e-07
4.1599421e-08
2.6592045e-07
4.7115672e-08
2.6355845e-07
5.1265903e-08
2.6132555e-07
5.4105002e-08
2.5931785e-07
5.5710878e-08
2.5761282e-07
5.617944e-08
2.5626893e-07
5.5619523e-08
2.553262e-07
5.4147961e-08
2.5480747e-07
5.1885033e-08
2.5472012e-07
4.8950501e-08
2.5505817e-07
4.5460322e-08
2.5580446e-07
4.1524094e-08
2.5693289e-07
3.7243206e-08
2.5841064e-07
3.2709614e-08
2.6020012e-07
2.8005183e-08
2.6226081e-07
2.3201483e-08
2.645508e-07
1.8359944e-08
2.6702809e-07
1.3532309e-08
2.6965168e-07
8.7612647e-09
2.7238238e-07
4.0812232e-09
2.7518339e-07
-4.8083651e-10
2.7802073e-07
-4.9044888e-09
2.808635e-07
-9.1749889e-09
2.8368396e-07
-1.3282457e-08
2.8645758e-07
-1.7221103e-08
2.8916297e-07
-2.0988519e-08
2.917817e-07
-2.4585048e-08
2.9429815e-07
-2.8013217e-08
2.9669934e-07
-3.1277252e-08
2.9897462e-07
-3.438266e-08
3.0111552e-07
-3.7335871e-08
3.0311547e-07
-4.0143945e-08
3.0496963e-07
-4.2814325e-08
3.0667461e-07
-4.5354638e-08
3.0822837e-07
-4.777254e-08
3.0962994e-07
-5.0075585e-08
3.1087933e-07
-5.2271133e-08
3.1197736e-07
-5.4366276e-08
3.1292551e-07
-5.6367781e-08
3.1372582e-07
-5.8282067e-08
3.1438079e-07
-6.0115169e-08
3.1489327e-07
-6.1872725e-08
3.152664e-07
-6.3559989e-08
3.1550353e-07
-6.5181819e-08
3.1560811e-07
-6.6742682e-08
3.1558332e-07
-6.8246661e-08
3.1543102e-07
-6.9697445e-08
-7.1098323e-08
2.6782856e-07
6.2994591e-09
2.6668995e-07
1.791038e-08
2.6499526e-07
2.8120031e-08
2.6290935e-07
3.6823897e-08
2.6059489e-07
4.3978444e-08
2.5820567e-07
4.9586582e-08
2.5588111e-07
5.3689658e-08
2.5374211e-07
5.6361004e-08
2.5188855e-07
5.7699523e-08
2.503981e-07
5.7823238e-08
2.4932634e-07
5.6862984e-08
2.4870791e-07
5.4956471e-08
2.4855834e-07
5.2242993e-08
2.4887646e-07
4.8858958e-08
2.4964702e-07
4.4934329e-08
2.5084346e-07
4.0589977e-08
2.5243055e-07
3.5935887e-08
2.5436694e-07
3.1070116e-08
2.566074e-07
2.6078374e-08
2.5910475e-07
2.1034123e-08
2.6181158e-07
1.5999051e-08
2.6468149e-07
1.1023838e-08
2.6767017e-07
6.1490937e-09
2.7073611e-07
1.4064088e-09
2.7384114e-07
-3.1805542e-09
2.7695067e-07
-7.5949737e-09
2.8003388e-07
-1.1825845e-08
2.8306367e-07
-1.5867024e-08
2.860166e-07
-1.9716358e-08
2.8887267e-07
-2.3374894e-08
2.9161514e-07
-2.6846202e-08
2.9423023e-07
-3.0135778e-08
2.9670685e-07
-3.325054e-08
2.9903635e-07
-3.6198408e-08
3.0121222e-07
-3.8987951e-08
3.032298e-07
-4.1628104e-08
3.050861e-07
-4.4127941e-08
3.0677953e-07
-4.6496491e-08
3.0830968e-07
-4.8742599e-08
3.0967715e-07
-5.0874828e-08
3.108834e-07
-5.2901376e-08
3.1193057e-07
-5.483002e-08
3.1282135e-07
-5.6668086e-08
3.135589e-07
-5.8422436e-08
3.1414672e-07
-6.0099451e-08
3.1458856e-07
-6.1705031e-08
3.1488838e-07
-6.3244622e-08