/*--------------------------------*- C++ -*----------------------------------*\
| =========                 |                                                 |
| \\      /  F ield         | OpenFOAM: The Open Source CFD Toolbox           |
|  \\    /   O peration     | Version:  2312                                  |
|   \\  /    A nd           | Website:  www.openfoam.com                      |
|    \\/     M anipulation  |                                                 |
\*---------------------------------------------------------------------------*/
FoamFile
{
    version     2.0;
    format      ascii;
    arch        "LSB;label=32;scalar=64";
    class       volScalarField;
    location    "0.08";
    object      Qdot;
}
// * * * * * * * * * * * * * * * * * * * * * * * * * * * * * * * * * * * * * //

dimensions      [1 -1 -3 0 0 0 0];

internalField   nonuniform List<scalar> 
3221
(
1.3257738e-05
5.0368584e-05
0.0001065551
0.0001904278
0.00031437435
0.00049563539
0.00075897336
0.0011408551
0.0016900189
0.0024781672
0.0036009472
0.005198214
0.0074573084
0.01064128
0.015106721
0.021340289
0.030001127
0.041977417
0.058445636
0.080968088
0.11159287
0.15299145
0.20860552
0.28284796
0.38130719
0.51100862
0.68070406
0.90117156
1.1855731
1.5498241
2.0129451
2.5974587
3.3297436
4.24035
5.3642908
6.7412229
8.4155414
10.436372
12.857398
15.736523
19.13539
23.118673
27.753219
33.106974
39.247762
46.241888
54.152631
63.038617
72.952199
83.93782
96.030622
109.25679
1.3409892e-05
5.120955e-05
0.00010851539
0.00019436768
0.00032159051
0.00050789214
0.00078093123
0.0011765862
0.0017468506
0.002566973
0.0037399931
0.0054111519
0.0077808076
0.011127417
0.015830577
0.022408942
0.031567152
0.044249739
0.061720714
0.085645295
0.11822782
0.16232275
0.22163306
0.30088772
0.40609594
0.54479788
0.72640007
0.96247884
1.267177
1.6575764
2.1540919
2.7808794
3.5662134
4.5428198
5.7481375
7.2245454
9.0194291
11.185125
13.778741
16.861757
20.499489
24.760309
29.714693
35.434072
41.989487
49.450119
57.881637
67.344499
77.892188
89.569465
102.41077
116.44153
1.3744904e-05
5.2732588e-05
0.00011229124
0.0002020641
0.00033592781
0.00053390392
0.00082414519
0.0012473932
0.0018610916
0.002747532
0.0040222218
0.0058463408
0.0084429634
0.012125797
0.017321039
0.024617089
0.034806766
0.048963979
0.068525872
0.095393001
0.13207098
0.18183174
0.24890049
0.3386978
0.45810057
0.61575363
0.82242649
1.0913829
1.4388087
1.884242
2.4510184
3.166702
4.0635093
5.1786392
6.5546106
8.2393821
10.286455
12.754742
15.708301
19.21585
23.350067
28.186695
33.803376
40.278345
47.68886
56.109514
65.610404
76.255212
88.099251
101.18757
115.55328
131.21905
1.425264e-05
5.4858601e-05
0.00011802723
0.00021379902
0.00035818275
0.00057247002
0.00089046758
0.0013569562
0.0020398921
0.0030325427
0.004468147
0.006537309
0.0095007427
0.013728199
0.019726426
0.028193713
0.040078605
0.056666658
0.079684531
0.11142254
0.15490805
0.21409864
0.29411461
0.40152408
0.54467236
0.73405673
0.98273292
1.3067967
1.7258508
2.2635289
2.9480105
3.8125116
4.8957516
6.2423136
7.902969
9.9347895
12.401152
15.371526
18.921057
23.129882
28.082214
33.865191
40.567398
48.277261
57.081154
67.061377
78.293996
90.846628
104.77623
120.12695
136.92835
155.1973
1.4907989e-05
5.8064861e-05
0.00012554061
0.00022962242
0.00038827445
0.00062656132
0.00098405511
0.0015130021
0.0022951529
0.0034421433
0.0051164038
0.0075478203
0.011060557
0.016106671
0.023319265
0.033566291
0.048041162
0.068362631
0.096710074
0.13599121
0.19005536
0.26394116
0.36417997
0.49916198
0.67955137
0.9187543
1.2334487
1.6441528
2.1758314
2.8585182
3.7279155
4.8259927
6.2014729
7.9102457
10.015621
12.588416
15.706798
19.455895
23.927106
29.217132
35.426699
42.658944
51.017565
60.604676
71.518475
83.850737
97.684204
113.08997
130.12492
148.82934
169.22491
191.31738
1.5722976e-05
6.1989469e-05
0.00013549843
0.00025048692
0.00042832681
0.00069924653
0.0011095367
0.001725879
0.0026466721
0.0040127345
0.0060269003
0.0089813134
0.013290709
0.019539732
0.028544181
0.041440378
0.059789195
0.085729406
0.12214237
0.17289231
0.24309966
0.33949117
0.4707971
0.64824944
0.88609765
1.2022804
1.6190705
2.1638281
2.8697528
3.7766702
4.9317496
6.3901909
8.2157528
10.481176
13.268336
16.668152
20.780216
25.712055
31.578012
38.49779
46.594593
55.99289
66.815906
79.18281
93.205677
108.9864
126.61345
146.15882
167.67502
191.19242
216.71716
244.23497
1.6700299e-05
6.6628243e-05
0.00014776042
0.0002768903
0.00047967914
0.0007934852
0.0012760682
0.0020116743
0.0031245108
0.0047957224
0.0072928878
0.010998071
0.016460705
0.024460829
0.0361059
0.052933394
0.077083853
0.11148318
0.16011384
0.22832562
0.32323114
0.45419008
0.63337173
0.87642075
1.2032226
1.6387274
2.2138926
2.9666302
3.9427954
5.1971539
6.7942663
8.8092203
11.328223
14.448878
18.280155
22.941994
28.564444
35.286391
43.253717
52.617072
63.529133
76.141455
90.600998
107.0464
125.60405
146.38418
169.47699
194.94898
222.83959
253.15839
285.88298
320.96468
1.7887516e-05
7.2272713e-05
0.00016267335
0.00030982151
0.0005447816
0.00091581605
0.0014954072
0.0023925232
0.0037710449
0.0058714487
0.0090536369
0.013836727
0.020975983
0.031555538
0.047119104
0.069839103
0.10274625
0.15001804
0.21736026
0.31246712
0.44560111
0.63028562
0.88411905
1.2297391
1.6958632
2.3184797
3.1421
4.2210299
5.6206701
7.4186742
9.705994
12.587665
16.183246
20.626878
26.066782
32.664273
40.592083
50.032106
61.172498
74.204181
89.316825
106.69436
126.51025
148.92249
174.06859
202.06079
232.98139
266.87866
303.7632
343.60525
386.33294
431.84082
1.918382e-05
7.9063298e-05
0.00018105149
0.00035085941
0.00062765568
0.0010729442
0.0017833658
0.002902009
0.0046494541
0.0073575603
0.011520207
0.01786928
0.027476562
0.041894997
0.063356583
0.095028818
0.14135946
0.20852249
0.30497621
0.44218141
0.63545183
0.905005
1.2771585
1.7857107
2.473492
3.3940102
4.6131579
6.2109517
8.2831441
10.942623
14.320543
18.566963
23.85093
30.359938
38.298563
47.886302
59.354581
72.94288
88.894116
107.44929
128.84165
153.29037
180.99414
212.12467
246.82049
285.18118
327.26216
373.0704
422.56099
475.63489
532.13844
591.876
2.0688366e-05
8.6975002e-05
0.00020315188
0.00040103128
0.00073270283
0.0012772566
0.0021631031
0.0035867815
0.0058522615
0.0094269118
0.015013754
0.023670113
0.036960822
0.05718631
0.087671196
0.13318395
0.20046513
0.29892154
0.44151009
0.64583335
0.93546975
1.341548
1.9045834
2.676525
3.7229826
5.1255831
6.9843112
9.4197634
12.575123
16.617709
21.739902
28.159316
36.117999
45.880616
57.731458
71.9703
88.907087
108.85561
132.12623
159.01795
189.81
224.75322
264.06166
307.90451
356.39874
409.60271
467.51096
530.05032
597.07754
668.37848
743.66969
822.61762
2.2431499e-05
9.6319219e-05
0.00022991964
0.00046408424
0.00086627759
0.0015438645
0.0026687551
0.0045174653
0.0075196635
0.012348109
0.020032574
0.032140967
0.051029979
0.080191866
0.1247412
0.19206255
0.29267464
0.44134146
0.65847928
0.97190656
1.4189178
2.0487646
2.9254259
4.1306855
5.767395
7.9627526
10.871471
14.678556
19.601528
25.891716
33.834479
43.748066
55.980977
70.90769
88.922753
110.43328
135.85
165.57717
200.00156
239.48096
284.33262
334.82202
391.15238
453.45537
521.78317
596.10248
676.29023
762.13153
853.31967
949.45831
1050.0666
1154.608
2.4425096e-05
0.00010726372
0.00026255299
0.00054253767
0.0010370535
0.00189136
0.0033480637
0.0057962913
0.0098602404
0.016532167
0.027358297
0.044725605
0.072277196
0.1154638
0.1823663
0.2847411
0.4394556
0.67030569
1.0103207
1.5045783
2.213548
3.2169551
4.6180739
6.5483166
9.1719186
12.690461
17.346883
23.428604
31.269419
41.249723
53.794751
69.370656
88.47818
111.644
139.40981
172.31946
210.90451
255.6688
307.07247
365.51615
431.32598
504.73986
585.89578
674.82225
771.43152
875.51559
986.74504
1104.6709
1228.7294
1358.2488
1492.4607
1630.5422
2.6601512e-05
0.00012016851
0.00030201091
0.00064089912
0.0012572842
0.002353768
0.0042713479
0.0075764948
0.013194985
0.022621896
0.038236106
0.063769689
0.10498062
0.17062459
0.27377574
0.43365083
0.6779747
1.0460576
1.5926078
2.3923407
3.5454006
5.1834336
7.4761942
10.638297
14.935802
20.692065
28.292282
38.186165
50.888158
66.974661
87.077945
111.87661
142.08258
178.42486
221.63069
272.40462
331.40631
399.22822
476.37377
563.23716
660.08567
767.04493
884.0879
1011.0279
1147.5156
1293.0408
1446.9369
1608.3906
1776.4539
1950.0587
2128.0365
2309.179
2.9139997e-05
0.00013533066
0.00035016995
0.0007654739
0.001543864
0.0029720843
0.0055422806
0.01009104
0.018021975
0.031640991
0.05469259
0.093145443
0.15634749
0.2586763
0.42183221
0.67796311
1.0737229
1.6754972
2.5758273
3.9010427
5.8200125
8.5537154
12.385207
17.669301
24.841259
34.423521
47.029558
63.363973
84.218004
110.46
143.02064
182.87303
231.00824
288.40706
356.00919
434.68121
525.18479
628.14654
744.0309
873.11733
1015.4824
1170.9881
1339.2752
1519.7646
1711.6622
1913.9712
2125.5083
2344.9235
2570.7241
2801.3005
3034.9558
3269.991
3.1940995e-05
0.00015314674
0.00040900561
0.00092273499
0.0019202246
0.0038106617
0.0073182096
0.013703282
0.02513209
0.045249585
0.080080079
0.13939406
0.23871507
0.40221788
0.66675486
1.0872939
1.7440187
2.7513223
4.2686557
6.5132319
9.7740907
14.426924
20.948655
29.930489
42.088086
58.267233
79.443692
106.71589
141.28973
184.4554
237.55649
301.95241
378.9757
469.88603
575.82344
697.76286
836.47233
992.47678
1166.0292
1357.09
1565.3156
1790.0565
2030.3634
2285.0028
2552.4788
2831.0617
3118.8208
3413.6609
3713.3609
4015.6128
4318.064
4618.4313
3.5180589e-05
0.00017449085
0.00048228477
0.00112486
0.002422197
0.0049640373
0.0098347285
0.018975655
0.035799323
0.066186689
0.12004513
0.21373352
0.3736251
0.64126148
1.0805689
1.7874836
2.9025002
4.6261923
7.237721
11.115718
16.760611
24.816851
36.092961
51.577141
72.445917
100.06347
135.96985
181.8566
239.52979
310.8616
397.73188
501.96276
625.24946
769.09131
934.72651
1123.0742
1334.6867
1569.7143
1827.8835
2108.4893
2410.4023
2732.0874
3071.6348
3426.8004
3795.0528
4173.6266
4559.5777
4949.8393
5341.2787
5730.7492
6115.1472
6491.5577
3.8763918e-05
0.00019990769
0.00057306397
0.0013878181
0.003096293
0.0065726508
0.013464221
0.026814002
0.052115002
0.099051891
0.18429291
0.33581475
0.59938432
1.0479246
1.7945269
3.0098084
4.9441139
7.9545256
12.536087
19.355766
29.286726
43.439683
63.187454
90.178487
126.33561
173.83682
235.07633
312.60516
409.05416
527.04242
669.07608
837.44333
1034.112
1260.6358
1518.0743
1806.9316
2127.115
2477.9165
2858.0165
3265.5073
3697.9362
4152.3627
4625.4285
5113.4347
5612.4243
6118.2654
6626.7348
7133.5907
7634.6526
8125.861
8603.3434
9063.5951
4.2886593e-05
0.00022978461
0.00068662384
0.0017315573
0.004018275
0.0088507801
0.018787772
0.038688623
0.077574867
0.1517399
0.28981413
0.54068015
0.98542196
1.754559
3.0518853
5.1859272
8.6093665
13.965821
22.141779
34.320178
52.030119
77.186355
112.11144
159.53394
222.55759
304.59848
409.28998
540.35869
701.47979
896.11904
1127.3722
1397.8122
1709.3546
2063.1479
2459.4967
2897.8192
3376.6401
3893.6181
4445.6033
5028.7204
5638.4714
6269.8519
6917.4748
7575.6975
8238.7426
8900.8169
9556.2155
10199.421
10825.183
11428.586
12005.109
12550.847
4.7318424e-05
0.00026631018
0.00083106413
0.0021878308
0.0052916981
0.012132982
0.026741626
0.057036908
0.11814356
0.23805013
0.46696379
0.89207928
1.6598762
3.008282
5.3107103
9.1331941
15.304294
24.994894
39.802472
61.831081
93.756266
138.8627
201.04305
284.74918
394.89095
536.68317
715.44575
936.37201
1204.2807
1523.3685
1896.9812
2327.4202
2815.7953
3361.9326
3964.3409
4620.2341
5325.6057
6075.347
6863.3993
7682.9304
8526.5239
9386.3729
10254.47
11122.786
11983.424
12828.777
13651.635
14445.298
15203.629
15921.13
16592.973
17215.255
5.2617313e-05
0.00031028212
0.0010157586
0.0028010721
0.0070837672
0.016943276
0.038855155
0.08598296
0.18419787
0.38259036
0.77104194
1.5081588
2.8635212
5.2781932
9.4464473
16.419452
27.727709
45.514126
72.664095
112.91413
170.91816
252.25093
363.33266
511.26664
703.59184
947.96051
1251.7641
1621.7407
2063.591
2581.6347
3178.5324
3855.0918
4610.1683
5440.661
6341.5981
7306.2997
8326.602
9393.1258
10495.57
11623.013
12764.212
13907.879
15042.932
16158.712
17245.179
18293.048
19293.895
20240.236
21125.568
21944.394
22692.221
23365.839
5.8443073e-05
0.0003637111
0.0012546097
0.0036365644
0.0096436064
0.024125008
0.05768444
0.13263809
0.29416748
0.6301693
1.3047884
2.6120307
5.0566252
9.4685735
17.154883
30.085998
51.105956
84.145043
134.40437
208.47571
314.36005
461.35525
659.79783
920.66203
1255.038
1673.5259
2185.6075
2799.0469
3519.3715
4349.4744
5289.3669
6336.0914
7483.7895
8723.9115
10045.538
11435.789
12880.275
14363.582
15869.743
17382.679
18886.604
20366.363
21807.736
23197.647
24524.348
25777.491
26948.201
28029.087
29014.224
29899.116
30680.615
31357.278
6.5317397e-05
0.0004297746
0.0015666708
0.0047903967
0.013365463
0.035061355
0.08758076
0.20953471
0.4814827
1.0640286
2.2628201
4.6326438
9.1333924
17.34745
31.759648
56.086909
95.626152
157.57045
251.22979
388.09
581.65452
847.03898
1200.3233
1657.7025
2234.5027
2944.1654
3797.3059
4800.9235
5957.8363
7266.3786
8720.3703
10309.34
12018.966
13831.678
15727.368
17684.156
19679.152
21689.18
23691.437
25664.054
27586.529
29440.145
31208.187
32876.104
34431.577
35864.514
37167.001
38333.204
39359.236
40243.092
40984.312
41584.97
7.307091e-05
0.00051155381
0.0019797609
0.0064103942
0.018879397
0.052063168
0.13611185
0.33923025
0.80805946
1.8419976
4.0208529
8.4089623
16.857337
32.414979
59.838771
106.15919
181.2227
298.10166
473.25068
726.30401
1079.452
1556.3993
2180.9792
2975.5465
3959.3273
5146.9197
6547.0866
8161.9527
9986.6626
12009.498
14212.405
16571.855
19059.93
21645.544
24295.682
26976.612
29654.966
32298.686
34877.788
37364.924
39735.851
41969.679
44048.924
45959.529
47690.743
49234.94
50587.332
51745.791
52710.393
53483.83
54069.264
54475.455
8.1954125e-05
0.00061350792
0.0025343269
0.0087250631
0.027206792
0.079069809
0.21672894
0.56321368
1.3910543
3.2693735
7.3176028
15.60847
31.753454
61.674038
114.50882
203.53819
346.94388
568.18455
895.78398
1362.4013
2003.172
2853.4436
3946.1389
5309.0527
6962.4398
8917.148
11173.48
13720.859
16538.272
19595.37
22854.076
26270.494
29796.954
33384.018
36982.34
40544.272
44025.188
47384.471
50586.218
53599.685
56399.504
58965.541
61282.763
63340.939
65134.181
66660.579
67921.371
68921.133
69665.625
70166.923
70427.901
70471.359
9.2265307e-05
0.00074305508
0.0032888552
0.012089686
0.040049085
0.12296027
0.35388797
0.95954224
2.4568953
5.9483786
13.63094
29.594303
60.949956
119.25226
222.05144
394.2849
669.11917
1087.85
1698.5826
2553.6273
3705.8116
5204.1281
7089.2746
9389.7188
12118.776
15272.988
18831.909
22759.197
27004.779
31507.757
36199.702
41008.04
45859.245
50681.657
55407.816
59976.254
64332.714
68430.951
72233.058
75709.414
78838.276
81605.322
84002.924
86029.561
87688.621
88988.499
89939.38
90557.859
90851.831
90851.407
90571.411
90034.81
0.00010433103
0.00090830267
0.0043326065
0.01707381
0.060291548
0.19600628
0.5930827
1.6783543
4.4524677
11.089582
25.965517
57.237968
118.99824
233.81488
435.23043
769.54566
1296.1467
2085.7816
3216.5689
4768.0253
6813.8602
9414.5487
12610.828
16419.036
20828.771
25803.029
31280.543
37179.853
43404.458
49848.442
56401.996
62956.444
69408.466
75663.392
81637.544
87259.606
92471.395
97227.888
101496.54
105256.38
108496.85
111216.79
113422.61
115128.22
116350.88
117117.02
117443.96
117367.08
116914.8
116115.48
114982
113604.46
0.00011815568
0.0011215082
0.0057981508
0.024612989
0.092949894
0.32063393
1.0209692
3.0150257
8.2781094
21.17023
50.51994
112.73309
235.80998
463.69047
859.84729
1508.7534
2513.9805
3992.3058
6064.1536
8841.6529
12416.164
16847.369
22155.658
28318.687
35272.266
42915.03
51115.881
59723.022
68573.425
77501.803
86348.412
94965.297
103220.83
111002.59
118218.65
124797.99
130689.83
135862.08
140299.03
143999.6
146974.51
149245.77
150840.92
151799.77
152152.41
151952.9
151257.5
150073.6
148451.34
146505.57
144147.63
141574.01
0.000134438
0.0014001697
0.0078937996
0.036265451
0.14694339
0.53885073
1.8066016
5.5638358
15.784027
41.344384
100.24563
225.64821
473.12452
927.52986
1707.0751
2962.079
4866.7868
7604.3778
11347.226
16235.804
22360.09
29746.806
38354.118
48074.01
58741.164
70146.355
82052.113
94208.586
106368
118296.69
129784.12
140649.04
150742.66
159949.37
168186.11
175400.23
181566.09
186682.18
190765.24
193849.28
195977.24
197209.16
197594.38
197212.32
196141.57
194397.35
192139.1
189342.12
186077.03
182493.65
178495.45
174261.32
0.00015382247
0.0017713113
0.0109504
0.054697192
0.23853984
0.93132826
3.2878934
10.547015
30.8448
82.496563
202.48886
457.93764
958.49776
1865.7863
3394.9447
5804.4779
9373.5046
14369.427
21012.072
29441.542
39696.154
51703.797
65286.948
80179.03
96048.231
112524.51
129226.1
145782.69
161853.82
177141.83
191399.52
204433.32
216102.56
226316.2
235028.24
242230.97
247948.34
252234.2
255154.84
256800.95
257250.89
256622.9
255031.27
252508.04
249286.7
245318.03
240816.16
235779.37
230262.79
224437.97
218307.5
211965.11
0.0001768817
0.002269641
0.01549903
0.084584656
0.39819852
1.6571068
6.1568797
20.532787
61.717898
167.91233
415.4474
939.76165
1954.8132
3762.1541
6741.1066
11316.091
17904.631
26856.387
38396.822
52587.94
69313.063
88286.196
109081.46
131175.07
153991.82
176949.26
199494.97
221134.42
241449.13
260105.68
276857.37
291540.12
304065.5
314409.99
322603.8
328719.59
332858.89
335168.23
335769.1
334838.1
332543.79
328946.86
324383.27
318785.34
312485.98
305442.06
297834.33
289787.36
281370.35
272701.07
263838.46
254859.69
0.00020450231
0.0029508459
0.02242115
0.13434269
0.68451522
3.038116
11.865575
41.029502
126.28282
347.93541
863.58813
1944.3759
4000.5171
7578.736
13319.688
21876.986
33814.281
49505.599
69063.586
92310.544
118794.19
147839.53
178622.47
210249.73
241832.85
272548.04
301678.41
328638.59
352983.81
374409.14
392735.11
407894.54
419917.18
428902.86
435007.65
438431.65
439363.53
438104.82
434899.68
429853.12
423432.57
415584.64
406770.11
396933.76
386371.85
375236.11
363659.73
351770.09
339667.62
327457.42
315217.15
303020.17
0.00023802797
0.0039009847
0.033210154
0.21953413
1.2134803
5.7438741
23.533998
84.081617
263.79097
732.25904
1813.5312
4042.906
8187.391
15200.292
26101.868
41808.664
62956.678
89767.341
121988.87
158919.51
199497.3
242428.45
286325.33
329830.72
371714.09
410937.64
446686.1
478375.03
505638.88
528306.44
546368.06
559946.88
569277.3
574646.91
576390.6
574878.96
570488.93
563530.48
554573.9
543661.06
531335.51
517630.82
502940.97
487498.64
471509.55
455149.81
438571.08
421906.81
405268.12
388754.67
372445.76
356410.45
0.00027883581
0.0052490481
0.050469088
0.36981784
2.221539
11.205218
48.023326
176.49458
561.39256
1560.9926
3835.2112
8419.0404
16697.993
30248.535
50564.547
78745.661
115243.56
159738.13
211164.25
267863.5
327807.67
388837.13
448873.49
506074.34
558932.36
606317.1
647472.44
681983.96
709730.85
730831.48
745582.1
754399.98
757840.08
756435.48
750799.1
741431.43
728814.43
713823.59
696635.1
677608.61
657150.65
635708.2
613566.42
590983.3
568182.05
545350.69
522646.45
500200.91
478121.6
456497.61
435398.62
414881.25
0.00032940146
0.0072015143
0.078860956
0.64348255
4.2056024
22.564683
100.75956
378.8642
1214.2193
3360.2496
8139.5405
17495.271
33815.862
59522.098
96528.928
145763.9
206900.25
278366.56
357595.11
441408.75
526440.07
609488.7
687782.89
759127.63
821956.18
875308.29
918757.96
952316.35
976331.02
991416.5
998330.2
997859.13
991116.7
978845.67
961636.9
940983.59
916980.09
890719.52
862190.62
832390.91
801656.72
770394.01
738925.96
707523.57
676411.71
645773.19
615754.44
586471.13
558012.44
530446.03
503820.26
478169.38
0.00039239723
0.010097907
0.12700654
1.1589052
8.2432878
46.913564
217.15094
829.98115
2661.3802
7279.4284
17272.729
36145.818
67759.365
115437.16
181062.19
264500.36
363525.43
474205.36
591572.56
710351.08
825585.88
933077.92
1029613.4
1113019.5
1182098.7
1236491.6
1276496.1
1302880.6
1316726.4
1319388.8
1312280.8
1296584
1273822
1245740.3
1212371.5
1176002.9
1136298.3
1094857
1052093.3
1008694.6
965116.49
921760.85
878951.05
836945.39
795946.85
756110.66
717551.66
680351.18
644562.91
610218.64
577332.96
545905.91
0.00047179967
0.014502105
0.21138116
2.1649918
16.747775
100.68365
480.01861
1850.9736
5892.216
15811.45
36509.555
73969.353
133875.4
219964.74
332800.94
469426.91
623920.81
788526.88
954947.31
1115448.4
1263609
1394685.6
1505659.6
1595076.1
1662776.9
1709605.9
1737078.7
1747108.8
1741747.1
1723586.9
1694313.1
1655488.7
1610610.1
1560100.5
1505062.2
1447195.8
1387558.9
1327141.5
1266574.7
1206478.7
1147319.7
1089469.4
1033212.3
978759.67
926262.06
875819.33
827489.87
781298.51
737243.45
695302.96
655447.21
617626.77
0.00057395563
0.021391313
0.3646272
4.204551
35.302531
222.93552
1086.3017
4189.8011
13129.028
34299.242
76565.039
149381.16
259937
410626.09
597965.65
813247.49
1044422
1278381.4
1502943.2
1708170.2
1886973.7
2035138.9
2150973.6
2234785.3
2288342.8
2314433.7
2316326.9
2297680.1
2261280.8
2210785.7
2150146.3
2079450.1
2004159.8
1923261.9
1839960.7
1755512
1670994.6
1587338.1
1505208.9
1425153.8
1347575.7
1272766.3
1200924.3
1132172.2
1066571.1
1004133.2
944832
888610.65
835388.89
785067.09
737577.92
692788.55
0.00070725933
0.032506133
0.65395715
8.507655
77.258712
508.78739
2510.6849
9593.1448
29325.393
74003.141
158678.79
296640.79
494441.05
749017.21
1048061.6
1373015.4
1703102.3
2018939.8
2304929.8
2550301.9
2749090.1
2899448.7
3002660.7
3062125.5
3082536.6
3069446.7
3028812
2965143.8
2882486.2
2787977.2
2683272.2
2570755.2
2454275.6
2335867.9
2217472.1
2100448
1985844.7
1874478.3
1766921.3
1663582.9
1564727.1
1470503
1380967.9
1296107.2
1215851.2
1140088.3
1068675.6
1001447.8
938220.82
0.00088357494
0.051066632
1.2237393
17.976037
175.60742
1195.0472
5908.8278
22132.126
65383.293
158139.52
323728.43
577262.47
918750.35
1331942.8
1788704
2256062.6
2702866.8
3104243
3443496.2
3711995.7
3907876.3
4034270.7
4097496.4
4105469.5
4067067.7
3990918.2
3884569.2
3757722.7
3612509.6
3457949.3
3294538.1
3128041.1
2961557.8
2797071.8
2636302.2
2480478.4
2330468.3
2186863.7
2050018.6
1920112.4
1797185.6
1681172.1
1571926.1
1469243.1
1372877
1282553.8
1197981.8
1118860.2
1044887.8
0.0011237788
0.083278939
2.3984539
39.747547
414.54629
2882.8835
14110.824
51229.782
144865.77
333286.35
647710.08
1097348.8
1663420.6
2304439.8
2968219.9
3604229.1
4172124.7
4645422.9
5011277.3
5268034.3
5422020.2
5484496.3
5469048.3
5390193.4
5258975
5089122
4894086.4
4679511.7
4453088.8
4218300.3
3983071.8
3750679.5
3523875.7
3304515.6
3093958.9
2893083.9
2702395.2
2522115.4
2352246.1
2192628.3
2042985.9
1902959.3
1772133.1
1650056.6
1536260.6
1430269
1331608.2
1239813.8
1154441
0.0014562475
0.1416507
4.9441524
92.158164
1015.7624
7123.3009
34054.654
118426.5
317504.82
689874.01
1266406.1
2031831.2
2927878.6
3872690
4783711.9
5594404.5
6261654.9
6765629
7105260.6
7292359.5
7346165.1
7289726
7145899.1
6933130.1
6668584.1
6374784
6059268.3
5730960
5397847.1
5067879.4
4745908.6
4435038.2
4137447.9
3854461.8
3586828.7
3334834
3098414.9
2877257.6
2670867.8
2478630.9
2299855.2
2133805.9
1979729.6
1836873
1704496.3
1581882.4
1468343
1363222.8
1265908.7
0.0019306528
0.25270062
10.768091
224.45414
2580.3182
17966.264
82674.526
272065.22
685193.33
1396856.7
2411699.4
3654952.9
5000578.2
6313244.7
7481468.4
8433263.8
9136568.1
9591346.8
9818744.4
9851281.1
9726886
9481168.5
9141929.8
8745150.1
8305747.3
7846228.4
7374307.8
6904179.5
6444660.3
6001108.5
5577328.1
5175547.3
4796955
4441933.4
4110310.7
3801514.9
3514696.7
3248826.5
3002766
2775322.9
2565290.9
2371477.4
2192723.9
2027918.9
1876006.8
1735992
1606940.7
1487981.1
1378309.4
0.0026277815
0.47592419
24.898972
575.01291
6781.8518
46061.691
200875.03
617995.18
1449356.6
2756207.7
4459924.4
6373099.7
8274058
9973547.9
11348353
12344567
12963005
13240492
13231653
12998932
12595881
12070035
11473155
10826867
10163270
9490254.2
8830027.9
8192841.3
7584776.2
7009615.8
6469444.3
5964923.6
5495743.6
5060911.4
4658995.7
4288289.7
3946932.2
3632995.8
3344550
3079705.3
2836643.3
2613635.1
2409052.9
2221375.3
2049188.4
1891184.1
1746155.2
1612989.9
1490675.1
0.0036933196
0.9535753
61.43898
1550.6202
18388.415
119447.81
485795.33
1380848.9
2991734.8
5281018.4
7987738.1
10751365
13246627
15258172
16691555
17548616
17890325
17808472
17405428
16763368
15959316
15070351
14124122
13172053
12218056
11295121
10414868
9584122.3
8806320.8
8082604.6
7412526
6794474.8
6226093.7
5704573.3
5226874.2
4789878.2
4390490.5
4025709.1
3692669.9
3388673.1
3111197.6
2857905.5
2626641.3
2415426.8
2222452.8
2046068.8
1884769.5
1737183.8
1602072.4
0.0053924975
2.0511957
162.63296
4401.0611
51229.763
311531.56
1162460.4
3018722.5
5999675.4
9792323.1
13821351
17519604
20500976
22596304
23806046
24235382
24030788
23362641
22358841
21141904
19826021
18448728
17086661
15740275
14454560
13242418
12110688
11061723
10094821
9207334.5
8395410.4
7654459.1
6979526.7
6365554.4
5807558.3
5300744
4840575.2
4422811.9
4043526.9
3699108.2
3386251.1
3101944.8
2843455.6
2608307.8
2394265.6
2199311.5
2021622.7
1859552
1711621.2
0.0082505146
4.7880774
464.21201
13130.109
145890.7
811688.56
2733854.5
6418968.6
11634949
17511788
23052024
27538509
30651062
32389395
32932110
32535044
31453679
29902664
28072813
26133729
24136210
22192245
20297345
18510376
16845207
15307067
13895571
12606622
11433854
10369678
9405967.1
8534473.5
7747126.6
7036215.5
6394502.2
5815276.5
5292375.2
4820175.8
4393576
4007964
3659183.4
3343497.2
3057551.4
2798340.9
2563177.7
2349659.9
2155631.6
1979156.8
1818509.4
0.013376277
12.283181
1435.5141
41058.862
421722.33
2095253.5
6270343
13192381
21715051
30102646
36981289
41708067
44253703
44943756
44219857
42503490
40122094
37380240
34529750
31639915
28869224
26206138
23726558
21442794
19355966
17460063
15744889
14197952
12805765
11554711
10431576
9423842.4
8519855.3
7708898.5
6981210.3
6327960.3
5741201.6
5213809.9
4739416.3
4312338.7
3927515.7
3580442.8
3267113.9
2983969.6
2727851.8
2495964.6
2285807.8
2095147.5
1922004
0.023329157
35.144718
4826.9746
133864.14
1225665.2
5305345.6
13906268
26033200
38821056
49585848
56961313
60814468
61692801
60415430
57688537
54042843
49937714
45749671
41572767
37627371
33886558
30448616
27319842
24492053
21948956
19669900
17632441
15813912
14192394
12747288
11459588
10311983
9288844
8376158.3
7561422.3
6833522.4
6182606.1
5599955.5
5077866.7
4609536.6
4188960.1
3810837
3470488
3163783.1
2887081.5
2637194.9
2411269.9
2206769.6
2021458.8
0.044690202
114.0618
17675.046
450947.08
3537448.4
13026392
29549894
48998930
66182048
78055102
84118187
85333263
83088907
78742746
73125973
66968352
60808341
54768103
49148766
43896927
39130280
34845881
31017141
27609278
24584340
21904045
19531594
17432641
15575757
13932574
12477736
11188727
10045646
9030961.1
8129269.1
7327055.5
6612477.4
5975162.1
5406026.3
4897114.3
4441455.8
4032939.3
3666202.1
3336534.2
3039801.9
2772449
2531251.9
2313371.1
2116318.5
0.096820497
427.80099
70293.648
1548227
9985238
30621178
59596828
87398487
1.07161e+08
1.1716008e+08
1.1899334e+08
1.1522598e+08
1.0824014e+08
99504667
90198256
81111422
72363058
64351268
56977228
50367229
44501232
39319509
34756094
30744666
27222170
24130321
21416328
19033019
16938645
15096505
13474490
12044594
10782442
9666844.9
8679396
7804112.7
7027114.8
6336343.7
5721317
5172914.8
4683195
4245232.8
3852981.9
3501151.4
3185091
2900960.2
2645107.7
2414406
2206120.1
0.24719005
1888.9566
300801.08
5314959.1
27076964
67982000
1.1301934e+08
1.4686467e+08
1.6425644e+08
1.67434e+08
1.6119852e+08
1.499656e+08
1.3632228e+08
1.2209136e+08
1.0860859e+08
95909110
84469659
74109793
64940193
56908706
49898297
43790866
38475169
33849750
29824037
26318122
23262130
20595321
18265122
16226157
14439332
12870998
11492204
10278038
9207052.5
8260775.1
7423278.6
6680816.9
6021512.2
5435087.2
4912637.2
4446434
4029758.3
3656747.1
0.78796656
9968.2386
1359425.8
17797502
69136169
1.4057555e+08
1.9977639e+08
2.3134521e+08
2.3778651e+08
2.2767857e+08
2.0948902e+08
1.8800444e+08
1.6624785e+08
1.4598504e+08
1.2750379e+08
1.1115551e+08
96596405
83867776
72873262
63392568
55223746
48185001
42116392
36879324
32354436
28439387
25046697
22101734
19540899
17310021
15362959
13660395
12168797
10859537
9708149.8
8693693.4
7798219.7
7006321.3
6304750.3
5682096.4
5128514.8
4635495.5
4195667
3802634.6
3.3971688
63232.28
6292859.5
56403449
1.6270017e+08
2.6714742e+08
3.2668123e+08
3.4036375e+08
3.2476223e+08
2.9516968e+08
2.6101971e+08
2.273448e+08
1.9718489e+08
1.6986348e+08
1.465668e+08
1.2614604e+08
1.0847015e+08
93425250
80615183
69699411
60387957
52433799
45627482
39792906
34781784
30469312
26750440
23536710
20753581
18338180
16237411
14406375
12807043
11407154
10179289
9100105.5
8149689.9
7311024.3
6569535.9
5912721.1
5329829.9
4811601.2
4350039.2
3938237.3
22.029978
475906.59
28537164
1.6342689e+08
3.4537942e+08
4.6105711e+08
4.9144889e+08
4.6680229e+08
4.1946713e+08
3.6478213e+08
3.1210639e+08
2.6659457e+08
2.2725479e+08
1.9314159e+08
1.649276e+08
1.4042669e+08
1.1986701e+08
1.0258539e+08
88023735
75724645
65312875
56478227
48963330
42555726
37079083
32386803
28356791
24887177
21892815
19302405
17056127
15103694
13402744
11917518
10617764
9477834
8475935.9
7593513.5
6814731
6126044.5
5515844.3
4974157.3
4492396.8
4063169
244.5982
4061106.1
1.1953508e+08
4.1712315e+08
6.482954e+08
7.1615017e+08
6.78306e+08
5.9833472e+08
5.1289651e+08
4.2970913e+08
3.6064283e+08
3.0292584e+08
2.5494959e+08
2.1536109e+08
1.8181244e+08
1.5380144e+08
1.3055674e+08
1.1118546e+08
94981506
81381966
69934107
60269634
52086820
45139246
39224248
34174681
29852327
26142610
22950322
20196169
17813951
15748273
13952669
12388069
11021542
9825267.1
8775680.4
7852778.2
7039537.5
6321438
5686064.9
5122778.8
4622440.5
4177199.2
5289.1553
35798963
4.3076758e+08
9.0397914e+08
1.0592665e+09
9.9660529e+08
8.5945733e+08
7.1982089e+08
5.9373599e+08
4.8700197e+08
4.0273141e+08
3.339881e+08
2.8041461e+08
2.3499839e+08
1.9711346e+08
1.6601525e+08
1.4036541e+08
1.1910191e+08
1.0139863e+08
86604853
74201743
63770198
54969062
47521271
41200154
35819685
31226753
27294998
23919861
21014603
18507085
16337149