/*--------------------------------*- C++ -*----------------------------------*\
| =========                 |                                                 |
| \\      /  F ield         | OpenFOAM: The Open Source CFD Toolbox           |
|  \\    /   O peration     | Version:  2312                                  |
|   \\  /    A nd           | Website:  www.openfoam.com                      |
|    \\/     M anipulation  |                                                 |
\*---------------------------------------------------------------------------*/
FoamFile
{
    version     2.0;
    format      ascii;
    arch        "LSB;label=32;scalar=64";
    class       volScalarField;
    location    "0.02";
    object      H2O;
}
// * * * * * * * * * * * * * * * * * * * * * * * * * * * * * * * * * * * * * //

dimensions      [0 0 0 0 0 0 0];

internalField   nonuniform List<scalar> 
3272
(
0.034191362
0.034436271
0.034625157
0.034756372
0.034828381
0.034840088
0.034791647
0.034680698
0.034507238
0.034271419
0.03397355
0.033614318
0.033194794
0.032716447
0.03218114
0.031591121
0.030949015
0.030257792
0.029520745
0.028741453
0.027923747
0.027083144
0.026206619
0.025299704
0.024372214
0.023428729
0.02247384
0.021512095
0.020547941
0.019585672
0.01862939
0.017682964
0.016749998
0.015833813
0.014937421
0.014063517
0.013214469
0.012392317
0.011598778
0.010835246
0.010102812
0.0094022711
0.0087341427
0.0080986878
0.0074959294
0.0069256741
0.0063875338
0.0058809468
0.0054051966
0.0049594224
0.0045426188
0.0041538518
0.0037920277
0.034504788
0.034757377
0.034953676
0.035092009
0.035170857
0.03518874
0.035145943
0.03504026
0.03487136
0.034639437
0.034344748
0.033987931
0.033570014
0.033092426
0.032556996
0.031965946
0.031321877
0.03062775
0.029886855
0.029102775
0.028279358
0.027432341
0.026549147
0.025634077
0.024697723
0.023744721
0.02277973
0.021807368
0.020832157
0.019858473
0.018890498
0.017932183
0.016987214
0.016058989
0.015150595
0.014264797
0.013404026
0.012570382
0.01176563
0.010991214
0.01024826
0.0095375961
0.0088597668
0.008215052
0.0076034875
0.007024888
0.0064788708
0.0059648828
0.0054822329
0.0050301126
0.0046069082
0.0042124216
0.0038453506
0.035080998
0.035347702
0.035557615
0.035708989
0.035800218
0.035829443
0.035797077
0.035701163
0.035540749
0.035316118
0.035027436
0.03467525
0.034260507
0.033784561
0.033249176
0.03265652
0.032009156
0.031310015
0.030562377
0.029769822
0.028936187
0.028077543
0.027182578
0.026252783
0.025300392
0.024330132
0.023346777
0.022355074
0.021359684
0.020365127
0.019375736
0.018395612
0.017428592
0.016478218
0.015547716
0.01463998
0.013757563
0.012902674
0.012077176
0.011282597
0.010520138
0.0097906893
0.0090948429
0.0084329156
0.0078049672
0.0072108238
0.0066501013
0.0061222277
0.0056265396
0.0051610631
0.0047269356
0.0043220585
0.003945247
0.035875296
0.036161331
0.036389921
0.036559196
0.036667422
0.036712291
0.036694383
0.036612081
0.036463565
0.036249236
0.03596913
0.035623673
0.035213695
0.034740446
0.034205595
0.033611233
0.032959863
0.032254385
0.031498065
0.030694473
0.02984729
0.028972184
0.028061923
0.02711236
0.026138319
0.025144654
0.024136301
0.02311819
0.022095175
0.021071979
0.020053143
0.019042978
0.01804553
0.017064543
0.016103439
0.015165296
0.014252837
0.013368426
0.012514067
0.011691411
0.010901766
0.010146111
0.0094251113
0.0087391393
0.0080882905
0.007472411
0.0068911254
0.0063436481
0.0058280978
0.0053465102
0.0048964378
0.0044767492
0.004086171
0.036848446
0.037158012
0.037409385
0.03760055
0.037729623
0.03779377
0.037793742
0.037728317
0.037594736
0.037393431
0.037124305
0.036787631
0.036384095
0.03591481
0.035381327
0.034785638
0.034130178
0.033417821
0.032651904
0.031836277
0.030975399
0.030074323
0.029147499
0.028175592
0.027175835
0.026154071
0.02511553
0.024065394
0.023008768
0.021950627
0.02089577
0.019848773
0.01881394
0.017795271
0.016796433
0.015820736
0.01487112
0.013950147
0.01306
0.012202488
0.011379059
0.01059081
0.009838506
0.0091225931
0.008443212
0.0078002284
0.0071925449
0.0066190014
0.0060821706
0.0055792851
0.0051093007
0.0046710543
0.0042632173
0.037965851
0.03830227
0.038579702
0.038795976
0.038949081
0.039035716
0.03905656
0.03901041
0.038894727
0.038708916
0.03845304
0.038127187
0.037731866
0.037268025
0.036737069
0.036140865
0.03548175
0.034762531
0.033986485
0.03315736
0.032279298
0.03135658
0.030407151
0.029410993
0.028382273
0.02732884
0.026256144
0.02516963
0.024074679
0.022976563
0.02188038
0.020791012
0.019713069
0.018650852
0.01760832
0.01658906
0.015596271
0.014632754
0.013700906
0.01280273
0.011939842
0.011113492
0.010324573
0.0095736334
0.0088608548
0.0081846395
0.007545064
0.0069450674
0.0063815813
0.0058536785
0.0053602894
0.0049002135
0.0044720663
0.039196976
0.039562792
0.039868817
0.040112663
0.040292046
0.040404804
0.040448633
0.040423939
0.040328562
0.040160528
0.039920071
0.039607065
0.039221816
0.03876508
0.038238087
0.037642546
0.036980656
0.036255106
0.035469062
0.034626134
0.033730304
0.032785794
0.031811849
0.030790624
0.029730674
0.028643005
0.027533251
0.026407105
0.025270242
0.024128245
0.02298655
0.021850377
0.020724684
0.019614115
0.018522959
0.017455124
0.016414108
0.015402989
0.014424414
0.01348061
0.012573392
0.011704192
0.010874084
0.010083767
0.0093309664
0.0086174698
0.0079463942
0.0073144261
0.0067208117
0.0061646181
0.0056447536
0.0051599797
0.0047088529
0.040514891
0.040911989
0.041248562
0.041522046
0.041730004
0.0418702
0.041939342
0.041938215
0.041865231
0.041717103
0.04149412
0.041195951
0.040822681
0.040374851
0.039853485
0.039260103
0.038596734
0.037865917
0.037070691
0.036214557
0.035301377
0.034335083
0.033334545
0.032289023
0.031196668
0.03007324
0.028924541
0.027756525
0.026575171
0.025386402
0.024196008
0.023009586
0.021832472
0.020669688
0.019525896
0.018405363
0.017311924
0.016248971
0.015219439
0.014225803
0.013270099
0.012353961
0.01147872
0.010641933
0.0098470101
0.0090971335
0.0083888454
0.0077216586
0.007094851
0.0065074888
0.0059584557
0.0054464725
0.0049700327
0.041895883
0.042325516
0.042693989
0.042998556
0.043236603
0.043405748
0.043502069
0.043526381
0.043477033
0.043351048
0.043147412
0.042865988
0.042506607
0.042069567
0.041555658
0.040966185
0.04030298
0.039568417
0.038765418
0.037897472
0.036968673
0.035983796
0.03494866
0.033881236
0.032757981
0.031598338
0.030409759
0.029198555
0.027971049
0.026733523
0.025492149
0.024252922
0.023021587
0.02180358
0.02060397
0.019427417
0.018278135
0.017159869
0.016075874
0.015028913
0.01402125
0.013054692
0.012126666
0.011243717
0.010407792
0.0096155426
0.0088669759
0.0081617069
0.0074990329
0.0068780001
0.0062974508
0.0057560444
0.0052521017
0.043319142
0.043782009
0.044183191
0.04451974
0.044788818
0.044987711
0.045113825
0.045164446
0.045139978
0.045037814
0.044855265
0.044592395
0.044248771
0.04382443
0.043319907
0.042736263
0.042075105
0.041338606
0.040529513
0.03965116
0.038707445
0.037702749
0.036641704
0.035546663
0.034395188
0.033199168
0.031970431
0.030715491
0.029440974
0.028153518
0.026859693
0.025565909
0.024278346
0.023002881
0.021745021
0.020509858
0.019302019
0.018125641
0.016984351
0.015881264
0.014818968
0.013795377
0.012818079
0.011888307
0.011004465
0.010166893
0.0093754621
0.0086297243
0.0079289428
0.0072721221
0.006658038
0.044766544
0.045262857
0.045697095
0.046066134
0.046366962
0.046596717
0.046752753
0.04683111
0.046832772
0.046755735
0.046595879
0.04635322
0.046027128
0.045617358
0.045124173
0.044548363
0.043891284
0.043154873
0.042341661
0.04145478
0.04049791
0.039475138
0.038390548
0.037266128
0.036089561
0.034857909
0.033589489
0.032290982
0.030969312
0.029631482
0.028284462
0.026935095
0.025590013
0.024255558
0.022937705
0.021642004
0.02037353
0.019136844
0.017935986
0.016774529
0.015652574
0.014574566
0.013545596
0.012563834
0.011630368
0.010745541
0.0099092782
0.0091211555
0.0083804344
0.0076860814
0.007036691
0.046222448
0.046751985
0.047219208
0.047620823
0.047953663
0.048214712
0.048401154
0.048508076
0.048537052
0.048485576
0.048350133
0.048129141
0.047822206
0.047428789
0.046948852
0.046382899
0.045732004
0.044997842
0.044182709
0.043289542
0.042321929
0.041284128
0.040181208
0.039019789
0.037820787
0.036558054
0.035251153
0.033909884
0.032541553
0.031153544
0.029753236
0.028347912
0.026944669
0.025550331
0.024171365
0.022813804
0.02148319
0.02018452
0.018922165
0.017699067
0.016516289
0.01538442
0.014299984
0.013264862
0.012280191
0.011346487
0.010463786
0.0096317209
0.0088495738
0.0081163005
0.0074304328
0.047673501
0.048235654
0.048735403
0.049169293
0.049534004
0.049826364
0.050043447
0.05017976
0.050236451
0.050211244
0.050101313
0.049903267
0.049616952
0.04924153
0.048776659
0.048222533
0.047579925
0.046850217
0.046035435
0.045138265
0.044162073
0.043110892
0.041989342
0.040802165
0.039573576
0.038285049
0.036941017
0.03555822
0.034144235
0.032706797
0.031253679
0.029792602
0.028331136
0.026876602
0.025435973
0.024015788
0.022622081
0.021260363
0.019935849
0.018647097
0.017408583
0.016217513
0.015076095
0.01398615
0.012948903
0.011965002
0.011034586
0.010157354
0.0093326137
0.0085593186
0.007835955
0.04910844
0.049702265
0.050233747
0.050699274
0.051095357
0.0514186
0.051665691
0.051833277
0.051917408
0.051918843
0.051835053
0.05166106
0.051396608
0.051040645
0.050592508
0.05005207
0.049419783
0.048696714
0.047884588
0.04698581
0.046003498
0.044941526
0.043804621
0.042598576
0.041330793
0.040023017
0.03864549
0.037223007
0.035764879
0.034279252
0.032774302
0.031258187
0.029738953
0.028224428
0.026722106
0.025239044
0.023781739
0.022355854
0.020964089
0.019618616
0.018318659
0.017067665
0.015868265
0.01472246
0.013631626
0.012596548
0.011617472
0.010694165
0.0098259675
0.0090118324
0.0082502022
0.050517904
0.05114218
0.051704327
0.052200591
0.052627347
0.052981052
0.053258274
0.053455743
0.053567911
0.053596724
0.053538891
0.053390164
0.053148578
0.052813323
0.052383404
0.051858359
0.051238303
0.050523971
0.049716762
0.048818777
0.047832846
0.04676257
0.045612365
0.044387423
0.04309305
0.041755907
0.040352793
0.038892475
0.037392024
0.035859841
0.03430446
0.032734461
0.031158368
0.029584518
0.028020948
0.026475291
0.024954783
0.023466758
0.022012332
0.020602674
0.019240514
0.017929043
0.016671055
0.015468748
0.014323679
0.013236786
0.012208429
0.011238447
0.010326221
0.0094707039
0.0086702956
0.051894259
0.052547533
0.053139042
0.053664904
0.054121375
0.054504786
0.054811579
0.05503837
0.0551786
0.055234738
0.055203033
0.05508017
0.054862261
0.054548753
0.05413833
0.053630193
0.05302411
0.05232047
0.05152033
0.05062546
0.049638377
0.048562388
0.047401643
0.046161297
0.044847947
0.043470619
0.042050168
0.040555599
0.039015133
0.037438399
0.035834351
0.034212
0.032580345
0.030948238
0.029324243
0.027716446
0.026132102
0.024576738
0.023063316
0.021591812
0.020167989
0.018796056
0.017479298
0.016220224
0.015020623
0.013881603
0.012803652
0.011786692
0.010830144
0.0099329656
0.0090935158
0.053231408
0.05391205
0.054531429
0.055085547
0.055570549
0.05598264
0.056318131
0.056573573
0.056741975
0.05682495
0.056819411
0.056722605
0.056528969
0.056238012
0.055848133
0.0553582
0.054767631
0.054076457
0.053285379
0.052395816
0.051409959
0.050330806
0.049162228
0.047909053
0.046577096
0.045172135
0.043721952
0.042202914
0.040624735
0.039005695
0.037355036
0.035682178
0.03399659
0.032307656
0.030624546
0.028956106
0.02731072
0.025693818
0.024115712
0.022581382
0.021095887
0.019663624
0.018288198
0.016972411
0.015718291
0.014527137
0.013399571
0.012335604
0.011334702
0.010395832
0.0095173006
0.054524625
0.05523087
0.055876484
0.05645736
0.056969537
0.057409079
0.057772082
0.058054651
0.058252683
0.0583613
0.058381867
0.058310502
0.058141816
0.057873921
0.057505386
0.057034722
0.056460987
0.055783845
0.055003627
0.054121391
0.053138976
0.052059057
0.050885209
0.049621992
0.048275073
0.046851234
0.045358958
0.0438238
0.042212217
0.040553415
0.038858446
0.037137178
0.035399545
0.033655436
0.031914569
0.030186472
0.028480905
0.026802049
0.025161756
0.023565602
0.022019073
0.020526979
0.019093297
0.017721149
0.016412819
0.015169803
0.013992867
0.01288212
0.011837081
0.010856722
0.0099392647
0.055770377
0.056500372
0.05717049
0.057776524
0.058314421
0.058780136
0.059169648
0.05947898
0.059704288
0.059838752
0.05988521
0.05983884
0.059695322
0.059450845
0.059104239
0.05865368
0.058097868
0.057436099
0.056668326
0.055795232
0.054818291
0.053739831
0.052563096
0.051292315
0.04993273
0.048490348
0.046970789
0.045405238
0.043770502
0.042074317
0.040337436
0.038570032
0.036782465
0.034985092
0.033188052
0.031400961
0.029632185
0.02789656
0.026196274
0.024539547
0.022932907
0.021381761
0.019890515
0.018462629
0.017100658
0.015806306
0.014580492
0.013423425
0.012334683
0.011313265
0.056966171
0.057718019
0.058410851
0.059040373
0.059602454
0.060092962
0.06050778
0.060842848
0.061094232
0.061253979
0.061325697
0.061303964
0.061185499
0.060964594
0.060640285
0.060210436
0.059673402
0.059028111
0.05827414
0.057411787
0.056442146
0.05536718
0.054189786
0.052913867
0.051544369
0.050087252
0.048549501
0.046940784
0.045289677
0.043562008
0.041785754
0.039974615
0.038139397
0.036290966
0.034440047
0.032597043
0.030772027
0.028975627
0.027215376
0.025498967
0.023833244
0.02222404
0.020676159
0.019193401
0.017778596
0.016433665
0.015159683
0.01395696
0.012825099
0.011762859
0.058110403
0.058882191
0.059595925
0.060247229
0.060831903
0.061345737
0.061784525
0.062144119
0.062420502
0.062604868
0.062700955
0.062703452
0.06260956
0.062412283
0.062110406
0.061701645
0.061184014
0.060556076
0.059817028
0.058966782
0.058006044
0.056936396
0.055760368
0.05448151
0.05310442
0.051634691
0.05007864
0.048442427
0.046760105
0.045011231
0.043198097
0.041345626
0.039465097
0.037567855
0.035665189
0.033768125
0.031887311
0.030033093
0.028214519
0.026439831
0.024716333
0.023050299
0.021446936
0.019910388
0.018443769
0.017049221
0.015727982
0.014480468
0.013306326
0.012204219
0.059202218
0.059992054
0.060724882
0.061396253
0.062001903
0.062537544
0.062998874
0.063381639
0.063681795
0.063890443
0.064009718
0.064036185
0.063965685
0.06379212
0.063512608
0.063125106
0.062627282
0.062017343
0.06129411
0.060457106
0.059506646
0.058443919
0.057271076
0.055991303
0.054608864
0.053129107
0.051558431
0.049904534
0.04817863
0.046411587
0.044570021
0.042678537
0.040755068
0.038811304
0.036859058
0.034909902
0.032974924
0.031064984
0.029189937
0.027358631
0.025578891
0.023857459
0.022199959
0.020610891
0.019093663
0.017650643
0.016283237
0.014991974
0.013776559
0.012635575
0.060241388
0.061047423
0.061797573
0.062487314
0.063112325
0.063668237
0.064150635
0.064555059
0.064876935
0.065111174
0.065251884
0.065301364
0.065253458
0.06510321
0.064845857
0.064479604
0.064001794
0.063410287
0.062703537
0.061880684
0.060941646
0.059887219
0.058719165
0.057440294
0.056054527
0.054566911
0.052983581
0.051311577
0.049557847
0.047758141
0.04589722
0.043969449
0.042005529
0.040017596
0.038018014
0.03601893
0.034031728
0.032068097
0.030138519
0.028252404
0.026418111
0.024642873
0.022932743
0.021292588
0.019726113
0.018235918
0.016823582
0.015489751
0.014234222
0.061228199
0.062048653
0.062814404
0.063520863
0.064163653
0.064738334
0.065240405
0.065665302
0.066008423
0.066265225
0.066427416
0.066499042
0.066473007
0.066345504
0.06610996
0.065764781
0.065307009
0.064734171
0.064044363
0.063236348
0.062309656
0.061264685
0.060102805
0.058826446
0.057439177
0.055945758
0.054352166
0.052665646
0.050894987
0.049052498
0.047166593
0.045215261
0.043213402
0.041183693
0.039139058
0.037092364
0.035054968
0.033039771
0.031057694
0.029118683
0.027231647
0.025404321
0.023643202
0.021953524
0.020339296
0.018803352
0.017347436
0.015972272
0.014677394
0.062163355
0.06299653
0.063776236
0.064497821
0.065156858
0.065748848
0.066269217
0.066713336
0.067076567
0.067354355
0.067537181
0.067629989
0.067625112
0.067519588
0.067305433
0.066981006
0.066543128
0.065989013
0.065316412
0.064523721
0.063610086
0.062575512
0.061420973
0.060148519
0.058761362
0.057263954
0.055662055
0.053962827
0.052175014
0.050309219
0.048376834
0.046411343
0.044376275
0.042307228
0.040219766
0.038127811
0.036042352
0.033977857
0.031945382
0.029955459
0.028017576
0.026139984
0.024329621
0.022592097
0.020931721
0.019351562
0.017853534
0.016438457
0.015105746
0.063047895
0.063892189
0.064684285
0.065419477
0.066093293
0.066701177
0.067238494
0.067700555
0.068082661
0.06838016
0.068582611
0.068695491
0.068711238
0.068626469
0.068433411
0.068129244
0.067710966
0.067175468
0.066520165
0.065743095
0.06484303
0.063819588
0.062673352
0.061405987
0.060020341
0.058520541
0.056912072
0.055201846
0.053398213
0.051510595
0.04954749
0.047549011
0.045492635
0.043386566
0.041258389
0.039122261
0.036992167
0.034880722
0.032799952
0.030761142
0.028774378
0.02684842
0.024990646
0.023207037
0.021502205
0.019879457
0.018340882
0.016887412
0.015518397
0.063883108
0.064737026
0.065540048
0.066287411
0.066974603
0.067597021
0.068149968
0.068628697
0.069028443
0.069344467
0.069565547
0.069697358
0.069733016
0.069667919
0.069495359
0.069210918
0.068811837
0.068294713
0.067656644
0.066895323
0.06600916
0.064997395
0.063860225
0.062598932
0.061215996
0.059715209
0.058101755
0.056382283
0.054564907
0.052659075
0.050675505
0.048629454
0.046555863
0.044420642
0.042254229
0.040076174
0.037903662
0.035747181
0.033620161
0.031534525
0.029500901
0.02752854
0.025625252
0.023797386
0.022049855
0.020386201
0.018808696
0.017318422
0.06467048
0.065532638
0.066345221
0.067103411
0.067802655
0.068438302
0.069005606
0.069499751
0.069915908
0.070249302
0.070488154
0.070637722
0.070692375
0.070646022
0.070493192
0.070227848
0.069847458
0.069348347
0.068727312
0.067981719
0.067109627
0.066109909
0.064982385
0.063727958
0.062348742
0.060848181
0.059231153
0.057504031
0.055674697
0.053752419
0.051747519
0.049670233
0.047562362
0.045408017
0.043206262
0.040990321
0.038775789
0.036576252
0.03440511
0.032274758
0.030196337
0.028179578
0.026232719
0.02436247
0.022574038
0.020871195
0.019256346
0.017730324
0.065411634
0.066280763
0.067101648
0.067869414
0.068579471
0.069227118
0.069807548
0.070315883
0.070747201
0.071096694
0.071352945
0.071518984
0.071591591
0.071563053
0.0714291
0.07118215
0.070819859
0.070338299
0.069733982
0.069003964
0.068145967
0.06715851
0.066041046
0.064794105
0.063419437
0.06192014
0.060300774
0.05856744
0.056727802
0.054791038
0.052767749
0.050670274
0.048516185
0.046339814
0.044113803
0.041861219
0.039607606
0.037367322
0.035154253
0.032981322
0.03086019
0.028801065
0.026812605
0.024901875
0.023074374
0.021334095
0.019683598
0.018123638
0.066108296
0.066983241
0.06781127
0.068587459
0.069307175
0.069965667
0.070558066
0.071079399
0.071524576
0.071888148
0.072163141
0.072343789
0.072433114
0.072421461
0.072305446
0.072076163
0.071731307
0.071266749
0.070678735
0.069964026
0.069120022
0.068144901
0.067037761
0.065798768
0.064429313
0.062932149
0.061311518
0.059573244
0.057724777
0.055775176
0.05373506
0.051616701
0.049435108
0.04721527
0.044975154
0.042689086
0.040398916
0.038120172
0.035867369
0.033653999
0.031492246
0.029392793
0.027364712
0.025415421
0.023550698
0.021774758
0.020090317
0.018498153
0.066762249
0.067641967
0.068476091
0.069259643
0.069987954
0.070656221
0.071259509
0.071792765
0.072250792
0.072628139
0.072919116
0.073114446
0.073219435
0.073223839
0.073124657
0.072912395
0.07258423
0.072136057
0.071563852
0.070864091
0.070033869
0.069071038
0.067974352
0.066743627
0.065379901
0.063885586
0.062264607
0.060522512
0.058666532
0.056705603
0.054650339
0.052513081
0.050308304
0.048051988
0.045781079
0.043474493
0.04114988
0.038834894
0.036544522
0.03429283
0.032092533
0.029954784
0.027889062
0.025903126
0.024003032
0.022193208
0.020476526
0.018853825
0.067375311
0.068258871
0.069098137
0.06988809
0.070624019
0.071301074
0.071914259
0.072458454
0.072928404
0.073318713
0.073624026
0.073833361
0.073953065
0.073972876
0.073889272
0.073693364
0.073381151
0.072948702
0.072391748
0.071706498
0.070889757
0.069939065
0.068852849
0.067630585
0.066272968
0.064782077
0.063161524
0.061416579
0.059554255
0.057583347
0.055514439
0.053359927
0.051134204
0.048853407
0.046534861
0.044215346
0.041860835
0.039511831
0.037186011
0.034898083
0.032661295
0.030487263
0.028385863
0.026365187
0.02443156
0.022589618
0.020842385
0.019190771
0.067949309
0.068835883
0.069679437
0.070474917
0.071217577
0.071902515
0.072524683
0.073078903
0.073559881
0.073962236
0.074280636
0.074503121
0.074636628
0.074671025
0.074602037
0.074421669
0.07412465
0.073707233
0.073164926
0.072493687
0.07169005
0.070751259
0.069675428
0.068461707
0.067110462
0.065623444
0.064003958
0.062257
0.060389358
0.058409672
0.056328452
0.054158066
0.051912708
0.049607767
0.047257102
0.044906199
0.042532763
0.040151578
0.037792349
0.03547022
0.033198956
0.030990624
0.028855483
0.026801947
0.024836604
0.022964288
0.021188172
0.019509237
0.06848605
0.06937492
0.070221995
0.07102222
0.071770805
0.0724628
0.073093106
0.073656497
0.074147638
0.074561125
0.074891569
0.075126328
0.075272721
0.07532085
0.075265603
0.075099932
0.074817334
0.074414235
0.073885934
0.07322816
0.072437188
0.071509986
0.07044437
0.06923918
0.067894461
0.066411652
0.064793755
0.063045496
0.061173437
0.059186051
0.057093748
0.054908845
0.052645473
0.050319195
0.047946549
0.045549523
0.043163477
0.04075476
0.038364204
0.036009864
0.033706098
0.031465409
0.029298428
0.02721388
0.025218602
0.023317624
0.021514262
0.019809563
0.068987297
0.069877859
0.070727776
0.071532048
0.072285833
0.072984133
0.0736218
0.074193562
0.074694042
0.075117795
0.075459357
0.075705529
0.075863905
0.075924915
0.075882572
0.075730757
0.0754618
0.075072289
0.07455733
0.073912437
0.073133645
0.07221766
0.071162019
0.069965263
0.068627136
0.06714877
0.065532878
0.063783918
0.061908225
0.059914103
0.057811849
0.055613722
0.053333817
0.050987758
0.048592148
0.046163306
0.04374836
0.041322695
0.038902425
0.036517777
0.034183426
0.031912279
0.029715316
0.02760156
0.025578091
0.023650125
0.021821113
0.020092171
0.069454735
0.070346517
0.071198692
0.072006395
0.072764732
0.073468654
0.074112967
0.074692357
0.075201401
0.075634606
0.075986436
0.076243196
0.07641268
0.076485741
0.076455492
0.0763167
0.076060609
0.075683951
0.075181653
0.074549031
0.073781897
0.072876711
0.071830745
0.070642261
0.06931071
0.067836935
0.066223367
0.064474203
0.062595557
0.060595558
0.058484386
0.05627424
0.053979206
0.051614988
0.049198578
0.046748487
0.044289247
0.041854274
0.039407816
0.03699482
0.034631756
0.032331995
0.030106858
0.027965653
0.025915688
0.023962359
0.02210925
0.020357539
0.06989
0.070782629
0.071636597
0.072447198
0.073209507
0.073918432
0.074568738
0.075155065
0.075671949
0.076113844
0.07647515
0.076741728
0.07692147
0.077005778
0.07698684
0.076860249
0.076616267
0.076251726
0.075761402
0.075140424
0.074384399
0.073489558
0.072452922
0.071272488
0.069947433
0.068478321
0.066867312
0.065118352
0.063237336
0.061232219
0.059113065
0.056892015
0.054583157
0.052202273
0.049766514
0.047294201
0.044803806
0.042345425
0.039881922
0.037441996
0.035051989
0.032725396
0.030473838
0.028306887
0.026232071
0.024254955
0.022379252
0.020606197
0.067439454
0.068416556
0.069369635
0.070295216
0.071188002
0.072043302
0.072856322
0.073622086
0.074335457
0.074991158
0.075583786
0.076107835
0.076557709
0.076927754
0.077203421
0.077392609
0.077487393
0.07747902
0.077363808
0.077131213
0.076778057
0.076299015
0.075689047
0.074943566
0.074058587
0.073030899
0.071858248
0.070539552
0.069075111
0.067466824
0.065718395
0.063835506
0.061825941
0.059699648
0.057468711
0.055147228
0.052751065
0.050297497
0.047804683
0.045289304
0.042800031
0.04032443
0.037860234
0.035445085
0.033093385
0.030817098
0.028626048
0.026527968
0.024528587
0.022631739
0.020838708
0.067822515
0.068796223
0.069747398
0.070671652
0.071564279
0.072420539
0.073235563
0.074004322
0.074721636
0.075382186
0.07598053
0.076511116
0.076968308
0.077346401
0.077630477
0.077828349
0.077932859
0.077934363
0.077829664
0.077607817
0.077265305
0.076796859
0.076197265
0.075461752
0.074586136
0.073566986
0.072401816
0.071089297
0.069629478
0.068024013
0.066276373
0.064392032
0.062378607
0.06024593
0.058006029
0.055673015
0.053262842
0.050792962
0.048281924
0.045749034
0.043220109
0.040732709
0.038250886
0.035812078
0.033436906
0.03113752
0.028923961
0.026804146
0.024783961
0.022867369
0.021055668
0.068179003
0.069149159
0.070097995
0.07102081
0.071913051
0.072769965
0.073586635
0.074357984
0.075078791
0.075743694
0.076347213
0.076883755
0.077347645
0.077733143
0.078024999
0.078230837
0.078344333
0.078355164
0.078260041
0.078048297
0.077715739
0.077257218
0.076667366
0.075941244
0.07507448
0.07406344
0.072905419
0.071598858
0.070143569
0.068540972
0.066794315
0.064908875
0.062892106
0.060753722
0.058505695
0.056162146
0.053739109
0.051254193
0.048726145
0.046174279
0.043617853
0.041108717
0.038614918
0.036153965
0.033756925
0.031436015
0.029201478
0.027061396
0.025021805
0.023086824
0.021257695
0.06851014
0.06947665
0.070422946
0.07134419
0.072235855
0.07309317
0.073911178
0.074684761
0.075408655
0.076077462
0.076685659
0.077227617
0.077697623
0.078089922
0.078388999
0.078602134
0.078723931
0.078743448
0.078657133
0.078454808
0.078131535
0.077682285
0.077101554
0.076384248
0.075525821
0.074522451
0.073371228
0.072070376
0.070619488
0.069019759
0.067274229
0.065387983
0.063368317
0.061224833
0.058969443
0.056616271
0.054181424
0.051682649
0.04913885
0.046569323
0.043991652
0.041454924
0.038952184
0.036471725
0.03405443
0.031713516
0.029459476
0.02730053
0.025242841
0.023290773
0.021445413
0.068817207
0.069780025
0.070723672
0.071643234
0.072534167
0.073391673
0.074210755
0.074986259
0.07571288
0.076385181
0.0769976
0.077544466
0.078020033
0.078418559
0.07872441
0.078944214
0.079073636
0.079101192
0.079022999
0.078829416
0.078514778
0.078074164
0.077501946
0.076792887
0.075942283
0.074946135
0.073801345
0.072505934
0.071059286
0.06946239
0.067718084
0.065831273
0.0638091
0.061661058
0.059398998
0.057037043
0.054591365
0.052079843
0.049521588
0.046936375
0.044344456
0.041773459
0.039259923
0.03676671
0.034330442
0.031970963
0.029698842
0.027522373
0.025447725
0.023479703
0.02161925
0.069101446
0.070060571
0.071001517
0.071919318
0.072809396
0.073666919
0.074486854
0.075264004
0.07599303
0.076668455
0.077284675
0.077835974
0.078316561
0.078720718
0.079033111
0.079258963
0.079395343
0.079430297
0.079359585
0.079174086
0.078867454
0.078434861
0.077870564
0.077169195
0.076325905
0.075336532
0.0741978
0.072907544
0.071464954
0.069870822
0.0681278
0.066240619
0.064216279
0.062064164
0.059796065
0.057426101
0.054970502
0.052447269
0.049875713
0.047275918
0.044668327
0.042073625
0.03954175
0.037039691
0.034585922
0.032209293
0.029920466
0.027727743
0.069364049
0.070319524
0.071257758
0.07217375
0.073062885
0.073920288
0.074740886
0.075519446
0.07625059
0.076928802
0.077548438
0.078103726
0.078588789
0.078997834
0.079317003
0.079548178
0.079690839
0.079732566
0.079668729
0.079490686
0.079191453
0.078766287
0.078209337
0.077515117
0.07667864
0.075695596
0.074562545
0.073277149
0.071838416
0.070246956
0.068505245
0.066617851
0.064591636
0.062435881
0.060162318
0.057785059
0.055320383
0.052786405
0.050202613
0.047589321
0.044966995
0.042354374
0.039799215
0.037291071
0.034821834
0.032429437
0.030125193
0.069606167
0.070558066
0.07149361
0.072407781
0.073295914
0.07415309
0.074974194
0.075753957
0.076486963
0.077167661
0.077790361
0.07834923
0.078838247
0.079250938
0.079578186
0.079813542
0.0799618
0.080009701
0.079952168
0.07978098
0.079488568
0.079070258
0.078520103
0.077832504
0.077002352
0.076025197
0.074897451
0.073616613
0.072181524
0.070592624
0.068852223
0.066964739
0.064936902
0.062777895
0.060499392
0.058115494
0.055642526
0.053098705
0.05050368
0.047877985
0.045242465
0.042618086
0.04003294
0.037520124
0.035039323
0.032632324
0.0303137
0.069828901
0.070777329
0.071710232
0.072622595
0.073509697
0.074366566
0.075188048
0.075968835
0.076703479
0.077386389
0.078011836
0.07857393
0.079066562
0.079483182
0.079816516
0.080056393
0.080209775
0.080263304
0.080211541
0.080046641
0.079760496
0.079348496
0.078804603
0.078123118
0.077298815
0.07632712
0.075204305
0.073927722
0.072496055
0.070909589
0.069170477
0.067282997
0.065253756
0.063091843
0.060808876
0.058418945
0.055938414
0.05338559
0.050780267
0.048143168
0.045495364
0.042857903
0.040252304
0.037728189
0.035239441
0.032818859
0.03048699
0.070033298
0.070978388
0.071908726
0.072819325
0.07370539
0.074561897
0.075383651
0.07616531
0.076901391
0.07758627
0.078214178
0.078779181
0.079275128
0.079695539
0.080033882
0.080278131
0.080436225
0.080494893
0.080448396
0.080289246
0.080008841
0.079602631
0.079064491
0.07838863
0.077569718
0.076603065
0.075484815
0.074212184
0.072783712
0.07119954
0.069461679
0.067574272
0.065543814
0.063379305
0.061092309
0.058696903
0.056209484
0.053648443
0.0510337
0.048386136
0.045726958
0.043077013
0.040455566
0.037917208
0.035422871
0.032989806
0.030645826
0.070220338
0.07116226
0.07209014
0.072999044
0.073884091
0.074740202
0.075562144
0.076344542
0.077081883
0.077768512
0.078398625
0.078966254
0.079465229
0.079889159
0.080231803
0.08048012
0.080642537
0.080705892
0.08066419
0.080510282
0.080235119
0.079834202
0.07930133
0.078630624
0.077816661
0.076854644
0.075740602
0.074471624
0.07304612
0.071464096
0.069727432
0.067840148
0.065808634
0.063641805
0.061351175
0.058950808
0.056457131
0.053888606
0.051265269
0.048608142
0.045938562
0.043277362
0.040643342
0.038087898
0.035590181
0.033145942
0.030790955
0.070390925
0.071329892
0.072255471
0.073162776
0.074046841
0.074902538
0.075724602
0.076507627
0.077246073
0.077934255
0.078566341
0.079136335
0.079638064
0.080065205
0.080411619
0.080663661
0.080830024
0.080897642
0.080860294
0.08071115
0.080440759
0.080044665
0.079516597
0.078850599
0.078041162
0.077083391
0.075973209
0.074707591
0.073284828
0.071704801
0.069969269
0.068082142
0.066049708
0.063880807
0.061586904
0.059182051
0.056682697
0.054107374
0.051476219