/*--------------------------------*- C++ -*----------------------------------*\
| =========                 |                                                 |
| \\      /  F ield         | OpenFOAM: The Open Source CFD Toolbox           |
|  \\    /   O peration     | Version:  2312                                  |
|   \\  /    A nd           | Website:  www.openfoam.com                      |
|    \\/     M anipulation  |                                                 |
\*---------------------------------------------------------------------------*/
FoamFile
{
    version     2.0;
    format      ascii;
    arch        "LSB;label=32;scalar=64";
    class       volScalarField;
    location    "0.02";
    object      nut;
}
// * * * * * * * * * * * * * * * * * * * * * * * * * * * * * * * * * * * * * //

dimensions      [0 2 -1 0 0 0 0];

internalField   nonuniform List<scalar> 
3272
(
0.028288736
0.028303584
0.028311289
0.028311821
0.028305126
0.028291626
0.028271314
0.028244305
0.028210773
0.028170951
0.028125102
0.028073516
0.028016505
0.027954408
0.027887578
0.027816389
0.027741226
0.027662486
0.027580571
0.02749589
0.027408846
0.027319842
0.027229269
0.027137512
0.02704494
0.026951904
0.026858738
0.026765755
0.026673245
0.026581475
0.02649069
0.026401109
0.026312931
0.02622633
0.026141462
0.026058459
0.025977441
0.025898508
0.025821746
0.02574723
0.025675025
0.025605185
0.025537759
0.025472788
0.025410309
0.025350353
0.025292949
0.025238123
0.025185896
0.025136288
0.025089314
0.025044989
0.025003322
0.02831892
0.028334548
0.028342951
0.028344122
0.028338106
0.028325097
0.028305197
0.028278546
0.028245308
0.028205712
0.028160019
0.02810852
0.028051532
0.027989394
0.027922464
0.027851119
0.027775749
0.027696755
0.027614545
0.02752953
0.027442121
0.027352725
0.027261738
0.027169549
0.027076531
0.026983043
0.02688942
0.026795979
0.026703015
0.026610796
0.02651957
0.026429559
0.026340962
0.026253955
0.026168693
0.02608531
0.026003925
0.025924636
0.02584753
0.025772681
0.025700152
0.025629997
0.025562264
0.025496992
0.025434217
0.02537397
0.02531628
0.02526117
0.025208663
0.025158778
0.025111533
0.025066942
0.025025012
0.028375008
0.028391924
0.028401482
0.02840369
0.02839861
0.028386359
0.028367062
0.028340879
0.028307978
0.028268589
0.028222977
0.028171434
0.028114282
0.028051864
0.027984547
0.027912716
0.027836767
0.027757112
0.027674167
0.027588354
0.027500091
0.027409797
0.027317876
0.027224728
0.027130735
0.027036263
0.026941656
0.026847238
0.02675331
0.026660148
0.026568003
0.0264771
0.026387642
0.026299807
0.02621375
0.026129607
0.026047494
0.025967511
0.025889741
0.025814256
0.025741118
0.025670378
0.025602081
0.025536267
0.025472967
0.025412212
0.025354027
0.025298434
0.025245456
0.025195113
0.025147421
0.025102395
0.025060041
0.028455811
0.02847436
0.028485366
0.028488839
0.028484841
0.028473469
0.028454848
0.028429153
0.028396549
0.02835728
0.028311613
0.028259848
0.028202313
0.028139359
0.028071363
0.02799872
0.02792184
0.027841145
0.027757064
0.027670032
0.027580482
0.027488844
0.027395539
0.027300977
0.027205553
0.027109644
0.027013607
0.026917776
0.02682246
0.026727943
0.026634482
0.026542309
0.02645163
0.026362625
0.026275451
0.026190243
0.026107118
0.026026172
0.025947488
0.025871134
0.025797166
0.025725635
0.025656581
0.02559004
0.025526042
0.025464612
0.025405774
0.025349548
0.025295957
0.025245018
0.025196747
0.025151155
0.02510825
0.028560105
0.028580448
0.028593011
0.028597804
0.028594888
0.028584356
0.028566339
0.028541014
0.028508552
0.028469204
0.028423248
0.028370993
0.028312775
0.028248958
0.028179929
0.028106098
0.028027889
0.027945739
0.027860093
0.027771402
0.027680115
0.027586677
0.027491529
0.027395096
0.027297788
0.027199996
0.027102092
0.027004422
0.026907305
0.026811036
0.026715881
0.026622077
0.026529834
0.026439338
0.026350746
0.026264195
0.026179798
0.02609765
0.02601783
0.025940402
0.025865417
0.025792921
0.02572295
0.025655536
0.025590704
0.025528475
0.025468866
0.025411901
0.025357597
0.025305966
0.025257023
0.025210778
0.025167239
0.028686778
0.02870891
0.028722983
0.028729004
0.028727035
0.028717177
0.028699576
0.028674374
0.028641798
0.028602087
0.028555531
0.028502448
0.028443187
0.028378126
0.028307668
0.028232236
0.028152271
0.028068228
0.027980571
0.027889769
0.027796289
0.027700597
0.027603152
0.027504395
0.027404756
0.027304645
0.027204447
0.027104523
0.027005208
0.026906805
0.026809591
0.026713812
0.026619682
0.026527392
0.026437101
0.026348944
0.026263036
0.026179468
0.026098313
0.02601963
0.025943466
0.025869858
0.025798838
0.025730433
0.025664662
0.025601537
0.02554108
0.025483303
0.025428215
0.025375828
0.025326154
0.025279203
0.02523498
0.028834614
0.028858384
0.028873784
0.02888082
0.028879554
0.028870097
0.028852591
0.02882721
0.028794188
0.02875376
0.02870623
0.028651931
0.028591226
0.028524508
0.028452195
0.02837473
0.028292571
0.028206193
0.028116078
0.028022715
0.027926594
0.027828201
0.027728015
0.027626499
0.027524102
0.027421252
0.027318353
0.027215783
0.02711389
0.027012991
0.026913375
0.026815295
0.026718974
0.026624605
0.026532351
0.026442348
0.026354708
0.02626952
0.026186852
0.026106757
0.026029272
0.025954428
0.025882248
0.025812757
0.025745964
0.025681887
0.025620526
0.025561885
0.025505969
0.025452789
0.025402353
0.02535467
0.025309743
0.029002203
0.029027335
0.029043761
0.029051493
0.029050594
0.02904118
0.029023403
0.028997461
0.028963598
0.028922048
0.028873131
0.028817196
0.028754622
0.028685818
0.02861122
0.028531287
0.028446498
0.028357348
0.02826434
0.028167984
0.028068794
0.027967275
0.027863929
0.027759243
0.027653685
0.027547705
0.027441725
0.027336141
0.027231318
0.027127588
0.027025249
0.026924568
0.026825773
0.026729064
0.026634605
0.026542535
0.026452963
0.026365974
0.026281633
0.026199986
0.026121062
0.02604488
0.025971454
0.025900807
0.025832946
0.025767864
0.025705555
0.025646017
0.025589252
0.025535264
0.025484058
0.025435638
0.025390008
0.029187948
0.029214063
0.029231124
0.02923915
0.029238209
0.029228416
0.029209938
0.02918301
0.029147855
0.029104759
0.029054025
0.028996022
0.028931147
0.028859827
0.028782515
0.028699691
0.028611852
0.028519514
0.028423202
0.028323448
0.028220788
0.02811575
0.028008859
0.027900625
0.027791538
0.02768207
0.027572663
0.027463732
0.027355659
0.027248792
0.027143443
0.027039887
0.026938364
0.026839078
0.026742198
0.026647861
0.026556177
0.026467227
0.026381071
0.026297749
0.026217286
0.026139688
0.026064944
0.02599314
0.025924162
0.025858024
0.025794732
0.02573428
0.025676661
0.025621868
0.025569901
0.025520759
0.025474435
0.0293901
0.029416734
0.029433963
0.029441816
0.029440368
0.029429734
0.029410091
0.029381702
0.029344802
0.029299716
0.029246728
0.029186223
0.029118621
0.029044367
0.028963932
0.028877813
0.02878653
0.028690617
0.028590621
0.028487098
0.028380604
0.028271693
0.028160911
0.028048792
0.027935849
0.027822575
0.027709434
0.027596861
0.027485255
0.027374982
0.027266366
0.027159697
0.027055221
0.02695315
0.026853657
0.026756881
0.02666293
0.02657188
0.026483786
0.026398681
0.02631658
0.026237476
0.026161491
0.026088378
0.026018238
0.025951046
0.025886783
0.025825429
0.025766971
0.025711394
0.025658691
0.029606799
0.029633424
0.029650296
0.029657452
0.029654982
0.02964302
0.029621765
0.029591479
0.02955231
0.029504788
0.029449111
0.029385683
0.029314944
0.029237358
0.029153414
0.029063628
0.028968538
0.028868698
0.028764678
0.028657054
0.028546405
0.028433308
0.028318333
0.028202035
0.028084952
0.027967598
0.027850459
0.027733989
0.027618608
0.027504697
0.027392597
0.027282608
0.027174987
0.027069954
0.026967686
0.026868325
0.026771975
0.026678713
0.026588583
0.026501609
0.026417808
0.026337238
0.026259741
0.026185372
0.026114086
0.026045847
0.025980624
0.02591839
0.025859119
0.025802789
0.025749378
0.029836135
0.029862182
0.029878138
0.029884054
0.029880034
0.029866228
0.029842846
0.029810145
0.029768397
0.029717941
0.029659139
0.029592382
0.02951812
0.029436832
0.029349024
0.029255231
0.029156008
0.029051929
0.028943585
0.028831571
0.02871649
0.028598941
0.028479514
0.02835879
0.028237327
0.028115663
0.027994306
0.027873729
0.027754371
0.02763663
0.027520864
0.027407384
0.027296461
0.027188319
0.027083143
0.026981075
0.026882222
0.026786657
0.026694424
0.026605538
0.026520011
0.026437804
0.026358883
0.026283222
0.026210774
0.02614149
0.026075324
0.026012235
0.025952187
0.025895148
0.025841084
0.030076193
0.030101063
0.030115526
0.030119647
0.030113544
0.030097381
0.030071381
0.030035811
0.029990978
0.029937204
0.029874886
0.029804422
0.029726279
0.029640951
0.02954896
0.029450856
0.029347213
0.029238624
0.029125697
0.02900905
0.028889305
0.028767081
0.028642991
0.028517638
0.028391602
0.028265443
0.02813969
0.028014837
0.027891341
0.027769618
0.027650041
0.027532937
0.027418584
0.027307218
0.027199028
0.02709416
0.02699272
0.026894776
0.026800367
0.026709518
0.026622209
0.026538393
0.026458032
0.026381079
0.026307476
0.026237162
0.026170077
0.026106167
0.026045382
0.025987681
0.025933021
0.030325091
0.030348168
0.030360552
0.03036232
0.030353604
0.030334583
0.030305488
0.030266603
0.030218243
0.030160761
0.030094559
0.030020044
0.029937695
0.029848023
0.029751565
0.029648887
0.029540578
0.029427249
0.029309525
0.029188042
0.029063442
0.028936366
0.028807447
0.028677307
0.028546545
0.02841575
0.028285466
0.028156209
0.028028454
0.027902635
0.027779139
0.027658308
0.027540433
0.027425757
0.027314475
0.027206739
0.027102654
0.027002291
0.02690567
0.026812813
0.026723694
0.026638262
0.026556459
0.026478224
0.026403485
0.026332166
0.026264195
0.026199503
0.026138028
0.026079717
0.026024514
0.030581002
0.030601674
0.030611396
0.03061026
0.030598415
0.030576051
0.03054341
0.030500787
0.030448509
0.030386955
0.030316516
0.030237637
0.030150793
0.030056511
0.029955342
0.029847864
0.029734683
0.029616423
0.029493728
0.029367249
0.029237648
0.029105583
0.028971708
0.028836664
0.028701073
0.028565537
0.028430627
0.028296876
0.028164778
0.028034783
0.027907295
0.027782669
0.027661209
0.027543165
0.02742874
0.027318087
0.027211312
0.027108482
0.027009639
0.026914769
0.026823838
0.02673679
0.026653555
0.026574054
0.026498203
0.026425911
0.026357091
0.026291662
0.026229547
0.02617068
0.026114994
0.030842187
0.030859851
0.030866345
0.030861776
0.030846307
0.030820141
0.03078353
0.030736775
0.030680217
0.03061425
0.030539274
0.030455751
0.030364158
0.030265036
0.030158948
0.030046484
0.029928262
0.029804922
0.02967712
0.029545526
0.029410816
0.029273666
0.029134748
0.028994723
0.028854233
0.028713888
0.028574294
0.028435995
0.028299504
0.028165288
0.028033766
0.027905307
0.027780226
0.027658783
0.027541189
0.027427601
0.027318128
0.027212828
0.02711174
0.027014849
0.026922111
0.026833457
0.026748806
0.026668064
0.026591131
0.026517904
0.026448278
0.026382159
0.026319456
0.026260089
0.026203979
0.031107
0.031121077
0.031123804
0.031115301
0.031095743
0.031065348
0.031024374
0.030973127
0.030911958
0.030841278
0.030761496
0.030673086
0.030576529
0.030472375
0.030361197
0.030243597
0.030120204
0.02999167
0.029858664
0.029721871
0.02958198
0.029439685
0.029295674
0.029150624
0.029005196
0.028860022
0.028715714
0.028572845
0.028431943
0.02829349
0.028157921
0.028025618
0.027896907
0.027772058
0.027651288
0.027534762
0.027422593
0.027314828
0.027211505
0.027112604
0.027018073
0.026927834
0.026841792
0.02675984
0.026681861
0.026607738
0.026537352
0.026470592
0.026407353
0.026347542
0.026291066
0.031373902
0.031383845
0.031382299
0.031369394
0.031345319
0.031310303
0.03126461
0.031208549
0.031142481
0.03106682
0.030982004
0.030888494
0.030786798
0.030677456
0.030561054
0.030438203
0.030309544
0.030175737
0.030037464
0.029895422
0.029750313
0.029602846
0.029453723
0.029303638
0.029153268
0.029003263
0.028854248
0.028706817
0.028561513
0.028418835
0.028279232
0.028143098
0.028010772
0.027882532
0.027758601
0.027639142
0.027524273
0.027414076
0.027308549
0.027207666
0.027111369
0.027019573
0.026932172
0.026849045
0.02677006
0.026695084
0.026623984
0.026556633
0.026492911
0.026432712
0.026375927
0.031641468
0.031646769
0.031640481
0.031622747
0.031593764
0.031553769
0.031503037
0.031441882
0.03137067
0.031289815
0.031199766
0.031100985
0.030994004
0.030879352
0.030757624
0.030629442
0.030495452
0.030356327
0.030212755
0.030065445
0.029915112
0.029762475
0.029608251
0.029453149
0.029297861
0.029143052
0.028989364
0.028837403
0.028687732
0.028540864
0.028397261
0.028257332
0.028121425
0.027989832
0.027862779
0.027740435
0.027622916
0.027510296
0.027402584
0.027299746
0.027201716
0.0271084
0.027019678
0.026935415
0.026855466
0.026779682
0.026707915
0.026640021
0.026575869
0.026515336
0.031908387
0.031908581
0.031897128
0.03187418
0.031839942
0.031794658
0.031738609
0.031672116
0.031595548
0.031509319
0.031413884
0.031309684
0.031197315
0.031077267
0.030950146
0.030816583
0.030677231
0.03053277
0.030383897
0.030231329
0.030075791
0.029918014
0.029758727
0.029598651
0.029438492
0.029278932
0.029120625
0.028964192
0.02881021
0.028659208
0.02851166
0.028367988
0.028228553
0.028093654
0.027963527
0.027838345
0.027718222
0.027603227
0.027493371
0.02738862
0.027288899
0.027194103
0.027104102
0.027018746
0.026937877
0.026861331
0.026788943
0.026720556
0.02665602
0.026595187
0.032173463
0.032168132
0.032151139
0.03212264
0.032082846
0.032032007
0.031970408
0.031898372
0.031816271
0.031724523
0.031623608
0.031513841
0.031396016
0.031270526
0.031137977
0.030999014
0.030854298
0.030704512
0.030550361
0.03039257
0.030231872
0.030069008
0.029904717
0.029739734
0.029574775
0.029410536
0.029247684
0.029086854
0.028928638
0.028773576
0.028622156
0.028474812
0.028331913
0.02819377
0.028060628
0.027932664
0.027809991
0.027692678
0.027580734
0.027474121
0.027372757
0.027276528
0.027185293
0.02709889
0.027017147
0.026939883
0.026866921
0.026798086
0.026733215
0.026672139
0.032435613
0.032424391
0.03240153
0.032367191
0.032321587
0.032264971
0.032197631
0.032119893
0.032032117
0.031934716
0.03182818
0.031712929
0.031589549
0.031458573
0.031320589
0.031176235
0.031026177
0.030871102
0.030711721
0.030548763
0.030382971
0.030215094
0.030045881
0.029876075
0.029706404
0.029537576
0.029370273
0.029205139
0.029042779
0.028883748
0.028728544
0.028577611
0.02843133
0.028290019
0.028153932
0.028023252
0.027898093
0.027778524
0.027664552
0.027556133
0.02745318
0.027355568
0.027263148
0.027175745
0.027093172
0.027015237
0.026941745
0.026872509
0.026807348
0.026746076
0.032693864
0.032676437
0.032647432
0.03260701
0.032555386
0.032492815
0.032419586
0.032336022
0.032242478
0.032139355
0.032027152
0.03190633
0.031777411
0.031640957
0.031497554
0.031347843
0.031192489
0.031032183
0.030867639
0.030699594
0.030528794
0.030355996
0.030181957
0.030007429
0.029833151
0.029659842
0.029488193
0.029318862
0.029152464
0.028989565
0.028830677
0.028676252
0.028526681
0.028382288
0.028243336
0.028110018
0.027982444
0.027860688
0.027744753
0.027634588
0.0275301
0.02743116
0.027337604
0.027249248
0.027165893
0.02708733
0.027013352
0.026943756
0.026878349
0.032947351
0.032923459
0.032888084
0.032841384
0.032783577
0.032714913
0.03263568
0.032546201
0.032446828
0.032337964
0.032220081
0.032093663
0.031959218
0.031817315
0.031668536
0.031513523
0.031352941
0.031187482
0.031017864
0.030844825
0.03066912
0.030491509
0.030312756
0.030133622
0.029954855
0.029777183
0.029601307
0.029427896
0.029257576
0.029090923
0.02892846
0.02877065
0.028617892
0.028470514
0.028328784
0.02819291
0.028063001
0.027939133
0.027821301
0.027709452
0.027603489
0.027503274
0.027408634
0.027319373
0.02723528
0.027156133
0.02708171
0.027011792
0.026946157
0.033195311
0.033164747
0.033122824
0.033069702
0.033005591
0.032930739
0.032845431
0.032749986
0.032644756
0.032530144
0.032406597
0.032274604
0.03213467
0.031987369
0.03183328
0.031673041
0.031507317
0.0313368
0.031162211
0.030984291
0.030803795
0.030621492
0.030438151
0.030254539
0.030071411
0.029889505
0.029709531
0.029532168
0.02935805
0.029187765
0.029021844
0.028860763
0.028704927
0.02855467
0.028410258
0.028271901
0.028139754
0.028013852
0.027894193
0.027780726
0.027673348
0.027571913
0.027476241
0.027386124
0.027301337
0.027221647
0.027146818
0.027076615
0.027010796
0.033437081
0.033399688
0.03335109
0.033291443
0.033220952
0.033139859
0.033048443
0.032947016
0.032835933
0.032715588
0.032586415
0.032448898
0.032303541
0.032150911
0.0319916
0.03182623
0.031655467
0.031480004
0.031300562
0.031117883
0.030932727
0.030745864
0.03055807
0.030370117
0.030182767
0.029996764
0.029812829
0.029631647
0.029453864
0.029280074
0.029110819
0.028946584
0.028787784
0.02863476
0.028487779
0.028347032
0.02821273
0.028084867
0.027963452
0.027848434
0.027739703
0.027637106
0.027540453
0.027449526
0.02736409
0.027283897
0.027208699
0.027138248
0.027072282
0.03367209
0.03362776
0.033572407
0.033506177
0.033429269
0.033341919
0.033244397
0.033137009
0.033020104
0.032894069
0.032759325
0.032616362
0.032465669
0.032307807
0.032143375
0.031972985
0.031797301
0.031617017
0.031432851
0.031245549
0.031055871
0.030864591
0.030672487
0.030480338
0.03028891
0.030098956
0.029911202
0.029726342
0.02954503
0.029367868
0.029195408
0.029028141
0.02886649
0.028710807
0.02856137
0.02841839
0.028281971
0.02815222
0.028029125
0.027912625
0.027802605
0.027698902
0.02760132
0.027509629
0.027423584
0.027342926
0.027267394
0.027196728
0.033899854
0.033848529
0.033786383
0.033713553
0.03363023
0.033536641
0.033433047
0.033319749
0.033197084
0.033065428
0.032925188
0.032776876
0.032620952
0.03245797
0.032288537
0.032113252
0.031932779
0.031747809
0.031559061
0.03136728
0.031173228
0.03097768
0.030781418
0.030585223
0.030389869
0.030196113
0.030004688
0.029816294
0.029631593
0.029451197
0.029275662
0.029105488
0.028941105
0.02878287
0.028631067
0.028485907
0.028347516
0.028215973
0.028091278
0.027973367
0.027862119
0.027757368
0.027658906
0.027566497
0.027479884
0.027398795
0.027322957
0.027252083
0.034119973
0.034061639
0.033992703
0.033913294
0.033823593
0.033723816
0.033614215
0.033495082
0.033366747
0.03322957
0.033083923
0.032930374
0.032769344
0.032601364
0.032427065
0.032247025
0.032061905
0.031872395
0.031679215
0.031483108
0.031284835
0.031085174
0.030884909
0.030684825
0.0304857
0.030288295
0.030093349
0.02990157
0.029713624
0.029530131
0.029351656
0.029178702
0.029011707
0.028851034
0.028696972
0.028549734
0.028409456
0.028276209
0.028149992
0.028030739
0.027918328
0.027812583
0.027713292
0.027620208
0.027533064
0.027451579
0.027375465
0.027304417
0.034332124
0.034266807
0.034191125
0.034105193
0.034009182
0.033903297
0.033787779
0.03366291
0.033529015
0.033386445
0.033235499
0.033076845
0.032910849
0.032737998
0.032558977
0.032374334
0.03218472
0.031990826
0.03179337
0.031593094
0.031390761
0.031187147
0.03098304
0.030779226
0.030576486
0.030375587
0.030177274
0.029982257
0.029791212
0.029604762
0.029423481
0.029247876
0.029078392
0.028915395
0.028759181
0.028609965
0.02846789
0.028333022
0.028205361
0.028084837
0.027971323
0.02786464
0.027764568
0.027670851
0.027583213
0.027501362
0.027425
0.027353806
0.034536058
0.034463823
0.034381471
0.034289104
0.03418688
0.034074993
0.033953672
0.033823186
0.033683846
0.033535993
0.033379969
0.033216331
0.03304551
0.032867925
0.032684336
0.032495248
0.032301299
0.032103182
0.031901612
0.031697331
0.0314911
0.031283697
0.03107591
0.030868526
0.030662332
0.030458096
0.030256568
0.030058464
0.029864464
0.029675198
0.029491244
0.029313117
0.029141265
0.028976059
0.028817798
0.028666705
0.028522923
0.028386519
0.028257489
0.028135761
0.028021206
0.027913639
0.027812832
0.027718523
0.027630426
0.027548239
0.027471653
0.027400336
0.034731589
0.034652535
0.034563622
0.034464937
0.034356625
0.034238866
0.034111877
0.033975914
0.033831274
0.03367829
0.033517327
0.033348863
0.033173357
0.032991264
0.032803246
0.032609865
0.032411744
0.032209569
0.032004053
0.031795933
0.03158597
0.031374943
0.031163639
0.030952849
0.030743359
0.030535943
0.030331353
0.030130311
0.029933501
0.029741558
0.029555066
0.029374543
0.029200443
0.029033143
0.028872941
0.028720068
0.028574669
0.028436811
0.028306486
0.028183622
0.028068085
0.027959685
0.027858189
0.027763326
0.027674803
0.027592308
0.027515521
0.0274441
0.034918593
0.034832852
0.034737514
0.034632653
0.034518399
0.03439492
0.034262418
0.034121135
0.033971357
0.033813408
0.033647659
0.033474542
0.033294522
0.033108078
0.03291581
0.032718305
0.03251618
0.032310117
0.032100822
0.031889032
0.031675506
0.03146102
0.031246364
0.031032328
0.030819703
0.030609263
0.030401764
0.030197931
0.029998454
0.029803972
0.029615072
0.02943228
0.029256052
0.029086768
0.028924733
0.028770176
0.028623247
0.028484014
0.028352468
0.028228533
0.028112071
0.028002889
0.027900747
0.027805369
0.02771645
0.027633671
0.027556705
0.027485196
0.035097005
0.035004734
0.034903132
0.034792259
0.034672231
0.034543201
0.034405355
0.034258925
0.034104182
0.033941444
0.033771077
0.033593487
0.033409132
0.0332185
0.03302216
0.032820706
0.03261475
0.032404969
0.032192067
0.031976776
0.031759854
0.031542077
0.031324232
0.031107112
0.030891509
0.030678199
0.030467941
0.030261465
0.030059461
0.029862576
0.029671399
0.029486461
0.02930822
0.029137064
0.028973298
0.028817153
0.02866878
0.028528251
0.028395554
0.028270611
0.028153281
0.028043365
0.027940619
0.027844759
0.027755474
0.027672436
0.027595309
0.027523727
0.035266804
0.035168187
0.035060504
0.034943803
0.034818185
0.034683787
0.034540783
0.03438939
0.034229867
0.034062523
0.033887716
0.033705835
0.033517328
0.033322681
0.033122449
0.032917224
0.032707612
0.032494287
0.032277949
0.032059327
0.031839176
0.031618271
0.0313974
0.031177356
0.030958931
0.030742904
0.030530036
0.030321059
0.030116668
0.029917512
0.029724186
0.029537222
0.029357084
0.029184161
0.029018767
0.028861134
0.028711394
0.028569644
0.028435865
0.028309975
0.028191829
0.028081227
0.027977917
0.027881609
0.027791985
0.02770871
0.027631438
0.027559794
0.035428018
0.035323261
0.035209697
0.035087369
0.03495636
0.034816792
0.034668824
0.034512661
0.03434855
0.034176791
0.03399773
0.033811745
0.033619272
0.033420789
0.033216843
0.033008025
0.032794934
0.032578239
0.032358636
0.032136851
0.031913638
0.03168977
0.031466033
0.031243222
0.031022129
0.030803534
0.0305882
0.030376864
0.030170221
0.029968925
0.029773573
0.029584702
0.029402778
0.029228193
0.029061264
0.028902222
0.028751209
0.028608315
0.028473521
0.028346743
0.028227834
0.02811659
0.028012754
0.02791603
0.027826093
0.0277426
0.027665198
0.027593504
0.03558071
0.035470038
0.035350813
0.035223071
0.035086882
0.034942351
0.034789625
0.034628894
0.034460394
0.034284414
0.034101291
0.033911389
0.033715139
0.033513002
0.033305522
0.03309329
0.032876896
0.032657004
0.032434306
0.032209527
0.031983415
0.031756744
0.0315303
0.031304877
0.031081265
0.030860249
0.030642593
0.030429034
0.030220272
0.030016962
0.029819705
0.029629041
0.029445439
0.029269294
0.029100924
0.02894056
0.028788356
0.028644388
0.028508642
0.028381033
0.028261412
0.028149568
0.028045242
0.027948132
0.027857906
0.027774213
0.027696695
0.027624959
0.036024711
0.035932987
0.035833103
0.035725011
0.035608643
0.035483984
0.035351054
0.035209904
0.035060627
0.034903354
0.034738262
0.034565576
0.034385573
0.034198581
0.034004954
0.033805113
0.033599508
0.033388673
0.033173204
0.032953683
0.032730766
0.032505143
0.032277533
0.032048685
0.03181937
0.031590373
0.031362488
0.031136506
0.030913211
0.03069337
0.030477722
0.030266969
0.030061769
0.029862725
0.029670379
0.029485204
0.029307597
0.029137877
0.028976279
0.028822957
0.028677983
0.028541348
0.028412963
0.028292676
0.028180275
0.028075494
0.027978025
0.027887532
0.027803657
0.027726033
0.027654263
0.03617878
0.036080738
0.03597486
0.035861043
0.035739224
0.03560937
0.035471484
0.035325601
0.035171798
0.035010194
0.034840953
0.034664287
0.034480463
0.034289796
0.034092633
0.03388939
0.0336805
0.033466493
0.033247961
0.033025487
0.032799715
0.032571331
0.032341053
0.032109628
0.031877824
0.031646426
0.031416225
0.031188016
0.030962582
0.030740691
0.030523084
0.030310464
0.030103493
0.029902774
0.029708854
0.029522207
0.029343232
0.029172251
0.029009499
0.028855132
0.02870922
0.028571754
0.028442646
0.02832174
0.02820882
0.028103617
0.028005817
0.027915077
0.027831035
0.027753318
0.027681518
0.036323948
0.036219865
0.03610825
0.035988971
0.035861955
0.035727152
0.035584548
0.035434163
0.035276061
0.035110345
0.034937168
0.034756731
0.034569287
0.034375139
0.034174627
0.033968168
0.033756178
0.033539181
0.03331776
0.033092503
0.032864042
0.03263306
0.032400273
0.032166425
0.031932283
0.03169863
0.031466259
0.031235962
0.031008524
0.030784713
0.030565271
0.030350905
0.030142277
0.029939994
0.029744603
0.029556581
0.02937633
0.029204171
0.029040343
0.028885001
0.028738216
0.028599977
0.028470196
0.028348715
0.028235313
0.028129718
0.028031612
0.027940646
0.02785645
0.027778649
0.027706823
0.036460375
0.036350536
0.036233457
0.036108986
0.035977031
0.03583753
0.035690451
0.0355358
0.035373624
0.035204018
0.035027119
0.034843118
0.034652256
0.034454822
0.034251146
0.034041652
0.033826745
0.033606937
0.033382802
0.033154928
0.03292394
0.032690519
0.032455377
0.032219258
0.031982925
0.031747161
0.031512757
0.031280506
0.031051194
0.030825589
0.030604435
0.030388439
0.030178265
0.029974522
0.02977776
0.029588457
0.029407016
0.029233761
0.029068931
0.028912682
0.028765085
0.028626128
0.028495722
0.028373706
0.028259859
0.028153902
0.028055514
0.027964339
0.027880001
0.027802125
0.027730278
0.036588254
0.03647295
0.036350688
0.036221296
0.036084667
0.035940721
0.035789411
0.035630729
0.035464709
0.035291431
0.035111025
0.034923667
0.034729589
0.03452906
0.034322399
0.034110052
0.033892407
0.033669964
0.033443285
0.033212956
0.0329796
0.032743895
0.032506549
0.032268304
0.032029923
0.031792186
0.031555885
0.031321811
0.031090751
0.030863473
0.030640722
0.030423208
0.030211594
0.030006494
0.029808456
0.029617961
0.029435414
0.029261141
0.02909538
0.028938289
0.028789937
0.028650314
0.028519329
0.028396819
0.028282559
0.028176269
0.028077623
0.027986256
0.027901781
0.027823831
0.027751966
0.036707801
0.036587328
0.036460168
0.03632613
0.03618509
0.036036953
0.035881657
0.035719179
0.035549542
0.035372813
0.03518911
0.0349986
0.034801503
0.034598071
0.034388603
0.034173578
0.033953371
0.033728464
0.033499406
0.033266784
0.033031214
0.032793374
0.032553971
0.032313743
0.032073451
0.031833876
0.031595806
0.031360035
0.031127347
0.030898514
0.030674279
0.030455353
0.030242402
0.03003604
0.029836817
0.029645217
0.029461645
0.029286426
0.029119804
0.028961932
0.028812882
0.028672642
0.028541121
0.028418154
0.028303513
0.028196917
0.028098035
0.028006493
0.036819254
0.036693911
0.036562138
0.036423728
0.036278542
0.036126467
0.035967428
0.035801388
0.035628358
0.035448393
0.035261601
0.035068141
0.034868219
0.034662073
0.034449973
0.034232445
0.034009844
0.033782639
0.033551363
0.033316602
0.03307897
0.032839141
0.032597821
0.032355747
0.032113678
0.031872393
0.03163268
0.031395332
0.031161134
0.030930856
0.030705244
0.030485009
0.030270819
0.030063288
0.029862969
0.029670345
0.029485823
0.029309731
0.02914231
0.028983717
0.028834022
0.028693212
0.028561196
0.028437807
0.028322817
0.028215939
0.02811684
0.036922868
0.036792952
0.03665685
0.036514342
0.036365271
0.036209509
0.036046967
0.035877596
0.035701394
0.035518407
0.035328731
0.035132514
0.034929956
0.03472128
0.034506727
0.034286864
0.034062034
0.033832687
0.03359935
0.033362601
0.033123051
0.032881375
0.032638276
0.032394488
0.03215077
0.031907899
0.031666663
0.031427854
0.031192256
0.030960642
0.030733756
0.03051231
0.030296974
0.030088363
0.02988703
0.02969346
0.029508062
0.029331163
0.029163006
0.029003747
0.028853457
0.028712122
0.02857965
0.028455873
0.02834056
0.028233425
0.028134118
0.037018908
0.036884715
0.036744568
0.036598232
0.036445534
0.036286332
0.036120524
0.035948048
0.035768891
0.035583089
0.035390728
0.035191947
0.034986932
0.034775896
0.03455909
0.03433705
0.034110143
0.033878808
0.033643559
0.033404968
0.033163641
0.032920252
0.032675505
0.032430131
0.032184887
0.031940549
0.031697905
0.031457746
0.031220856
0.030988007
0.030759945
0.030537383
0.03032099
0.030111383
0.029909116
0.029714675
0.02952847
0.029350828
0.029181993
0.029022121
0.028871284
0.028729466
0.028596575
0.028472441
0.028356833
0.028249462
0.028149966
0.037107652
0.036969475
0.03682556
0.036675662
0.036519591
0.036357193
0.03618835
0.036012991
0.035831091
0.035642677
0.035447825
0.035246663
0.035039368
0.034826144
0.034607259
0.034383204
0.034154372
0.033921195
0.033684178
0.033443884
0.033200916
0.032955946
0.032709677
0.032462838
0.032216186
0.031970496
0.031726554
0.031485151
0.031247071
0.031013085
0.030783941
0.030560351
0.030342986
0.030132463
0.029929338
0.029734096
0.029547149
0.029368825
0.029199368
0.029038934
0.028887594
0.028745334
0.028612058
0.028487597
0.028371718
0.028264132
0.028164464
0.037189384
0.037047511
0.036900101
0.036746902
0.036587708
0.036422349
0.036250698
0.03607267
0.035888233
0.035697403
0.035500248
0.035296887
0.035087483
0.03487224
0.034651436
0.034425526
0.034194915
0.033960039
0.03372139
0.033479528
0.033235048
0.032988623
0.032740953
0.032492767
0.03224482
0.031997887
0.031752751
0.031510205
0.031271032
0.031036003
0.030805865
0.030581333
0.030363077
0.030151714
0.029947801
0.029751827
0.0295642
0.029385251
0.029215224
0.029054276
0.028902477
0.028759811
0.028626183
0.028501424
0.028385297
0.028277513
0.02817769
0.037264389
0.037119103
0.036968469
0.036812224
0.036650148
0.036482059
0.036307818
0.036127331
0.035940556
0.035747501
0.035548225
0.035342836
0.035131492
0.034914393
0.034691824
0.03446421
0.034231963
0.033995523
0.033755376
0.033512074
0.033266206
0.033018446
0.032769491
0.032520069
0.032270935
0.032022862
0.031776634
0.031533041
0.031292867
0.031056883
0.030825837
0.030600443
0.030381371
0.030169241
0.02996461
0.029767965
0.029579718
0.029400199
0.029229652
0.029068234
0.028916015
0.02877298
0.028639031
0.028513999
0.028397646
0.028289681
0.028189717
0.037332956
0.037184536