/*--------------------------------*- C++ -*----------------------------------*\
| =========                 |                                                 |
| \\      /  F ield         | OpenFOAM: The Open Source CFD Toolbox           |
|  \\    /   O peration     | Version:  2312                                  |
|   \\  /    A nd           | Website:  www.openfoam.com                      |
|    \\/     M anipulation  |                                                 |
\*---------------------------------------------------------------------------*/
FoamFile
{
    version     2.0;
    format      ascii;
    arch        "LSB;label=32;scalar=64";
    class       volScalarField;
    location    "0.02";
    object      O2;
}
// * * * * * * * * * * * * * * * * * * * * * * * * * * * * * * * * * * * * * //

dimensions      [0 0 0 0 0 0 0];

internalField   nonuniform List<scalar> 
3272
(
0.16149992
0.16114976
0.16091172
0.16078802
0.16078066
0.16088937
0.16111505
0.16146327
0.16193152
0.16251846
0.16322274
0.16404235
0.16497457
0.16601599
0.16716247
0.16840922
0.16975078
0.1711811
0.17269358
0.17428114
0.1759363
0.17762813
0.17938328
0.18119098
0.18303205
0.18489785
0.18677977
0.1886693
0.19055817
0.19243842
0.19430249
0.19614327
0.19795417
0.19972914
0.20146274
0.20315012
0.20478703
0.20636989
0.20789568
0.20936199
0.210767
0.21210941
0.21338845
0.21460383
0.21575567
0.21684453
0.21787128
0.21883714
0.2197436
0.2205924
0.22138557
0.22212496
0.22281275
0.16084438
0.16048192
0.16023219
0.16009751
0.16008
0.16017958
0.16039712
0.16073786
0.16120013
0.16178237
0.16248331
0.163301
0.1642328
0.16527534
0.16642456
0.16767569
0.16902331
0.17046138
0.1719833
0.17358196
0.17524985
0.17695559
0.17872496
0.18054964
0.18240891
0.18429401
0.18619621
0.18810688
0.19001761
0.19192028
0.19380719
0.19567109
0.19750523
0.19930343
0.20106011
0.20277029
0.20442962
0.20603441
0.20758154
0.20906855
0.21049352
0.21185511
0.21315251
0.21438538
0.21555385
0.21665844
0.21770003
0.21867982
0.21959926
0.22046
0.22126519
0.22201533
0.22271296
0.15963841
0.15925344
0.15898236
0.15882766
0.15879158
0.15887449
0.15907709
0.15940394
0.15985511
0.16042852
0.16112304
0.16193688
0.16286752
0.16391171
0.16506548
0.16632415
0.16768235
0.16913408
0.17067274
0.17229122
0.17398203
0.17571307
0.17750765
0.17936307
0.18125532
0.18317548
0.1851146
0.18706381
0.18901445
0.19095815
0.19288692
0.19479323
0.19667007
0.19851101
0.2003102
0.20206245
0.20376318
0.2054085
0.20699514
0.20852046
0.20998243
0.21137961
0.21271109
0.21397649
0.21517588
0.21630977
0.21737906
0.21838499
0.21932895
0.22021478
0.2210405
0.22181014
0.22252605
0.15797413
0.15755853
0.15725835
0.15707626
0.15701474
0.15707475
0.15725677
0.15756418
0.15799979
0.15856065
0.15924587
0.16005383
0.1609822
0.16202791
0.16318713
0.1644553
0.16582713
0.16729666
0.16885729
0.17050193
0.17222337
0.17399029
0.17581785
0.17771469
0.17965158
0.18161938
0.18360883
0.18561073
0.18761606
0.18961608
0.19160243
0.19356719
0.19550297
0.19740298
0.19926103
0.20107157
0.20282976
0.2045314
0.20617298
0.20775164
0.20926519
0.210712
0.21209106
0.21340187
0.21464447
0.21581934
0.21692736
0.21797018
0.21895147
0.21986758
0.22072324
0.22152068
0.22226241
0.15593198
0.15547935
0.15514387
0.15492848
0.15483589
0.15486785
0.15502461
0.15530776
0.15572378
0.15626866
0.15694171
0.15774157
0.15866616
0.1597126
0.16087727
0.16215575
0.16354285
0.16503261
0.16661828
0.16829215
0.17004545
0.17186827
0.173732
0.17567596
0.17766607
0.17969121
0.18174155
0.18380744
0.18587939
0.18794819
0.190005
0.19204145
0.19404967
0.19602241
0.19795302
0.19983557
0.20166481
0.20343619
0.20514588
0.20679077
0.20836838
0.20987691
0.21131515
0.21268251
0.21397894
0.21520488
0.21636259
0.21745443
0.21847574
0.21943186
0.22032489
0.22115716
0.22193126
0.15358266
0.15308806
0.15271245
0.15245904
0.1523308
0.15233028
0.15245754
0.15271383
0.15310556
0.15363125
0.15428929
0.15507865
0.15599751
0.15704329
0.15821258
0.15950116
0.16090398
0.16241519
0.16402809
0.16573518
0.16752829
0.16939906
0.17131177
0.17330726
0.17535754
0.1774475
0.17956691
0.18170561
0.18385361
0.18600116
0.18813889
0.19025784
0.19234962
0.19440641
0.19642106
0.19838713
0.2002989
0.20215142
0.20394047
0.20566258
0.207315
0.20889565
0.21040311
0.21183659
0.213196
0.21448453
0.21570225
0.21684385
0.21791524
0.21891835
0.21985531
0.22072852
0.2215407
0.15098843
0.15044825
0.15002891
0.14973391
0.14956652
0.14952966
0.149624
0.14985068
0.15021443
0.15071786
0.15135805
0.15213432
0.15304519
0.15408837
0.15526074
0.15655835
0.15797635
0.15950909
0.16115003
0.16289193
0.1647269
0.16664671
0.16861292
0.17066214
0.17277761
0.1749379
0.17713246
0.17935065
0.18158196
0.18381606
0.18604296
0.18825311
0.19043746
0.1925876
0.19469577
0.19675496
0.19875892
0.2007022
0.20258015
0.20438889
0.20612532
0.20778705
0.20937234
0.21088014
0.21231496
0.21367368
0.21495068
0.21615238
0.21728037
0.21833658
0.21932322
0.22024274
0.221098
0.14820425
0.14761604
0.14715042
0.14681118
0.14660191
0.14652583
0.14658462
0.14677922
0.14711173
0.14758998
0.14820954
0.14897004
0.14987035
0.15090858
0.15208192
0.15338672
0.15481843
0.15637162
0.15803998
0.15981642
0.16169327
0.16366286
0.16568744
0.16778942
0.16997294
0.17220703
0.17448081
0.1767832
0.1791031
0.18142958
0.18375199
0.18606011
0.1883442
0.19059516
0.19280458
0.19496479
0.19706895
0.19911103
0.20108589
0.20298921
0.2048175
0.20656801
0.20823854
0.20983396
0.21134814
0.21277537
0.21412235
0.21539023
0.21658054
0.21769524
0.21873658
0.21970711
0.2206098
0.14527856
0.14464091
0.14412743
0.1437422
0.14348909
0.14337161
0.14339242
0.14355275
0.14385312
0.1443021
0.1448984
0.14564043
0.1465275
0.14755809
0.14872981
0.15003936
0.15148251
0.15305409
0.15474797
0.15655704
0.1584731
0.16048676
0.16258665
0.1647371
0.16698616
0.16929539
0.17165063
0.17404012
0.17645212
0.17887505
0.18129756
0.18370871
0.18609802
0.18845564
0.19077244
0.19304003
0.1952509
0.1973984
0.19947681
0.2014813
0.20340799
0.20525382
0.20702396
0.20870642
0.21029785
0.2118048
0.2132275
0.2145669
0.21582453
0.21700238
0.21810279
0.21912845
0.22008266
0.14225395
0.14156641
0.14100437
0.14057222
0.14027413
0.14011396
0.1400952
0.14021852
0.14048584
0.14090266
0.14147321
0.14219413
0.14306519
0.14408529
0.14525249
0.14656389
0.14801563
0.14960288
0.15131979
0.1531595
0.15511417
0.15717517
0.15933349
0.16154452
0.1638543
0.16623947
0.16867712
0.17115511
0.17366117
0.17618304
0.17870868
0.18122637
0.18372486
0.1861935
0.18862236
0.1910023
0.19332506
0.19558328
0.19777059
0.19988153
0.20191165
0.20386522
0.20572835
0.20749909
0.20918072
0.2107729
0.21227614
0.21369151
0.21502063
0.21626557
0.21742879
0.13916773
0.13843064
0.13782013
0.13734086
0.13699729
0.13679363
0.13673368
0.13681883
0.13705273
0.13743467
0.13797695
0.13867426
0.13952657
0.14053328
0.14169289
0.14300295
0.14446004
0.14605973
0.14779651
0.14966388
0.15165437
0.15375991
0.15597257
0.15824839
0.16061313
0.16307323
0.16559275
0.16815927
0.17075994
0.17338186
0.17601224
0.17863859
0.18124884
0.18383151
0.18637581
0.18887179
0.19131039
0.1936835
0.195984
0.19820561
0.20034857
0.20240495
0.20436558
0.20623425
0.20800926
0.20969026
0.2112777
0.21277261
0.21417663
0.2154919
0.21672126
0.13605228
0.13526673
0.13460851
0.13408256
0.13369364
0.13344623
0.13334444
0.13339095
0.13358877
0.13393708
0.13444739
0.13511884
0.13594983
0.13694028
0.13808917
0.13939457
0.14085353
0.14246205
0.14421503
0.14610627
0.14812845
0.15027308
0.15253019
0.1548869
0.15730173
0.15982813
0.16242756
0.16508135
0.16777596
0.17049778
0.17323328
0.17596915
0.1786925
0.18139097
0.1840529
0.18666747
0.18922477
0.19171593
0.19413324
0.19647165
0.19872963
0.20088776
0.20295297
0.20492212
0.20679343
0.20856627
0.21024087
0.21181821
0.21329989
0.21468808
0.21598573
0.13293549
0.13210317
0.13139863
0.13082708
0.13039351
0.13010271
0.12995914
0.12996675
0.1301269
0.13044134
0.13091754
0.13156115
0.13236847
0.13333993
0.13447506
0.13577247
0.1372297
0.13884327
0.14060854
0.14251974
0.14456991
0.14675096
0.14905379
0.15146927
0.15394916
0.15653177
0.15920885
0.16194785
0.16473473
0.16755523
0.1703951
0.17324025
0.17607693
0.17889187
0.18167253
0.18440715
0.18708497
0.18969619
0.19223155
0.19469427
0.19705771
0.19932757
0.20150017
0.2035725
0.20554265
0.20740976
0.2091739
0.21083593
0.21239741
0.21386055
0.21522839
0.12984113
0.12896428
0.12821534
0.12759975
0.12712275
0.1267894
0.12660452
0.12657263
0.12669531
0.12697569
0.12741618
0.12803001
0.12881157
0.12976155
0.13088005
0.13216623
0.13361818
0.13523296
0.13700646
0.13893338
0.14100719
0.14322005
0.14556258
0.1480235
0.15058844
0.15321454
0.15596245
0.15878338
0.16165986
0.16457687
0.16751941
0.1704726
0.17342183
0.17635294
0.17925242
0.1821076
0.1849069
0.18764026
0.19030321
0.19287347
0.19535304
0.19773596
0.20001778
0.2021952
0.20426604
0.20622923
0.20808463
0.20983302
0.2114759
0.21301549
0.21445493
0.12678921
0.12587053
0.12507954
0.12442192
0.12390313
0.12352849
0.12330306
0.12323162
0.12331651
0.1235634
0.12396941
0.12455004
0.12530407
0.12623038
0.12732962
0.12860152
0.13004478
0.13165701
0.13343467
0.13537299
0.13746594
0.13970614
0.14208478
0.14459174
0.14721685
0.14990724
0.15271062
0.15561019
0.15857301
0.16158358
0.16462627
0.16768542
0.17074557
0.17379163
0.17680913
0.17978436
0.18270439
0.18555609
0.188338
0.19102977
0.19362686
0.19612383
0.19851597
0.20079964
0.20297235
0.20503276
0.20698057
0.20881639
0.21054171
0.21215875
0.21367072
0.12379637
0.12283887
0.12200854
0.12131126
0.1207527
0.1203384
0.12007371
0.11996374
0.12001212
0.12022304
0.12059583
0.1211419
0.12186702
0.12276778
0.12384544
0.12510031
0.12653168
0.12813779
0.12991568
0.13186115
0.13396871
0.1362315
0.13864119
0.14118764
0.14385808
0.14663501
0.14947769
0.15244915
0.15549406
0.15859452
0.16173412
0.16489642
0.1680651
0.17122415
0.17435813
0.17745256
0.18049451
0.18347428
0.18636825
0.1891771
0.19189066
0.19450162
0.19700438
0.19939475
0.20166985
0.20382803
0.20586878
0.20779259
0.20960086
0.21129584
0.21288081
0.12087617
0.11988314
0.11901644
0.11828215
0.11768612
0.11723411
0.11693173
0.11678438
0.11679692
0.11697186
0.11731236
0.11782291
0.1185179
0.11939157
0.12044565
0.12168103
0.12309763
0.1246943
0.12646869
0.12841723
0.130535
0.13281565
0.13525135
0.13783256
0.140548
0.14338672
0.14629391
0.14931813
0.15244088
0.15562708
0.15885978
0.16212182
0.165396
0.16866536
0.17191338
0.17512419
0.17828279
0.18137973
0.18439639
0.18732413
0.19015413
0.19287879
0.19549194
0.19798887
0.20036629
0.20262222
0.20475592
0.20676773
0.20865899
0.21043194
0.21208998
0.11803944
0.11701433
0.11611444
0.11534599
0.11471502
0.11422749
0.11388924
0.11370592
0.11368294
0.11382198
0.1141326
0.11460838
0.11527065
0.11611614
0.11714504
0.11835886
0.11975814
0.12134236
0.12310984
0.12505764
0.12718142
0.12947543
0.13193234
0.13454307
0.13729659
0.14017988
0.14317676
0.14623737
0.14942973
0.1526969
0.15601841
0.15937626
0.16275241
0.16612899
0.1694885
0.17281382
0.17608744
0.17930229
0.18243692
0.18548163
0.18842684
0.19126422
0.19398694
0.19658973
0.19906886
0.201422
0.20364815
0.20574751
0.20772133
0.20957184
0.21130263
0.11529462
0.11424099
0.11331116
0.11251155
0.11184833
0.11132766
0.11095558
0.11073804
0.11068076
0.11078649
0.11106399
0.11150783
0.11213637
0.11295292
0.11395541
0.11514595
0.11652572
0.11809486
0.11985234
0.12179588
0.1239218
0.12622493
0.12869853
0.13133411
0.13412142
0.13704895
0.14010621
0.14323197
0.14647388
0.14981761
0.15322343
0.15667282
0.16014698
0.16362718
0.16709517
0.17053374
0.17392803
0.17725103
0.18049949
0.18365877
0.18671742
0.18966601
0.19249697
0.19520442
0.19778414
0.20023347
0.20255113
0.20473715
0.20679269
0.20871993
0.11264804
0.11156944
0.11061301
0.10978528
0.10909259
0.10854126
0.10813756
0.10788766
0.1077976
0.10787131
0.10811581
0.10852918
0.10912346
0.10991058
0.11088576
0.11205167
0.11341013
0.11496192
0.11670669
0.11864282
0.12076732
0.12307564
0.12556166
0.12821745
0.13103329
0.13399771
0.13709745
0.14031417
0.14359236
0.1470012
0.15048656
0.15402297
0.15759082
0.16117048
0.16474264
0.16828864
0.17179048
0.17522912
0.1785913
0.18186345
0.18503356
0.18809147
0.19102887
0.19383932
0.19651811
0.19906217
0.20146999
0.20374141
0.20587755
0.20788106
0.1101042
0.10900417
0.10802442
0.10717164
0.10645229
0.10587285
0.10543978
0.10515948
0.10503825
0.10508105
0.10529246
0.10567909
0.10623841
0.10699533
0.10794265
0.10908295
0.11041866
0.11195121
0.11368094
0.1156069
0.11772678
0.12003671
0.1225312
0.12520296
0.12804288
0.13104016
0.13418283
0.13745951
0.14080367
0.14425755
0.14781773
0.15143663
0.15509376
0.15876862
0.1624409
0.16609082
0.16969935
0.17324802
0.1767208
0.18010315
0.18338223
0.18654711
0.18958877
0.19250016
0.19527606
0.19791304
0.20040928
0.20276446
0.20497963
0.20705762
0.10766605
0.10654801
0.10554817
0.10467335
0.10393014
0.10332515
0.10286502
0.10255637
0.10240569
0.10241894
0.10259901
0.10295784
0.10348625
0.10421125
0.10513044
0.10624447
0.10755636
0.10906818
0.11078092
0.11269433
0.11480678
0.1171151
0.11961447
0.12229823
0.12515787
0.12818302
0.13136148
0.13467877
0.13811373
0.14160671
0.14522528
0.14892226
0.15266417
0.1564299
0.16019819
0.16394829
0.16766039
0.17131513
0.174895
0.17838439
0.18176953
0.18503865
0.18818202
0.19119192
0.19406266
0.19679038
0.19937299
0.20180996
0.20410226
0.20625287
0.10533519
0.10420243
0.10318562
0.10229169
0.10152734
0.10089935
0.1004145
0.10007961
0.099901425
0.099886579
0.10003762
0.10036763
0.1008673
0.10156047
0.10245159
0.10353902
0.10482637
0.10631631
0.10801049
0.10990935
0.11201195
0.11431583
0.11681684
0.11950899
0.12238439
0.12543317
0.12864362
0.13200253
0.13549715
0.13905807
0.14271729
0.14648718
0.15030914
0.15416125
0.15802129
0.16186746
0.16567944
0.16943638
0.17311966
0.17671265
0.18020064
0.18357099
0.1868132
0.18991892
0.19288192
0.19569793
0.19836457
0.20088111
0.20324835
0.10311213
0.10196777
0.10093693
0.1000267
0.099243863
0.098595327
0.098088057
0.097729053
0.097525299
0.097483729
0.097607736
0.097909404
0.098381955
0.099043598
0.099906964
0.10096774
0.1022301
0.10369736
0.10537178
0.10725446
0.10934518
0.11164216
0.11414196
0.11683925
0.11972676
0.12279513
0.1260329
0.12942639
0.13295921
0.13660828
0.14031925
0.1441372
0.1480344
0.15196834
0.15591578
0.1598536
0.16376162
0.16761672
0.17139955
0.17509251
0.17867992
0.18214824
0.1854862
0.18868477
0.19173721
0.19463883
0.19738696
0.19998075
0.20242147
0.10099644
0.099843395
0.098801318
0.097877422
0.097078612
0.096411913
0.095884445
0.095503388
0.095275932
0.095209241
0.095307651
0.095581903
0.096029634
0.096660288
0.097496062
0.098530325
0.099767569
0.10121164
0.10286541
0.10473066
0.10680782
0.10909583
0.11159193
0.11429149
0.11718784
0.12027218
0.1235334
0.12695796
0.13052951
0.13422835
0.13803351
0.14188115
0.14584446
0.14985557
0.15388615
0.15791117
0.16191115
0.16586013
0.16973851
0.17352768
0.17721092
0.18077378
0.18420417
0.18749244
0.19063129
0.19361564
0.1964425
0.19911087
0.20162226
0.098986943
0.097827891
0.096777163
0.095842087
0.095029667
0.094347058
0.093801525
0.093400414
0.093151097
0.093060915
0.093134947
0.093381553
0.093808975
0.094409969
0.095217072
0.096225304
0.097437544
0.098858204
0.10049077
0.10233764
0.10439991
0.10667723
0.10916752
0.11186683
0.11476915
0.11786622
0.12114743
0.12459968
0.12820737
0.13195308
0.13582153
0.13973583
0.14374211
0.14782597
0.15193566
0.15604577
0.16013123
0.16416961
0.16813957
0.17202111
0.17579646
0.17945025
0.18296963
0.18634428
0.18956635
0.19263037
0.19553303
0.19827314
0.20085233
0.097081838
0.09591923
0.094862219
0.09391825
0.093094435
0.092398033
0.091836461
0.091417223
0.091147872
0.091035953
0.091087427
0.091309264
0.091713293
0.092288663
0.093067508
0.094050274
0.095237829
0.096635102
0.098246155
0.100074
0.10212039
0.10438563
0.10686835
0.10956526
0.112471
0.11557791
0.11887591
0.12235237
0.12599209
0.12977762
0.13368928
0.13769885
0.14174012
0.14588151
0.15006559
0.15425649
0.15842322
0.16254737
0.16660501
0.17057503
0.17443866
0.17817969
0.18178447
0.18524205
0.18854405
0.19168457
0.19466
0.19746885
0.095278845
0.094114889
0.093053741
0.092102972
0.091269792
0.09056158
0.089985873
0.089550344
0.089262724
0.089130772
0.089161332
0.089360057
0.089740962
0.090292604
0.091043977
0.092002048
0.093165421
0.09453954
0.09612902
0.097937463
0.099967256
0.10221935
0.10469305
0.10738574
0.11029271
0.11340692
0.11671881
0.12021626
0.12388447
0.12770632
0.13166291
0.13573582
0.1398454
0.14402488
0.14827783
0.15254188
0.15678906
0.16099521
0.1651365
0.16919099
0.17313902
0.17696349
0.18065002
0.18418701
0.18756556
0.19077936
0.19382457
0.19670016
0.093575306
0.092411962
0.091348605
0.090392924
0.089552233
0.088834025
0.088245973
0.087795881
0.08749167
0.087341297
0.087352421
0.087529516
0.087888283
0.088417927
0.089142634
0.090076862
0.091216692
0.092568065
0.094136118
0.095925019
0.097937757
0.10017592
0.10263946
0.10532643
0.10823276
0.11135202
0.11467524
0.11819073
0.12188413
0.12573842
0.12973418
0.13384888
0.13805008
0.14227325
0.14657364
0.15090844
0.1552305
0.15951426
0.16373504
0.16786997
0.17189844
0.17580252
0.1795671
0.18317992
0.18663157
0.18991537
0.19302719
0.19596616
0.091968267
0.09080726
0.089743398
0.088784498
0.087937969
0.087211423
0.08661266
0.086149635
0.085830413
0.08566316
0.085656086
0.085813097
0.086150493
0.086660624
0.087359413
0.088270514
0.089387537
0.090716715
0.092263664
0.094033084
0.096028541
0.098252234
0.10070474
0.10338478
0.1062889
0.10941129
0.11274353
0.11627445
0.11999004
0.12387349
0.12790533
0.13206316
0.13631958
0.14062807
0.14495626
0.14935576
0.15374788
0.15810491
0.16240103
0.16661234
0.17071731
0.17469717
0.17853606
0.1822211
0.1857424
0.18909287
0.19226811
0.19526722
0.090454563
0.089297381
0.08823451
0.087273884
0.086423016
0.08568963
0.085081656
0.084607188
0.084274451
0.084091765
0.084067543
0.084205937
0.084521552
0.08501719
0.085690362
0.086578377
0.087673489
0.08898115
0.090507463
0.092257638
0.094235788
0.096444696
0.098885553
0.10155769
0.10445831
0.10758218
0.11092145
0.11446544
0.11820051
0.12211009
0.12617467
0.13037174
0.13467496
0.13905527
0.14344352
0.14788275
0.15234091
0.15676698
0.16113433
0.16541802
0.16959557
0.17364738
0.17755686
0.18131053
0.184898
0.18831181
0.19154729
0.19460343
0.089030873
0.087878784
0.086818196
0.085857154
0.085003271
0.084264389
0.083648562
0.083164023
0.08281914
0.082622389
0.082582296
0.082703616
0.083000077
0.083478561
0.084130626
0.084995796
0.086069861
0.087356764
0.088863031
0.090594342
0.09255533
0.094749331
0.097178126
0.099841649
0.1027377
0.10586166
0.10920623
0.1127612
0.11651334
0.12044631
0.12454063
0.1287737
0.13311934
0.13754825
0.14202911
0.14649344
0.15100893
0.15549982
0.15993437
0.1642865
0.16853276
0.17265273
0.17662911
0.18044783
0.18409803
0.18757188
0.19086443
0.19397457
0.087693784
0.086547844
0.085490639
0.08453031
0.083674574
0.082931388
0.082308933
0.081815572
0.081459814
0.081250279
0.081195638
0.081301308
0.081580216
0.082041417
0.082674482
0.0835178
0.084571788
0.08583878
0.087325688
0.089038639
0.090982752
0.093161894
0.095578402
0.098232794
0.10112346
0.10424635
0.10759472
0.11115885
0.11492589
0.11887977
0.12300117
0.12726749
0.13165297
0.13612978
0.14067333
0.14519831
0.14975009
0.1543023
0.1588002
0.16321691
0.16752809
0.17171248
0.17575212
0.17963237
0.18334189
0.18687251
0.19021902
0.19338018
0.086439834
0.085300891
0.084247996
0.083289342
0.082432756
0.081686316
0.081058326
0.080557278
0.080191817
0.079970706
0.079902785
0.079994089
0.080256735
0.080701316
0.081316829
0.082139376
0.083174337
0.084422328
0.085890644
0.087585835
0.089513482
0.091677951
0.094082112
0.096727038
0.099611685
0.10273257
0.10608347
0.10965515
0.11343517
0.11740774
0.1215537
0.12585058
0.13027271
0.13479198
0.13937865
0.14399267
0.14856859
0.15317326
0.15773055
0.16220809
0.16658045
0.17082561
0.17492494
0.17886326
0.18262877
0.18621295
0.18961036
0.19281963
0.085265575
0.084134266
0.08308644
0.082130261
0.08127368
0.080524899
0.079892344
0.079384632
0.079010539
0.078778972
0.078698933
0.078777054
0.079024615
0.079453533
0.080052755
0.080855581
0.081872583
0.083102522
0.08455307
0.086231177
0.088142862
0.090292962
0.092684852
0.095320136
0.09819831
0.10131643
0.1046688
0.10824664
0.11203792
0.11602716
0.12019538
0.12452022
0.12897609
0.13353477
0.13816642
0.14284193
0.1474733
0.1521102
0.15672383
0.1612586
0.16568854
0.1699909
0.17414643
0.17813942
0.18195766
0.18559228
0.18903761
0.19229214
0.084167638
0.083044363
0.082002188
0.08104913
0.080193271
0.079442935
0.07880667
0.07829321
0.077911459
0.077670461
0.077579376
0.077645398
0.077878975
0.07829328
0.078877452
0.079661573
0.080661667
0.081874513
0.08330815
0.084969906
0.086866208
0.08900234
0.091382152
0.094007749
0.096879147
0.099993922
0.10334687
0.10692968
0.11073071
0.11473478
0.11892314
0.12327351
0.12776034
0.13235527
0.13702772
0.14174445
0.14646077
0.15111527
0.15577854
0.16036684
0.16485082
0.16920691
0.17341526
0.17745963
0.18132742
0.18500944
0.18849978
0.19179683
0.083142695
0.082027673
0.080991523
0.080042086
0.079187539
0.07843632
0.077797088
0.077278696
0.076890168
0.076640677
0.076539526
0.07659442
0.07681505
0.077215786
0.077786239
0.078552655
0.079536821
0.080733528
0.08215113
0.083797305
0.085678863
0.087801503
0.090169525
0.092785506
0.095649955
0.098760942
0.10211374
0.1057005
0.10950995
0.11352723
0.11773378
0.12210743
0.12662262
0.13125086
0.13596131
0.14072109
0.14549719
0.15019629
0.15489178
0.15953092
0.16406562
0.16847209
0.17272995
0.17682252
0.18073679
0.18446327
0.1879958
0.1913327
0.085883998
0.084595738
0.083361292
0.082186674
0.081080553
0.080050772
0.079105353
0.078252599
0.077501061
0.076859509
0.076336907
0.075942394
0.075685262
0.075574943
0.0756196
0.075828209
0.076216291
0.076774616
0.077524344
0.078493384
0.079674894
0.081077348
0.082708739
0.084576233
0.086685918
0.089042513
0.091649044
0.094506483
0.097613372
0.10096545
0.10455528
0.10837199
0.112401
0.11662398
0.12101884
0.12556001
0.13021884
0.13496428
0.13976381
0.14458786
0.14934586
0.15406416
0.15874912
0.16333113
0.16778474
0.17208896
0.17622664
0.18018441
0.1839525
0.18752453
0.19089872
0.084952871
0.083681013
0.082459827
0.08129673
0.080199591
0.079176376
0.078235264
0.077384683
0.076633296
0.07598998
0.075463805
0.075064017
0.074800021
0.074681357
0.074716589
0.074913953
0.075289924
0.075838367
0.076572477
0.077526768
0.078694069
0.080082263
0.08169968
0.08355382
0.085651131
0.087996726
0.090594049
0.093444511
0.0965471
0.099897991
0.10349017
0.10731312
0.11135256
0.11559036
0.12000454
0.1245695
0.12925643
0.13403396
0.13886885
0.14372656
0.14856022
0.15330074
0.1580189
0.16264543
0.16714311
0.17149062
0.17567043
0.17966886
0.18347583
0.18708474
0.19049378
0.084084943
0.082829235
0.081621494
0.080469663
0.079381448
0.078364884
0.077428272
0.076580154
0.075829302
0.075184694
0.074655504
0.074251079
0.073980926
0.073854682
0.073881259
0.074068078
0.074431378
0.074973749
0.075692955
0.076632757
0.077786677
0.079161476
0.080765733
0.082607245
0.084692795
0.087027862
0.089616283
0.092459879
0.09555806
0.098907417
0.10250133
0.10632964
0.11037835
0.11462952
0.11906129
0.12364803
0.12836079
0.13316792
0.13803583
0.14292999
0.1478161
0.15259781
0.15733845
0.16200666
0.16654539
0.17093323
0.17515232
0.17918866
0.18303191
0.18667515
0.19011672
0.083277488
0.082037561
0.080843094
0.079702287
0.07862287
0.077612957
0.076680953
0.075835509
0.075085498
0.074439998
0.073908281
0.073499789
0.073224125
0.073091018
0.073109715
0.073287008
0.073639892
0.074173604
0.07488076
0.075807062
0.076948478
0.07831074
0.079902647
0.081732267
0.083806692
0.086131739
0.088711612
0.091548517
0.094642261
0.097989828
0.10158497
0.10541787
0.10947481
0.11373805
0.11818583
0.12279251
0.12752902
0.13236345
0.13726193
0.14219002
0.14711664
0.15195072
0.15670808
0.16141298
0.16598972
0.17041506
0.17467066
0.1787423
0.18261939
0.18629453
0.18976638
0.082527685
0.081303088
0.080121572
0.078991508
0.077920706
0.076917372
0.075990014
0.075147384
0.074398453
0.073752396
0.073218574
0.072806523
0.072525937
0.072386635
0.072398189
0.072566903
0.072910527
0.073435178
0.074131747
0.075045589
0.076175394
0.077525971
0.079106332
0.080924797
0.082988743
0.085304304
0.08787602
0.090706461
0.093795804
0.097141403
0.10073737
0.1045742
0.10863844
0.11291257
0.11737491
0.12199983
0.12675813
0.13161769
0.13654425
0.14150249
0.14645628
0.15135547
0.15613306
0.16086186
0.16547422
0.16993434
0.1742238
0.17832824
0.18223704
0.18594192
0.18944194
0.081832771
0.080622975
0.079453996
0.078334339
0.077271914
0.076275029
0.075352292
0.074512556
0.073764885
0.073118545
0.072582986
0.072167829
0.071882857
0.071737974
0.071743058
0.071904032
0.072239191
0.072755122
0.073442112
0.074344463
0.075463532
0.076803259
0.078372864
0.080180906
0.082235025
0.084541646
0.087105626
0.08992987
0.093014901
0.096358421
0.099954878
0.10379507
0.1078658
0.11214974
0.11662531
0.1212669
0.1260452
0.13092785
0.13588025
0.14086652
0.14585019
0.15079437
0.15560657
0.16035187
0.16499707
0.16948933
0.17381006
0.17794495
0.081190053
0.079994463
0.078837543
0.077727905
0.076673568
0.075682949
0.074764758
0.073927943
0.073181661
0.072535262
0.07199828
0.07158042
0.071291545
0.071141647
0.071140856
0.071294847
0.071622247
0.072130015
0.072808257
0.073700009
0.074809182
0.076138868
0.077698492
0.079496831
0.081541772
0.083840008
0.08639669
0.089215035
0.092295887
0.095637275
0.099233959
0.10307702
0.10715353
0.1114463
0.11593389
0.12059069
0.12538729
0.13029115
0.13526733
0.14027954
0.1452913
0.15026946
0.15512569
0.15988227
0.16455648
0.16907827
0.17342785
0.080596911
0.079414881
0.078269495
0.077169441
0.076122859
0.075138278
0.074224514
0.073390605
0.072645794
0.071999515
0.071461379
0.071041171
0.070748833
0.070594449
0.07058827
0.070736015
0.071056303
0.071556522
0.072226759
0.073108744
0.07420882
0.075529246
0.077079638
0.078868978
0.080905381
0.083195789
0.085745624
0.088558388
0.091635229
0.094974477
0.098571185
0.1024167
0.10649833
0.11079907
0.11529757
0.11996822
0.12478157
0.12970485
0.13470287
0.13973892
0.14477584
0.14977628
0.15468928
0.15945446
0.16415031
0.16869943
0.17307583
0.080050803
0.078881651
0.077747236
0.076656292
0.075617093
0.074638288
0.073728792
0.072897736
0.072154443
0.071508422
0.070969362
0.070547118
0.07025171
0.070093303
0.070082226
0.07022437
0.070538158
0.071031454
0.071694367
0.072567364
0.0736591
0.074971013
0.076512896
0.078293923
0.080322415
0.082605547
0.085148989
0.08795651
0.091029533
0.094366671
0.097963249
0.10181087
0.10589705
0.11020496
0.11471334
0.11939661
0.12422524
0.1291663
0.13418434
0.13924231
0.14430266
0.14932788
0.15427956
0.15906593
0.16377658
0.16835112
0.17275225
0.079549289
0.078392292
0.077268254
0.076185909
0.075153689
0.074180367
0.073274955
0.072446667
0.071704905
0.071059249
0.070519456
0.070095452
0.069797325
0.069635315
0.069619811
0.069756915
0.070064789
0.070551756
0.071207995
0.072072741
0.073156853
0.074460965
0.075995034
0.077768408
0.079789602
0.082066001
0.084603504
0.087406126
0.090475546
0.093810634
0.097406972
0.1012564
0.10534663
0.10966099
0.11417831
0.11887305
0.1237156
0.12867289
0.13370925
0.13878734
0.14386937
0.14891824
0.15389986
0.15871303
0.16343404
0.16803194
0.17245567
0.079090042
0.077944437
0.076830139
0.075755849
0.074730181
0.073762026
0.072860489
0.072034861
0.071294615
0.070649401
0.070109038
0.069683515
0.069382984
0.069217751
0.069198262
0.069330829
0.069633341
0.070114546
0.070764722
0.071621914
0.072699079
0.073996067
0.075522985
0.077289343
0.079303831
0.081574027
0.084106042
0.086904113
0.089970157
0.093303282
0.096899302
0.10075028
0.10484411
0.10916427
0.11368968
0.11839482
0.12325003
0.12822211
0.13327518
0.13837165
0.14347351
0.14854371
0.15354905
0.15839442
0.16312162
0.16774043
0.17218472
0.07867088
0.077535841
0.076430579
0.075363773
0.07434421
0.07338089
0.072483001
0.071659905
0.070921142
0.070276421
0.069735622
0.069308792
0.06900614
0.068838032
0.068814968
0.068943454
0.069241122
0.069717103
0.070361788
0.071212087
0.072282941
0.073573446
0.075093846
0.076853796
0.07886215
0.081126659
0.083653627
0.086447497
0.089510401
0.092841666
0.096437322
0.10028963
0.10438666
0.10871203
0.11324475
0.11795931
0.122826
0.12781152
0.13287979
0.13799299
0.14311281
0.14820168
0.15322237
0.15811086
0.16283896
0.16747507
0.17193797
0.078289742
0.077164368
0.076067353
0.075007437
0.073993522
0.073034697
0.072140218
0.071319513
0.070582179
0.069937983
0.069396859
0.068968906
0.068664387
0.068493721
0.068467459
0.068592286
0.068885591
0.069356857
0.069996584
0.070840616
0.071905759
0.073190388
0.074704871
0.076458996
0.078461761
0.080721081
0.083243433
0.086033448
0.089093453
0.092422976
0.096018245
0.099871702
0.10397159
0.10830163
0.11284093
0.117564
0.12244109
0.12743878
0.13252084
0.13764921
0.14278526
0.1478909
0.15292765
0.15784893
0.1625863
0.16723396
0.17171403
0.08366457
0.082526958
0.081378163
0.080226128
0.079079358
0.0779445
0.076827839
0.075738306
0.074684692
0.073675971
0.072721295
0.071829982
0.071011515
0.070275544
0.069631888
0.069090529
0.068661616
0.068355458
0.068182523
0.06815341
0.068274965
0.068564356
0.069031383
0.069666655
0.07050501
0.071565006
0.072844331
0.074353465
0.076102317
0.078100019
0.080354628
0.082872782
0.08565928
0.088716629
0.092044539
0.095639417
0.099493873
0.10359629
0.10793053
0.11247575
0.11720648
0.12209295
0.12710165
0.13219617
0.13733825
0.14248898
0.1476099
0.15266278
0.15760914
0.16235961
0.16701585
0.17151157
0.08329359
0.082171455
0.081036167
0.079896093
0.078759312
0.077632975
0.076524131
0.075441364
0.074393482
0.073389506
0.072438638
0.071550244
0.070733856
0.069999172
0.069356056
0.068814536
0.068384803
0.068077212
0.067902272
0.067870628
0.067989267
0.068275164
0.068738397
0.06936968
0.070202918
0.071258295
0.072532856
0.074037179
0.075781284
0.07777442
0.080024777
0.082539135
0.085322447
0.088377381
0.091703812
0.09529831
0.099153639
0.10325832
0.10759631
0.11214683
0.11688445
0.12177936
0.12679796
0.13190371
0.13705815
0.14222214
0.14735702
0.15242513
0.15739159
0.16215649
0.16681936
0.17132932
0.082959408
0.081851252
0.080728279