/*--------------------------------*- C++ -*----------------------------------*\
| =========                 |                                                 |
| \\      /  F ield         | OpenFOAM: The Open Source CFD Toolbox           |
|  \\    /   O peration     | Version:  2312                                  |
|   \\  /    A nd           | Website:  www.openfoam.com                      |
|    \\/     M anipulation  |                                                 |
\*---------------------------------------------------------------------------*/
FoamFile
{
    version     2.0;
    format      ascii;
    arch        "LSB;label=32;scalar=64";
    class       volScalarField;
    location    "0.02";
    object      omega;
}
// * * * * * * * * * * * * * * * * * * * * * * * * * * * * * * * * * * * * * //

dimensions      [0 0 -1 0 0 0 0];

internalField   nonuniform List<scalar> 
3272
(
384.64496
383.65244
382.54959
381.33706
380.01487
378.58949
377.06134
375.4325
373.70562
371.88408
369.97156
367.97206
365.8899
363.72969
361.49636
359.19519
356.83175
354.41191
351.94186
349.42804
346.87715
344.29611
341.69198
339.07203
336.44359
333.81406
331.19083
328.58122
325.99246
323.43158
320.9054
318.42045
315.9829
313.59856
311.27277
309.01043
306.81592
304.69309
302.64524
300.67515
298.78501
296.9765
295.25075
293.60842
292.04966
290.5742
289.18138
287.87015
286.63919
285.48689
284.41141
283.41079
282.48291
386.25474
385.24955
384.13238
382.90418
381.56648
380.12282
378.57524
376.92609
375.1779
373.33401
371.39811
369.37422
367.2667
365.08018
362.81965
360.4904
358.09804
355.6485
353.14801
350.60305
348.02038
345.40699
342.77
340.11675
337.45466
334.7912
332.13386
329.49006
326.86711
324.27216
321.71213
319.19363
316.72297
314.30602
311.94826
309.65464
307.42965
305.27721
303.2007
301.20295
299.28621
297.4522
295.7021
294.03658
292.45582
290.95954
289.54708
288.21739
286.9691
285.80059
284.70998
283.69523
282.75431
389.17499
388.14368
386.99788
385.73892
384.36873
382.88992
381.30494
379.61653
377.82728
375.94059
373.96018
371.89011
369.73476
367.49883
365.18735
362.80569
360.35952
357.85484
355.29795
352.69542
350.0541
347.38109
344.68364
341.96919
339.24531
336.51962
333.79977
331.09333
328.40782
325.75053
323.12858
320.54878
318.0176
315.54111
313.12494
310.77423
308.4936
306.28715
304.15836
302.11018
300.14497
298.26453
296.4701
294.76241
293.14166
291.6076
290.15954
288.79643
287.51687
286.31919
285.20148
284.16162
283.19753
393.16659
392.0962
390.90827
389.6044
388.1867
386.65761
385.01975
383.27613
381.42938
379.48304
377.44091
375.30709
373.086
370.78241
368.40141
365.94842
363.42919
360.8498
358.21663
355.53635
352.81593
350.06257
347.28367
344.48684
341.67981
338.87038
336.06638
333.27564
330.50585
327.76457
325.05915
322.39664
319.78375
317.22679
314.73163
312.30364
309.94765
307.66795
305.46821
303.35153
301.32042
299.3768
297.522
295.75682
294.08154
292.4959
290.99924
289.59046
288.26819
287.03069
285.87594
284.80175
283.80596
398.01693
396.8945
395.65124
394.28895
392.80992
391.2167
389.5121
387.69926
385.78088
383.76065
381.64243
379.43038
377.12899
374.74306
372.27773
369.7385
367.13117
364.46188
361.7371
358.9636
356.14843
353.29891
350.42266
347.52738
344.62099
341.7115
338.80698
335.91546
333.0449
330.20314
327.39777
324.63615
321.92527
319.27174
316.68169
314.16076
311.71406
309.3461
307.06079
304.86142
302.75067
300.73061
298.80271
296.96788
295.22646
293.57824
292.02253
290.55834
289.18419
287.89824
286.69842
285.58246
284.54808
403.54489
402.35759
401.04619
399.61273
398.05965
396.38974
394.60613
392.71153
390.70947
388.60336
386.39717
384.09512
381.70171
379.22182
376.66061
374.02361
371.31667
368.54599
365.7181
362.83984
359.91836
356.9611
353.97578
350.97028
347.9527
344.93124
341.91419
338.90983
335.9264
332.972
330.05453
327.18166
324.36068
321.59851
318.90162
316.27596
313.72691
311.25926
308.8772
306.58423
304.38325
302.27649
300.2656
298.35162
296.53498
294.8155
293.19266
291.66533
290.23198
288.89074
287.63946
286.47578
285.39731
409.59715
408.33241
406.94062
405.42405
403.78532
402.0274
400.15341
398.16658
396.07052
393.86849
391.56454
389.16293
386.66823
384.0853
381.41934
378.67588
375.8608
372.98031
370.04098
367.04971
364.01371
360.94052
357.83795
354.71403
351.57701
348.4353
345.29738
342.17179
339.06701
335.99145
332.95332
329.96057
327.02086
324.14143
321.32909
318.5901
315.9302
313.35447
310.86738
308.47271
306.17356
303.97239
301.87099
299.87063
297.97181
296.17462
294.47834
292.88184
291.3836
289.98172
288.67399
287.45793
286.33107
416.04444
414.69014
413.20633
411.59554
409.86055
408.00443
406.03045
403.94217
401.74325
399.43688
397.02715
394.51837
391.91509
389.22219
386.44484
383.58856
380.6592
377.66298
374.60647
371.49659
368.34059
365.14606
361.92089
358.67324
355.41148
352.14419
348.88005
345.62781
342.39623
339.19397
336.02955
332.91125
329.84706
326.84456
323.91091
321.05273
318.27608
315.58638
312.98843
310.48628
308.08331
305.78217
303.58485
301.49283
299.50692
297.62702
295.8525
294.18229
292.61487
291.14832
289.78035
288.50839
287.32983
422.77827
421.32291
419.73623
418.02099
416.18013
414.21673
412.13417
409.93653
407.62706
405.20952
402.68759
400.06563
397.3482
394.54014
391.64658
388.67298
385.62517
382.50931
379.33195
376.09999
372.82069
369.50166
366.15082
362.77644
359.387
355.99118
352.59786
349.21599
345.85455
342.52248
339.22857
335.98143
332.78938
329.66034
326.60182
323.62079
320.72368
317.91624
315.2036
312.59015
310.07958
307.67479
305.37786
303.19124
301.1145
299.14812
297.29181
295.54458
293.90489
292.37076
290.93981
289.6094
288.37693
429.70768
428.14052
426.44094
424.61193
422.65657
420.57792
418.37933
416.06526
413.63904
411.1047
408.46546
405.72566
402.88989
399.96291
396.9498
393.85593
390.68705
387.44926
384.14902
380.7932
377.38902
373.94408
370.46633
366.96407
363.44584
359.92045
356.39691
352.88434
349.39194
345.92888
342.50424
339.12692
335.80554
332.54839
329.36332
326.25766
323.23818
320.311
317.48156
314.75457
312.13403
309.62309
307.2256
304.94076
302.7708
300.71596
298.77587
296.94959
295.2356
293.63193
292.13619
436.75658
435.06772
433.24603
431.29468
429.21695
427.01612
424.69576
422.26002
419.711
417.05529
414.29471
411.43357
408.47641
405.42796
402.29316
399.07728
395.78597
392.4252
389.00136
385.52123
381.99195
378.42109
374.81657
371.18669
367.54005
363.88552
360.23222
356.58942
352.96649
349.37282
345.81775
342.31044
338.85985
335.47456
332.16278
328.93221
325.78995
322.7425
319.7956
316.95426
314.22289
311.60586
309.10428
306.72096
304.45689
302.31245
300.28741
298.38088
296.59142
294.91706
293.35555
443.86144
442.0419
440.08991
438.00879
435.80194
433.47278
431.02492
428.46216
425.7881
423.00658
420.1214
417.13634
414.05575
410.88422
407.62657
404.28794
400.8738
397.39004
393.84289
390.23901
386.58546
382.88972
379.15966
375.40353
371.62997
367.84789
364.06646
360.29507
356.54325
352.82057
349.13659
345.50075
341.92226
338.41005
334.97264
331.61808
328.35384
325.18676
322.12301
319.16794
316.3264
313.60184
310.99728
308.51504
306.15643
303.922
301.81158
299.82438
297.95898
296.21343
294.58546
450.96922
449.01101
446.9215
444.70414
442.36243
439.89982
437.3199
434.6264
431.82317
428.9136
425.9017
422.79098
419.58572
416.29031
412.90944
409.44808
405.91154
402.30553
398.63614
394.90989
391.13369
387.31493
383.46138
379.58124
375.6831
371.77591
367.86887
363.97145
360.09329
356.24413
352.43373
348.67174
344.96766
341.33071
337.76972
334.29308
330.9086
327.62344
324.4441
321.37651
318.42553
315.59501
312.88828
310.30783
307.85522
305.53118
303.33569
301.26804
299.32686
297.51022
295.81583
458.03575
455.93187
453.69858
451.33945
448.85802
446.25775
443.54216
440.71493
437.77976
434.74024
431.60016
428.36284
425.03233
421.61294
418.10914
414.52571
410.86781
407.14092
403.35098
399.50431
395.60771
391.66839
387.69403
383.69273
379.67297
375.64376
371.6143
367.59408
363.59283
359.62044
355.68681
351.80182
347.97521
344.21645
340.53469
336.93864
333.43646
330.03568
326.74302
323.56475
320.50608
317.57127
314.76387
312.08656
309.54114
307.12853
304.84889
302.70158
300.68532
298.79819
297.03792
465.02427
462.76874
460.3864
457.88088
455.25574
452.51444
449.66041
446.69723
443.62846
440.45777
437.18847
433.82418
430.3685
426.82557
423.19967
419.49538
415.71763
411.87173
407.96338
403.99874
399.9844
395.92744
391.83537
387.7162
383.57833
379.43065
375.28242
371.14313
367.02256
362.93069
358.87757
354.87328
350.92774
347.0507
343.25157
339.53935
335.92248
332.40883
329.00576
325.71953
322.55565
319.51879
316.61276
313.84048
311.20398
308.70439
306.342
304.11631
302.02612
300.06955
298.24432
471.90432
469.4922
466.95652
464.30092
461.52897
458.6441
455.64963
452.54896
449.3455
446.04293
442.64429
439.15318
435.57289
431.90735
428.16063
424.3371
420.44144
416.47875
412.45451
408.37467
404.24562
400.07425
395.86792
391.63451
387.38232
383.12002
378.85702
374.60273
370.36695
366.15975
361.99128
357.87177
353.81134
349.81996
345.90731
342.08267
338.3548
334.73183
331.2214
327.83017
324.56397
321.42774
318.42558
315.56067
312.83525
310.25066
307.80735
305.50495
303.34235
301.31772
299.4288
478.65074
476.0781
473.38574
470.5773
467.6563
464.62611
461.48992
458.25089
454.91225
451.47769
447.95007
444.33281
440.62894
436.84215
432.97628
429.03546
425.02415
420.9472
416.80986
412.61785
408.37735
404.09505
399.77813
395.43429
391.07172
386.69905
382.32545
377.96044
373.61381
369.29566
365.01623
360.78586
356.61486
352.51339
348.49134
344.5583
340.72337
336.99483
333.38066
329.88786
326.52256
323.29002
320.19461
317.23975
314.42792
311.76066
309.23859
306.86148
304.62829
302.53728
300.5862
485.24285
482.50676
479.65532
476.69212
473.62061
470.44407
467.16555
463.78798
460.31438
456.7482
453.09248
449.35007
445.52411
441.61779
437.63476
433.57892
429.45447
425.26602
421.01858
416.71762
412.3691
407.97949
403.55578
399.10549
394.63668
390.15785
385.67801
381.20672
376.75375
372.32918
367.94334
363.60667
359.32961
355.12249
350.99542
346.95813
343.02
339.19006
335.47613
331.8855
328.42463
325.09911
321.9136
318.87176
315.97631
313.22898
310.63057
308.18098
305.87928
303.7238
301.71232
491.66383
488.76231
485.75027
482.6312
479.40846
476.0852
472.66433
469.14861
465.54089
461.84423
458.06159
454.19554
450.24925
446.22541
442.12747
437.95909
433.72423
429.42722
425.07283
420.66628
416.21329
411.7201
407.19349
402.64081
398.06993
393.48923
388.90763
384.33456
379.77978
375.25341
370.76578
366.32743
361.94893
357.64077
353.41324
349.27631
345.23955
341.31209
337.50225
333.81757
330.26483
326.84987
323.57761
320.45197
317.47589
314.65129
311.97916
309.45954
307.0916
304.87373
497.90015
494.83212
491.6588
488.38356
485.00962
481.53996
477.97735
474.3244
470.58374
466.75811
462.85028
458.8623
454.79783
450.65881
446.44847
442.17026
437.82789
433.42542
428.96735
424.45866
419.90481
415.31182
410.68626
406.03525
401.36651
396.68827
392.00933
387.33899
382.687
378.06344
373.47868
368.94331
364.46799
360.06337
355.73993
351.50782
347.37679
343.35615
339.45455
335.67985
332.03907
328.53835
325.18284
321.97672
318.92314
316.02424
313.28116
310.6941
308.26235
305.98448
503.94109
500.70634
497.37186
493.94087
490.41644
486.80137
483.09824
479.30947
475.43744
471.48467
467.45409
463.34567
459.16556
454.91403
450.59405
446.2089
441.76207
437.25735
432.69897
428.09164
423.4406
418.75162
414.03103
409.28578
404.52336
399.75188
394.97998
390.21686
385.47221
380.75607
376.07881
371.45105
366.88354
362.38704
357.97221
353.64937
349.42846
345.319
341.32989
337.46925
333.74438
330.16165
326.7265
323.44331
320.31548
317.34533
314.53419
311.88239
309.38934
307.05371
509.77841
506.37751
502.88271
499.29708
495.62348
491.86453
488.02263
484.09997
480.09857
476.02052
471.86879
467.64447
463.35056
458.98908
454.56235
450.07333
445.52521
440.92153
436.26626
431.56386
426.8193
422.03813
417.22644
412.39096
407.53902
402.67853
397.81802
392.96654
388.1337
383.3295
378.56431
373.84876
369.19364
364.60982
360.10809
355.69899
351.39257
347.19862
343.12623
339.18375
335.37873
331.7178
328.20663
324.84986
321.65107
318.61281
315.73654
313.02277
310.471
308.08
515.40594
511.84021
508.18663
504.44806
500.62717
496.72639
492.7479
488.69367
484.56539
480.36474
476.09458
471.75637
467.35196
462.88353
458.3531
453.76336
449.11722
444.41794
439.66925
434.87535
430.04095
425.17136
420.27245
415.35074
410.41335
405.46802
400.52313
395.58762
390.67099
385.78317
380.93452
376.13568
371.39747
366.73082
362.14664
357.65567
353.26809
348.99392
344.84243
340.82218
336.94094
333.20561
329.62207
326.1952
322.92879
319.82556
316.88716
314.11422
311.50637
520.8194
517.09083
513.28061
509.39138
505.4256
501.38546
497.27291
493.08971
488.83733
484.51729
480.13176
475.68234
471.17047
466.5982
461.96726
457.28006
452.53922
447.74777
442.90915
438.02731
433.10673
428.15247
423.17017
418.16614
413.14729
408.1212
403.09609
398.08076
393.08461
388.11751
383.18975
378.31202
373.49514
368.75006
364.08778
359.51924
355.05479
350.70463
346.47813
342.38409
338.43053
334.62455
330.97228
327.47879
324.14808
320.98304
317.9855
315.15621
312.49498
526.0161
522.1273
518.16315
514.12605
510.01824
505.84166
501.59802
497.28882
492.9154
488.4791
483.98147
479.42399
474.80785
470.13495
465.4068
460.62548
455.79335
450.91316
445.98811
441.0219
436.01877
430.98353
425.92161
420.83908
415.74269
410.63981
405.53851
400.44747
395.37595
390.33376
385.33112
380.37875
375.4875
370.66832
365.93219
361.29012
356.75315
352.33108
348.03358
343.86968
339.84762
335.97472
332.25729
328.70062
325.30889
322.08518
319.03147
316.14865
313.43663
530.99477
526.9489
522.83401
518.6523
514.40573
510.09601
505.72458
501.29272
496.80157
492.25224
487.64587
482.98373
478.26674
473.49652
468.67458
463.80254
458.88254
453.91707
448.90909
443.86205
438.77995
433.66737
428.52952
423.37225
418.20211
413.0263
407.85273
402.68993
397.54707
392.43384
387.36045
382.33755
377.37605
372.48694
367.68124
362.96979
358.36425
353.87419
349.50957
345.27966
341.19285
337.25666
333.47759
329.86112
326.41162
323.13232
320.02538
317.0918
314.33159
535.75537
531.55606
527.2941
522.9714
518.58971
514.15047
509.65487
505.10394
500.49859
495.83967
491.12799
486.36474
481.55042
476.68639
471.7741
466.81478
461.81035
456.76307
451.67565
446.55129
441.39376
436.20741
430.99723
425.76888
420.52869
415.28371
410.04165
404.81094
399.60061
394.42027
389.28007
384.19061
379.1628
374.20772
369.3365
364.56028
359.88954
355.33527
350.90738
346.61519
342.46729
338.47135
334.63407
330.9611
327.45699
324.12515
320.96785
317.98626
540.29893
535.95026
531.54523
527.08555
522.57267
518.0078
513.39189
508.72571
504.00993
499.24506
494.43156
489.57082
484.66279
479.7085
474.70937
469.66626
464.58087
459.45524
454.29183
449.09362
443.86414
438.60753
433.32856
428.03267
422.72603
417.4155
412.10863
406.81371
401.53965
396.29597
391.09276
385.94056
380.85028
375.833
370.89993
366.0622
361.33066
356.71608
352.22863
347.8778
343.67234
339.62009
335.72793
332.00168
328.44606
325.06462
321.85978
318.83281
544.62744
540.13382
535.59009
530.99769
526.35783
521.67146
516.93928
512.16184
507.33957
502.47265
497.56084
492.60631
487.60826
482.56723
477.48481
472.36145
467.19857
461.99802
456.76206
451.49342
446.19541
440.87196
435.52764
430.16768
424.79807
419.42549
414.05736
408.70179
403.3676
398.06422
392.80165
387.59039
382.44131
377.36554
372.37428
367.47876
362.68998
358.01872
353.47527
349.0693
344.80969
340.70446
336.76065
332.98424
329.3801
325.95193
322.70229
319.63254
548.7437
544.10985
539.43204
534.71144
529.94901
525.14544
520.3012
515.4166
510.49189
505.52703
500.52052
495.47596
490.39166
485.26732
480.10519
474.90511
469.66822
464.39618
459.09104
453.75534
448.39216
443.00522
437.59888
432.17822
426.74901
421.31777
415.89177
410.479
405.08814
399.72854
394.41011
389.14331
383.93898
378.80824
373.76234
368.81254
363.96999
359.24551
354.64949
350.19173
345.88126
341.72626
337.73391
333.91035
330.26059
326.78848
323.49668
320.38668
552.6512
547.8821
543.07505
538.23096
533.35055
528.43424
523.48226
518.49467
513.47142
508.41223
503.31621
498.18507
493.01815
487.81388
482.57555
477.30227
471.9948
466.65466
461.28369
455.88422
450.45915
445.01198
439.5469
434.06877
428.58322
423.0966
417.61602
412.14934
406.70513
401.29264
395.92171
390.60274
385.34654
380.16421
375.06702
370.06634
365.17335
360.39896
355.75365
351.24733
346.88916
342.68747
338.64957
334.78176
331.08918
327.5758
324.24441
321.0966
556.35406
551.45488
546.52361
541.5609
536.56722
531.54274
526.48746
521.40115
516.28353
511.13412
505.95227
500.73844
495.49227
490.21272
484.9014
479.55819
474.1835
468.77857
463.34504
457.88505
452.40129
446.89707
441.37639
435.84396
430.30521
424.76635
419.23435
413.71693
408.22255
402.76036
397.34014
391.97221
386.66737
381.4367
376.29145
371.24308
366.30286
361.48172
356.79025
352.23845
347.83561
343.59017
339.50961
335.60033
331.8676
328.31554
324.94703
321.76375
559.85691
554.83296
549.78262
544.70627
539.60412
534.47613
529.32202
524.14135
518.93358
513.69806
508.43414
503.14158
497.81998
492.46853
487.08788
481.67815
476.23955
470.7731
465.28023
459.76288
454.22354
448.66536
443.09216
437.50846
431.91955
426.33149
420.75109
415.18597
409.64446
404.13562
398.66917
393.25536
387.90495
382.62901
377.43882
372.34583
367.36139
362.49654
357.76189
353.16755
348.72292
344.43657
340.31609
336.36801
332.59772
329.00943
325.60617
322.38967
563.1648
558.02152
552.85733
547.67238
542.46664
537.23982
531.99142
526.72075
521.42707
516.10954
510.76741
505.39998
500.0067
494.58678
489.14033
483.66749
478.16827
472.6435
467.09442
461.52278
455.93091
450.32176
444.699
439.06698
433.43083
427.79647
422.17059
416.56067
410.97494
405.42238
399.91261
394.45585
389.06281
383.74454
378.51236
373.37767
368.35191
363.4462
358.67122
354.03714
349.55349
345.22892
341.07114
337.08681
333.28141
329.65928
326.22353
322.97597
566.28314
561.02603
555.75328
550.46483
545.16039
539.83946
534.50129
529.145
523.76961
518.37415
512.95767
507.51918
502.05791
496.57297
491.06416
485.53155
479.97492
474.39497
468.79275
463.16984
457.52838
451.87117
446.2017
440.52419
434.84362
429.16576
423.49718
417.84525
412.21809
406.62459
401.07429
395.57737
390.14448
384.78668
379.51531
374.34182
369.2774
364.33355
359.52093
354.84979
350.32972
345.96951
341.77694
337.75877
333.92062
330.2669
326.80082
323.52427
569.21763
563.85223
558.47622
553.08935
547.69112
542.28078
536.85737
531.41981
525.96692
520.49753
515.01056
509.50474
503.97912
498.43259
492.86477
487.27563
481.66477
476.03271
470.38035
464.70907
459.02088
453.31842
447.60502
441.88475
436.16246
430.44379
424.73518
419.04389
413.37795
407.74616
402.15799
396.62356
391.15348
385.75881
380.45084
375.24105
370.14074
365.16139
360.31371
355.60804
351.05406
346.66063
342.43565
338.38598
334.5173
330.83414
327.3398
324.03622
571.97417
566.50602
561.03206
555.55187
550.06472
544.56964
539.06549
533.55096
528.0247
522.48537
516.93169
511.36221
505.77579
500.17107
494.5475
488.90502
483.24302
477.56185
471.86224
466.14544
460.41329
454.66828
448.91362
443.15322
437.39181
431.6349
425.88882
420.16072
414.45853
408.79098
403.16746
397.59804
392.0933
386.66426
381.32223
376.07864
370.94496
365.93254
361.05223
356.31444
351.72891
347.30459
343.04946
338.97047
335.0734
331.36284
327.84219
324.51347
591.25023
585.68763
580.12366
574.559
568.99351
563.42685
557.85837
552.28712
546.71194
541.13147
535.54423
529.94868
524.34331
518.72666
513.09711
507.45337
501.79379
496.11766
490.42492
484.71481
478.98744
473.24341
467.48382
461.71038
455.92545
450.13209
444.33409
438.53605
432.74336
426.96225
421.19976
415.46374
409.76283
404.10637
398.50436
392.96735
387.50634
382.13262
376.85765
371.69291
366.64976
361.73913
356.9715
352.35666
347.90365
343.62052
339.5143
335.59084
331.85483
328.30974
324.95763
593.97372
588.30471
582.63949
576.97828
571.32087
565.6667
560.01489
554.36431
548.71358
543.06116
537.40539
531.74456
526.07697
520.40099
514.71485
509.01717
503.30602
497.58048
491.84047
486.08516
480.31441
474.52869
468.72897
462.91683
457.0945
451.26491
445.43173
439.59945
433.77334
427.95953
422.16496
416.39741
410.66543
404.9783
399.34598
393.77897
388.28824
382.8851
377.58099
372.38742
367.31575
362.377
357.58169
352.93967
348.46005
344.15095
340.01947
336.07154
332.31191
328.74414
325.37034
596.52051
590.75117
584.99047
579.23832
573.49433
567.75775
562.02751
556.30225
550.58044
544.86035
539.14015
533.41796
527.6919
521.96016
516.2208
510.47245
504.7129
498.94107
493.1567
487.35902
481.54761
475.72283
469.88554
464.03718
458.17988
452.31642
446.4504
440.58616
434.72888
428.88459
423.06016
417.26326
411.50239
405.78676
400.12628
394.53141
389.01312
383.58268
378.25156
373.03127
367.93318
362.96838
358.14742
353.48024
348.97598
344.64283
340.48796
336.51736
332.73585
329.14708
325.75318
598.89723
593.03356
587.18307
581.34546
575.52014
569.70616
563.90226
558.10691
552.31838
546.5348
540.75416
534.97443
529.19357
523.40952
517.6202
511.82433
506.01949
500.20439
494.37855
488.54119
482.69175
476.83045
470.95804
465.07587
459.18591
453.29087
447.39422
441.50021
435.61391
429.74128
423.88907
418.06491
412.2772
406.53513
400.84853
395.22785
389.68402
384.2283
378.87217
373.62714
368.50463
363.51572
358.67106
353.9806
349.45356
345.09819
340.9217
336.93013
333.12837
329.52019
326.10768
601.11061
595.15846
589.22379
583.30608
577.40454
571.51805
565.64515
559.78416
553.93317
548.09016
542.25298
536.41944
530.58734
524.75434
518.91819
513.07786
507.23072
501.37527
495.51073
489.63633
483.75138
477.85601
471.95086
466.03716
460.11678
454.19234
448.26719
442.34549
436.43223
430.53326
424.65528
418.80583
412.99326
407.22668
401.5159
395.87134
390.30388
384.82479
379.44554
374.17767
369.03259
364.02143
359.15487
354.44294
349.89487
345.51899
341.32256
337.31164
333.49111
329.865
326.4353
603.16738
597.13248
591.11909
585.12649
579.15373
573.19947
567.26212
561.33981
555.4305
549.53201
543.64205
537.75831
531.87841
525.99978
520.11979
514.23797
508.35143
502.45839
496.55784
490.64895
484.73093
478.80385
472.86822
466.92519
460.97654
455.02478
449.07316
443.12577
437.1875
431.26412
425.36226
419.48939
413.65381
407.86457
402.13145
396.46482
390.87555
385.37489
379.97431
374.68536
369.51948
364.48781
359.60107
354.86935
350.30191
345.90715
341.69236
337.66362
605.07428
598.96219
592.87539
586.81298
580.77382
574.75642
568.75901
562.77959
556.81596
550.8658
544.92671
538.99623
533.07188
527.15081
521.22992
515.30947
509.38629
503.45832
497.52433
491.5834
485.63467
479.67812
473.71421
467.74396
461.76908
455.79199
449.81585
443.84465
437.88323
431.93728
426.01334
420.11884
414.262
408.45185
402.69811
397.01113
391.40175
385.88122
380.46101
375.15266
369.96762
364.91708
360.01178
355.26185
350.67661
346.26449
342.03284
606.83799
600.65412
594.49905
588.37173
582.27086
576.19478
570.14157
564.10909
558.095
552.09687
546.11216
540.13829
534.17266
528.21223
522.25336
516.29703
510.33984
504.37947
498.4145
492.44389
486.46671
480.48287
474.49274
468.4973
462.49815
456.49762
450.49881
444.50562
438.52282
432.55602
426.61171
420.69726
414.82084
408.99142
403.2187
397.51299
391.88512
386.34633
380.90806
375.58188
370.37926
365.31139
360.38905
355.6224
351.02082
346.59278
342.34561
608.46512
602.21468
595.99632
589.80883
583.65076
577.52031
571.41541
565.33377
559.27296
553.2304
547.20345
541.1894
535.18548
529.18847
523.19491
517.20523
511.21648
505.22613
499.2325
493.23448
487.231
481.22194
475.20761
469.1889
463.16734
457.14518
451.12545
445.11199
439.10949
433.12349
427.16044
421.22763
415.3332
409.48608
403.69592
397.97301
392.32818
386.77262
381.3178
375.97527
370.75653
365.67278
360.73483
355.95286
351.33632
346.89372
342.63233
609.96218
603.6502
597.37333
591.13025
584.91934
578.73866
572.58601
566.45899
560.35503
554.27145
548.2055
542.15433
536.11504
530.08427
524.05878
518.03836
512.02044
506.0024
499.98236
493.95907
487.93136
481.89906
475.86243
469.82229
463.78009
457.73803
451.69907
445.66696
439.64635
433.64271
427.66244
421.71279
415.80183
409.93848
404.13234
398.39369
392.73331
387.16241
381.69244
376.33497
371.10148
366.00321
361.05099
356.25503
351.62481
347.16891
342.89454
611.33554
604.96686
598.63611
592.34182
586.08225
579.85533
573.65872
567.48991
561.34624
555.22491
549.12306
543.03773
536.96585
530.90403
524.8492
518.80056
512.75578
506.71224
500.66791
494.6214
488.57144
482.51779
476.46068
470.40085
464.33971
458.27938
452.22277
446.17357
440.13635
434.11656
428.12053
422.15545
416.22938
410.35118
404.53044
398.77739
393.10282
387.5179
382.03411
376.663
371.41606
366.30456
361.33932
356.53061
351.88792
347.41988
343.13369
612.59144
606.17071
599.7905
593.44923
587.14501
580.87565
574.63871
568.43157
562.25147
556.09551
549.96073
543.84405
537.74229
531.65201
525.57028
519.4958
513.42639
507.35946
501.29285
495.22507
489.15473
483.08154
477.00567
470.92782
464.84934
458.7723
452.69954
446.63471
440.58233
434.54778
428.53735
422.5582
416.61834
410.7266
404.89254
399.12638
393.43888
387.84122
382.34484
376.96132
371.70215
366.5786
361.60153
356.78122
352.1272
347.64811
343.35118
613.73595
607.26765
600.84223
594.458
588.11297
581.80481
575.53101
569.28884
563.07543
556.88783
550.72294
544.57762
538.44853
532.33227
526.22595
520.12791
514.036
507.94768
501.86073
495.77353
489.68458
483.59355
477.50057
471.40628
465.31199
459.21971
453.13224
447.05316
440.98696
434.93897
428.91544
422.92349
416.97109
411.06705
405.22089
399.44282
393.74358
388.13434
382.62655
377.23176
371.9615
366.82704
361.83925
357.00842
352.34412
347.85502
343.54836
648.03789
641.29085
634.59077
627.93822
621.33306
614.775
608.2634
601.79683
595.3735
588.9913
582.64783
576.34047
570.0664
563.82269
557.60627
551.41399
545.24257
539.08862
532.94873
526.82002
520.70055
514.58818
508.4804
502.37493
496.27007
490.1642
484.05695
477.94841
471.83918
465.73052
459.6244
453.52356
447.43156
441.35281
435.29263
429.25722
423.25366
417.2899
411.37471
405.5176
399.72875
394.01888
388.39917
382.88106
377.4761
372.19581
367.05148
362.054
357.21368
352.54008
348.04195
343.72649
649.20664
642.4088
635.66053
628.9622
622.31364
615.71438
609.16356
602.6597
596.20093
589.78504
583.40956
577.07177
570.7688
564.49762
558.25509
552.03796
545.8429
539.66642
533.50512
527.35613
521.21725
515.08635
508.96093
502.83868
496.71782
490.59663
484.4747
478.35208
472.22932
466.10766
459.98902
453.87609
447.77239
441.68231
435.61112
429.56497
423.55093
417.57691
411.65166
405.78467
399.9861
394.26667
388.63752
383.11011
377.69598
372.40667
367.25347
362.24726
357.39839
352.71644
348.21016
343.8868
650.25904
643.41537
636.62358
629.88392
623.19618
616.55972
609.97352
603.43602
596.94528
590.49901
584.09466
577.72944
571.40039
565.10443
558.83835
552.59882
546.38242
540.18563
534.00503
527.83774
521.68138
515.53377
509.39245
503.25506
497.11978
490.98478
484.84963
478.71432
472.57938
466.446
460.31608
454.19226
448.07804
441.97776
435.89666
429.84086
423.8174
417.83417
411.89988
406.02402
400.21673
394.4887
388.8511
383.31534
377.893
372.5956
367.43443
362.42042
357.56388
352.87444
348.36086
344.03041
651.20162
644.31681
637.48596
630.70922
623.98629
617.31644
610.69849
604.13082
597.61141
591.13789
584.70763
578.3178
571.96537
565.64719
559.35998
553.10035
546.86482
540.6498
534.4519
528.26819
522.09616
515.93357
509.77798
503.62702
497.4788
491.33143
485.18441
479.03773
472.89187
466.748
460.60797
454.47441
448.35077
442.24136
436.15138
430.08695
424.05506
418.06359
412.12123
406.23745
400.42236
394.68666
389.0415
383.49831
378.06864
372.76402
367.59576
362.57477
357.7114
353.01528
348.4952
344.15843
652.04072
645.11921
638.25352
631.4437
624.68939
617.98975
611.3435
604.74893
598.20396
591.70614
585.2528
578.84103
572.46775
566.12976
559.82371
553.54617
547.29358
541.06233
534.849
528.65065
522.46464
516.28871
510.1204
503.95734
497.7976
491.63919
485.48161
479.3248
473.16922
467.016
460.86697
454.72473
448.5927
442.47516
436.37729
430.30518
424.2658
418.26701
412.31748
406.42665
400.60464
394.86214
389.21027
383.66047
378.2243
372.91329
367.73874
362.71157
357.84215
353.1401
348.61425
344.27188
652.78243
645.82843
638.93189
632.09278
625.31068
618.58467
611.91336
605.29499
598.72739
592.20807
585.7343
579.30311
572.91139
566.55586
560.23314
553.93974
547.67205
541.42643
535.19945
528.98814
522.78977
516.60204
510.42247
504.2487
498.07875
491.91059
485.74366
479.57788
473.41369
467.2522
461.09521
454.9453
448.80585
442.68113
436.57629
430.4974
424.4514
418.44614
412.49028
406.59324
400.76512
395.01662
389.35885
383.80323
378.36133
373.04468
367.86459
362.83199
357.95723
353.24996
348.71903
344.37172
653.43265
646.45013
639.5265
632.66168
625.85519
619.10601
612.41271
605.77345
599.18599
592.64781
586.1561
579.70787
573.29995
566.92904
560.59169
554.28437
548.00343
541.74519
535.50623
529.28355
523.07433
516.87623
510.68678
504.50361
498.3247
492.14797
485.97284
479.79919
473.62746
467.45871
461.29474
455.13809
448.99214
442.86112
436.75017
430.66533
424.61354
418.60262
412.64121
406.73873
400.90528
395.15153
389.48859
383.92788
378.48098
373.1594
367.97447
362.93712
358.0577
353.34587
348.81049
344.45887
653.99705
646.98974
640.04257
633.1554
626.3277
619.5584
612.84599
606.18857
599.58386
593.02929
586.522
580.05896
573.63698
567.25269
560.90263
554.58321
548.29074
542.02155
535.77218
529.53961
523.32096
517.11385
510.91582
504.72447
498.53778
492.3536
486.17134
479.99086
473.81256
467.63751
461.46747
455.30497
449.15337
443.01688
436.90062
430.81063
424.75381
418.73797
412.77176
406.86457
401.02649
395.26818
389.60077
384.03567
378.58443
373.25859
368.06947
363.02801
358.14456
353.42879
348.88956
344.5342
654.48106
647.45246
640.48508
633.57873
626.73282
619.94624
613.21743
606.54443
599.92492
593.35627
586.83561
580.35987
573.9258
567.53003
561.16906
554.83925
548.5369
542.2583
535.99999
529.75893
523.53218
517.31734
511.11193
504.91356
498.72018
492.52961
486.34121
480.15486
473.97093
467.79046
461.61521
455.44769
449.29124
443.15006
437.02925
430.93483
424.8737