/*--------------------------------*- C++ -*----------------------------------*\
| =========                 |                                                 |
| \\      /  F ield         | OpenFOAM: The Open Source CFD Toolbox           |
|  \\    /   O peration     | Version:  2312                                  |
|   \\  /    A nd           | Website:  www.openfoam.com                      |
|    \\/     M anipulation  |                                                 |
\*---------------------------------------------------------------------------*/
FoamFile
{
    version     2.0;
    format      ascii;
    arch        "LSB;label=32;scalar=64";
    class       volScalarField;
    location    "0.02";
    object      Qdot;
}
// * * * * * * * * * * * * * * * * * * * * * * * * * * * * * * * * * * * * * //

dimensions      [1 -1 -3 0 0 0 0];

internalField   nonuniform List<scalar> 
3272
(
2618714.1
2946652.8
3284527.6
3627458.6
3970213.2
4303085.3
4626046
4937961.8
5229188.9
5493828.1
5726993.8
5924344.2
6082199.5
6197649
6268640.3
6294042.9
6273684
6208351.4
6099762.7
5950502.9
5763930.7
5547181.9
5300478.2
5028787.7
4738656.6
4435332
4123973
3809507.7
3496509.8
3189097.9
2890860.8
2604811.5
2333366.5
2078350.7
1841022.6
1622116.9
1421899.1
1240229.7
1076630.6
930354.09
800447.4
685813.84
585266.69
497575.92
421507.08
355852.41
299454.61
251223.86
210148.94
175303.02
145845.4
121036.66
100210.64
2704912.7
3042283.2
3389807.5
3742691.5
4095870.7
4438466.6
4770736.6
5091450.5
5391405.1
5664236.9
5904927
6109005.4
6272672.1
6392906.5
6467558.4
6495415
6476239.4
6410776.6
6300725.9
6148679.6
5958031.1
5736088.2
5483224.4
5204157.5
4905782.9
4593499
4272625.5
3948256
3625128.8
3307521.2
2999170.4
2703222.9
2422211.5
2158057.9
1912097.1
1685119.9
1477429.2
1288904.4
1119071.3
967171.99
832233.29
713129.25
608637.75
517489.28
438407.73
370143.12
311496.81
261339.98
218626.18
182397.37
151723.88
125912.99
104249.45
2868334.4
3223456.9
3589194.1
3960683.8
4332717.4
4693483.8
5043403.9
5380646.6
5697108.5
5985439.8
6240399.8
6457293.2
6632100.4
6761594.3
6843437.4
6876255.4
6859682
6794371.2
6681974.6
6525083.5
6327135.4
6095723.2
5831634.9
5538939.4
5225249.3
4896239.8
4557530.1
4214525.2
3872275.9
3535363.1
3207809.6
2893021.3
2593758.1
2312132.8
2049633
1807163.5
1585104
1383376.5
1201518.9
1038759.3
894088.35
766327.54
654189.32
556330.23
471395.16
398053.28
335025.64
281105.01
235177.19
196098.88
163172.84
135435.59
112142.96
3104377.8
3484716.1
3876290.3
4274052.2
4672549.9
5059030.3
5434130.6
5794613.2
6134715.8
6445289.7
6720805.6
6956267.5
7147352.9
7290541.1
7383222
7423779
7411645
7347324.4
7232380
7069379
6861767.4
6617259.8
6337901.6
6026278.5
5691130.3
5338516.4
4974480.5
4604874
4235200.8
3870485.6
3515172.5
3173053.7
2847231
2540107.6
2253406.4
1988211.5
1745027.2
1523849.1
1324242.6
1145424
986339.4
845738.9
722244.14
614406.74
520758.15
439850.76
370289.91
310727.55
259808.02
216779.21
180402.45
149755.23
124012.93
3410926.9
3823225.5
4247487.3
4678426.4
5110356.9
5529521.7
5936845.9
6326368.1
6696691.8
7035842.5
7337912.9
7597547.7
7810046.3
7971512.4
8078976.7
8130495
8125218.4
8063432.6
7946569.7
7777207.4
7559081.5
7297054.6
6999696.7
6665065.8
6303217.5
5920899.7
5524718.5
5121107.1
4716161.5
4315492.4
3924105.2
3546313.3
3185684.8
2845024.5
2526385.7
2231109.6
1959884.7
1712822.3
1489541.4
1289257.1
1110868.7
953043.25
814290.21
693028.1
587641.08
496528.2
418027.21
350625.05
293448.24
244907.05
203853.18
169253.74
140182.49
3787056
4237358.3
4700384.6
5170579.8
5642114.8
6100646.1
6546180.7
6971926.3
7377152.5
7750757.6
8085119.4
8374434.8
8613547.3
8798102.2
8924683.2
8990925
8995602
8938686.9
8821378.9
8646099.8
8416445.3
8137012.9
7817991.8
7457232.9
7064215.5
6646840.8
6212342.9
5767846.7
5320171.5
4875656.4
4440014.9
4018226.1
3614462.8
3232057.9
2873507.4
2540503.5
2233994.8
1954264.8
1701023.9
1473508
1270576.8
1090808.8
932587.13
794172.26
673765.28
569294.98
479191.86
402408.05
336910.26
281270.64
234188.27
194490
161121.04
4232123.5
4725725.1
5232734.5
5747110.9
6262218
6770577.5
7257897.2
7725364.9
8169856.1
8583394.9
8955516
9279905.3
9550885.2
9763567.9
9914001.9
9999301.4
10017755
9968904.1
9853591.9
9673966
9433427.6
9136501.7
8794239
8405313.8
7977597.3
7520652.8
7042397
6550735.2
6053326.8
5557376.5
5069456.5
4595366.8
4140037.7
3707475.4
3300749.6
2922018.2
2572584.3
2252978
1963054.5
1702104.2
1468964.6
1262130.8
1079855.3
920224.84
780652.95
659693.34
556060.36
467186.01
391313.2
326814.87
272203.24
226132.5
187389.23
4745143.8
5286594.9
5842219.8
6405712.9
6970328.1
7529049.8
8064541.7
8579575.5
9067025.1
9525582.4
9940609.4
10305274
10613353
10859365
11038744
11147984
11184769
11148081
11038273
10857095
10607657
10294254
9928030.4
9510447.1
9045730
8545798.8
8019289.7
7474965.7
6921436.1
6366905.9
5818959.3
5284382.4
4769031.2
4277749.2
3814332.5
3381541.8
2981151.6
2614033
2280257.6
1979218.4
1709757.5
1470298.9
1258981.4
1072789.6
910532.5
770648.21
649963.63
546363.1
457843.9
382540.36
318739.49
264887.21
219578.45
5324210.7
5917058.5
6524815.4
7140927.4
7758450.9
8370305.4
8958072.5
9525611.9
10061269
10567153
11029657
11439446
11789695
12074281
12287947
12426469
12486812
12467260
12367533
12188859
11934037
11607488
11215386
10770509
10268573
9723623.4
9145558.2
8544091.4
7928886.4
7309279.5
6694021.6
6091057.2
5507349.9
4948762.5
4419993.7
3924567.3
3464871.3
3042236.1
2657043.4
2308854.8
1996551.9
1718495.5
1471371.4
1254892.8
1066873.1
903545.48
762477.37
641269.82
537625.46
449392.56
374589.33
311413.1
258221.56
5966223
6612870.9
7275051.7
7945929.7
8618145.4
9283735.9
9933873.9
10551573
11140092
11695415
12209354
12668630
13065804
13394087
13647476
13820945
13910617
13913940
13829828
13658784
13402972
13066228
12653899
12180819
11643351
11052614
10420998
9759120.3
9077743.3
8387439.1
7698270.6
7019514.1
6359432.2
5725106.4
5122333.8
4555587.6
4028036.4
3541615.4
3097138.4
2694438.3
2332516.8
2008133.4
1721603.7
1470426.6
1250779.3
1059877.5
894873.82
752991.25
631577.79
528145.63
440396.21
6666792.1
7368442.3
8086152.2
8812949.9
9541426.9
10263769
10971946
11643445
12291665
12895919
13464075
13976515
14424866
14801661
15100118
15314329
15439473
15472014
15409894
15252685
15001707
14660033
14232256
13732913
13163173
12527578
11841983
11117857
10367090
9601572.3
8832809.8
8071578.4
7327635.3
6609491.8
5924259.1
5277567.4
4673558.1
4114940.4
3603106.3
3138305.8
2718439.1
2343073.8
2011434.8
1719097.3
1463206.1
1240575.8
1047973
882224.97
740287.24
619290.53
516553.93
7420288.3
8176882.4
8949941.7
9732462.9
10517101
11296193
12061894
12790177
13494363
14154067
14776296
15344722
15847830
16277468
16626043
16886715
17053626
17122128
17089021
16952760
16713641
16373946
15938091
15413096
14815647
14139380
13401147
12614543
11792634
10948696
10095787
9246337.4
8411793.4
7602314.8
6826556.4
6091533.4
5402571.7
4763335.1
4175895.2
3640505.9
3155704.6
2724140.4
2340305.3
2001527.7
1704587.7
1445957.5
1222007.1
1029136.3
863867.42
722906.87
603162.23
8219975.4
9030174.8
9857100.4
10693798
11533058
12367456
13189737
13976269
14733943
15450810
16126922
16753441
17314149
17800316
18203573
18516128
18731016
18842371
18845694
18738124
18518671
18188423
17750659
17210671
16586361
15875636
15087575
14239861
13346621
12422510
11482204
10539922
9608978.9
8701404.6
7827637.9
6996323.7
6214212.3
5486182.8
4815484.3
4200089.1
3646739.8
3150181.6
2708038.1
2317308.7
1974435.9
1675510.1
1416465.1
1193231.6
1001851.7
838559.07
699803.08
9058229.9
9919465.6
10797533
11685585
12576515
13462802
14336317
15187428
15995532
16769278
17497257
18182521
18802728
19348293
19810120
20179464
20448215
20609200
20656492
20585729
20394419
20082217
19651207
19106285
18455878
17719118
16886688
15981048
15017967
14013494
12983971
11945513
10913474
9901968.8
8923466.9
7988496.7
7105442
6280349.3
5515748.4
4819159.3
4187337.2
3619329.6
3112875.8
2664787.2
2271191.6
1927774.3
1629995.8
1373272.5
1153116.8
965237.6
805574.54
9926827
10835423
11760836
12696446
13635440
14570641
15494485
16399102
17257133
18091193
18871752
19612327
20292789
20899691
21423162
21853507
22181457
22398479
22497113
22471344
22316973
22031963
21616775
21074648
20411477
19648893
18781554
17822568
16792712
15709256
14590180
13453563
12316944
11196727
10107670
9062498.9
8071736.3
7143972.7
6281166.1
5491326.8
4774045.2
4128263.5
3551728.6
3041103.1
2592213.6
2200323.6
1860385.7
1567255.9
1315864.8
1101342
919063.51
10817239
11768561
12736592
13715049
14697553
15677429
16647757
17601492
18509717
19394493
20229700
21023650
21764554
22433872
23021173
23515899
23907650
24186512
24343427
24370606
24261963
24013539
23623912
23094582
22430672
21643362
20752007
19746431
18654517
17495019
16287547
15052184
13808773
12576194
11371709
10210377
9104510
8062955.8
7098454.7
6210409.5
5401692.3
4672293.9
4020283.3
3442285
2933856.3
2489829
2104614.4
1772461.1
1487663.3
1244714.6
1038370.4
11720923
12709557
13714723
14730559
15751185
16770469
17782112
18780125
19737086
20666505
21556356
22400077
23200324
23932100
24584444
25145995
25605268
25950982
26172450
26260021
26205582
26003055
25648906
25142623
24487252
23689443
22773236
21733337
20585399
19354247
18060971
16727654
15376531
14029144
12705565
11423741
10198943
9041616.7
7963872.4
6970447.1
6064223.1
5245695.5
4513225
3863435.3
3291631.4
2792201.7
2358981.4
1985562.6
1665545.9
1392728.3
1161183
12629585
13649544
14685822
15733037
16785839
17838557
18885025
19918196
20928508
21892760
22840388
23730186
24584678
25378027
26095678
26725525
27255070
27671715
27963149
28117820
28125478
27977761
27668791
27195770
26559611
25765628
24824324
23762208
22566403
21269318
19894164
18464995
17006477
15542924
14097384
12690932
11342478
10062831
8867679
7763538.6
6754503.7
5841890.3
5024483.9
4298973.7
3660434.6
3102800.4
2619294.2
2202799.5
1846163.8
1542424
1284898.7
13535406
14580343
15641399
16713733
17792606
18872982
19949376
21015773
22065776
23069042
24061450
24999584
25904592
26758008
27540384
28239046
28840609
29331246
29697070
29924624
30001466
29916818
29662266
29232457
28625797
27844986
26896454
25809175
24578803
23222325
21770330
20248604
18684203
17104271
15534863
13999791
12519281
11117176
9800896.4
8581404.8
7464887.4
6453814.8
5547552.2
4742929.6
4034817.2
3416681.9
2881096.8
2420182.7
2025971
1690681
14431210
15494629
16574024
17665146
18763932
19866078
20966925
22061444
23144347
24183251
25213703
26199488
27150213
28061413
28907113
29674192
30348523
30915164
31358733
31663908
31816037
31801853
31610248
31233102
30666092
29909441
28968443
27854957
26601656
25195555
23672768
22062820
20395156
18699862
17006339
15342091
13731859
12197768
10755037
9415723.7
8187584.4
7074268.1
6075811.3
5189249.8
4409272.8
3728867.5
3139916
2633716.6
2201406.7
1834232
15310591
16386027
17477398
18581073
19693690
20811700
21931259
23048235
24158300
25228263
26287075
27327801
28315812
29280661
30187486
31021727
31768626
32412249
32935826
33322245
33554674
33617320
33496284
33180498
32662660
31940101
31015277
29895165
28614476
27172492
25585483
23892418
22124985
20316208
18498933
16704371
14960915
13293254
11720790
10258119
8914925.9
7696221.3
6602837.6
5632090.2
4778513.1
4034600.5
3391501.6
2839631.5
2369169
1970351.6
16167979
17249169
18346383
19456615
20577200
21705311
22837831
23971368
25102747
26201846
27286613
28368719
29398564
30410907
31376011
32275414
33093823
33814434
34419217
34889375
35205963
35350678
35306778
35060114
34600210
33921287
33023104
31911643
30601690
29132618
27493362
25722951
23860011
21940421
20000531
18075360
16197086
14394081
12689436
11100665
9639692.4
8313103.6
7122670.2
6066068.2
5137705.3
4329569.3
3632033.8
3034570.4
2526331.8
2096476.9
16998677
18079693
19176978
20288142
21411195
22543977
23683952
24827922
25971418
27106283
28209925
29325456
30394437
31449497
32469762
33431771
34319892
35116617
35802802
36358097
36761548
36992398
37031053
36860211
36466062
35839491
34977118
33881959
32562908
31061009
29382400
27541000
25587518
23560537
21499972
19444806
17431147
15491603
13653044
11936152
10355352
8919022
7630017.6
6486459.2
5482656.7
4610077.8
3858276.2
3215720.1
2670484.3
17798858
18874216
19966266
21073216
22193725
23326299
24469067
25619552
26774468
27930046
29054643
30197736
31303408
32396185
33468190
34489771
35445182
36316373
37083248
37724054
38215956
38535833
38661282
38571814
38250182
37683749
36865772
35796478
34484092
32947871
31230745
29334287
27295931
25165672
22987103
20803375
18654591
16578055
14604567
12758222
11056210
9508905.9
8120395.8
6889325.8
5809935.8
4873158
4067677.8
3380878.9
2799545.3
18562697
19627119
20712316
21810450
22923953
24051984
25193377
26346471
27509035
28678513
29820764
30986217
32128102
33253281
34372778
35450476
36470246
37413609
38259667
38985426
39566321
39976990
40192298
40188586
39945109
39445574
38679644
37644323
36345255
34798158
33028239
31090553
28975063
26746206
24452893
22143177
19859856
17646639
15537910
13561451
11737483
10078581
8590196.9
7271582
6116931.8
5116626.6
4258438.4
3528608.6
2912600.8
19293205
20342589
21410093
22495035
23601970
24721662
25857961
27009972
28176287
29354924
30510348
31689348
32873952
34026388
35186401
36316607
37397451
38410172
39333235
40142574
40812059
41314235
41621340
41706604
41545778
41118821
40411624
39417645
38139351
36589082
34786959
32793871
30616644
28294013
25889461
23455765
21040384
18691600
16447955
14341360
12395317
10624781
9036698.7
7630997.7
6401853.5
5339079.5
4429494.2
3658146.3
3009129.1
19986472
21017033
22066725
23135354
24223347
25336717
26464671
27612295
28778921
29963242
31129462
32321622
33535202
34717335
35913222
37092216
38230601
39309471
40306816
41197669
41954509
42547949
42947741
43124094
43049285
42699487
42056692
41110599
39860285
38315390
36496410
34438163
32207727
29802312
27290815
24733530
22191127
19708212
17330523
15094388
13026755
11145114
9458023.8
7966153.8
6663680.7
5539835
4580445.1
3769346.7
20641641
21650202
22679088
23728546
24799496
25892835
27015951
28156286
29320161
30507162
31682401
32884338
34120798
35330772
36558195
37782322
38974578
40116105
41184584
42154318
42996568
43680191
44172605
44441123
44454619
44185481
43611727
42719137
41503189
39970508
38139291
36037580
33739211
31265086
28652000
25979346
23307968
20692514
18182283
15817824
13629670
11637991
9853063.4
8276362.8
6902082.7
5718849.9
4711441.9
3862237.2
21258418
22242391
23248052
24276035
25327694
26404390
27507335
28645190
29803380
30989705
32174431
33382099
34636915
35872681
37127119
38392660
39635025
40835531
41971685
43017219
43942349
44714350
45298478
45659294
45762372
45576359
45075267
44240844
43064793
41550538
39714184
37584825
35208907
32668060
29967767
27182108
24386487
21641311
19000713
16509737
14202676
12102526
10221377
8561567
7117317.9
5876634
4823209.7
3937980.4
21836987
22794350
23774910
24779635
25810259
26868532
27956072
29074179
30232159
31411092
32613447
33820685
35088173
36349985
37626542
38929406
40218058
41473762
42673927
43791845
44796856
45654829
46329034
46781441
46974455
46873059
46447269
45674738
44543254
43052849
41217142
39063651
36631758
34009919
31233398
28339415
25423806
22552250
19784022
17168870
14745024
12538430
10563083
8822225.4
7310120.5
6014132.3
4916837.6
3997733.7
22377934
23307192
24261281
25241453
26249761
27288293
28359013
29463567
30602887
31786274
32993206
34203360
35476072
36771799
38063894
39398728
40730005
42037121
43297514
44484172
45565707
46506758
47268790
47811353
48093830
48077648
47728880
47021056
45937958
44476064
42646294
40474847
38003349
35292908
32432065
29448973
26417820
23423680
20531043
17794544
15256495
12945904
10878744
9059199.8
7481583.8
6132602.6
4993685.9
4042877.4
22882175
23782319
24709026
25663786
26648927
27666825
28719756
29809723
30938179
32105707
33323567
34536347
35815994
37132682
38444700
39806949
41177245
42532031
43848830
45100439
46254886
47275744
48122849
48753511
49124255
49193083
48922204
48281046
47249332
45819862
44000657
41816207
39307923
36534485
33566130
30506631
27367040
24254558
21241151
18386558
15737297
13325528
11169260
9273647.5
7633054.4
6233516
5055289.6
4074944.7
23350889
24221348
25120169
26049052
27010552
28007296
29041847
30116561
31233396
32393737
33610311
34824726
36110020
37442752
38773842
40160068
41566012
42964844
44334258
45646965
46870544
47967656
48896683
49612875
50070067
50222991
50030098
49456770
48478657
47084800
45280156
43087194
40546405
37715308
34661324
31503033
28271379
25044469
21914187
18945100
16187974
13678174
11435776
9466926.3
7766038.9
6318464.8
5103269.9
4095532.2
23785446
24626049
25496836
26399717
27337432
28312820
29328705
30387773
31492426
32644642
33845989
35073300
36362566
37708243
39056670
40463805
41902299
43341717
44760036
46129988
47418826
48588449
49595946
50394682
50935987
51171479
51055985
50550925
49627901
48272151
46485449
44288039
41719322
38836905
35713210
32438464
29126763
25793112
22550330
19470665
16609327
14004917
11679599
9640514.1
7882124.5
6389087.1
5139263.1
4106229
24187337
24998281
25841195
26718243
27632306
28586403
29583586
30626838
31718942
32862336
34058978
35286494
36578128
37934500
39298477
40723638
42191808
43668523
45132154
46555550
47905752
49144024
50226322
51104299
51726955
52042966
52003688
51566684
50699567
49383766
47617790
45419522
42827140
39898267
36706770
33336727
29925553
26501444
23150130
19963988
17002341
14306975
11902130
9795941.6
7982915.7
6447006.3
5164863.9
4108562.1
24558104
25339939
26155414
27007046
27897826
28830917
29809570
30837025
31916392
33050487
34241632
35454335
36760950
38126278
39504283
40944762
42439900
43950794
45456283
46929415
48337110
49640120
50793411
51747087
52447994
52842046
52877286
52507556
51696560
50421943
48678911
46482888
43870714
40899975
37646138
34198751
30667760
27167591
23713994
20425933
17368125
14585644
12104809
9934741.4
8069984.6
6493785.5
5181584.2
4103959.6
24899383
25652901
26441627
27268469
28136524
29049076
30009540
31021381
32087984
33212488
34397553
35607929
36914897
38287745
39678785
41132079
42651562
44193675
45737725
47257005
48718393
50082234
51302632
52328301
53104105
53573373
53681004
53377267
52622068
51389321
49670922
47479768
44851271
41842900
38531517
35009242
31377946
27784009
24243523
20857606
17707891
14842268
12289076
10058409
8144836.1
6530895
5190825.1
4093724.8
23239740
23865950
24522832
25213637
25939181
26701930
27504755
28350795
29243418
30186177
31182722
32236675
33351452
34530019
35737368
37027844
38422346
39826430
41290269
42831354
44401898
45981384
47543370
49054753
50475563
51759164
52853020
53700180
54241565
54419109
54179664
53479467
52288783
50596219
48412110
45770359
42728234
39363823
35771346
32052017
28355881
24738045
21260000
18022889
15078193
12456337
10168374
8208883.4
6559692.5
5193860.9
4079024.1
23619680
24213368
24840203
25502014
26200581
26938312
27718031
28542885
29416305
30341952
31323631
32365164
33470214
34642016
35845765
37133325
38532411
39951643
41423956
42983315
44579775
46191755
47793164
49350973
50824973
52167893
53326085
54240939
54851141
55095835
54918631
54272236
53123371
51457403
49282094
46629779
43557423
40144227
36486938
32693258
28883957
25193256
21634689
18314445
15294746
12607944
10265984
8263435
6581412
5191836
4060885.9
23972050
24534364
25131926
25766082
26438861
27152669
27910293
28714884
29569914
30479128
31446457
32475897
33571329
34736256
35936063
37219497
38618127
40059401
41537266
43111421
44731234
46372927
48010644
49611454
51134973
52533390
53752068
54730884
55406459
55715327
55598024
55003891
53896220
52257214
50092077
47431529
44332136
40874063
37156295
33289596
29387906
25611686
21983007
18583784
15493194
12745170
10352494
8309692.4
6597160.3
5185771.2
4040214
24297944
24830170
25399641
26007477
26655733
27346792
28083410
28868727
29706243
30599765
31553327
32571067
33657071
34815162
36011118
37290459
38691452
40145062
41631556
43218821
44859762
46528585
48199675
49840218
51409712
52859893
54135243
55174269
55911684
56281588
56221625
55677928
54610503
52998477
50844532
48177753
45054221
41554919
37780882
33845692
29863993
25996174
22304447
18831953
15674741
12869214
10429064
8348761.1
6607913.8
5176561.7
4017796
24598669
25102191
25644913
26227794
26852836
27522371
28239115
29006192
29827114
30705731
31646152
32652627
33729422
34880773
36073414
37348784
38734107
40214011
41709344
43308359
44968463
46662035
48363738
50040912
51652983
53151304
54479582
55575079
56370758
56798455
56793097
56297784
55269381
53684050
51542008
48870697
45725648
42188539
38362344
34363885
30315154
26347701
22594337
19060480
15840581
12981196
10496771
8381683.9
6614490.4
5164861.9
3994139.6
24875558
25351842
25869238
26428559
27031719
27680982
28379015
29128912
29934184
30798710
31726645
32722307
33790067
34934625
36125247
37396564
38783016
40269570
41773111
43382602
45060093
46776217
48505956
50216827
51868228
53411194
54788746
55937026
56787388
57269570
57315962
56866803
55875974
54316794
52187088
49512669
46348469
42776754
38902301
34844891
30730304
26682125
22857773
19270346
15991776
13082152
10556605
8409511.3
25129934
25580507
26074040
26611215
27193839
27824094
28504584
29238371
30028952
30880214
31796339
32781652
33840455
34977486
36169038
37435659
38822363
40314163
41825071
43443835
45137092
46873742
48629110
50370913
52058555
53642810
55066096
56263543
57165035
57698372
57793578
57388209
56433325
54899535
52782357
50106008
46924785
43321450
39402436
35290231
31113815
26996643
23096370
19461825
16129309
13173042
10609442
25363101
25789524
26260676
26777124
27340557
27953063
28617178
29335920
30112767
30951604
31856613
32832083
33882002
35008801
36207877
37467709
38853701
40349716
41867147
43494067
45201602
46956911
48735668
50505805
52226760
53849095
55314700
56557793
57506916
58088085
58229129
57865096
56944387
55435045
53330381
50653058
47456720
43824543
39864475
35701519
31468005
27293661
23309431
19633483
16254367
13254775
10655856
25576331
25980178
26430430
26927563
27473138
28069138
28718029
29422781
30186845
31014093
31908702
32874939
33916725
35036714
36236633
37493111
38878298
40357833
41900992
43535050
45255499
47027747
48827809
50623843
52375343
54032702
55537347
56822675
57816009
58441725
58625620
58300408
57412003
55926022
53833683
51156146
47946399
44287959
40290155
36080309
31793769
27563458
23512191
19787029
16368154
13328183
10696588
25770844
26153693
26584513
27063726
27592751
28173466
28808262
29500058
30252273
31068763
31953699
32911356
33945755
35060189
36258742
37512906
38897300
40379380
41928020
43568305
45300417
47088016
48907449
50727100
52506537
54196017
55736563
57060838
58095057
58762093
58985872
58696941
57838895
56375079
54294726
51617566
48395930
44713616
40681210
36428166
32092547
27809778
23701012
19925060
16471268
13393912
10732256
25947794
26311223
26724061
27186724
27700479
28267097
28888896
29568741
30310020
31116571
31992562
32942305
33969987
35079501
36275858
37528102
38911718
40395938
41949441
43595143
45337773
47139259
48976268
50817405
52622324
54341176
55914632
57274697
58346583
59051791
59312526
59057335
58227662
56784729
54715906
52039562
48807390
45103414
41039361
36746642
32365831
28034807
23875468
20048493
16564088
13452516
10763376
26108265
26453840
26850136
27297589
27797316
28350989
28960853
29629723
30360952
31158361
32026125
32968608
33990178
35095204
36289062
37539578
38922431
40408469
41966285
43616691
45368788
47182813
49035731
50896365
52724461
54470089
56073610
57466446
58572899
59313223
59608047
59384079
58580773
57157382
55099536
52424323
49182814
45459221
41366302
37037266
32615042
28240114
24036839
20157482
16646377
13504546
10790434
26253295
26582547
26963735
27397279
27884179
28426015
29024966
29683799
30405834
31194876
32055111
32990963
34006978
35107872
36299174
37548086
38930194
40417788
41979427
43633908
45394512
47219832
49087116
50965392
52814502
54584457
56215348
57638076
58776122
59548609
59874730
59679508
58900567
57495341
55447846
52773968
49524188
45782866
41663695
37301531
32841507
28426860
24187996
20251526
16716802
13550782
10813895
25634216
25669848
25765058
25917015
26123371
26384048
26698355
27065799
27486683
27961905
28492968
29081986
29731682
30445344
31226765
32080143
33009970
34020943
35118037
36306847
37554262
38935647
40424578
41989607
43647612
45415841
47251311
49131528
51025718
52893819
54685796
56341507
57791387
58958184
59759995
60114710
59945813
59189256
57800800
55762972
53090545
49833437
46076131
41933160
37540888
33046471
28595586
24321456
20340927
16778589
13591753
10834158
25840964
25854847
25930554
26064804
26255388
26501442
26802210
27157204
27566621
28031265
28552568
29132589
29774007
30480083
31254597
32101764
33026137
34032551
35126166
36312613
37558636
38939329
40429414
41997447
43658493
45433540
47278103
49169927
51078422
52963619
54775452
56453577
57928013
59120851
59949265
60329966
60185044
59448924
58075842
56046960
53376023
50112424
46340743
42176272
37756743
33231152
28747285
24440139
20423166
16833119
13627966
10851562
26027004
26021216
26079216
26197421
26373599
26606425
26894993
27238769
27637851
28092962
28605469
29177382
29811340
30510578
31278867
32120438
33039904
34042210
35132661
36316911
37561647
38941689
40432771
42003464
43667132
45448255
47300935
49203137
51124439
53024965
54854621
56552890
58049426
59265731
60118151
60522334
60399113
59681533
58322442
56301760
53632290
50362943
46578373
42394556
37950458
33396737
28883030
24545770
20497536
16881036
13659811
10866382
26193479
26169967
26212006
26315784
26478954
26699892
26977528
27311249
27701068
28147637
28652262
29216910
29844185
30537297
31300009
32136568
33051640
34050267
35137860
36320098
37563659
38943096
40435044
42008088
43674012
45460531
47320429
49231870
51164587
53078787
54924363
56640644
58156960
59394290
60268243
60693516
60589809
59888927
58542470
56529228
53861156
50586716
46790631
42589479
38123345
33544376
29003860
24639558
20564127
16922698
13687552
10878835
26341569
26302182
26329938
26420829
26572356
26782682
27050576
27375343
27756914
28195876
28693484
29251664
29872990
30560648
31318397
32150498
33061664
34057016
35142050
36322468
37564967
38943852
40436554
42011676
43679536
45470824
47337109
49256734
51199571
53125905
54985618
56717907
58251817
59507866
60401005
60845085
60758799
60072839
58737688
56731128
54064343
50785396
46979060
42762456
38276665
33675172
29110755
24722472
20623437
16958304
13711337
10889095
26472406
26418914
26433989
26513452
26654648
26855569
27114846
27431696
27805977
28238213
28729619
29282083
29898151
30580993
31334357
32162523
33070242
34062703
35145466
36324259
37565810
38944202
40437562
41991874
43684033
45479514
47351420
49278251
51230004
53167036
55039219
56785637
58335086
59607676
60517779
60978498
60907633
60234892
58909762
56909130
54243494
50960558
47145142
42914840
38411627
33790180
29204628
24795346
20676258
16987860
13731220
10897319
26587074
26521169
26525088
26594502
26726614
26919274
27170992
27480902
27848794
28275137
28761105
29308561
29920024
30598646
31348174
32172895
33077599
34067530
35148301
36325661
37566379
38944339
40438273
41994031
43687769
45486914
47363733
49296865
51256416
53202807
55085904
56844691
58407748
59694829
60619799
61095103
61037757
60376605
59060259
57064815
54400168
51113705
47290291
43047928
38529389
33890404
29286329
24858899
20723728
17011059
13747184
10903679
26686613
26609904
26604107
26664776
26788985
26974465
27219621
27523510
27885860
28307088
28788338
29331449
29938919
30613886
31360089
32181829
33083924
34071665
35150709
36326826
37566822
38944413
40438849
41995860
43690955
45493278
47374357
49312951
51279262
53233765
55126323
56895834
58470690
59770335
60708195
61196144
61150516
60499402
59190654
57199678
54535848
51246271
47415847
43162960
38631058
33976803
29356649
24913698
20767521
17027034
13759201
10908413
26772044
26686025
26671869
26725023
26842443
27021761
27261291
27560021
27917626
28334469
28811672
29351060
29955112
30626950
31370310
32189502
33089370
34075241
35152809
36327864
37567248
38944534
40439407
41997500
43693756
45498806
47383542
49326821
51298927
53260383
55161048
56939746
58524707
59835110
60784003
61282770
61247158
60604613
59302333
57315134
54651939
51359621
47523089
43261124
38717697
34050298
29416336
24960052
20802619
17042773
13768364
10911810
26844310
26750391
26729146
26775939
26887620
27061731
27296513
27590895
27944497
28357637
28831421
29367668
29968838
30638041
31379007
32196056
33094052
34078354
35154685
36328852
37567727
38944770
40440025
41999040
43696286
45503647
47391480
49338724
51315730
53283060
55190570
56977022
58570506
59889979
60848166
61356036
61328842
60693483
59396604
57412524
54749786
51455070
47613320
43343579
38790345
34111788
29466131
24998507
20830757
17056747
13775360
10914040
26909056
26808031
26780419
26821516
26928062
27097520
27328067
27618570
27968607
28378434
28849160
29382601
29981202
30648057
31386893
32202036
33098370
34081280
35156516
36329901
37568332
38945178
40440790
42000642
43698790
45508225
47398843
49349644
51331041
53303629
55217261
57010640
58611733
59939294
60905760
61421728
61402007
60773007
59480880
57499501
54837077
51540114
47693602
43416819
38854736
34166145
29509991
25032148
20854786
17069273
13780955
10915357
26964363
26857240
26824178
26860421
26962602
27128112
27355071
27642294
27989316
28396322
28864443
29395506
29991932
30656803
31393843
32207381
33102318
34084063
35158388
36331130
37569205
38945913
40441857
42002448
43701400
45512615
47405634
49359487
51344640
53321718
55240565
57039834
58647384
59981794
60955254
61478043
61464590
60840891
59552679
57573455
54911145
51612109
47761401
43478493
38908769
34211556
29546417
25059806
20874075
17079443
13784879
10915614
27006221
26894460
26857259
26889848
26988753
27151306
27375590
27660367
28005151
28410026
28876184
29405466
30000272
30663667
31399372
32211722
33105629
34086519
35160184
36332468
37570300
38946945
40443172
42004350
43703960
45516528
47411396
49367580
51355589
53336066
55258850
57062551
58674946
60014475
60993144
61520986
61512149
60892312
59606899
57629131
54966731
51665976
47811934
43524264
38948662
34244868