/*--------------------------------*- C++ -*----------------------------------*\
| =========                 |                                                 |
| \\      /  F ield         | OpenFOAM: The Open Source CFD Toolbox           |
|  \\    /   O peration     | Version:  2312                                  |
|   \\  /    A nd           | Website:  www.openfoam.com                      |
|    \\/     M anipulation  |                                                 |
\*---------------------------------------------------------------------------*/
FoamFile
{
    version     2.0;
    format      ascii;
    arch        "LSB;label=32;scalar=64";
    class       volScalarField;
    location    "0.02";
    object      T;
}
// * * * * * * * * * * * * * * * * * * * * * * * * * * * * * * * * * * * * * //

dimensions      [0 0 0 1 0 0 0];

internalField   nonuniform List<scalar> 
3272
(
591.90201
595.87646
599.6746
603.29142
606.72208
609.9294
612.96439
615.86521
618.5909
621.13564
623.49942
625.68262
627.68592
629.51027
631.15691
632.62738
633.92357
635.04769
636.00235
636.7905
637.4155
637.87483
638.18308
638.34179
638.35406
638.22499
637.96
637.56478
637.0453
636.40772
635.65843
634.80397
633.85098
632.80619
631.67637
630.46827
629.1886
627.84399
626.44094
624.98577
623.48463
621.94344
620.36785
618.76325
617.13471
615.48699
613.82451
612.15131
610.47104
608.78674
607.10052
605.41684
603.73857
592.59192
596.57077
600.374
603.99865
607.44396
610.65998
613.70256
616.60925
619.3449
621.90063
624.27626
626.47206
628.4886
630.32674
631.98764
633.47278
634.78396
635.92331
636.89336
637.69699
638.33747
638.81193
639.13507
639.30873
639.33561
639.22077
638.96955
638.58761
638.08084
637.4554
636.71761
635.87399
634.93117
633.89586
632.77482
631.57479
630.30249
628.96455
627.56747
626.11763
624.62117
623.08404
621.51192
619.91024
618.28409
616.63826
614.97726
613.30534
611.62666
609.94531
608.25344
606.56769
604.8881
593.85546
597.84282
601.65673
605.29531
608.75818
611.99034
615.04895
617.96674
620.72131
623.29749
625.69505
627.91414
629.95518
631.81892
633.50637
635.01886
636.35806
637.52596
638.52494
639.35772
640.02747
640.53067
640.88197
641.0841
641.1389
641.05132
640.82659
640.47026
639.98814
639.3863
638.671
637.84869
636.92597
635.90949
634.80601
633.62225
632.36494
631.0407
629.65607
628.21742
626.73098
625.20271
623.63837
622.04339
620.42292
618.78173
617.12426
615.45455
613.77721
612.07867
610.39462
608.71166
607.03237
595.58837
599.58691
603.41484
607.07074
610.55416
613.80756
616.88897
619.82023
622.60136
625.20592
627.63377
629.88501
631.95997
633.8592
635.58357
637.13422
638.51261
639.72054
640.76016
641.63402
642.34514
642.88967
643.28073
643.52345
643.61821
643.56976
643.3832
643.06391
642.61758
642.05015
641.36778
640.57683
639.68381
638.69536
637.61815
636.45891
635.22433
633.92107
632.55565
631.13451
629.6639
628.14988
626.59826
625.01454
623.4039
621.77115
620.12074
618.45401
616.75828
615.07804
613.3959
611.71451
610.03568
597.69711
601.70769
605.551
609.22595
612.7325
616.01165
619.12216
622.06648
624.87982
627.51896
629.98377
632.27436
634.39094
636.3339
638.10388
639.70182
641.12891
642.38669
643.47701
644.40196
645.16378
645.76484
646.20475
646.49851
646.64399
646.6455
646.50785
646.23623
645.83612
645.3133
644.6738
643.92387
643.0699
642.11845
641.07614
639.94965
638.74565
637.47078
636.13159
634.73454
633.28595
631.79197
630.25853
628.69123
627.09523
625.47529
623.82732
622.14653
620.47948
618.80567
617.12839
615.45045
613.77365
600.09903
604.12087
607.97897
611.67259
615.20289
618.51348
621.65495
624.62478
627.46473
630.14262
632.64938
634.98493
637.14931
639.14269
640.96548
642.61833
644.10217
645.41824
646.56808
647.55352
648.37676
649.04049
649.541
649.89529
650.10141
650.16278
650.08394
649.86982
649.52568
649.0571
648.46992
647.77023
646.96432
646.05861
645.05966
643.97408
642.80849
641.5695
640.26368
638.89749
637.47731
636.00944
634.50001
632.95478
631.37882
629.76111
628.10831
626.46595
624.81097
623.14712
621.47781
619.80603
618.13365
602.72238
606.75341
610.62405
614.33246
617.87671
621.2523
624.41259
627.41203
630.27518
632.99475
635.5471
637.93188
640.14887
642.19801
644.07942
645.79348
647.34081
648.72234
649.93928
650.9932
651.88608
652.62035
653.19031
653.61345
653.88927
654.01957
654.00863
653.8611
653.58199
653.17664
652.65069
652.01003
651.26079
650.40927
649.4619
648.42521
647.30577
646.11013
644.84483
643.51632
642.13104
640.69544
639.21606
637.69918
636.12593
634.51629
632.91207
631.2884
629.64948
627.99925
626.34132
624.67885
623.01383
605.50581
609.54384
613.42608
617.15106
620.71811
624.12737
627.31977
630.35712
633.24044
636.00415
638.60484
641.042
643.31523
645.42424
647.36887
649.1492
650.76552
652.21841
653.50877
654.63782
655.60721
656.41921
657.06711
657.56583
657.91934
658.12669
658.19187
658.11923
657.91349
657.57971
657.1233
656.54992
655.86552
655.07622
654.18834
653.20828
652.14254
650.9976
649.77994
648.49597
647.15206
645.75476
644.31142
642.80028
641.25092
639.70001
638.12169
636.52077
634.90179
633.26893
631.62598
629.97626
628.32191
608.39661
612.43846
616.32974
620.06917
623.65642
627.09259
630.31887
633.40008
636.31276
639.11087
641.76135
644.25295
646.58498
648.75688
650.7682
652.61871
654.30836
655.83738
657.20625
658.41575
659.46695
660.36109
661.09945
661.67799
662.11539
662.40682
662.55541
662.56511
662.4403
662.18573
661.80651
661.30808
660.69615
659.97665
659.15574
658.23971
657.23493
656.14786
654.9849
653.7524
652.45652
651.10343
649.66875
648.20044
646.71995
645.20199
643.65307
642.07869
640.48358
638.87199
637.24774
635.61422
633.97341
611.35011
615.39184
619.28858
623.03875
626.64093
630.09269
633.38905
636.48527
639.43658
642.26398
644.96511
647.51238
649.90481
652.14162
654.22209
656.14567
657.91194
659.52076
660.97223
662.26673
663.40497
664.38804
665.21758
665.88524
666.41138
666.79326
667.03173
667.1304
667.09327
666.92478
666.62973
666.21325
665.68081
665.03814
664.29119
663.44611
662.50919
661.48681
660.38543
659.21157
657.97169
656.64336
655.27325
653.87195
652.42687
650.94414
649.42874
647.88543
646.31869
644.73262
643.13088
614.32907
618.36652
622.26512
626.02338
629.6403
633.11489
636.44684
639.5718
642.57606
645.42325
648.17383
650.77703
653.23056
655.5334
657.68456
659.68313
661.52836
663.21971
664.75687
666.13985
667.36898
668.44507
669.36971
670.13317
670.75158
671.22929
671.56319
671.75656
671.81306
671.73673
671.53203
671.20381
670.75723
670.19778
669.5312
668.76346
667.90072
666.94928
665.91568
664.80702
663.61228
662.34964
661.04986
659.69603
658.29623
656.85584
655.37978
653.87277
652.33929
650.78338
649.20815
617.30297
621.33188
625.22854
628.99166
632.62062
636.11511
639.47536
642.63277
645.6803
648.56462
651.35303
654.01155
656.52614
658.89539
661.11797
663.19263
665.11827
666.89394
668.51896
669.99287
671.31554
672.48712
673.50801
674.37831
675.09087
675.66724
676.10108
676.394
676.54919
676.57028
676.46136
676.22693
675.87186
675.40134
674.82088
674.13622
673.35331
672.47822
671.51681
670.47032
669.33095
668.15581
666.91521
665.61758
664.26983
662.87767
661.4463
659.98057
658.48504
656.96386
655.42018
620.24712
624.2631
628.15384
631.91809
635.55546
639.06615
642.4523
645.65087
648.72324
651.65232
654.47377
657.18738
659.76262
662.19803
664.49206
666.64316
668.64987
670.51086
672.22504
673.79155
675.20982
676.47962
677.6011
678.57515
679.39062
680.06695
680.60461
681.00112
681.25923
681.38216
681.37362
681.23775
680.97908
680.6025
680.11322
679.51672
678.81871
678.02527
677.14433
676.15034
675.11171
674.00142
672.82454
671.58757
670.29671
668.95765
667.57568
666.15577
664.70256
663.22032
661.71231
623.1418
627.14048
631.0212
634.78259
638.42392
641.9441
645.341
648.60808
651.69628
654.66989
657.51678
660.28292
662.91759
665.41822
667.78307
670.01028
672.09801
674.04457
675.84846
677.50839
679.02339
680.39274
681.61598
682.69267
683.62199
684.39683
685.04045
685.54359
685.90795
686.1363
686.23192
686.19857
686.04043
685.76205
685.36833
684.8644
684.25542
683.54537
682.72665
681.84494
680.88124
679.84212
678.73348
677.56136
676.33165
675.04997
673.72163
672.35166
670.94478
669.50534
668.03673
625.97161
629.94879
633.81561
637.57066
641.21321
644.74224
648.15648
651.45462
654.56503
657.59923
660.47721
663.28189
665.97387
668.53826
670.97279
673.2752
675.4433
677.47501
679.36843
681.12189
682.73395
684.2035
685.5297
686.71202
687.75069
688.63291
689.3812
689.99336
690.46652
690.80304
691.00579
691.07813
691.02387
690.84721
690.55276
690.14553
689.63144
689.02003
688.29417
687.48941
686.60341
685.63964
684.60324
683.49984
682.33512
681.11463
679.84369
678.52736
677.17042
675.77728
674.35147
628.7248
632.67647
636.52567
640.27099
643.91178
647.44728
650.87684
654.20052
657.34337
660.40849
663.33096
666.17027
668.91847
671.54506
674.04773
676.42396
678.67124
680.78712
682.76932
684.61575
686.32456
687.89422
689.3235
690.61142
691.75678
692.75641
693.60597
694.32817
694.91178
695.3584
695.67045
695.85086
695.90306
695.83089
695.63852
695.33016
694.90887
694.37285
693.75911
693.04639
692.24482
691.36089
690.40046
689.36926
688.27293
687.11699
685.90677
684.64736
683.34357
681.99987
680.61992
631.39263
635.31504
639.14305
642.87524
646.51093
650.04938
653.49016
656.83499
660.01557
663.10051
666.07396
668.94148
671.74314
674.42967
676.99848
679.44672
681.77153
683.97011
686.03978
687.97806
689.7827
691.45173
692.98346
694.37652
695.62969
696.74247
697.70206
698.53059
699.22554
699.7834
700.20613
700.49624
700.65675
700.69117
700.6036
700.39875
700.08192
699.64894
699.12011
698.49565
697.78005
696.97866
696.09709
695.14097
694.11591
693.0274
691.88076
690.68109
689.43324
688.14172
686.81031
633.96885
637.85853
641.66204
645.37783
649.00505
652.5425
655.98815
659.33825
662.58252
665.66655
668.70888
671.59976
674.44234
677.18624
679.81891
682.33702
684.73734
687.01671
689.1721
691.20064
693.09967
694.86679
696.49989
697.99717
699.35697
700.57779
701.6581
702.58817
703.39397
704.06343
704.59749
704.99816
705.26801
705.41014
705.42825
705.32718
705.11534
704.78049
704.34638
703.8137
703.18652
702.46999
701.6696
700.79091
699.83948
698.82077
697.74008
696.60252
695.41295
694.17594
692.89535
636.44926
640.3031
644.0791
647.77557
651.39158
654.92578
658.37618
661.74017
665.01534
668.12531
671.20273
674.13374
677.01192
679.81125
682.50552
685.09117
687.5647
689.92264
692.16161
694.27838
696.2699
698.13336
699.86626
701.46634
702.93171
704.26089
705.45381
706.49497
707.40665
708.18758
708.83295
709.34438
709.724
709.97435
710.09822
710.09804
709.97345
709.75437
709.4211
708.98291
708.44603
707.81608
707.09861
706.29915
705.42318
704.47613
703.46327
702.38971
701.26033
700.07974
638.83131
642.64657
646.3924
650.06697
653.6693
657.19808
660.65158
664.02799
667.32614
670.46358
673.56689
676.54313
679.45112
682.30373
685.05716
687.7078
690.25198
692.68598
695.00608
697.20871
699.29045
701.2481
703.07873
704.77972
706.34873
707.78383
709.08351
710.2457
711.25817
712.14815
712.90417
713.52597
714.01524
714.37419
714.6054
714.71183
714.69746
714.57166
714.3344
713.99019
713.54424
713.00187
712.36847
711.64946
710.85027
709.97623
709.0326
708.02447
706.95671
705.83382
641.11377
644.8881
648.60143
652.2518
655.83816
659.35921
662.81335
666.19916
669.51616
672.67981
675.79737
678.83636
681.76414
684.66482
687.47456
690.18738
692.79946
695.30678
697.70532
699.99116
702.16052
704.20984
706.1358
707.93538
709.6059
711.1451
712.5514
713.82458
714.947
715.93999
716.80556
717.53674
718.13488
718.60187
718.94011
719.1524
719.24234
719.2152
719.07449
718.82442
718.46974
718.01546
717.46677
716.82895
716.10733
715.30719
714.43373
713.49201
712.48691
711.42298
643.29643
647.02785
650.70669
654.33083
657.8991
661.41008
664.86204
668.25338
671.58457
674.77914
677.90351
681.00333
683.96066
686.89704
689.75973
692.53178
695.20886
697.78661
700.26071
702.62688
704.88102
707.01922
709.03777
710.93329
712.70272
714.34339
715.85315
717.23016
718.47143
719.5635
720.5339
721.37296
722.07856
722.65233
723.09639
723.41317
723.60536
723.67742
723.6334
723.47744
723.21401
722.84786
722.38402
721.82764
721.18392
720.45809
719.65528
718.78054
717.83872
716.83451
645.3799
649.06681
652.70951
656.30567
659.85398
663.35275
666.79971
670.19165
673.52289
676.77873
679.90526
683.03964
686.03418
689.00217
691.9154
694.74389
697.48305
700.12826
702.67488
705.11835
707.45423
709.67826
711.78642
713.77494
715.6404
717.37976
718.99049
720.4707
721.81981
723.01932
724.08816
725.03305
725.84417
726.52288
727.07107
727.49085
727.78355
727.95402
728.00614
727.94375
727.77105
727.49262
727.11331
726.63815
726.07222
725.42068
724.68859
723.88097
723.00267
647.36542
651.00659
654.61185
658.17862
661.70542
665.19035
668.63089
672.02365
675.36415
678.64819
681.79465
684.9549
687.9891
690.98406
693.94543
696.82752
699.6258
702.3354
704.95142
707.46902
709.88345
712.19012
714.38469
716.46304
718.42139
720.25633
721.96489
723.54452
724.99295
726.30671
727.47448
728.51724
729.43147
730.2128
730.86291
731.38403
731.77517
732.04278
732.18994
732.22004
732.13709
731.9455
731.64996
731.25537
730.76671
730.18903
729.52734
728.78662
727.97191
649.25471
652.84929
656.41611
659.95239
663.45648
666.92631
670.35925
673.75211
677.1013
680.40413
683.57077
686.75155
689.83253
692.84903
695.85456
698.78715
701.64148
704.41238
707.09464
709.68312
712.1728
714.5588
716.83643
719.00126
721.04917
722.97639
724.77954
726.45563
728.00194
729.4158
730.69539
731.82798
732.84169
733.72294
734.47216
735.0928
735.57986
735.94316
736.18379
736.30484
736.31021
736.20416
735.99124
735.67619
735.26389
734.75928
734.1673
733.4929
732.74127
651.04986
654.59731
658.12504
661.63004
665.11048
668.56417
671.98842
675.38018
678.73616
682.05342
685.23669
688.42339
691.57601
694.60802
697.6472
700.62746
703.5349
706.36401
709.10932
711.76541
714.327
716.7889
719.14615
721.394
723.52799
725.54402
727.43835
729.20766
730.84901
732.36009
733.74056
734.97214
736.07708
737.05553
737.90055
738.61439
739.19882
739.65619
739.98817
740.19819
740.29006
740.2679
740.13608
739.89921
739.56202
739.12935
738.60607
737.99706
737.3077
652.75321
656.25334
659.74162
663.21479
666.67088
670.10756
673.52209
676.91144
680.2725
683.60233
686.80315
690.00255
693.19656
696.25937
699.32807
702.35341
705.31112
708.19542
711.0006
713.72103
716.35113
718.88549
721.31884
723.64615
725.86264
727.9639
729.94585
731.80484
733.53763
735.14154
736.61447
737.95288
739.14359
740.21388
741.15269
741.9557
742.63607
743.18412
743.60473
743.90136
744.07762
744.13739
744.08487
743.9245
743.66089
743.29875
742.84287
742.29805
654.36732
657.82022
661.26893
664.70999
668.14124
671.56019
674.964
678.34961
681.71406
685.05497
688.27479
691.48501
694.71146
697.80714
700.90199
703.97014
706.9754
709.91192
712.77384
715.55533
718.25058
720.85392
723.35983
725.76299
728.05835
730.24116
732.30707
734.25207
736.07267
737.76588
739.32953
740.76288
742.04723
743.2016
744.23189
745.12847
745.89446
746.52952
747.03599
747.41672
747.675
747.8145
747.83921
747.75342
747.56158
747.26832
746.87836
746.39694
655.89487
659.30089
662.71019
666.11906
669.52515
672.92579
676.31796
679.69842
683.06402
686.41301
689.65777
692.87461
696.12841
699.25765
702.37452
705.48307
708.53313
711.51893
714.43449
717.2738
720.03085
722.69972
725.27464
727.75003
730.12058
732.38124
734.52736
736.55465
738.45929
740.23799
741.88805
743.4072
744.79128
746.02689
747.1407
748.12502
748.97634
749.69582
750.28537
750.74752
751.08528
751.30208
751.40173
751.38835
751.26627
751.04
750.71418
750.29429
657.33863
660.69838
664.06864
667.44544
670.82625
674.20817
677.58791
680.96177
684.32532
687.67036
690.96482
694.17791
697.45067
700.61859
703.75222
706.89772
709.98971
713.02187
715.98802
718.88198
721.69751
724.42848
727.06889
729.61292
732.05497
734.38976
736.61233
738.71811
740.703
742.56339
744.29624
745.8992
747.37126
748.69433
749.88477
750.95265
751.88647
752.6874
753.35711
753.89783
754.31233
754.60382
754.77593
754.83262
754.77809
754.61672
754.35308
753.99276
658.70145
662.01575
665.34754
668.69261
672.0482
675.41119
678.77797
682.14442
685.50542
688.85306
692.1756
695.39627
698.67423
701.90288
705.04331
708.21925
711.35043
714.42607
717.43984
720.38533
723.25611
726.04582
728.74824
731.35732
733.86723
736.27242
738.56768
740.74817
742.80948
744.74771
746.55948
748.2419
749.79241
751.20671
752.4752
753.61713
754.63013
755.50928
756.25602
756.87231
757.36065
757.72407
757.96601
758.09026
758.1009
758.00221
757.79864
757.49586
659.98621
663.25608
666.55015
669.86397
673.19459
676.53864
679.89227
683.25104
686.60974
689.96183
693.30129
696.53335
699.82227
703.09159
706.25265
709.45287
712.62036
715.73672
718.79524
721.78924
724.71211
727.55727
730.31829
732.98891
735.56306
738.03498
740.39918
742.65059
744.78452
746.79677
748.68364
750.44189
752.06859
753.56068
754.91654
756.12527
757.21289
758.16682
758.98735
759.67607
760.23526
760.66773
760.97674
761.16593
761.23926
761.20087
761.05514
760.80777
661.19579
664.42244
667.67969
670.96292
674.26897
677.59427
680.93473
684.28578
687.64228
690.99857
694.3499
697.59431
700.89585
704.19518
707.38058
710.60269
713.80427
716.95882
720.05935
723.09897
726.07085
728.96825
731.78454
734.51325
737.14811
739.68313
742.11259
744.43116
746.63392
748.7164
750.6746
752.50503
754.20462
755.77085
757.20352
758.48642
759.64031
760.66566
761.55666
762.31463
762.94157
763.44011
763.81335
764.06477
764.1982
764.21766
764.12744
763.93327
662.33306
665.51785
668.7393
671.99273
675.27476
678.58163
681.90907
685.2524
688.60657
691.96632
695.32708
698.58357
701.89703
705.22115
708.43103
711.67299
714.90676
718.09719
721.23714
724.31959
727.33753
730.28407
733.15238
735.93582
738.62793
741.22248
743.71357
746.09563
748.36349
750.51243
752.53822
754.4371
756.20583
757.84173
759.34298
760.7066
761.91948
763.01167
763.96976
764.79372
765.48528
766.04687
766.48142
766.79229
766.98316
767.05796
767.02086
766.87762
663.40079
666.5453
669.73209
672.95662
676.2153
679.50416
682.81878
686.15441
689.50602
692.86852
696.23723
699.505
702.82899
706.17506
709.40866
712.66822
715.93241
719.15652
722.33343
725.45602
728.51718
731.50984
734.42704
737.26194
740.00791
742.65854
745.20771
747.64964
749.97894
752.19066
754.28032
756.24394
758.07809
759.77987
761.34713
762.77797
764.05875
765.21056
766.23256
767.11928
767.8723
768.49387
768.9868
769.3543
769.59992
769.72749
769.74106
769.64644
664.40156
667.50766
670.66105
673.85769
677.09379
680.36515
683.66724
686.99521
690.34402
693.7086
697.08418
700.36226
703.6952
707.06139
710.31808
713.59291
716.88571
720.14137
723.35285
726.513
729.61462
732.65051
735.61355
738.49675
741.29331
743.99664
746.60044
749.09871
751.48587
753.75675
755.90663
757.93134
759.82722
761.59118
763.22076
764.7136
766.06512
767.26921
768.35121
769.29737
770.10866
770.78716
771.33551
771.7568
772.05446
772.23221
772.294
772.24567
665.33797
668.40763
671.52911
674.69898
677.91332
681.16777
684.45766
687.77804
691.12384
694.48993
697.87145
701.1588
704.49903
707.88386
711.16386
714.45165
717.77107
721.05611
724.29984
727.49507
730.6345
733.71082
736.71678
739.64523
742.48922
745.24198
747.89704
750.44823
752.88976
755.21626
757.42282
759.50503
761.45902
763.28152
764.96982
766.52169
767.93599
769.19658
770.33158
771.33407
772.20049
772.93286
773.53368
774.00593
774.35292
774.57827
774.68583
774.68144
657.4985
660.33665
663.24188
666.21466
669.24832
672.33917
675.48341
678.67688
681.91505
685.19312
688.50603
691.84863
695.21575
698.60237
701.89793
705.24359
708.64519
711.9507
715.24924
718.59265
721.90492
725.17865
728.40656
731.58127
734.69533
737.74138
740.71215
743.6005
746.39954
749.10262
751.70341
754.19593
756.57462
758.83438
760.9706
762.97921
764.85673
766.60028
768.20774
769.67894
770.99743
772.1803
773.23553
774.15394
774.93715
775.58752
776.10791
776.50155
776.77193
776.92279
776.96004
658.44835
661.23714
664.09976
667.03294
670.03235
673.09401
676.21381
679.38734
682.60991
685.87657
689.18216
692.52144
695.88915
699.28016
702.5829
705.93179
709.34633
712.68418
715.99101
719.35419
722.69173
725.99329
729.2516
732.45914
735.60839
738.69183
741.70207
744.63186
747.47413
750.22211
752.86928
755.40952
757.83708
760.14667
762.3335
764.39333
766.32246
768.11785
769.77711
771.29855
772.67759
773.90507
775.00771
775.9751
776.80618
777.50323
778.06898
778.5066
778.81947
779.01121
779.08783
659.33595
662.07791
664.89919
667.79526
670.76233
673.79632
676.8929
680.04746
683.25514
686.51084
689.80929
693.14515
696.51308
699.9079
703.21711
706.56697
709.98417
713.37226
716.68185
720.05981
723.42031
726.74759
730.03408
733.27215
736.45412
739.57237
742.61939
745.58778
748.47037
751.26023
753.9507
756.53549
759.0087
761.36488
763.59905
765.70679
767.68423
769.52815
771.23598
772.80593
774.23686
775.51165
776.65661
777.67006
778.5461
779.28698
779.89536
780.37435
780.72723
780.95743
781.07121
660.16347
662.86114
665.64309
668.50423
671.44083
674.4487
677.52331
680.65989
683.8534
687.09861
690.39013
693.72249
697.0903
700.48849
703.80417
707.15518
710.58227
713.99871
717.32087
720.71241
724.09405
727.44511
730.75773
734.02411
737.23646
740.38706
743.46826
746.47257
749.39268
752.22152
754.95232
757.57863
760.0944
762.49402
764.77236
766.92482
768.94738
770.83663
772.58986
774.20521
775.68244
777.00538
778.18871
779.24484
780.16295
780.94488
781.5932
782.111
782.50153
782.76785
782.91658
660.93351
663.58936
666.33416
669.16245
672.07039
675.05367
678.10758
681.22717
684.40726
687.64247
690.92727
694.25604
697.62334
701.02446
704.34744
707.69978
711.13754
714.57365
717.91046
721.31487
724.71618
728.08924
731.42605
734.71865
737.95916
741.13975
744.25267
747.29031
750.24526
753.11032
755.8786
758.54351
761.09888
763.53893
765.85839
768.0525
770.11708
772.04857
773.84408
775.50144
777.01902
778.39176
779.61157
780.70521
781.66267
782.48294
783.16855
783.72269
784.14885
784.44933
784.63087
661.6486
664.26513
666.97497
669.77241
672.65348
675.61367
678.64813
681.75174
684.91916
688.14487
691.42316
694.74823
698.11443
701.51757
704.85042
708.20376
711.65082
715.10251
718.45371
721.87014
725.28974
728.68318
732.04234
735.3592
738.62576
741.8341
744.97639
748.04491
751.03214
753.93079
756.73382
759.43455
762.02666
764.50424
766.86189
769.0947
771.19834
773.1691
775.00392
776.70043
778.25688
779.67184
780.92986
782.05699
783.0511
783.90706
784.62738
785.21548
662.31126
664.89092
667.56797
670.33655
673.19247
676.13107
679.14732
682.23594
685.39146
688.60817
691.88017
695.20138
698.56558
701.96808
705.31755
708.66997
712.12438
715.58901
718.95364
722.38105
725.81767
729.22995
732.60976
735.949
739.23962
742.4736
745.64302
748.74008
751.75716
754.68687
757.52206
760.25594
762.88207
765.39442
767.78745
770.05613
772.19599
774.20316
776.07445
777.80733
779.40003
780.85216
782.14893
783.30604
784.33394
785.22302
785.97562
662.92395
665.46914
668.11556
670.85719
673.68967
676.60814
679.6074
682.68203
685.82638
689.0346
692.30057
695.6178
698.97894
702.37272
705.75623
709.10128
712.56058
716.03615
719.41306
722.85039
726.30275
729.73242
733.13127
736.49114
739.80393
743.06153
746.25597
749.37935
752.42397
755.38233
758.24721
761.0117
763.66925
766.21373
768.63946
770.9413
773.11465
775.15552
777.06056
778.82711
780.45319
781.9373
783.27452
784.45856
785.51664
786.43643
787.2195
663.48906
666.00215
668.62001
671.33659
674.1473
677.04707
680.03054
683.09214
686.22608
689.42633
692.68656
695.99991
699.35832
702.74961
706.15265
709.49803
712.96146
716.44652
719.83458
723.28075
726.74764
730.19333
733.60969
736.98853
740.3217
743.60103
746.81847
749.96606
753.03602
756.02077
758.91299
761.70567
764.39217
766.96624
769.42213
771.75455
773.95879
776.03074
777.96694
779.7646
781.4216
782.93641
784.30745
785.51973
786.6045
787.55272
788.36392
664.00889
666.49221
669.08355
671.77693
674.56749
677.44996
680.41881
683.46834
686.59259
689.78541
693.04023
696.34993
699.70616
703.09766
706.5127
709.86142
713.32891
716.82242
720.22059
723.6746
727.15485
730.61525
734.04768
737.44393
740.79578
744.09505
747.33359
750.50341
753.59662
756.60559
759.52291
762.34149
765.05459
767.65587
770.13947
772.50001
774.73267
776.83323
778.7981
780.62441
782.30995
783.85331
785.25412
786.49417
787.6028
788.57727
789.41433
664.48561
666.94147
669.50831
672.18031
674.95231
677.81883
680.77421
683.81258
686.92788
690.11379
693.36359
696.66994
700.02449
703.41717
706.84023
710.19325
713.6648
717.16596
720.57334
724.03426
727.52674
731.00062
734.44776
737.85993
741.22888
744.54638
747.80424
750.99439
754.10889
757.14003
760.08034
762.92264
765.66011
768.28633
770.79533
773.18165
775.44037
777.56717
779.55837
781.41098
783.12273
784.69227
786.11972
787.38673
788.51668
789.51526
790.376
664.92124
667.35197
669.89634
672.54875
675.30373
678.15563
681.09863
684.12675
687.23381
690.41334
693.6585
696.96183
700.31508
703.70921
707.13805
710.4955
713.97103
717.47917
720.89491
724.36191
727.86556
731.35175
734.81231
738.23901
741.62356
744.95768
748.23316
751.44186
754.57579
757.62718
760.58847
763.45243
766.21215
768.86115
771.39337
773.80326
776.08581
778.2366
780.25187
782.12854
783.86427
785.45759
786.90863
788.20227
789.35123
790.37159
791.25397
665.31769
667.72562
670.24965
672.88422
675.62368
678.46221
681.3939
684.41264
687.51214
690.68582
693.92672
697.22734
700.57957
703.97512
707.40841
710.77008
714.24939
717.76392
721.18728
724.6596
728.17342
731.6708
735.14357
738.58348
741.98222
745.33146
748.62296
751.84853
755.00013
758.06993
761.05032
763.93399
766.71398
769.38372
771.93708
774.36843
776.67269
778.84535
780.88257
782.78117
784.53873
786.15356
787.62448
788.94558
790.11169
791.15088
792.05305
655.67821
657.40497
659.27405
661.27946
663.41456
665.67724
668.06453
670.57021
673.18863
675.91398
678.74037
681.66175
684.67195
687.76456
690.93291
694.16994
697.46813
700.81954
704.21638
707.65324
711.0188
714.50166
718.02202
721.45228
724.92926
728.4523
731.95983
735.44367
738.89555
742.30714
745.67009
748.9761
752.21696
755.38458
758.47107
761.46877
764.37032
767.16868
769.85724
772.42978
774.88061
777.20457
779.39709
781.45424
783.37277
785.15015
786.78458
788.27468
789.61812
790.80177
791.85765
792.77785
656.13178
657.82638
659.66683
661.64637
663.75925
666.00197
668.37077
670.85995
673.46379
676.1764
678.9918
681.90386
684.90631
687.99267
691.15618
694.38971
697.68574
701.03647
704.43446
707.87429
711.24336
714.72949
718.25515
721.69167
725.17271
728.70408
732.22077
735.71461
739.1773
742.60048
745.9758
749.29491
752.54957
755.73164
758.8332
761.84654
764.76423
767.5792
770.28475
772.87462
775.34306
777.68483
779.89531
781.97048
783.90703
785.70237
787.35461
788.86245
790.22502
791.42543
792.49622
793.43281
656.54041
658.2062
660.02076
661.97695
664.0695
666.29407
668.64633
671.12072
673.71147
676.41263
679.21813
682.1218
685.11727
688.198
691.35714
694.58753
697.88164
701.2318
704.63079
708.07314
711.44535
714.93447
718.46492
721.90709
725.39167
728.93053
732.45546
735.95828
739.43068
742.86429
746.25071
749.58159
752.84865
756.04372
759.15882
762.18621
765.11841
767.94831
770.66914
773.27461
775.75889
778.11669
780.34332
782.43472
784.3875
786.19903
787.86736
789.39132
790.77063
791.98669
793.07073
794.02214
656.90653
658.54656
660.33788
662.2732
664.34738
666.55562
668.89311
671.35431
673.93337
676.62428
679.42093
682.31708
685.3063
688.38198
691.53722
694.76479
698.05721
701.40689
704.80676
708.25126
711.62628
715.11809
718.65285
722.1001
725.58774
729.13331
732.66561
736.17646
739.65755
743.10047
746.49683
749.83823
753.11637
756.32306
759.45027
762.49023
765.43541
768.27866
771.01317
773.63259
776.13105
778.5032
780.7443
782.85023
784.81755
786.64358
788.32635
789.86476
791.25887
792.48942
793.58516
794.5499
657.23264
658.84978
660.62039
662.53715
664.59491
666.78855
669.11293
671.56241
674.13109
676.8129
679.60168
682.49113
685.4748
688.54599
691.69775
694.92284
698.21376
701.56303
704.96368
708.41002
711.78753
715.28176
718.82038
722.27215
725.76245
729.31398
732.85284
736.37084
739.85964
743.31085
746.71603
750.06679
753.35479
756.5718
759.70978
762.7609
765.71763
768.57276
771.31943
773.95126
776.46233
778.84726
781.10124
783.2201
785.20038
787.03932
788.73495
790.2862
791.69333
792.93738
794.04333
795.01996
657.52125
659.11812
660.87041
662.77078
664.81398
666.99468
669.30748
671.74664
674.30617
676.97996
679.76178
682.64533
685.62408
688.69131
691.84002
695.06292
698.35255
701.70147
705.10278
708.55073
711.93043
715.4268
718.96885
722.42464
725.91724
729.47404
733.01869
736.54299
740.03861
743.49713
746.91011
750.26913
753.56582
756.79195
759.93944
763.00043
765.96736
768.83297
771.59039
774.23319
776.75541
779.15162
781.41699
783.54729
785.53902
787.38938
789.09637
790.65888
792.07731
793.33416
794.4489
795.43601
657.77469
659.35375
661.08998
662.97597
665.00639
667.17574
669.4784
671.90854
674.46008
677.12684
679.90259
682.78096
685.75542
688.81919
691.96522
695.18622
698.47474
701.82337
705.22527
708.6746
712.05621
715.55448
719.09955
722.55887
726.05344
729.61486
733.16459
736.69442
740.19602
743.66094
747.08075
750.447
753.75131
756.98542
760.14124
763.21088
766.18673
769.06154
771.82838
774.48079
777.01278
779.41889
781.69426
783.83458
785.83636
787.69674
789.41368
790.98596
792.4138
793.68329
794.80537
795.80155
657.99514
659.55872
661.28101
663.15452
665.17385
667.33334
669.62723
672.04956
674.5942
677.25489
680.02535
682.89925
685.87
688.93077
692.0745
695.29387
698.58143
701.92983
705.33224
708.78276
712.16604
715.66597
719.21366
722.67607
726.17232
729.73776
733.29189
736.82653
740.33331
743.80379
747.22952
750.60205
753.91297
757.15401
760.31705
763.39419
766.3778
769.26058
772.0356
774.69636
777.23683
779.65154
781.93557
784.08462
786.09513
787.96423
789.68979
791.27046
792.70542
793.98827
795.11607
796.11987
658.18455
659.73498
661.44532
663.30815
665.31796
667.46901
669.75541
672.1711
674.70985
677.36533
680.13128
683.00135
685.96892
689.02715
692.16892
695.38691
698.67367
702.02189
705.42474
708.87628
712.26099
715.76236
719.31232
722.77739
726.27507
729.84395
733.40187
736.94063
740.45185
743.92711
747.35792
750.73582