/*--------------------------------*- C++ -*----------------------------------*\
| =========                 |                                                 |
| \\      /  F ield         | OpenFOAM: The Open Source CFD Toolbox           |
|  \\    /   O peration     | Version:  2312                                  |
|   \\  /    A nd           | Website:  www.openfoam.com                      |
|    \\/     M anipulation  |                                                 |
\*---------------------------------------------------------------------------*/
FoamFile
{
    version     2.0;
    format      ascii;
    arch        "LSB;label=32;scalar=64";
    class       volVectorField;
    location    "0.02";
    object      U;
}
// * * * * * * * * * * * * * * * * * * * * * * * * * * * * * * * * * * * * * //

dimensions      [0 1 -1 0 0 0 0];

internalField   nonuniform List<vector> 
3272
(
(0.9954592 -1.4022511 0)
(0.98521664 -1.4142399 0)
(0.97454288 -1.4245556 0)
(0.96347868 -1.433281 0)
(0.95236141 -1.4404273 0)
(0.94117902 -1.4458272 0)
(0.92961306 -1.44953 0)
(0.91764991 -1.4516383 0)
(0.90538888 -1.4522345 0)
(0.89290164 -1.4513581 0)
(0.88020641 -1.4490505 0)
(0.86731764 -1.4453596 0)
(0.85425136 -1.4403373 0)
(0.84102425 -1.434039 0)
(0.82765374 -1.4265223 0)
(0.81415796 -1.4178473 0)
(0.80055568 -1.4080756 0)
(0.78686609 -1.3972702 0)
(0.77310867 -1.3854947 0)
(0.759303 -1.372813 0)
(0.74546791 -1.3592891 0)
(0.73161964 -1.3449871 0)
(0.71777791 -1.3299734 0)
(0.70396309 -1.3143094 0)
(0.69019112 -1.2980565 0)
(0.67647809 -1.2812753 0)
(0.66283954 -1.2640251 0)
(0.64929011 -1.2463632 0)
(0.6358435 -1.2283452 0)
(0.62251236 -1.2100248 0)
(0.60930832 -1.1914532 0)
(0.59624192 -1.1726795 0)
(0.58332259 -1.1537506 0)
(0.57055865 -1.1347107 0)
(0.55795737 -1.1156017 0)
(0.5455249 -1.0964629 0)
(0.5332664 -1.0773311 0)
(0.52118599 -1.0582407 0)
(0.50928685 -1.0392234 0)
(0.49757124 -1.0203088 0)
(0.48604052 -1.0015238 0)
(0.47469516 -0.98289328 0)
(0.46353482 -0.96443987 0)
(0.45255835 -0.94618431 0)
(0.44176395 -0.92814561 0)
(0.43114924 -0.91034112 0)
(0.42071149 -0.89278669 0)
(0.41044762 -0.87549655 0)
(0.4003541 -0.85848315 0)
(0.39042659 -0.84175703 0)
(0.38066083 -0.82532765 0)
(0.3710526 -0.80920445 0)
(0.36160151 -0.79339515 0)
(1.0029777 -1.3708808 0)
(0.9928443 -1.3820701 0)
(0.98232933 -1.3915247 0)
(0.97148107 -1.3992284 0)
(0.96043595 -1.4051889 0)
(0.94918201 -1.4095187 0)
(0.93760712 -1.4122411 0)
(0.92568379 -1.4133639 0)
(0.91345085 -1.4129321 0)
(0.90096751 -1.4109952 0)
(0.88825607 -1.4076052 0)
(0.87533359 -1.4028175 0)
(0.86221792 -1.3966902 0)
(0.84892743 -1.3892843 0)
(0.83548087 -1.3806626 0)
(0.82189744 -1.3708894 0)
(0.80819681 -1.3600306 0)
(0.79439898 -1.3481529 0)
(0.78052427 -1.3353237 0)
(0.76659312 -1.3216105 0)
(0.75262516 -1.3070811 0)
(0.73863699 -1.2918026 0)
(0.72464918 -1.2758419 0)
(0.71068318 -1.2592645 0)
(0.69675556 -1.2421348 0)
(0.6828831 -1.2245155 0)
(0.66908204 -1.2064677 0)
(0.65536767 -1.1880507 0)
(0.64175434 -1.1693215 0)
(0.62825531 -1.150335 0)
(0.61488277 -1.1311435 0)
(0.6016478 -1.1117968 0)
(0.58856034 -1.0923424 0)
(0.5756292 -1.0728248 0)
(0.56286205 -1.0532858 0)
(0.55026548 -1.0337648 0)
(0.53784503 -1.014298 0)
(0.52560521 -0.99491936 0)
(0.51354956 -0.9756599 0)
(0.50168068 -0.95654811 0)
(0.49000023 -0.93760988 0)
(0.47850895 -0.91886868 0)
(0.46720656 -0.90034569 0)
(0.45609185 -0.8820601 0)
(0.4451628 -0.86402936 0)
(0.43441682 -0.84626942 0)
(0.423851 -0.82879476 0)
(0.41346263 -0.8116183 0)
(0.40324961 -0.79475053 0)
(0.39320901 -0.778199 0)
(0.38333445 -0.76197117 0)
(0.37361987 -0.74607408 0)
(0.36406598 -0.73051429 0)
(1.0167139 -1.352461 0)
(1.0067473 -1.3630441 0)
(0.99641265 -1.3718552 0)
(0.98574349 -1.3788912 0)
(0.97478168 -1.3841795 0)
(0.96351731 -1.3877985 0)
(0.95193386 -1.3897869 0)
(0.94000895 -1.3901679 0)
(0.92775622 -1.3889911 0)
(0.91523313 -1.3863009 0)
(0.90245877 -1.3821492 0)
(0.88944961 -1.3765937 0)
(0.87622472 -1.3696956 0)
(0.86280424 -1.361519 0)
(0.84920859 -1.3521293 0)
(0.83545858 -1.341594 0)
(0.82157534 -1.3299813 0)
(0.8075803 -1.3173605 0)
(0.79349507 -1.3038014 0)
(0.77934137 -1.289374 0)
(0.76514018 -1.2741483 0)
(0.75090975 -1.2581933 0)
(0.73667155 -1.2415766 0)
(0.72244789 -1.2243661 0)
(0.70825681 -1.2066277 0)
(0.69411625 -1.1884258 0)
(0.68004347 -1.1698228 0)
(0.6660548 -1.1508789 0)
(0.65216553 -1.1316523 0)
(0.63838981 -1.1121984 0)
(0.62474069 -1.0925705 0)
(0.61123002 -1.0728189 0)
(0.59786843 -1.0529911 0)
(0.5846654 -1.033132 0)
(0.57162921 -1.0132835 0)
(0.55876698 -0.99348487 0)
(0.54608477 -0.97377223 0)
(0.53358759 -0.95417909 0)
(0.52127947 -0.93473608 0)
(0.50916353 -0.9154711 0)
(0.49724193 -0.89640926 0)
(0.48551575 -0.87757302 0)
(0.47398488 -0.85898239 0)
(0.46264782 -0.84065536 0)
(0.45150196 -0.82260857 0)
(0.44054405 -0.80485757 0)
(0.42977095 -0.78741625 0)
(0.41918119 -0.77029512 0)
(0.40877537 -0.75350027 0)
(0.39855042 -0.73704063 0)
(0.38849829 -0.72092436 0)
(0.37861097 -0.7051573 0)
(0.36888795 -0.68974483 0)
(1.0361557 -1.3363254 0)
(1.0263736 -1.3462781 0)
(1.0162019 -1.3544305 0)
(1.0056654 -1.3607976 0)
(0.9947753 -1.3654091 0)
(0.98352419 -1.3683144 0)
(0.97192568 -1.3695539 0)
(0.95995362 -1.3691747 0)
(0.94762385 -1.3672303 0)
(0.93500455 -1.3637674 0)
(0.92210896 -1.3588378 0)
(0.90895061 -1.3525014 0)
(0.89554934 -1.3448221 0)
(0.88192704 -1.3358665 0)
(0.86810609 -1.3257026 0)
(0.85410919 -1.3144003 0)
(0.83995936 -1.3020302 0)
(0.82567982 -1.2886638 0)
(0.81129374 -1.274373 0)
(0.79682417 -1.2592302 0)
(0.78229421 -1.2433076 0)
(0.76772539 -1.2266761 0)
(0.75313981 -1.2094031 0)
(0.73855992 -1.1915593 0)
(0.72400595 -1.1732119 0)
(0.70949741 -1.1544267 0)
(0.69505299 -1.1352673 0)
(0.68069031 -1.115795 0)
(0.66642588 -1.0960688 0)
(0.652275 -1.0761449 0)
(0.63825174 -1.0560772 0)
(0.62436892 -1.0359163 0)
(0.61063806 -1.0157103 0)
(0.59706941 -0.99550404 0)
(0.58367196 -0.9753397 0)
(0.57045349 -0.9552563 0)
(0.55742064 -0.93528997 0)
(0.54457899 -0.91547394 0)
(0.53193319 -0.8958385 0)
(0.51948703 -0.87641104 0)
(0.50724345 -0.85721593 0)
(0.49520422 -0.83827451 0)
(0.48336934 -0.81960522 0)
(0.47173641 -0.80122469 0)
(0.46030102 -0.78314944 0)
(0.44905913 -0.76539526 0)
(0.43801059 -0.74797351 0)
(0.42716037 -0.73088803 0)
(0.41650518 -0.71414812 0)
(0.40603406 -0.69776416 0)
(0.39573984 -0.68174355 0)
(0.38561691 -0.66609179 0)
(0.37566541 -0.65081249 0)
(1.0608047 -1.3223483 0)
(1.051193 -1.3316459 0)
(1.0411509 -1.3391181 0)
(1.0307014 -1.3447894 0)
(1.0198522 -1.3486911 0)
(1.0085981 -1.3508573 0)
(0.99694762 -1.3513315 0)
(0.98487526 -1.3501963 0)
(0.97241173 -1.3474697 0)
(0.95963238 -1.3432155 0)
(0.94654921 -1.3374927 0)
(0.93317195 -1.3303638 0)
(0.91952107 -1.3218947 0)
(0.90562066 -1.3121541 0)
(0.89149535 -1.3012125 0)
(0.87717006 -1.2891416 0)
(0.86267 -1.2760145 0)
(0.84802048 -1.2619045 0)
(0.83324633 -1.2468856 0)
(0.81837189 -1.2310315 0)
(0.80342278 -1.2144159 0)
(0.78842607 -1.197111 0)
(0.7734034 -1.1791872 0)
(0.75837651 -1.1607164 0)
(0.74336923 -1.1417665 0)
(0.72840226 -1.1224044 0)
(0.71349617 -1.1026946 0)
(0.69867018 -1.0826994 0)
(0.68394219 -1.0624785 0)
(0.66932877 -1.0420891 0)
(0.6548452 -1.0215851 0)
(0.64050537 -1.001018 0)
(0.6263218 -0.98043579 0)
(0.6123056 -0.95988377 0)
(0.59846654 -0.939404 0)
(0.58481305 -0.9190355 0)
(0.57135236 -0.89881431 0)
(0.55809064 -0.87877348 0)
(0.54503319 -0.85894313 0)
(0.53218473 -0.83935033 0)
(0.51954943 -0.8200189 0)
(0.50713051 -0.80096886 0)
(0.49492823 -0.78221621 0)
(0.48293734 -0.76377547 0)
(0.47115004 -0.74566422 0)
(0.45956535 -0.72789622 0)
(0.44819402 -0.71047429 0)
(0.43703401 -0.6934097 0)
(0.42607009 -0.6767158 0)
(0.41529525 -0.66040005 0)
(0.40470526 -0.6444676 0)
(0.39429553 -0.62892196 0)
(0.38406593 -0.6137656 0)
(1.0902177 -1.3104345 0)
(1.0807396 -1.3190458 0)
(1.0707788 -1.3258061 0)
(1.060361 -1.3307465 0)
(1.0495048 -1.3339046 0)
(1.0382056 -1.3353159 0)
(1.0264207 -1.3350338 0)
(1.0141807 -1.3331191 0)
(1.001548 -1.3295912 0)
(0.98854241 -1.3245332 0)
(0.97519434 -1.318009 0)
(0.96151935 -1.3100824 0)
(0.94753938 -1.3008214 0)
(0.93328024 -1.2902966 0)
(0.91876884 -1.2785806 0)
(0.90403244 -1.2657469 0)
(0.88909853 -1.2518705 0)
(0.87399468 -1.2370265 0)
(0.85874824 -1.2212905 0)
(0.84338623 -1.2047376 0)
(0.82793637 -1.187442 0)
(0.81242675 -1.1694778 0)
(0.79688041 -1.1509184 0)
(0.78132219 -1.1318356 0)
(0.76577868 -1.1122987 0)
(0.75027184 -1.0923751 0)
(0.73482358 -1.0721301 0)
(0.71945474 -1.0516269 0)
(0.70418476 -1.0309258 0)
(0.68903168 -1.0100844 0)
(0.67401207 -0.98915727 0)
(0.659141 -0.96819592 0)
(0.64443204 -0.94724879 0)
(0.62989721 -0.9263611 0)
(0.61554705 -0.90557495 0)
(0.60139061 -0.8849293 0)
(0.58743563 -0.86446006 0)
(0.57368872 -0.84420024 0)
(0.56015573 -0.82417995 0)
(0.54684236 -0.80442646 0)
(0.53375487 -0.78496361 0)
(0.52089981 -0.76581029 0)
(0.50827858 -0.74697769 0)
(0.49587926 -0.72847445 0)
(0.48369198 -0.7103209 0)
(0.47173031 -0.69252034 0)
(0.45999409 -0.67508883 0)
(0.44846548 -0.65804498 0)
(0.43713922 -0.64139656 0)
(0.42601312 -0.62514731 0)
(0.41508346 -0.60929968 0)
(0.40434509 -0.59385551 0)
(0.39379697 -0.57881611 0)
(1.1239941 -1.300303 0)
(1.1145972 -1.3081922 0)
(1.1046595 -1.3142061 0)
(1.0942042 -1.3183806 0)
(1.0832558 -1.3207617 0)
(1.071806 -1.3213964 0)
(1.0598419 -1.3203357 0)
(1.0474097 -1.3176041 0)
(1.0345233 -1.3132641 0)
(1.021204 -1.3073979 0)
(1.0075087 -1.3000689 0)
(0.99345415 -1.2913431 0)
(0.9790626 -1.2812912 0)
(0.96436198 -1.2699859 0)
(0.94938174 -1.2575016 0)
(0.93415166 -1.2439139 0)
(0.91870168 -1.2292991 0)
(0.90306181 -1.2137339 0)
(0.88726192 -1.1972952 0)
(0.87133176 -1.1800594 0)
(0.85530117 -1.1621024 0)
(0.83919948 -1.1434995 0)
(0.82305211 -1.1243248 0)
(0.80688663 -1.10465 0)
(0.79073155 -1.084546 0)
(0.77461072 -1.064081 0)
(0.75854769 -1.0433212 0)
(0.74256491 -1.0223301 0)
(0.72668343 -1.0011684 0)
(0.71092275 -0.97989428 0)
(0.69530079 -0.95856242 0)
(0.67983385 -0.93722457 0)
(0.66453655 -0.9159292 0)
(0.64942186 -0.89472151 0)
(0.63450103 -0.87364346 0)
(0.61978367 -0.85273378 0)
(0.60527777 -0.83202817 0)
(0.59099005 -0.81155947 0)
(0.57692638 -0.79135795 0)
(0.563093 -0.77145159 0)
(0.54949912 -0.75186592 0)
(0.53615982 -0.73262132 0)
(0.52308374 -0.71372123 0)
(0.5102443 -0.69513666 0)
(0.49763596 -0.67691731 0)
(0.48526029 -0.65908583 0)
(0.47309723 -0.64166175 0)
(0.46114866 -0.62465122 0)
(0.44941796 -0.60805599 0)
(0.43790322 -0.59187704 0)
(0.42659906 -0.57611547 0)
(0.41549892 -0.56077207 0)
(0.40460026 -0.54584726 0)
(1.1617524 -1.2916452 0)
(1.1523667 -1.2987723 0)
(1.1423785 -1.3040026 0)
(1.1318082 -1.3073767 0)
(1.1206806 -1.3089465 0)
(1.1090047 -1.3087678 0)
(1.0967922 -1.3068798 0)
(1.0840742 -1.3033226 0)
(1.0708414 -1.2981857 0)
(1.0571275 -1.2915025 0)
(1.043002 -1.2833599 0)
(1.0284839 -1.273832 0)
(1.0135966 -1.2629909 0)
(0.99837081 -1.2509108 0)
(0.98283885 -1.2376676 0)
(0.9670333 -1.2233379 0)
(0.95098674 -1.2079994 0)
(0.93473173 -1.19173 0)
(0.91830066 -1.1746076 0)
(0.9017256 -1.1567097 0)
(0.88503849 -1.1381136 0)
(0.86827103 -1.1188954 0)
(0.85145187 -1.0991298 0)
(0.83460999 -1.0788877 0)
(0.8177751 -1.0582421 0)
(0.80097376 -1.0372613 0)
(0.78423113 -1.016012 0)
(0.76757138 -0.99455823 0)
(0.75101717 -0.972961 0)
(0.73458947 -0.95127844 0)
(0.71830756 -0.92956555 0)
(0.70218897 -0.90787405 0)
(0.68624944 -0.88625233 0)
(0.67050284 -0.86474538 0)
(0.65496118 -0.84339479 0)
(0.63963454 -0.82223878 0)
(0.62453103 -0.80131232 0)
(0.60965692 -0.78064745 0)
(0.595017 -0.76027388 0)
(0.58061591 -0.74021997 0)
(0.56646338 -0.72051613 0)
(0.55259155 -0.70119689 0)
(0.53906841 -0.68222455 0)
(0.52580618 -0.66351303 0)
(0.51271343 -0.64523581 0)
(0.49984025 -0.62741861 0)
(0.48720135 -0.61003734 0)
(0.47480158 -0.59308252 0)
(0.4626402 -0.57655325 0)
(0.45071152 -0.56045166 0)
(0.4390079 -0.54477985 0)
(0.4275214 -0.52953893 0)
(0.41624811 -0.51472849 0)
(1.203136 -1.2841644 0)
(1.1936786 -1.2904812 0)
(1.1835549 -1.2948854 0)
(1.1727816 -1.2974209 0)
(1.1613826 -1.2981438 0)
(1.1493901 -1.2971151 0)
(1.136834 -1.2943757 0)
(1.1237047 -1.2899911 0)
(1.1100397 -1.2840704 0)
(1.0958792 -1.2765544 0)
(1.0812358 -1.2675882 0)
(1.0661613 -1.2572576 0)
(1.050689 -1.245633 0)
(1.0348522 -1.2327883 0)
(1.0186853 -1.2187996 0)
(1.0022235 -1.2037447 0)
(0.98550194 -1.187702 0)
(0.96855558 -1.1707503 0)
(0.95141926 -1.1529683 0)
(0.93412721 -1.1344343 0)
(0.91671331 -1.115226 0)
(0.8992119 -1.0954201 0)
(0.88165602 -1.0750916 0)
(0.86407479 -1.0543123 0)
(0.84649863 -1.0331554 0)
(0.82895761 -1.0116897 0)
(0.81147813 -0.98998189 0)
(0.79408612 -0.96809594 0)
(0.77680586 -0.94609314 0)
(0.7596598 -0.92403165 0)
(0.74266853 -0.90196647 0)
(0.72585084 -0.87994921 0)
(0.7092236 -0.85802806 0)
(0.69280171 -0.83624766 0)
(0.67659811 -0.81464909 0)
(0.6606236 -0.79326982 0)
(0.64488669 -0.77214367 0)
(0.62939324 -0.75130111 0)
(0.61414593 -0.73076956 0)
(0.59914168 -0.71057374 0)
(0.58437292 -0.69074252 0)
(0.56994672 -0.67126289 0)
(0.5560418 -0.65200959 0)
(0.54231895 -0.6333972 0)
(0.52859886 -0.61523575 0)
(0.51516009 -0.59748448 0)
(0.50202988 -0.58015584 0)
(0.48917339 -0.56325598 0)
(0.4765724 -0.54679126 0)
(0.46421607 -0.53076675 0)
(0.45209621 -0.51518561 0)
(0.44020604 -0.50004808 0)
(0.42854067 -0.48535167 0)
(1.2478097 -1.2775677 0)
(1.2381796 -1.2830284 0)
(1.2278208 -1.2865707 0)
(1.2167473 -1.2882404 0)
(1.2049817 -1.2880894 0)
(1.1925764 -1.2861726 0)
(1.1795556 -1.2825335 0)
(1.1658704 -1.2772765 0)
(1.151703 -1.2706135 0)
(1.1370512 -1.262259 0)
(1.1217914 -1.2524636 0)
(1.1060618 -1.24134 0)
(1.0899142 -1.2289464 0)
(1.0733811 -1.2153541 0)
(1.0564979 -1.2006396 0)
(1.0393016 -1.1848815 0)
(1.0218296 -1.168159 0)
(1.0041192 -1.1505517 0)
(0.98620765 -1.1321389 0)
(0.96813165 -1.1129993 0)
(0.94992737 -1.0932109 0)
(0.93163122 -1.0728501 0)
(0.91327862 -1.0519924 0)
(0.89490027 -1.0307111 0)
(0.87652802 -1.0090781 0)
(0.85819466 -0.98716304 0)
(0.83992848 -0.96503203 0)
(0.82175664 -0.94274903 0)
(0.80370477 -0.9203753 0)
(0.78579672 -0.89796894 0)
(0.76805446 -0.87558477 0)
(0.75049797 -0.85327418 0)
(0.73314526 -0.83108503 0)
(0.71601234 -0.80906154 0)
(0.6991132 -0.78724421 0)
(0.68245973 -0.7656697 0)
(0.66606147 -0.74437063 0)
(0.64992528 -0.72337531 0)
(0.63405556 -0.70270713 0)
(0.6184464 -0.68237906 0)
(0.60315167 -0.66237293 0)
(0.58841611 -0.64267346 0)
(0.57370547 -0.62356864 0)
(0.55900331 -0.60506813 0)
(0.54484495 -0.5869501 0)
(0.53100153 -0.56922153 0)
(0.51741767 -0.55191992 0)
(0.5040994 -0.53506299 0)
(0.4910416 -0.5186592 0)
(0.47823822 -0.5027125 0)
(0.46568431 -0.48722449 0)
(1.2954316 -1.2715519 0)
(1.2855092 -1.2761121 0)
(1.274798 -1.2787558 0)
(1.2633203 -1.2795326 0)
(1.2511084 -1.2784937 0)
(1.238227 -1.2756937 0)
(1.2246579 -1.2711993 0)
(1.2101797 -1.2650802 0)
(1.1953771 -1.2574008 0)
(1.1802492 -1.2482634 0)
(1.164273 -1.2377095 0)
(1.1477787 -1.2258255 0)
(1.1308681 -1.2126865 0)
(1.113558 -1.1983694 0)
(1.0958813 -1.1829535 0)
(1.0778763 -1.1665189 0)
(1.0595827 -1.1491457 0)
(1.0410403 -1.1309141 0)
(1.0222886 -1.1119037 0)
(1.0033668 -1.0921934 0)
(0.98431338 -1.0718611 0)
(0.96516658 -1.0509834 0)
(0.94596367 -1.0296361 0)
(0.92673764 -1.0078928 0)
(0.90752182 -0.98582377 0)
(0.88835086 -0.96349888 0)
(0.86925526 -0.940984 0)
(0.85026304 -0.91834306 0)
(0.83140114 -0.89563713 0)
(0.81269477 -0.87292402 0)
(0.79416717 -0.85025823 0)
(0.77583951 -0.82769077 0)
(0.75773091 -0.80526904 0)
(0.73985845 -0.78303678 0)
(0.72223725 -0.76103383 0)
(0.70488058 -0.73929618 0)
(0.68779993 -0.71785577 0)
(0.67100532 -0.69674053 0)
(0.65451209 -0.67597474 0)
(0.63836549 -0.65557914 0)
(0.62259153 -0.63554733 0)
(0.60687849 -0.61594897 0)
(0.59133518 -0.59702795 0)
(0.57631923 -0.5783892 0)
(0.56167612 -0.5601794 0)
(0.54730754 -0.54243943 0)
(0.5332178 -0.52516657 0)
(0.51940734 -0.50836418 0)
(0.50587209 -0.49203414 0)
(0.49260612 -0.47617695 0)
(0.47960534 -0.46079204 0)
(1.3456698 -1.2658277 0)
(1.3353306 -1.2694436 0)
(1.3241428 -1.2711481 0)
(1.3121345 -1.2709962 0)
(1.2993425 -1.2690458 0)
(1.2858177 -1.2653604 0)
(1.2715815 -1.2600194 0)
(1.2565979 -1.2530542 0)
(1.2410361 -1.2443757 0)
(1.224935 -1.2344479 0)
(1.2081877 -1.2231385 0)
(1.1909071 -1.2105063 0)
(1.1731697 -1.1966406 0)
(1.1550104 -1.1816223 0)
(1.136468 -1.1655324 0)
(1.1175846 -1.1484518 0)
(1.0984027 -1.1304614 0)
(1.078965 -1.1116413 0)
(1.0593136 -1.0920712 0)
(1.0394897 -1.0718297 0)
(1.019534 -1.0509946 0)
(0.99948634 -1.029642 0)
(0.97938543 -1.0078476 0)
(0.95926758 -0.98568534 0)
(0.93916778 -0.96322486 0)
(0.91912145 -0.94053395 0)
(0.89916071 -0.91767854 0)
(0.87931442 -0.89472262 0)
(0.85961095 -0.87172694 0)
(0.84007685 -0.84874888 0)
(0.82073652 -0.82584245 0)
(0.8016122 -0.80305822 0)
(0.78272406 -0.78044318 0)
(0.76409022 -0.75804065 0)
(0.74572677 -0.73589028 0)
(0.72764778 -0.71402818 0)
(0.70986497 -0.69248773 0)
(0.69238693 -0.6713005 0)
(0.67521972 -0.65049359 0)
(0.65839316 -0.63008261 0)
(0.64188943 -0.61012606 0)
(0.62559051 -0.59068076 0)
(0.60958964 -0.57156435 0)
(0.59400753 -0.55287936 0)
(0.57877245 -0.53469022 0)
(0.56385191 -0.51699088 0)
(0.5492365 -0.49977896 0)
(0.53492052 -0.48305427 0)
(0.52089766 -0.46681642 0)
(0.50716061 -0.45106434 0)
(0.49370428 -0.43579626 0)
(1.3981903 -1.2601368 0)
(1.3873082 -1.26277 0)
(1.3755205 -1.2635028 0)
(1.3628608 -1.2623936 0)
(1.3493703 -1.2595043 0)
(1.335103 -1.2549019 0)
(1.3201014 -1.2486583 0)
(1.3043834 -1.2408259 0)
(1.2879763 -1.2314439 0)
(1.2709444 -1.2206842 0)
(1.2533153 -1.2085728 0)
(1.2351339 -1.1951912 0)
(1.2164822 -1.1806165 0)
(1.1973971 -1.1649232 0)
(1.177918 -1.1481904 0)
(1.1580895 -1.1304989 0)
(1.1379571 -1.1119291 0)
(1.117566 -1.0925608 0)
(1.0969604 -1.0724731 0)
(1.076184 -1.0517443 0)
(1.0552793 -1.0304512 0)
(1.0342874 -1.0086697 0)
(1.0132477 -0.98647432 0)
(0.99219923 -0.96393912 0)
(0.97118083 -0.94113428 0)
(0.95022866 -0.91812493 0)
(0.92937396 -0.89497595 0)
(0.90864668 -0.8717512 0)
(0.8880768 -0.84851129 0)
(0.86769218 -0.825313 0)
(0.84751817 -0.80220978 0)
(0.82757788 -0.77925166 0)
(0.80789221 -0.75648516 0)
(0.78847985 -0.73395322 0)
(0.76935706 -0.71169517 0)
(0.75053694 -0.68974679 0)
(0.73202846 -0.66814092 0)
(0.71384119 -0.64690927 0)
(0.69600235 -0.6260849 0)
(0.67850911 -0.60567542 0)
(0.66132362 -0.58572196 0)
(0.64444134 -0.56623361 0)
(0.62790544 -0.5471521 0)
(0.61174216 -0.52853852 0)
(0.5959326 -0.51041724 0)
(0.58045961 -0.49279376 0)
(0.56531378 -0.47566942 0)
(0.55048757 -0.45904428 0)
(0.53597305 -0.44291747 0)
(0.52176159 -0.42728716 0)
(0.50784667 -0.41215072 0)
(1.4526671 -1.2542396 0)
(1.4411085 -1.2558586 0)
(1.4285933 -1.2555972 0)
(1.41516 -1.2535161 0)
(1.4008536 -1.2496802 0)
(1.3857296 -1.2441586 0)
(1.3698453 -1.2370265 0)
(1.3532217 -1.22835 0)
(1.3358874 -1.2182029 0)
(1.317908 -1.2066494 0)
(1.299304 -1.1937939 0)
(1.2801303 -1.1796946 0)
(1.2604811 -1.1644401 0)
(1.2403967 -1.1481044 0)
(1.219914 -1.1307652 0)
(1.1990786 -1.1125023 0)
(1.1779386 -1.0933952 0)
(1.1565412 -1.073523 0)
(1.1349331 -1.0529638 0)
(1.1131596 -1.0317952 0)
(1.0912652 -1.010093 0)
(1.069292 -0.98793218 0)
(1.0472799 -0.96538589 0)
(1.0252692 -0.94252605 0)
(1.003303 -0.91942382 0)
(0.98142002 -0.89614733 0)
(0.95964972 -0.87275464 0)
(0.93802136 -0.84930995 0)
(0.91656667 -0.82587384 0)
(0.89531507 -0.80250241 0)
(0.87429274 -0.77924841 0)
(0.85352343 -0.75616129 0)
(0.83302864 -0.73328707 0)
(0.81282761 -0.71066836 0)
(0.79293723 -0.68834441 0)
(0.77337129 -0.66635162 0)
(0.7541381 -0.64472353 0)
(0.73523771 -0.62348557 0)
(0.71670047 -0.60264814 0)
(0.69853592 -0.58225584 0)
(0.68071302 -0.56232342 0)
(0.66323421 -0.54285136 0)
(0.64612053 -0.52384088 0)
(0.6293795 -0.50531481 0)
(0.61300341 -0.48728848 0)
(0.5969828 -0.46976801 0)
(0.58130931 -0.45275571 0)
(0.56597464 -0.43625196 0)
(0.55096993 -0.42025566 0)
(0.53628554 -0.40476455 0)
(0.52191361 -0.38977542 0)
(1.5087733 -1.2479107 0)
(1.4963998 -1.2484926 0)
(1.4830252 -1.2472223 0)
(1.4686932 -1.2441634 0)
(1.4534526 -1.2393825 0)
(1.4373606 -1.2329506 0)
(1.4204795 -1.2249439 0)
(1.4028426 -1.2154377 0)
(1.3844929 -1.2044992 0)
(1.3654665 -1.1921955 0)
(1.3458041 -1.178632 0)
(1.3255793 -1.1638536 0)
(1.3048623 -1.1479588 0)
(1.2837107 -1.1310211 0)
(1.262162 -1.1131177 0)
(1.2402631 -1.0943276 0)
(1.2180638 -1.0747295 0)
(1.1956134 -1.0544013 0)
(1.1729601 -1.0334201 0)
(1.1501511 -1.0118621 0)
(1.127232 -0.98980215 0)
(1.1042469 -0.96731399 0)
(1.0812373 -0.9444689 0)
(1.0582423 -0.9213363 0)
(1.0353027 -0.89798778 0)
(1.012467 -0.8744975 0)
(0.98976685 -0.85091224 0)
(0.96722379 -0.82729797 0)
(0.94487221 -0.80371507 0)
(0.92274336 -0.78021901 0)
(0.90086402 -0.75686155 0)
(0.87925828 -0.7336913 0)
(0.85794785 -0.71075349 0)
(0.83695185 -0.68808977 0)
(0.816286 -0.66573796 0)
(0.79596205 -0.64373269 0)
(0.77599376 -0.62210844 0)
(0.75641041 -0.60089781 0)
(0.73720846 -0.58010038 0)
(0.71837105 -0.55975332 0)
(0.69990529 -0.53987611 0)
(0.68181655 -0.52047515 0)
(0.66411276 -0.5015597 0)
(0.6467955 -0.48314323 0)
(0.62985988 -0.46523547 0)
(0.61329866 -0.44784158 0)
(0.59710372 -0.43096385 0)
(0.58126631 -0.41460246 0)
(0.56577686 -0.39875601 0)
(0.55062486 -0.38342179 0)
(0.5358012 -0.36859606 0)
(1.566185 -1.2409464 0)
(1.5528575 -1.2404765 0)
(1.5384915 -1.2381901 0)
(1.5231363 -1.2341531 0)
(1.5068443 -1.2284336 0)
(1.4896742 -1.221104 0)
(1.4716918 -1.2122425 0)
(1.4529433 -1.2019271 0)
(1.4334791 -1.1902225 0)
(1.4133261 -1.1772068 0)
(1.3925376 -1.1629564 0)
(1.3711858 -1.1475402 0)
(1.3493349 -1.1310485 0)
(1.3270575 -1.1135536 0)
(1.3043889 -1.0951325 0)
(1.2813768 -1.0758636 0)
(1.2580733 -1.0558243 0)
(1.2345293 -1.0350913 0)
(1.2107949 -1.0137402 0)
(1.1869183 -0.99184576 0)
(1.1629466 -0.9694816 0)
(1.1389254 -0.94671999 0)
(1.1148977 -0.92363133 0)
(1.0909008 -0.90028378 0)
(1.0669691 -0.87674484 0)
(1.043167 -0.85308239 0)
(1.0195294 -0.82935772 0)
(0.99606391 -0.80562797 0)
(0.97280902 -0.78195024 0)
(0.94979822 -0.75837952 0)
(0.92705905 -0.73496711 0)
(0.90461586 -0.7117608 0)
(0.88249082 -0.68880498 0)
(0.86070407 -0.66614043 0)
(0.83927269 -0.64380341 0)
(0.81820616 -0.62182469 0)
(0.79750725 -0.6002327 0)
(0.77721122 -0.57906899 0)
(0.75733213 -0.55835477 0)
(0.73784548 -0.53809924 0)
(0.7187508 -0.51831973 0)
(0.7000558 -0.49902865 0)
(0.68176553 -0.48023694 0)
(0.66387974 -0.46195476 0)
(0.64639403 -0.44418948 0)
(0.62930164 -0.4269454 0)
(0.61259442 -0.41022434 0)
(0.59626317 -0.39402608 0)
(0.58029763 -0.37834877 0)
(0.56468651 -0.36318925 0)
(0.54941949 -0.34854328 0)
(1.6245833 -1.233168 0)
(1.6101645 -1.2316407 0)
(1.5946783 -1.2283399 0)
(1.5781788 -1.2233329 0)
(1.5607221 -1.216689 0)
(1.5423675 -1.208481 0)
(1.5231825 -1.1987877 0)
(1.5032294 -1.1876902 0)
(1.4825611 -1.1752505 0)
(1.4612079 -1.1615583 0)
(1.4392262 -1.1466621 0)
(1.4166797 -1.1306626 0)
(1.3936392 -1.1136141 0)
(1.3701829 -1.0956072 0)
(1.3463458 -1.0767176 0)
(1.3221772 -1.0570211 0)
(1.2977309 -1.0365934 0)
(1.2730596 -1.0155093 0)
(1.2482144 -0.99384282 0)
(1.2232447 -0.97166705 0)
(1.1981983 -0.94905398 0)
(1.1731215 -0.92607436 0)
(1.1480582 -0.90279752 0)
(1.1230483 -0.87929053 0)
(1.0981291 -0.85561648 0)
(1.0733528 -0.83183547 0)
(1.0487591 -0.80802431 0)
(1.0243683 -0.78423105 0)
(1.0002116 -0.76050982 0)
(0.9763209 -0.73691466 0)
(0.95272449 -0.71349622 0)
(0.92944726 -0.6903014 0)
(0.90651151 -0.66737409 0)
(0.88393794 -0.6447555 0)
(0.86174578 -0.62248453 0)
(0.83994749 -0.60059561 0)
(0.81853591 -0.57910881 0)
(0.79754115 -0.55802291 0)
(0.77698879 -0.53739633 0)
(0.75685702 -0.51725155 0)
(0.73714187 -0.49759896 0)
(0.71784876 -0.47844767 0)
(0.69898099 -0.45980675 0)
(0.68053733 -0.44168416 0)
(0.66251311 -0.42408569 0)
(0.64490138 -0.40701469 0)
(0.62769362 -0.39047232 0)
(0.61088008 -0.37445785 0)
(0.59444982 -0.35896894 0)
(0.57839076 -0.34400197 0)
(0.56269145 -0.3295522 0)
(1.6836564 -1.2244219 0)
(1.6680126 -1.2218413 0)
(1.6512811 -1.2175368 0)
(1.6335209 -1.2115775 0)
(1.6147921 -1.2040335 0)
(1.595155 -1.194977 0)
(1.5746762 -1.1844834 0)
(1.5534329 -1.172632 0)
(1.5314743 -1.1594905 0)
(1.5088499 -1.1451461 0)
(1.4856049 -1.1296547 0)
(1.4618086 -1.1131305 0)
(1.4375417 -1.095576 0)
(1.4128558 -1.0771075 0)
(1.3878068 -1.0578018 0)
(1.3624446 -1.0377319 0)
(1.3368238 -1.0169708 0)
(1.310998 -0.99559134 0)
(1.2850191 -0.97366568 0)
(1.2589372 -0.95126497 0)
(1.2328007 -0.92845938 0)
(1.2066563 -0.90531782 0)
(1.1805486 -0.88190779 0)
(1.1545192 -0.85829488 0)
(1.1286066 -0.83454118 0)
(1.1028551 -0.81070665 0)
(1.0773083 -0.78685929 0)
(1.0519947 -0.76305156 0)
(1.0269399 -0.73933691 0)
(1.0021748 -0.71576738 0)
(0.97772831 -0.69239141 0)
(0.95362514 -0.66925435 0)
(0.92988643 -0.64639852 0)
(0.90653029 -0.62386356 0)
(0.88357357 -0.60168756 0)
(0.86103872 -0.5799068 0)
(0.83895959 -0.55854677 0)
(0.81731999 -0.53760392 0)
(0.79610013 -0.51712487 0)
(0.77532131 -0.49713569 0)
(0.75499013 -0.47764739 0)
(0.73510826 -0.45866849 0)
(0.7156749 -0.44020732 0)
(0.69668669 -0.42227085 0)
(0.67813793 -0.40486399 0)
(0.66002103 -0.38798939 0)
(0.64232685 -0.37164763 0)
(0.62504496 -0.35583744 0)
(0.60816367 -0.34055602 0)
(0.59167013 -0.3257993 0)
(0.57555195 -0.31156201 0)
(1.7431022 -1.2145791 0)
(1.726105 -1.2109574 0)
(1.7080081 -1.205668 0)
(1.6888757 -1.1987808 0)
(1.6687721 -1.1903666 0)
(1.6477615 -1.1804967 0)
(1.6259127 -1.1692422 0)
(1.603306 -1.1566763 0)
(1.5799937 -1.1428718 0)
(1.5560261 -1.1279031 0)
(1.5314332 -1.1118557 0)
(1.506339 -1.0949042 0)
(1.4808173 -1.0768893 0)
(1.4548645 -1.0580046 0)
(1.428568 -1.0383354 0)
(1.4019822 -1.0179473 0)
(1.3751619 -0.99690938 0)
(1.3481611 -0.97529167 0)
(1.3210321 -0.95316401 0)
(1.2938252 -0.93059556 0)
(1.2665892 -0.90765447 0)
(1.239371 -0.88440772 0)
(1.2122155 -0.86092088 0)
(1.185165 -0.83725781 0)
(1.1582591 -0.81347968 0)
(1.1315391 -0.78964495 0)
(1.1050478 -0.76581455 0)
(1.0788166 -0.74204505 0)
(1.0528711 -0.71838807 0)
(1.0272419 -0.69489364 0)
(1.0019581 -0.6716086 0)
(0.97704397 -0.64857646 0)
(0.95252066 -0.6258374 0)
(0.92840564 -0.60342811 0)
(0.90471397 -0.58138243 0)
(0.88146456 -0.55973344 0)
(0.85868806 -0.53851656 0)
(0.83638035 -0.51776833 0)
(0.8145234 -0.49749181 0)
(0.79312916 -0.47770218 0)
(0.77220609 -0.45841376 0)
(0.75175513 -0.43963822 0)
(0.73177399 -0.42138485 0)
(0.71225833 -0.40366055 0)
(0.69320181 -0.38646973 0)
(0.67459627 -0.36981449 0)
(0.65643196 -0.35369485 0)
(0.63869773 -0.33810903 0)
(0.62138112 -0.32305377 0)
(0.60446853 -0.30852458 0)
(1.8026313 -1.2035344 0)
(1.7841593 -1.1988925 0)
(1.7645851 -1.1926442 0)
(1.7439773 -1.1848594 0)
(1.722405 -1.1756087 0)
(1.6999368 -1.1649623 0)
(1.6766457 -1.1529894 0)
(1.6526134 -1.1397605 0)
(1.6278959 -1.125347 0)
(1.6025344 -1.1098041 0)
(1.5764704 -1.0932336 0)
(1.5500351 -1.0759574 0)
(1.5232929 -1.0575228 0)
(1.4960331 -1.0382612 0)
(1.4684514 -1.0182839 0)
(1.4406165 -0.99763559 0)
(1.4125779 -0.97637884 0)
(1.3843881 -0.95458073 0)
(1.3560989 -0.93230879 0)
(1.3277604 -0.90963 0)
(1.2994214 -0.88661043 0)
(1.2711288 -0.86331497 0)
(1.2429274 -0.83980715 0)
(1.2148599 -0.8161489 0)
(1.1869665 -0.79239994 0)
(1.1592871 -0.76861743 0)
(1.1318623 -0.74485865 0)
(1.104725 -0.72117984 0)
(1.077902 -0.69763059 0)
(1.0514229 -0.67425946 0)
(1.0253167 -0.65111321 0)
(0.99960812 -0.62823375 0)
(0.97431822 -0.60565969 0)
(0.9494641 -0.58342618 0)
(0.92505856 -0.56156524 0)
(0.90111454 -0.54010915 0)
(0.87765444 -0.51909403 0)
(0.85468852 -0.49855212 0)
(0.83221138 -0.47849101 0)
(0.81022468 -0.45892164 0)
(0.78873128 -0.43985791 0)
(0.76773093 -0.42131167 0)
(0.74722091 -0.4032918 0)
(0.72719641 -0.38580443 0)
(0.70765059 -0.36885324 0)
(0.68857468 -0.35243962 0)
(0.66995829 -0.336563 0)
(0.6517895 -0.32122106 0)
(0.63405499 -0.30641005 0)
(0.61674053 -0.29212502 0)
(1.8619676 -1.1912067 0)
(1.8419081 -1.1855741 0)
(1.820754 -1.1784011 0)
(1.7985779 -1.1697568 0)
(1.7754527 -1.1597107 0)
(1.7514512 -1.1483318 0)
(1.7266487 -1.1356893 0)
(1.7011282 -1.1218569 0)
(1.6749642 -1.1069153 0)
(1.6481799 -1.0909285 0)
(1.6205307 -1.0739607 0)
(1.5927158 -1.0560697 0)
(1.5648038 -1.0373418 0)
(1.5362007 -1.0178317 0)
(1.5072954 -0.9976237 0)
(1.4781935 -0.97677916 0)
(1.4489256 -0.95536354 0)
(1.4195395 -0.93344351 0)
(1.3900862 -0.91108502 0)
(1.3606153 -0.88835305 0)
(1.3311754 -0.86531153 0)
(1.3018131 -0.84202321 0)
(1.272573 -0.81854948 0)
(1.2434977 -0.79495021 0)
(1.2146273 -0.77128334 0)
(1.186001 -0.74760473 0)
(1.1576574 -0.72396917 0)
(1.1296301 -0.70043089 0)
(1.101947 -0.67703827 0)
(1.0746354 -0.65383835 0)
(1.0477243 -0.63087682 0)
(1.0212397 -0.60819517 0)
(0.99520222 -0.58583079 0)
(0.96962867 -0.56381761 0)
(0.94452923 -0.54218551 0)
(0.91991048 -0.52096555 0)
(0.8957947 -0.50019483 0)
(0.87220035 -0.47989177 0)
(0.84912443 -0.46007078 0)
(0.82656417 -0.44074719 0)
(0.80451938 -0.42193485 0)
(0.78298897 -0.40364448 0)
(0.76196977 -0.38588373 0)
(0.74145633 -0.36865768 0)
(0.72144111 -0.3519691 0)
(0.70191462 -0.33581867 0)
(0.68286568 -0.32020521 0)
(0.66428156 -0.3051259 0)
(0.64614809 -0.29057651 0)
(0.62845008 -0.27655167 0)
(1.9208497 -1.177538 0)
(1.8991002 -1.1709528 0)
(1.8762734 -1.1628972 0)
(1.8524457 -1.1534392 0)
(1.8276931 -1.1426469 0)
(1.8020909 -1.1305877 0)
(1.775712 -1.11733 0)
(1.7486306 -1.1029496 0)
(1.7209183 -1.0875336 0)
(1.6926357 -1.0711549 0)
(1.6637234 -1.05385 0)
(1.634504 -1.0354038 0)
(1.6050457 -1.0164342 0)
(1.575125 -0.99673732 0)
(1.5449391 -0.97635999 0)
(1.5145761 -0.95537861 0)
(1.4840785 -0.93386245 0)
(1.4534964 -0.91187815 0)
(1.4228812 -0.88949012 0)
(1.3922828 -0.86676132 0)
(1.3617493 -0.84375344 0)
(1.331327 -0.82052702 0)
(1.30106 -0.79714123 0)
(1.2709905 -0.77365381 0)
(1.2411583 -0.75012075 0)
(1.2116016 -0.72659622 0)
(1.1823575 -0.70313299 0)
(1.1534596 -0.67978292 0)
(1.1249362 -0.65659395 0)
(1.0968132 -0.6336112 0)
(1.0691187 -0.61087841 0)
(1.0418789 -0.58843676 0)
(1.015115 -0.566323 0)
(0.98884454 -0.54457056 0)
(0.9630753 -0.52320641 0)
(0.93780494 -0.50225642 0)