/*--------------------------------*- C++ -*----------------------------------*\
| =========                 |                                                 |
| \\      /  F ield         | OpenFOAM: The Open Source CFD Toolbox           |
|  \\    /   O peration     | Version:  2312                                  |
|   \\  /    A nd           | Website:  www.openfoam.com                      |
|    \\/     M anipulation  |                                                 |
\*---------------------------------------------------------------------------*/
FoamFile
{
    version     2.0;
    format      ascii;
    arch        "LSB;label=32;scalar=64";
    class       volScalarField;
    location    "0.02";
    object      CO2;
}
// * * * * * * * * * * * * * * * * * * * * * * * * * * * * * * * * * * * * * //

dimensions      [0 0 0 0 0 0 0];

internalField   nonuniform List<scalar> 
3250
(
0.0042220266
0.0038432127
0.0034928568
0.0031695728
0.0028718705
0.0025982554
0.0023472533
0.0021174206
0.001907353
0.0017156915
0.0015411282
0.0013824094
0.0012383392
0.0011077813
0.00098966009
0.00088296107
0.00078673072
0.00070007567
0.00062216157
0.00055221146
0.00048950382
0.00043337047
0.00038319416
0.00033840621
0.00029848385
0.00026294768
0.00023135905
0.00020331743
0.0001784579
0.00015644863
0.00013698849
0.00011980472
0.00010465073
9.1303969e-05
7.956397e-05
6.9250439e-05
6.0201515e-05
5.2272115e-05
4.5332407e-05
3.9266383e-05
3.3970541e-05
2.9352652e-05
2.5330624e-05
2.1831443e-05
0.0042810844
0.0038967292
0.0035412899
0.003213344
0.0029113702
0.0026338476
0.0023792769
0.0021461913
0.0019331639
0.0017388144
0.0015618142
0.00140089
0.0012548275
0.0011224726
0.0010027332
0.0008945794
0.00079704314
0.00070921758
0.00063025587
0.0005593695
0.00049582631
0.00043894828
0.00038810921
0.00034273217
0.0003022869
0.00026628716
0.00023428809
0.00020588353
0.00018070345
0.00015841144
0.0001387022
0.00012129923
0.0001059526
9.2436736e-05
8.0548475e-05
7.0105114e-05
6.0942641e-05
5.291406e-05
4.5887842e-05
3.9746482e-05
3.4385177e-05
2.9710586e-05
2.5639634e-05
2.2097897e-05
0.004392022
0.0039974018
0.0036324839
0.0032958164
0.0029858371
0.0027009821
0.0024397095
0.0022005104
0.0019819171
0.0017825097
0.0016009216
0.0014358432
0.0012860255
0.0011502821
0.0010274898
0.00091658995
0.00081658742
0.00072655023
0.00064560817
0.0005729511
0.00050782691
0.00044953922
0.00039744497
0.0003509518
0.00030951535
0.00027263656
0.00023985885
0.00021076549
0.00018497685
0.00016214782
0.0001419653
0.00012414572
0.00010843281
9.459532e-05
8.2424978e-05
7.1734522e-05
6.2355866e-05
5.4138382e-05
4.6947307e-05
4.0662262e-05
3.5175886e-05
3.0392564e-05
2.6227188e-05
2.2603465e-05
0.0045485564
0.0041395053
0.0037612602
0.0034123227
0.0030910738
0.0027958911
0.0025251738
0.0022773553
0.002050911
0.0018443661
0.001656301
0.0014853557
0.0013302327
0.0011896999
0.0010625911
0.00094780699
0.00084431472
0.00075114696
0.00066740068
0.00059223537
0.00052487087
0.00046458497
0.0004107109
0.00036263455
0.00031979173
0.00028166524
0.00024778205
0.00021771046
0.00019105728
0.00016746516
0.00014660991
0.00012819802
0.00011196423
9.7669244e-05
8.5097565e-05
7.4055471e-05
6.4369099e-05
5.5882666e-05
4.8456816e-05
4.1967083e-05
3.6302472e-05
3.1364139e-05
2.7064101e-05
2.3323474e-05
0.0047452579
0.0043181192
0.0039231678
0.0035588449
0.0032234602
0.0029153186
0.0026327465
0.0023741052
0.0021377998
0.0019222873
0.0017260819
0.0015477604
0.0013859653
0.0012394073
0.0011068665
0.00098719296
0.00087930642
0.00078219543
0.00069491591
0.00061658934
0.00054640042
0.00048359459
0.00042747534
0.00037740132
0.00033278341
0.00029308169
0.00025780245
0.00022649519
0.0001987497
0.0001741932
0.00015248759
0.00013332682
0.00011643432
0.00010156066
8.8481247e-05
7.6994211e-05
6.6918402e-05
5.8091536e-05
5.0368458e-05
4.3619541e-05
3.7729201e-05
3.259452e-05
2.8123896e-05
2.4235179e-05
0.0049773431
0.0045289087
0.0041142831
0.0037318369
0.003379797
0.0030563831
0.0027598365
0.0024884344
0.0022404993
0.002014408
0.0018085974
0.0016215703
0.0014518985
0.0012982258
0.0011592689
0.0010338185
0.00092073893
0.00081896666
0.00072750943
0.00064544398
0.0005719137
0.00050612597
0.00044734926
0.00039491015
0.00034819015
0.00030662259
0.00026968935
0.00023691777
0.00020787755
0.00018217773
0.00015946377
0.00013941479
0.00012174091
0.00010618068
9.2498764e-05
8.0483653e-05
6.9945578e-05
6.0714556e-05
5.2638569e-05
4.5581876e-05
3.942346e-05
3.4055573e-05
2.9382326e-05
2.5317705e-05
0.005240536
0.0047679911
0.004331087
0.0039281142
0.0035572073
0.0032164904
0.0029041089
0.0026182447
0.0023571271
0.0021190423
0.00190234
0.0017054392
0.0015268318
0.0013650861
0.0012188475
0.0010868395
0.00096786352
0.00086079746
0.0007645945
0.00067828086
0.00060095318
0.00053177577
0.00046997752
0.00041484867
0.00036573753
0.00032204708
0.00028323158
0.00024879327
0.00021827906
0.00019127735
0.00016741499
0.00014635428
0.00012779017
0.00011144763
9.7079093e-05
8.4462095e-05
7.3397073e-05
6.3705294e-05
5.5226931e-05
4.781929e-05
4.1355169e-05
3.5721327e-05
3.0816994e-05
2.6551754e-05
0.0055309831
0.0050318347
0.0045703685
0.0041447657
0.0037530586
0.0033932651
0.0030634242
0.0027616125
0.0024859567
0.0022346429
0.002005925
0.0017981296
0.0016096613
0.0014390049
0.0012847273
0.0011454783
0.0010199902
0.00090707629
0.00080562985
0.00071462144
0.00063309631
0.00056017134
0.00049503181
0.00043692801
0.00038517162
0.0003391322
0.0002982336
0.00026195035
0.00022980425
0.00020136096
0.00017622674
0.00015404534
0.00013449501
0.00011728566
0.00010215624
8.887218e-05
7.7223089e-05
6.7020554e-05
5.8096115e-05
5.0299385e-05
4.3496315e-05
3.7567585e-05
3.2407019e-05
2.7919329e-05
0.0058453064
0.005317188
0.0048291415
0.0043790825
0.0039649024
0.0035844985
0.0032357932
0.0029167492
0.0026253819
0.00235977
0.0021180635
0.0018984898
0.0016993588
0.0015190656
0.0013560926
0.0012090099
0.0010764753
0.00095723253
0.00085011022
0.00075401891
0.0006679484
0.00059096444
0.00052220528
0.00046087803
0.0004062549
0.00035766937
0.00031451239
0.00027622861
0.0002423127
0.00021230571
0.0001857917
0.00016239432
0.00014177375
0.00012362364
0.00010766831
9.3660099e-05
8.1376894e-05
7.0619795e-05
6.1210985e-05
5.2991739e-05
4.5820587e-05
3.9571614e-05
3.4132785e-05
2.9403517e-05
0.0074323866
0.0067828041
0.0061795326
0.0056208314
0.0051045623
0.0046285079
0.0041904337
0.003788113
0.0034193453
0.0030819725
0.0027738924
0.0024930693
0.002237543
0.0020054356
0.0017949565
0.0016044056
0.0014321754
0.0012767515
0.0011367126
0.0010107286
0.00089755953
0.00079605215
0.00070513742
0.00062382679
0.00055120855
0.00048644398
0.00042876332
0.00037746174
0.00033189522
0.00029147665
0.00025567182
0.00022399566
0.00019600852
0.00017131275
0.00014954925
0.00013039434
0.0001135568
9.8775e-05
8.5814325e-05
7.44647e-05
6.4538331e-05
5.5867597e-05
4.8303113e-05
4.1711927e-05
3.5975744e-05
3.098833e-05
0.0078554487
0.0071684822
0.0065305901
0.0059398374
0.0053939624
0.0048906268
0.0044274709
0.0040021405
0.0036123077
0.0032556882
0.0029300565
0.002633257
0.0023632141
0.0021179395
0.0018955371
0.001694207
0.0015122475
0.0013480557
0.0012001272
0.0010670548
0.00094752622
0.0008403217
0.00074431041
0.00065844688
0.00058176702
0.00051338407
0.00045248424
0.00039832249
0.00035021815
0.00030755074
0.00026975576
0.00023632066
0.00020678099
0.00018071663
0.00015774824
0.00013753396
0.00011976618
0.0001041686
9.0493443e-05
7.8518884e-05
6.8046618e-05
5.8899661e-05
5.0920286e-05
4.3968127e-05
3.7918297e-05
3.2658598e-05
0.008294928
0.0075692874
0.0068954647
0.0062714331
0.0056948145
0.0051631462
0.0046739395
0.0042247083
0.0038129928
0.0034363781
0.0030925105
0.0027791103
0.0024939821
0.0022350227
0.0020002268
0.0017876909
0.0015956155
0.0014223059
0.0012661717
0.0011257255
0.0009995803
0.00088644716
0.00078513126
0.00069452807
0.00061361922
0.00054146805
0.00047721514
0.00042007369
0.00036932501
0.00032431397
0.0002844446
0.00024917586
0.00021801745
0.00019052594
0.00016630096
0.00014498171
0.00012624355
0.00010979491
9.5374324e-05
8.2747714e-05
7.1705838e-05
6.2061953e-05
5.3649643e-05
4.6320815e-05
3.9943707e-05
3.4399899e-05
0.0087475078
0.0079820591
0.007271252
0.0066129679
0.0060047075
0.0054438792
0.0049278605
0.0044540296
0.0040197905
0.0036225937
0.0032599538
0.0029294631
0.0026288028
0.0023557518
0.0021081923
0.0018841145
0.0016816182
0.0014989143
0.0013343242
0.0011862779
0.0010533118
0.00093406591
0.00082727956
0.00073178761
0.00064651586
0.00057047643
0.00050276294
0.00044254573
0.00038906694
0.00034163584
0.00029962409
0.00026246128
0.00022963054
0.00020066443
0.00017514092
0.00015267968
0.00013293853
0.00011561015
0.00010041895
8.7118217e-05
7.5487424e-05
6.5329754e-05
5.6469818e-05
4.8751542e-05
4.2036065e-05
3.619853e-05
0.0092098387
0.0084037387
0.0076551646
0.0069619056
0.0063213383
0.0057307385
0.0051873461
0.0046884002
0.0042311653
0.0038129541
0.0034311464
0.0030832036
0.0027666813
0.0024792376
0.0022186401
0.0019827704
0.0017696258
0.0015773212
0.0014040877
0.0012482714
0.0011083306
0.00098283271
0.00087045028
0.00076995628
0.00068021963
0.00060020023
0.00052894387
0.00046557712
0.00040930224
0.00035939213
0.00031518543
0.00027608176
0.00024153714
0.00021105956
0.00018420486
0.00016057278
0.00013980319
0.00012157266
0.00010559116
9.159905e-05
7.9364233e-05
6.8679583e-05
5.9360522e-05
5.1242799e-05
4.4180275e-05
3.8041493e-05
0.0096787231
0.0088314074
0.0080445442
0.0073158292
0.0066425137
0.0060217376
0.0054506009
0.0049262003
0.0044456583
0.0040061476
0.0036049107
0.0032392767
0.002906673
0.0026046359
0.0023308169
0.0020829873
0.001859041
0.0016569954
0.0014749906
0.0013112877
0.0011642661
0.0010324199
0.00091435393
0.00080877859
0.00071450531
0.00063044116
0.0005555835
0.00048901464
0.00042989642
0.00037746495
0.0003310254
0.00028994704
0.00025365835
0.00022164246
0.00019343277
0.00016860876
0.00014679209
0.00012764298
0.00011085671
9.6160519e-05
8.3310556e-05
7.2089209e-05
6.2302553e-05
5.3778018e-05
4.6362064e-05
3.9916505e-05
0.010151154
0.0092623029
0.0084368719
0.0076724491
0.0069661567
0.0063149968
0.0057159267
0.0051658985
0.004661891
0.004200935
0.0037801349
0.0033966857
0.0030478864
0.0027311501
0.0024440116
0.0021841315
0.0019492996
0.0017374355
0.0015465878
0.0013749322
0.0012207689
0.0010825183
0.00095871722
0.00084801333
0.00074916025
0.00066101193
0.0005825171
0.00051271354
0.00045072247
0.00039574296
0.00034704652
0.00030397183
0.00026591969
0.00023234816
0.000202768
0.00017673829
0.00015386234
0.00013378384
0.00011618328
0.00010077462
8.7302159e-05
7.5537683e-05
6.5277824e-05
5.6341606e-05
4.8568e-05
4.1812014e-05
0.010624377
0.0096938317
0.0088297782
0.0080296116
0.0072903161
0.0066087517
0.0059817306
0.0054060592
0.0048785712
0.0043961553
0.003955777
0.0035544971
0.003189486
0.0028580337
0.002557558
0.0022856093
0.0020398732
0.0018181717
0.001618462
0.0014388349
0.001277511
0.0011328378
0.0010032838
0.0008874342
0.00078398489
0.00069173681
0.00060959007
0.00053653799
0.00047166116
0.00041412164
0.00036315726
0.0003180761
0.00027825123
0.00024311563
0.00021215738
0.0001849151
0.00016097369
0.0001399603
0.00012154056
0.0001054151
9.1316329e-05
7.9005381e-05
6.8269401e-05
5.8918963e-05
5.0785518e-05
4.3717219e-05
0.011095945
0.010123588
0.0092210479
0.0083853089
0.0076131765
0.0069013625
0.0062465332
0.0056453492
0.0050944995
0.0045907306
0.0041308698
0.0037118443
0.0033306963
0.0029845934
0.0026708375
0.0023868691
0.0021302707
0.0018987672
0.0016902254
0.0015026515
0.0013341877
0.0011831084
0.001047815
0.00092683051
0.00081879343
0.00072245211
0.0006366584
0.00056036141
0.00049260139
0.00043250359
0.00037927231
0.00033218523
0.0002905878
0.00025388801
0.00022155134
0.00019309605
0.00016808866
0.00014613981
0.00012690032
0.00011005753
9.5331926e-05
8.2474042e-05
7.1261531e-05
6.1496523e-05
5.3002946e-05
4.5622091e-05
0.012650834
0.01156244
0.010549164
0.0096086193
0.0087376955
0.0079330726
0.0071913253
0.0065089775
0.0058825456
0.0053085752
0.0047836717
0.0043045255
0.0038679315
0.0034708048
0.0031101925
0.0027832814
0.0024874038
0.0022200403
0.0019788202
0.0017615208
0.001566065
0.0013905177
0.0012330813
0.0010920909
0.00096600786
0.00085341434
0.00075300668
0.00066358903
0.00058406686
0.00051344047
0.00045079873
0.00039531281
0.00034623023
0.00030286912
0.00026461269
0.00023090406
0.00020124124
0.00017517257
0.00015229228
0.00013223648
0.0001146793
9.9329426e-05
8.592681e-05
7.4239682e-05
6.4061771e-05
5.5209522e-05
4.7517392e-05
0.013153929
0.012022238
0.010968655
0.0099906878
0.009085118
0.0082485023
0.0074772805
0.0067678354
0.006116541
0.0055198012
0.0049740822
0.0044759392
0.0040220368
0.0036091651
0.0032342524
0.0028943728
0.0025867522
0.0023087709
0.0020579645
0.0018320227
0.0016287865
0.0014462448
0.0012825295
0.0011359104
0.0010047886
0.00088769084
0.00078326229
0.00069026026
0.00060754726
0.00053408438
0.00046892461
0.0004112065
0.00036014789
0.00031503995
0.00027524149
0.00024017352
0.00020931412
0.00018219364
0.00015839013
0.00013752513
0.00011925974
0.00010329095
8.9348254e-05
7.7190553e-05
6.6603261e-05
5.7395412e-05
4.9394682e-05
0.013647861
0.012473473
0.011380315
0.010365641
0.0094261036
0.0085581278
0.0077580162
0.0070220117
0.0063463472
0.0057272872
0.005161161
0.004644391
0.0041735141
0.0037451981
0.0033562548
0.0030036482
0.0026845002
0.0023960932
0.0021358713
0.0019014384
0.0016905557
0.0015011379
0.001331248
0.001179092
0.0010430123
0.00092148113
0.00081309384
0.00071656186
0.00063070567
0.00055444789
0.00048680643
0.00042688784
0.00037388083
0.00032705015
0.00028573063
0.00024932159
0.00021728151
0.00018912305
0.00016440833
0.00014274459
0.00012378009
0.00010720028
9.2724383e-05
8.0102093e-05
6.9110626e-05
5.9551711e-05
5.1246327e-05
0.014130867
0.012914431
0.011782566
0.010732049
0.0097593562
0.0088607744
0.0080324692
0.0072705451
0.0065710965
0.0059302507
0.0053442035
0.0048092473
0.0043217942
0.0038783929
0.0034757419
0.0031106978
0.0027802813
0.00248168
0.0022122485
0.0019695076
0.0017511411
0.0015549912
0.0013790541
0.0012214739
0.0010805355
0.00095465851
0.00084238947
0.0007423952
0.00065345521
0.00057445464
0.00050437715
0.00044229803
0.0003873776
0.00033885474
0.00029604085
0.00025831404
0.0002251136
0.00019593488
0.0001703244
0.00014787539
0.00012822348
0.00011104286
9.6042643e-05
8.2963492e-05
7.1574575e-05
6.1670446e-05
5.3065492e-05
0.015946506
0.014600167
0.013343418
0.012174017
0.011088676
0.01008376
0.0091554318
0.0082997247
0.007512608
0.0067900408
0.0061280167
0.0055226009
0.0049699597
0.0044663838
0.0040083064
0.0035923159
0.0032151649
0.0028737763
0.0025652454
0.0022868408
0.0020360027
0.0018103397
0.0016076242
0.0014257875
0.0012629137
0.0011172322
0.00098711126
0.00087105045
0.00076767314
0.00067571911
0.00059403707
0.00052157739
0.00045738501
0.00040059256
0.0003504138
0.0003061373
0.00026712048
0.00023278395
0.00020260614
0.0001761184
0.00015290022
0.00013257496
0.00011480578
9.92919e-05
8.5765168e-05
7.3986875e-05
6.3744555e-05
5.4846135e-05
0.016443341
0.015055118
0.013759308
0.012553559
0.011434497
0.010398381
0.0094412511
0.0085590126
0.007747503
0.0070025491
0.0063200147
0.0056958382
0.0051260635
0.0046068642
0.0041345615
0.0037056376
0.0033167449
0.0029647117
0.0026465447
0.0023594292
0.0021007279
0.0018679767
0.0016588809
0.0014713094
0.001303288
0.0011529927
0.0010187424
0.00089899092
0.00079231984
0.00069743046
0.00061313624
0.00053835534
0.00047210326
0.00041348584
0.00036169244
0.00031598948
0.00027571432
0.00024026938
0.00020911671
0.00018177284
0.00015780396
0.00013682145
0.00011847773
0.00010246241
8.8498734e-05
7.6340327e-05
6.5767873e-05
5.6582984e-05
0.016923691
0.01549471
0.01416113
0.012920283
0.011768677
0.010702456
0.0097175381
0.0088097025
0.0079746576
0.0072081024
0.0065057745
0.0058634897
0.005277174
0.0047428878
0.0042568445
0.0038154243
0.0034151833
0.0030528587
0.0027253721
0.0024298292
0.0021635177
0.0019239043
0.0017086295
0.0015155019
0.0013424919
0.0011877239
0.0010494691
0.00092613751
0.00081627037
0.00071853189
0.00063170157
0.00055466646
0.00048641366
0.00042602311
0.00037266059
0.00032557113
0.00028407263
0.00024754994
0.00021544923
0.00018727267
0.00016257355
0.00014095165
0.00012204896
0.00010554576
9.1156964e-05
7.8628733e-05
6.7735101e-05
5.8271519e-05
0.017386616
0.015918066
0.014548079
0.01327346
0.012090552
0.010995381
0.0099837435
0.0090512943
0.0081936174
0.0074062876
0.0066849209
0.006025215
0.0054229823
0.0048741746
0.004374902
0.0039214469
0.0035102729
0.0031380304
0.0028015594
0.0024978892
0.0022242362
0.0019780004
0.0017567604
0.0015582674
0.0013804382
0.0012213479
0.0010792221
0.00095242877
0.00083947026
0.00073897524
0.00064969052
0.00057047326
0.00050028322
0.0004381754
0.00038329288
0.00033486002
0.00029217601
0.00025460872
0.00022158898
0.00019260512
0.00016719793
0.00014495599
0.0001255112
0.00010853484
9.3733732e-05
8.0846844e-05
6.9641769e-05
5.9907949e-05
0.019438811
0.017830153
0.016324313
0.014919517
0.013612535
0.012399624
0.011276703
0.010239453
0.0092834099
0.0084040371
0.0075967897
0.0068571665
0.006180752
0.0055632497
0.0050005074
0.0044885364
0.0040235258
0.0036018509
0.0032200792
0.002874973
0.0025634886
0.0022827745
0.002030167
0.0018031857
0.0015995267
0.0014170561
0.0012538016
0.0011079452
0.00097781455
0.00086187497
0.00075872099
0.00066706814
0.00058574488
0.00051368475
0.00044991881
0.00039356831
0.00034383779
0.00030000842
0.00026143174
0.00022752381
0.00019775962
0.00017166795
0.00014882654
0.00012885762
0.00011142374
9.6223955e-05
8.2990304e-05
7.1484192e-05
6.1489218e-05
0.019901301
0.018254607
0.016713112
0.015275047
0.013937134
0.012695547
0.011546103
0.010484375
0.009505782
0.0086056713
0.0077793833
0.0070223045
0.0063299109
0.0056978021
0.0051217266
0.0045976017
0.0041215274
0.0036897953
0.003298894
0.0029455118
0.0026265356
0.0023390492
0.0020803287
0.0018478372
0.0016392187
0.0014522905
0.0012850355
0.001135594
0.0010022553
0.00088344923
0.00077773781
0.00068380663
0.00060045672
0.00052659654
0.00046123421
0.0004034701
0.00035248972
0.00030755698
0.00026800775
0.00023324392
0.00020272766
0.00017597622
0.00015255694
0.0001320827
0.0001142077
9.8623516e-05
8.505557e-05
7.3259401e-05
6.3013063e-05
0.020342957
0.018659801
0.01708424
0.015614437
0.014247033
0.012978111
0.011803388
0.010718329
0.0097182429
0.0087983645
0.007953924
0.0071802007
0.0064725672
0.0058265238
0.0052377249
0.0047019985
0.0042153599
0.0037740213
0.0033743967
0.0030131038
0.0026869643
0.0023930003
0.0021284307
0.0018906651
0.001677298
0.0014861004
0.0013150126
0.0011621353
0.0010257211
0.00090416635
0.00079600188
0.0006998848
0.00061458998
0.00053900193
0.0004721069
0.00041298529
0.00036080445
0.00031481174
0.00027432807
0.00023874174
0.00020750268
0.00018011706
0.00015614225
0.00013518218
0.00011688302
0.0001009292
8.7039805e-05
7.4964976e-05
6.4478105e-05
0.02076346
0.019045583
0.017437588
0.015937588
0.014542136
0.013247225
0.01204847
0.010941233
0.0099207136
0.0089820409
0.0081203393
0.0073307856
0.0066086542
0.0059493513
0.0053484418
0.0048016691
0.0043049688
0.0038544776
0.0034465389
0.0030777041
0.0027447326
0.0024445887
0.0021744368
0.0019316361
0.001713734
0.001518458
0.0013437076
0.001187546
0.0010481913
0.00092400758
0.00081349636
0.00071528757
0.0006281312
0.00055088898
0.0004825263
0.00042210455
0.00036877373
0.00032176547
0.00028038637
0.00024401177
0.00021207988
0.0001840863
0.00015957888
0.00013815297
0.00011944704
0.00010313864
8.894079e-05
7.6598635e-05
6.588308e-05
0.021162791
0.019411957
0.017773173
0.016244518
0.014822461
0.0135029
0.012281357
0.011153088
0.010113192
0.0091566947
0.0082786195
0.0074740465
0.0067381565
0.0060662668
0.0054538579
0.0048965932
0.0043903328
0.0039311426
0.003515299
0.0031392911
0.0027998197
0.0024937941
0.0022183277
0.0019707319
0.0017485096
0.001549347
0.0013711053
0.0012118123
0.001069653
0.0009429613
0.00083021068
0.00073000539
0.00064107181
0.00056224999
0.00049248554
0.00043082176
0.00037639218
0.00032841343
0.00028617849
0.00024905036
0.00021645611
0.00018788122
0.00016286447
0.00014099303
0.000121898
0.00010525033
9.0757027e-05
7.8157821e-05
6.7219201e-05
5.7729317e-05
0.021541101
0.019759062
0.01809113
0.016535353
0.01508812
0.01374524
0.012502137
0.011353972
0.010295744
0.0093223804
0.0084288098
0.0076100198
0.0068611031
0.0061772929
0.00555399
0.0049867826
0.0044714598
0.0040040206
0.0035806787
0.0031978645
0.0028522234
0.0025406132
0.0022600991
0.0020079474
0.0017816193
0.0015787619
0.0013972003
0.0012349286
0.0010901009
0.00096102236
0.00084614001
0.00074403376
0.00065340761
0.00057308113
0.00050198114
0.0004391338
0.000383657
0.00033475312
0.00029170223
0.0002538556
0.00022062967
0.00019150035
0.00016599777
0.00014370131
0.00012423507
0.00010726365
9.2488332e-05
7.964362e-05
6.849282e-05
5.8818225e-05
0.02189867
0.020087154
0.018391694
0.016810311
0.015339311
0.013974419
0.012710968
0.011544024
0.010468491
0.0094792044
0.008571002
0.0077387844
0.0069775612
0.0062824864
0.005648886
0.0050722773
0.0045483829
0.0040731389
0.0036427004
0.0032534422
0.002901958
0.0025850573
0.0022997597
0.0020432895
0.0018130682
0.0016067065
0.0014219951
0.0012568967
0.0011095361
0.00097819137
0.00086128456
0.00075737261
0.00066513838
0.00058338205
0.00051101268
0.0004470402
0.0003905677
0.00034078408
0.00029695715
0.00025842707
0.00022460021
0.0001949434
0.00016897854
0.00014627762
0.0001264581
0.0001091786
9.4134982e-05
8.1056799e-05
6.9703534e-05
5.9855098e-05
0.022235883
0.020396587
0.018675191
0.017069686
0.015576303
0.014190681
0.012908067
0.011723436
0.010631603
0.0096273163
0.0087053273
0.007860455
0.0070876305
0.0063819337
0.0057386203
0.0051531413
0.0046211568
0.0041385444
0.0037014038
0.003306058
0.0029490523
0.0026271505
0.00233733
0.0020767752
0.0018428706
0.0016331925
0.0014454997
0.0012777249
0.0011279655
0.00099447402
0.00087564907
0.00077002587
0.00067626737
0.00059315544
0.0005195824
0.00045454284
0.00039712587
0.00034650764
0.00030194439
0.00026276576
0.00022836859
0.00019821109
0.00017180741
0.00014872254
0.00012856762
0.00011099564
9.5697374e-05
8.2397813e-05
7.08525e-05
6.0838685e-05
0.022553212
0.020687792
0.018942014
0.017313839
0.015799421
0.014394319
0.013093696
0.011892443
0.010785291
0.0097669021
0.0088319501
0.007975176
0.0071914378
0.0064757457
0.0058232897
0.0052294589
0.004689855
0.0042003005
0.0037568437
0.0033557592
0.0029935468
0.0026669279
0.0023728399
0.0021084302
0.0018710487
0.0016582391
0.0014677302
0.001297427
0.0011454009
0.0010098804
0.00088924217
0.00078200092
0.00068680088
0.00060240671
0.00052769492
0.00046164569
0.00040333491
0.00035192674
0.00030666647
0.00026687382
0.00023193666
0.00020130506
0.00017448581
0.00015103729
0.00013056471
0.0001127157
9.7176283e-05
8.3667156e-05
7.1940118e-05
6.1769364e-05
0.022851195
0.020961264
0.019192617
0.017543184
0.01600904
0.014585671
0.01326816
0.012051318
0.010929795
0.0098981776
0.0089510615
0.0080831167
0.0072891323
0.0065640538
0.0059030098
0.0053013314
0.0047545659
0.0042584847
0.0038090879
0.0034026048
0.003035493
0.002704434
0.0024063283
0.0021382882
0.0018976313
0.0016818712
0.0014887084
0.0013160218
0.0011618584
0.0010244246
0.00090207593
0.00079330817
0.00069674791
0.0006111436
0.00053535694
0.0004683545
0.00040919979
0.00035704566
0.0003111271
0.00027075449
0.00023530723
0.00020422771
0.00017701583
0.00015322371
0.00013245096
0.00011434018
9.8572878e-05
8.486576e-05
7.2967084e-05
6.2647901e-05
0.023130429
0.021217544
0.019427499
0.017758173
0.016205572
0.014765109
0.013431794
0.012200361
0.011065386
0.010021382
0.0090628746
0.0081844661
0.0073808817
0.0066470063
0.0059779112
0.005368874
0.004815391
0.004313186
0.0038582143
0.0034466632
0.0030749506
0.0027397212
0.0024378406
0.002166389
0.0019226534
0.0017041191
0.0015084607
0.0013335321
0.0011773581
0.0010381238
0.00091416533
0.00080396062
0.0007061197
0.00061937587
0.0005425769
0.00047467662
0.00041472688
0.00036186992
0.00031533106
0.0002744119
0.00023848387
0.00020698217
0.00017940016
0.00015528412
0.00013422838
0.0001158708
9.9888659e-05
8.5994884e-05
7.3934422e-05
6.3475252e-05
0.023391557
0.021457216
0.019647194
0.017959296
0.016389459
0.014933032
0.013584956
0.012339894
0.011192352
0.010136773
0.0091676194
0.008279429
0.0074668678
0.0067247644
0.006048137
0.005432213
0.0048724418
0.0043645028
0.0039043096
0.0034880105
0.0031119867
0.0027728483
0.0024674287
0.0021927777
0.0019461543
0.0017250175
0.001527017
0.0013499844
0.0011919228
0.0010509979
0.00092552779
0.00081397342
0.00071492946
0.000627115
0.00054936477
0.00048062069
0.00041992368
0.00036640603
0.000319284
0.00027785095
0.00024147083
0.0002095721
0.000181642
0.0001572213
0.00013589938
0.00011730964
0.0001011254
8.7056044e-05
7.4843404e-05
6.4252536e-05
0.023635268
0.02168089
0.019852266
0.018147062
0.016561163
0.015089858
0.013728022
0.012470255
0.011310995
0.010244624
0.009265539
0.0083682223
0.0075472839
0.0067975
0.0061138397
0.0054914838
0.0049258382
0.0044125411
0.0039474676
0.0035267296
0.0031466741
0.0028038794
0.0024951487
0.0022175039
0.0019681776
0.0017446043
0.001544411
0.0013654077
0.0012055781
0.0010630694
0.00093618279
0.00082336356
0.00072319198
0.00063437386
0.00055573178
0.00048619647
0.00042479867
0.00037066136
0.00032299231
0.00028107718
0.00024427294
0.00021200169
0.00018374496
0.00015903837
0.00013746664
0.00011865903
0.00010228511
8.8050959e-05
7.5695493e-05
6.4981016e-05
0.02386231
0.021889203
0.020043297
0.018322002
0.016721164
0.015236019
0.013861383
0.012591795
0.011421632
0.010345215
0.009356886
0.0084510718
0.0076223314
0.0068653926
0.006175179
0.0055468283
0.0049757061
0.0044574127
0.0039877871
0.0035629078
0.0031790901
0.0028328827
0.0025210609
0.0022406205
0.0019887699
0.0017629206
0.0015606785
0.0013798337
0.0012183517
0.0010743625
0.00094615147
0.00083214952
0.00073092339
0.00064116653
0.00056169017
0.00049141463
0.00042936114
0.00037464397
0.000326463
0.00028409669
0.00024689546
0.0002142755
0.00018571301
0.00016073877
0.00013893315
0.00011992154
0.00010337
8.8981518e-05
7.6492303e-05
6.5662074e-05
0.02407351
0.022082836
0.020220887
0.018484655
0.016869947
0.015371954
0.013985436
0.012704872
0.011524584
0.010438837
0.0094419196
0.0085282094
0.0076922176
0.0069286273
0.0062323199
0.0055983935
0.0050221763
0.0044992335
0.0040253711
0.0035966363
0.0032093155
0.0028599296
0.0025452283
0.0022621833
0.0020079802
0.0017800095
0.0015758574
0.0013932957
0.0012302727
0.0010849026
0.00095545629
0.00084035094
0.00073814085
0.000647508
0.00056725302
0.00049628656
0.000433621
0.0003783625
0.00032970358
0.00028691599
0.00024934405
0.00021639845
0.00018755039
0.00016232616
0.00014030208
0.00012109989
0.00010438242
8.9849744e-05
7.7235564e-05
6.6297191e-05
0.024269654
0.022262511
0.020385643
0.018635562
0.017008004
0.015498108
0.014100581
0.012809848
0.011620176
0.010525781
0.0095209025
0.0085998707
0.0077571534
0.0069873926
0.0062854307
0.0056463295
0.0050653825
0.0045381226
0.0040603253
0.0036280091
0.0032374334
0.0028850938
0.0025677161
0.0022822497
0.0020258593
0.0017959158
0.0015899872
0.0014058284
0.0012413716
0.0010947167
0.00096412072
0.00084798837
0.00074486236
0.00065341397
0.00057243405
0.00050082423
0.00043758867
0.00038182603
0.00033272194
0.00028954193
0.00025162466
0.00021837569
0.00018926157
0.00016380441
0.00014157676
0.00012219697
0.00010532484
9.0657767e-05
7.7927097e-05
6.6887921e-05
0.031315063
0.028893427
0.026605872
0.024450602
0.022428764
0.020538142
0.018775261
0.017135824
0.015614925
0.01420722
0.012907084
0.011708736
0.010606342
0.0095940989
0.0086662927
0.0078173514
0.0070418789
0.0063346818
0.0056907883
0.0051054603
0.0045742007
0.0040927572
0.0036571218
0.0032635288
0.0029084506
0.002588591
0.0023008787
0.0020424593
0.0018106856
0.0016031085
0.0014174674
0.00125168
0.0011038323
0.00097216897
0.00085508304
0.00075110649
0.00065890071
0.00057724745
0.00050504003
0.00044127496
0.00038504394
0.00033552624
0.00029198161
0.00025374345
0.00022021256
0.00019085118
0.00016517753
0.00014276066
0.00012321577
0.00010619985
9.1407794e-05
7.8568791e-05
6.7435876e-05
0.034099314
0.031529945
0.029091215
0.026787195
0.024617622
0.022582269
0.020678972
0.018904286
0.017253894
0.015722845
0.014305752
0.012996942
0.011790588
0.010680814
0.0096617727
0.0087277127
0.0078730243
0.0070922767
0.0063802437
0.0057319224
0.0051425459
0.0046075896
0.0041227752
0.0036840706
0.0032876873
0.002930076
0.0026079204
0.0023181302
0.0020578331
0.0018243654
0.0016152625
0.0014282492
0.0012612297
0.0011122775
0.00097962574
0.00086165662
0.00075689222
0.00066398481
0.00058170774
0.00050894663
0.00044469092
0.00038802587
0.00033812487
0.00029424231
0.00025570674
0.00022191454
0.00019232397
0.00016644963
0.00014385734
0.00012415936
0.00010701009
9.2102093e-05
7.9162583e-05
6.7942701e-05
0.034313
0.031727434
0.029273196
0.026954458
0.024771523
0.022723683
0.020808715
0.019023167
0.017362692
0.015822305
0.014396572
0.013079778
0.011866055
0.010749486
0.0097241855
0.0087843659
0.0079243836
0.0071387759
0.0064222864
0.0057698842
0.0051767755
0.0046384106
0.0041504877
0.0037089523
0.0033099949
0.0029500464
0.0026257721
0.0023340642
0.002072034
0.0018370025
0.0016264908
0.0014382104
0.001270053
0.0011200808
0.000986516
0.00086773102
0.00076223877
0.0006686831
0.00058582963
0.00051255687
0.00044784776
0.00039078158
0.00034052633
0.00029633143
0.00025752095
0.0002234872
0.00019368476
0.00016762488
0.00014487039
0.00012503085
0.00010775823
9.2742965e-05
7.9710439e-05
6.8410067e-05
0.034509403
0.031908844
0.029440395
0.027108271
0.024912981
0.022853637
0.020927943
0.019132421
0.017462691
0.015913731
0.014480066
0.013155944
0.011935455
0.010812645
0.0097815954
0.0088364847
0.0079716383
0.0071815641
0.0064609785
0.0058048246
0.005208284
0.0046667845
0.0041760024
0.0037318628
0.0033305371
0.002968438
0.0026422138
0.0023487406
0.002085115
0.0018486437
0.0016368349
0.0014473876
0.0012781824
0.0011272707
0.00099286482
0.00087332825
0.00076716544
0.0006730125
0.00058962793
0.0005158837
0.00045075675
0.00039332091
0.00034273916
0.0002982564
0.00025919254
0.00022493615
0.0001949384
0.00016870749
0.00014580345