/*--------------------------------*- C++ -*----------------------------------*\
| =========                 |                                                 |
| \\      /  F ield         | OpenFOAM: The Open Source CFD Toolbox           |
|  \\    /   O peration     | Version:  2312                                  |
|   \\  /    A nd           | Website:  www.openfoam.com                      |
|    \\/     M anipulation  |                                                 |
\*---------------------------------------------------------------------------*/
FoamFile
{
    version     2.0;
    format      ascii;
    arch        "LSB;label=32;scalar=64";
    class       volScalarField;
    location    "0.02";
    object      N2;
}
// * * * * * * * * * * * * * * * * * * * * * * * * * * * * * * * * * * * * * //

dimensions      [0 0 0 0 0 0 0];

internalField   nonuniform List<scalar> 
3250
(
0.76867658
0.76880146
0.76891607
0.76902106
0.76911705
0.76920469
0.76928457
0.76935726
0.76942331
0.76948323
0.76953751
0.7695866
0.76963094
0.76967094
0.76970695
0.76973934
0.76976844
0.76979453
0.76981789
0.76983879
0.76985747
0.76987412
0.76988896
0.76990216
0.7699139
0.76992431
0.76993354
0.76994172
0.76994894
0.76995532
0.76996095
0.76996591
0.76997027
0.76997411
0.76997748
0.76998043
0.76998301
0.76998527
0.76998725
0.76998897
0.76999047
0.76999178
0.76999291
0.7699939
0.76865984
0.76878631
0.76890239
0.7690087
0.76910591
0.76919466
0.76927554
0.76934915
0.76941603
0.76947671
0.76953167
0.76958139
0.76962629
0.76966679
0.76970326
0.76973606
0.76976552
0.76979193
0.7698156
0.76983676
0.76985567
0.76987253
0.76988756
0.76990093
0.76991281
0.76992336
0.7699327
0.76994098
0.7699483
0.76995476
0.76996046
0.76996548
0.7699699
0.76997378
0.76997719
0.76998018
0.7699828
0.76998508
0.76998708
0.76998883
0.76999035
0.76999167
0.76999282
0.76999382
0.7686284
0.76875782
0.76887661
0.76898541
0.76908489
0.76917572
0.7692585
0.76933383
0.76940228
0.76946438
0.76952063
0.76957151
0.76961747
0.76965892
0.76969625
0.76972982
0.76975997
0.76978701
0.76981123
0.7698329
0.76985225
0.76986951
0.7698849
0.76989858
0.76991074
0.76992154
0.76993111
0.76993958
0.76994707
0.76995368
0.76995952
0.76996466
0.76996918
0.76997316
0.76997665
0.76997971
0.76998239
0.76998473
0.76998678
0.76998856
0.76999012
0.76999147
0.76999265
0.76999368
0.76858412
0.76871767
0.76884026
0.76895254
0.76905522
0.76914897
0.76923441
0.76931217
0.76938283
0.76944693
0.769505
0.76955753
0.76960498
0.76964777
0.76968631
0.76972098
0.76975211
0.76978003
0.76980504
0.76982741
0.7698474
0.76986522
0.76988111
0.76989524
0.7699078
0.76991895
0.76992883
0.76993758
0.76994532
0.76995215
0.76995818
0.76996349
0.76996816
0.76997227
0.76997587
0.76997903
0.7699818
0.76998422
0.76998634
0.76998818
0.76998979
0.76999119
0.76999241
0.76999347
0.76852862
0.76866733
0.76879466
0.7689113
0.76901797
0.76911536
0.76920414
0.76928494
0.76935836
0.76942498
0.76948533
0.76953993
0.76958924
0.76963372
0.76967379
0.76970982
0.76974219
0.76977122
0.76979722
0.76982048
0.76984126
0.7698598
0.76987632
0.76989102
0.76990408
0.76991568
0.76992596
0.76993506
0.76994311
0.76995021
0.76995648
0.76996201
0.76996687
0.76997114
0.76997489
0.76997818
0.76998106
0.76998358
0.76998578
0.7699877
0.76998937
0.76999083
0.7699921
0.7699932
0.76846334
0.76860809
0.76874098
0.76886273
0.76897408
0.76907575
0.76916845
0.76925282
0.76932949
0.76939906
0.7694621
0.76951913
0.76957065
0.76961712
0.76965898
0.76969663
0.76973045
0.76976079
0.76978797
0.76981228
0.769834
0.76985338
0.76987065
0.76988602
0.76989967
0.7699118
0.76992255
0.76993206
0.76994048
0.76994791
0.76995447
0.76996025
0.76996533
0.7699698
0.76997373
0.76997717
0.76998018
0.76998281
0.76998512
0.76998713
0.76998888
0.7699904
0.76999173
0.76999288
0.76838958
0.76854112
0.76868028
0.76880778
0.76892441
0.76903091
0.76912802
0.76921642
0.76929677
0.76936968
0.76943575
0.76949553
0.76954954
0.76959826
0.76964216
0.76968164
0.76971711
0.76974893
0.76977744
0.76980295
0.76982573
0.76984607
0.76986419
0.76988032
0.76989465
0.76990738
0.76991866
0.76992865
0.76993749
0.76994529
0.76995218
0.76995824
0.76996358
0.76996828
0.7699724
0.76997601
0.76997917
0.76998194
0.76998436
0.76998647
0.76998831
0.76998991
0.76999131
0.76999252
0.76830849
0.76846749
0.7686135
0.76874731
0.76886973
0.76898154
0.76908349
0.76917632
0.7692607
0.76933728
0.76940669
0.76946949
0.76952624
0.76957744
0.76962358
0.76966508
0.76970237
0.76973582
0.7697658
0.76979262
0.76981659
0.76983798
0.76985704
0.76987401
0.76988909
0.76990248
0.76991435
0.76992487
0.76993417
0.76994238
0.76994963
0.76995602
0.76996164
0.76996658
0.76997092
0.76997473
0.76997806
0.76998098
0.76998352
0.76998575
0.76998769
0.76998937
0.76999084
0.76999212
0.76822105
0.76838813
0.76854153
0.76868212
0.76881076
0.76892827
0.76903544
0.76913302
0.76922174
0.76930228
0.76937528
0.76944134
0.76950105
0.76955492
0.76960347
0.76964715
0.76968641
0.76972163
0.76975319
0.76978143
0.76980668
0.76982921
0.76984929
0.76986716
0.76988305
0.76989717
0.76990968
0.76992076
0.76993057
0.76993923
0.76994687
0.7699536
0.76995953
0.76996474
0.76996932
0.76997333
0.76997685
0.76997993
0.76998261
0.76998496
0.769987
0.76998879
0.76999033
0.76999168
0.76773048
0.76793755
0.76812844
0.76830401
0.7684652
0.76861296
0.76874817
0.76887171
0.7689844
0.76908702
0.76918034
0.76926506
0.76934187
0.76941139
0.76947423
0.76953095
0.76958206
0.76962806
0.7696694
0.7697065
0.76973975
0.7697695
0.7697961
0.76981985
0.76984101
0.76985986
0.76987661
0.76989149
0.76990469
0.76991638
0.76992672
0.76993585
0.76994392
0.76995102
0.76995728
0.76996278
0.76996761
0.76997185
0.76997556
0.7699788
0.76998164
0.76998412
0.76998628
0.76998816
0.76998979
0.76999121
0.76761377
0.76783116
0.76803158
0.76821596
0.76838528
0.76854051
0.76868259
0.76881242
0.76893087
0.76903876
0.76913689
0.769226
0.76930679
0.76937993
0.76944605
0.76950574
0.76955954
0.76960797
0.7696515
0.76969057
0.76972559
0.76975694
0.76978497
0.76980999
0.7698323
0.76985216
0.76986982
0.76988551
0.76989943
0.76991175
0.76992266
0.7699323
0.7699408
0.7699483
0.7699549
0.76996071
0.7699658
0.76997027
0.76997419
0.76997762
0.76998061
0.76998323
0.76998551
0.76998749
0.76998922
0.76999072
0.76749309
0.76772108
0.76793132
0.76812478
0.76830247
0.76846541
0.76861458
0.76875092
0.76887533
0.76898867
0.76909177
0.76918541
0.76927034
0.76934723
0.76941676
0.76947953
0.76953612
0.76958707
0.76963287
0.76967399
0.76971086
0.76974386
0.76977337
0.76979972
0.76982321
0.76984413
0.76986274
0.76987927
0.76989394
0.76990693
0.76991843
0.76992859
0.76993755
0.76994546
0.76995242
0.76995854
0.76996392
0.76996863
0.76997277
0.76997638
0.76997954
0.7699823
0.76998471
0.7699868
0.76998862
0.76999021
0.76736934
0.76760815
0.76782844
0.76803118
0.76821744
0.76838827
0.7685447
0.76868769
0.76881821
0.76893714
0.76904534
0.76914364
0.7692328
0.76931355
0.76938657
0.76945252
0.76951198
0.76956552
0.76961366
0.76965689
0.76969565
0.76973035
0.76976139
0.76978911
0.76981383
0.76983584
0.76985543
0.76987283
0.76988826
0.76990194
0.76991405
0.76992475
0.76993419
0.76994252
0.76994985
0.7699563
0.76996197
0.76996694
0.76997129
0.7699751
0.76997843
0.76998134
0.76998388
0.76998609
0.76998801
0.76998968
0.7672434
0.7674932
0.76772367
0.76793583
0.76813079
0.76830964
0.76847344
0.7686232
0.76875993
0.76888454
0.76899794
0.76910098
0.76919445
0.76927913
0.76935572
0.76942489
0.76948728
0.76954347
0.769594
0.76963938
0.76968007
0.76971652
0.76974912
0.76977824
0.76980421
0.76982734
0.76984793
0.76986622
0.76988244
0.76989683
0.76990956
0.76992081
0.76993075
0.76993951
0.76994722
0.76995401
0.76995997
0.7699652
0.76996978
0.76997379
0.7699773
0.76998036
0.76998303
0.76998535
0.76998737
0.76998913
0.76711611
0.76737698
0.76761771
0.76783937
0.7680431
0.76823003
0.76840127
0.76855788
0.76870087
0.76883122
0.76894987
0.7690577
0.76915554
0.76924419
0.76932439
0.76939684
0.76946219
0.76952106
0.76957401
0.76962157
0.76966424
0.76970245
0.76973664
0.76976717
0.76979442
0.76981869
0.76984029
0.76985949
0.76987652
0.76989162
0.76990498
0.7699168
0.76992723
0.76993643
0.76994454
0.76995167
0.76995793
0.76996342
0.76996824
0.76997245
0.76997614
0.76997936
0.76998216
0.7699846
0.76998673
0.76998858
0.76698823
0.76726018
0.7675112
0.76774237
0.76795489
0.76814993
0.76832864
0.7684921
0.76864139
0.76877751
0.76890143
0.76901407
0.76911631
0.76920895
0.76929278
0.76936853
0.76943687
0.76949844
0.76955383
0.76960359
0.76964824
0.76968823
0.76972402
0.76975599
0.76978452
0.76980994
0.76983257
0.76985268
0.76987052
0.76988635
0.76990035
0.76991274
0.76992368
0.76993332
0.76994182
0.7699493
0.76995586
0.76996163
0.76996668
0.7699711
0.76997497
0.76997834
0.76998128
0.76998385
0.76998608
0.76998802
0.76686042
0.76714346
0.76740472
0.76764538
0.76786667
0.76806979
0.76825594
0.76842625
0.76858182
0.7687237
0.76885289
0.76897034
0.76907696
0.76917361
0.76926107
0.76934012
0.76941144
0.76947572
0.76953356
0.76958552
0.76963216
0.76967394
0.76971133
0.76974475
0.76977457
0.76980114
0.7698248
0.76984582
0.76986449
0.76988104
0.76989569
0.76990865
0.7699201
0.76993019
0.76993909
0.76994691
0.76995379
0.76995982
0.76996511
0.76996974
0.76997379
0.76997732
0.7699804
0.76998309
0.76998542
0.76998745
0.76673325
0.76702739
0.76729883
0.7675489
0.76777887
0.76799002
0.76818355
0.76836066
0.76852247
0.76867007
0.76880449
0.76892673
0.76903772
0.76913834
0.76922942
0.76931175
0.76938606
0.76945303
0.7695133
0.76956747
0.76961608
0.76965965
0.76969865
0.7697335
0.76976461
0.76979234
0.76981702
0.76983897
0.76985845
0.76987573
0.76989103
0.76990456
0.76991651
0.76992706
0.76993635
0.76994452
0.7699517
0.76995801
0.76996354
0.76996837
0.7699726
0.7699763
0.76997952
0.76998232
0.76998476
0.76998689
0.76627812
0.76660767
0.76691258
0.76719403
0.76745337
0.76769192
0.76791098
0.76811181
0.76829563
0.76846361
0.76861686
0.76875647
0.76888344
0.76899875
0.76910331
0.76919798
0.76928356
0.76936082
0.76943047
0.76949316
0.76954951
0.7696001
0.76964544
0.76968602
0.76972231
0.76975469
0.76978357
0.76980928
0.76983214
0.76985244
0.76987044
0.76988638
0.76990048
0.76991294
0.76992393
0.76993362
0.76994214
0.76994963
0.7699562
0.76996197
0.76996701
0.76997143
0.76997528
0.76997864
0.76998156
0.76998411
0.76998632
0.76614312
0.76648401
0.76679948
0.76709075
0.76735919
0.76760617
0.76783301
0.76804102
0.76823144
0.76840549
0.76856432
0.76870903
0.76884067
0.76896024
0.76906868
0.76916688
0.76925568
0.76933585
0.76940814
0.76947322
0.76953173
0.76958426
0.76963135
0.76967352
0.76971121
0.76974487
0.76977488
0.7698016
0.76982537
0.76984647
0.76986519
0.76988177
0.76989644
0.7699094
0.76992083
0.76993091
0.76993978
0.76994757
0.76995441
0.76996041
0.76996566
0.76997026
0.76997427
0.76997776
0.76998081
0.76998346
0.76998576
0.76601061
0.76636267
0.7666885
0.76698938
0.76726673
0.76752195
0.76775641
0.76797145
0.76816835
0.76834835
0.76851264
0.76866235
0.76879857
0.76892232
0.76903458
0.76913625
0.76922821
0.76931125
0.76938613
0.76945356
0.7695142
0.76956864
0.76961746
0.76966117
0.76970026
0.76973517
0.7697663
0.76979402
0.76981868
0.76984058
0.76986001
0.76987722
0.76989244
0.7699059
0.76991777
0.76992823
0.76993744
0.76994554
0.76995265
0.76995888
0.76996433
0.7699691
0.76997327
0.7699769
0.76998007
0.76998282
0.76998521
0.76588098
0.76624407
0.76658
0.76689025
0.76717629
0.76743955
0.76768145
0.76790334
0.76810656
0.76829237
0.768462
0.7686166
0.7687573
0.76888514
0.76900113
0.7691062
0.76920125
0.7692871
0.76936453
0.76943426
0.76949698
0.7695533
0.76960381
0.76964905
0.7696895
0.76972564
0.76975786
0.76978657
0.7698121
0.76983479
0.76985491
0.76987274
0.76988851
0.76990246
0.76991476
0.7699256
0.76993515
0.76994354
0.7699509
0.76995736
0.76996302
0.76996797
0.76997229
0.76997605
0.76997933
0.76998219
0.76998467
0.76535234
0.76575505
0.76612862
0.76647433
0.76679367
0.76708814
0.76735922
0.76760834
0.76783691
0.76804627
0.76823774
0.76841256
0.76857193
0.76871698
0.76884881
0.76896844
0.76907683
0.76917489
0.76926348
0.76934339
0.76941537
0.76948012
0.76953828
0.76959044
0.76963717
0.76967896
0.7697163
0.7697496
0.76977926
0.76980566
0.76982911
0.76984991
0.76986835
0.76988466
0.76989908
0.7699118
0.76992302
0.7699329
0.76994158
0.7699492
0.76995588
0.76996173
0.76996685
0.76997132
0.76997522
0.76997862
0.76998157
0.76998414
0.7652193
0.76563287
0.76601658
0.76637174
0.76669988
0.76700252
0.76728116
0.76753729
0.76777232
0.76798764
0.7681846
0.76836446
0.76852845
0.76867774
0.76881344
0.7689366
0.76904821
0.76914921
0.76924046
0.76932279
0.76939696
0.76946368
0.76952363
0.7695774
0.76962558
0.76966868
0.76970718
0.76974153
0.76977213
0.76979936
0.76982356
0.76984503
0.76986406
0.7698809
0.76989578
0.76990892
0.7699205
0.7699307
0.76993966
0.76994753
0.76995443
0.76996048
0.76996576
0.76997038
0.76997441
0.76997792
0.76998097
0.76998362
0.76509053
0.76551467
0.76590818
0.76627247
0.76660909
0.76691961
0.76720557
0.76746845
0.76770973
0.76793082
0.76813307
0.7683178
0.76848627
0.76863966
0.76877911
0.7689057
0.76902043
0.76912426
0.76921809
0.76930277
0.76937906
0.76944771
0.76950939
0.76956473
0.76961431
0.76965867
0.76969831
0.76973368
0.76976519
0.76979324
0.76981816
0.76984028
0.76985988
0.76987723
0.76989257
0.76990611
0.76991804
0.76992855
0.76993779
0.76994591
0.76995302
0.76995925
0.7699647
0.76996947
0.76997362
0.76997723
0.76998038
0.76998312
0.76496621
0.76540066
0.76580361
0.76617668
0.76652147
0.76683958
0.76713257
0.76740197
0.76764926
0.7678759
0.76808327
0.7682727
0.76844548
0.76860283
0.7687459
0.76887578
0.76899353
0.76910011
0.76919644
0.76928337
0.76936172
0.76943222
0.76949558
0.76955243
0.76960338
0.76964897
0.76968971
0.76972606
0.76975846
0.7697873
0.76981292
0.76983567
0.76985583
0.76987368
0.76988945
0.76990338
0.76991566
0.76992647
0.76993598
0.76994433
0.76995165
0.76995807
0.76996368
0.76996858
0.76997285
0.76997657
0.76997981
0.76998263
0.76436948
0.76484699
0.76529108
0.76570305
0.76608453
0.76643716
0.76676255
0.76706229
0.76733794
0.76759101
0.76782298
0.76803526
0.76822922
0.76840615
0.7685673
0.76871385
0.76884692
0.76896757
0.76907679
0.76917553
0.76926465
0.76934497
0.76941727
0.76948224
0.76954056
0.76959282
0.76963959
0.76968139
0.7697187
0.76975195
0.76978155
0.76980786
0.76983121
0.76985191
0.76987023
0.76988644
0.76990074
0.76991335
0.76992446
0.76993423
0.76994281
0.76995033
0.76995692
0.76996268
0.76996772
0.76997211
0.76997593
0.76997926
0.76998215
0.76424543
0.76473272
0.76518601
0.7656066
0.76599612
0.76635624
0.7666886
0.7669948
0.76727644
0.76753506
0.76777214
0.76798913
0.76818742
0.76836833
0.76853313
0.76868303
0.76881915
0.76894259
0.76905435
0.76915539
0.76924661
0.76932884
0.76940286
0.76946939
0.76952911
0.76958264
0.76963055
0.76967337
0.7697116
0.76974567
0.76977601
0.76980297
0.7698269
0.76984813
0.76986691
0.76988353
0.76989819
0.76991113
0.76992252
0.76993254
0.76994134
0.76994905
0.76995581
0.76996172
0.76996689
0.76997139
0.76997531
0.76997873
0.7699817
0.76412675
0.76462342
0.7650855
0.76551431
0.76591152
0.76627879
0.7666178
0.76693018
0.76721754
0.76748145
0.76772341
0.76794491
0.76814735
0.76833207
0.76850036
0.76865345
0.7687925
0.76891861
0.76903281
0.76913606
0.76922929
0.76931335
0.76938902
0.76945704
0.76951811
0.76957285
0.76962186
0.76966567
0.76970477
0.76973964
0.76977067
0.76979827
0.76982277
0.76984449
0.76986372
0.76988073
0.76989574
0.76990899
0.76992065
0.76993091
0.76993992
0.76994782
0.76995474
0.7699608
0.76996609
0.7699707
0.76997472
0.76997822
0.76998126
0.76401353
0.76451914
0.7649896
0.76542624
0.76583076
0.76620484
0.76655019
0.76686845
0.76716126
0.76743021
0.76767684
0.76790264
0.76810903
0.76829738
0.76846901
0.76862516
0.768767
0.76889566
0.76901218
0.76911755
0.76921271
0.7692985
0.76937575
0.76944521
0.76950757
0.76956347
0.76961353
0.76965828
0.76969823
0.76973385
0.76976556
0.76979376
0.7698188
0.769841
0.76986066
0.76987804
0.76989339
0.76990693
0.76991886
0.76992935
0.76993856
0.76994664
0.76995372
0.76995991
0.76996532
0.76997004
0.76997415
0.76997773
0.76998083
0.76390579
0.7644199
0.76489831
0.76534239
0.76575385
0.76613441
0.76648578
0.76680963
0.76710763
0.76738138
0.76763244
0.76786232
0.76807247
0.76826429
0.76843909
0.76859815
0.76874266
0.76887374
0.76899248
0.76909987
0.76919686
0.76928432
0.76936308
0.7694339
0.76949749
0.76955451
0.76960556
0.76965121
0.76969197
0.76972831
0.76976067
0.76978944
0.769815
0.76983766
0.76985772
0.76987547
0.76989114
0.76990497
0.76991714
0.76992785
0.76993726
0.76994551
0.76995274
0.76995907
0.76996459
0.76996941
0.76997361
0.76997726
0.76998043
0.76998318
0.76380352
0.76432566
0.76481162
0.76526275
0.76568079
0.76606749
0.76642456
0.76675372
0.76705664
0.76733494
0.7675902
0.76782396
0.76803769
0.76823279
0.76841061
0.76857243
0.76871947
0.76885287
0.76897371
0.76908303
0.76918176
0.7692708
0.769351
0.76942312
0.76948788
0.76954595
0.76959796
0.76964446
0.76968599
0.76972302
0.769756
0.76978533
0.76981137
0.76983447
0.76985492
0.76987302
0.76988899
0.76990309
0.7699155
0.76992643
0.76993602
0.76994443
0.76995181
0.76995826
0.76996389
0.76996881
0.76997309
0.76997681
0.76998005
0.76998286
0.76370665
0.76423639
0.76472947
0.76518728
0.76561154
0.76600404
0.76636652
0.7667007
0.76700826
0.76729087
0.76755012
0.76778756
0.76800467
0.76820289
0.76838357
0.76854801
0.76869744
0.76883303
0.76895588
0.76906701
0.7691674
0.76925795
0.76933951
0.76941286
0.76947874
0.76953782
0.76959073
0.76963805
0.76968031
0.76971799
0.76975156
0.76978141
0.76980792
0.76983143
0.76985226
0.76987068
0.76988695
0.7699013
0.76991394
0.76992507
0.76993484
0.76994341
0.76995092
0.76995749
0.76996322
0.76996823
0.76997259
0.76997639
0.76997968
0.76998254
0.76361511
0.76415201
0.76465182
0.76511591
0.76554606
0.76594403
0.76631161
0.76665052
0.76696248
0.76724916
0.76751218
0.76775309
0.7679734
0.76817456
0.76835794
0.76852486
0.76867657
0.76881423
0.76893897
0.76905183
0.76915378
0.76924576
0.7693286
0.76940313
0.76947006
0.76953009
0.76958386
0.76963195
0.76967491
0.76971322
0.76974734
0.76977768
0.76980464
0.76982855
0.76984972
0.76986846
0.76988501
0.7698996
0.76991246
0.76992378
0.76993371
0.76994243
0.76995007
0.76995675
0.76996259
0.76996769
0.76997212
0.76997598
0.76997934
0.76998225
0.76352878
0.76407244
0.76457858
0.76504859
0.76548426
0.7658874
0.76625977
0.76660315
0.76691926
0.76720977
0.76747633
0.76772051
0.76794384
0.76814778
0.76833372
0.76850298
0.76865682
0.76879645
0.76892297
0.76903746
0.7691409
0.76923422
0.76931828
0.76939391
0.76946184
0.76952278
0.76957736
0.76962618
0.76966979
0.76970869
0.76974334
0.76977416
0.76980153
0.76982581
0.76984732
0.76986635
0.76988316
0.76989799
0.76991106
0.76992255
0.76993265
0.76994151
0.76994927
0.76995606
0.76996199
0.76996717
0.76997168
0.7699756
0.76997901
0.76998196
0.76344756
0.76399755
0.76450963
0.76498521
0.76542608
0.76583406
0.76621095
0.76655852
0.76687852
0.76717264
0.76744254
0.76768981
0.76791598
0.76812253
0.76831086
0.76848233
0.76863819
0.76877966
0.76890787
0.76902389
0.76912873
0.76922332
0.76930854
0.76938521
0.76945408
0.76951587
0.76957122
0.76962073
0.76966496
0.76970441
0.76973956
0.76977082
0.76979859
0.76982323
0.76984506
0.76986436
0.76988142
0.76989647
0.76990973
0.76992139
0.76993164
0.76994063
0.76994851
0.7699554
0.76996143
0.76996668
0.76997126
0.76997524
0.7699787
0.7699817
0.7633713
0.76392723
0.76444489
0.76492567
0.76537142
0.76578394
0.76616506
0.76651657
0.76684023
0.76713773
0.76741076
0.76766092
0.76788976
0.76809877
0.76828936
0.76846289
0.76862066
0.76876386
0.76889365
0.76901112
0.76911727
0.76921305
0.76929936
0.76937701
0.76944677
0.76950936
0.76956543
0.76961559
0.7696604
0.76970038
0.76973599
0.76976768
0.76979582
0.76982079
0.76984291
0.76986249
0.76987978
0.76989503
0.76990848
0.7699203
0.76993069
0.76993981
0.7699478
0.76995479
0.76996089
0.76996622
0.76997086
0.7699749
0.7699784
0.76998145
0.76329985
0.76386134
0.7643842
0.76486987
0.76532017
0.76573695
0.76612203
0.76647723
0.7668043
0.76710498
0.76738094
0.76763381
0.76786515
0.76807645
0.76826916
0.76844464
0.76860418
0.76874901
0.76888029
0.76899911
0.7691065
0.7692034
0.76929072
0.76936929
0.76943989
0.76950323
0.76955998
0.76961075
0.76965611
0.76969658
0.76973264
0.76976472
0.76979321
0.7698185
0.7698409
0.76986072
0.76987823
0.76989368
0.7699073
0.76991927
0.7699298
0.76993903
0.76994712
0.7699542
0.76996039
0.76996578
0.76997049
0.76997458
0.76997813
0.76998121
0.76323304
0.76379974
0.76432746
0.76481767
0.76527223
0.76569298
0.76608176
0.7664404
0.76677067
0.76707431
0.76735301
0.76760841
0.76784209
0.76805555
0.76825024
0.76842753
0.76858874
0.76873509
0.76886777
0.76898786
0.76909639
0.76919435
0.76928262
0.76936206
0.76943344
0.76949748
0.76955487
0.76960621
0.76965209
0.76969302
0.76972949
0.76976194
0.76979077
0.76981634
0.76983901
0.76985906
0.76987678
0.76989241
0.76990619
0.76991831
0.76992896
0.7699383
0.76994649
0.76995366
0.76995992
0.76996538
0.76997014
0.76997427
0.76997787
0.76998099
0.76317068
0.76374227
0.76427451
0.76476896
0.76522747
0.76565192
0.76604416
0.766406
0.76673925
0.76704565
0.76732692
0.76758468
0.76782054
0.76803601
0.76823255
0.76841154
0.7685743
0.76872208
0.76885605
0.76897732
0.76908694
0.76918588
0.76927504
0.76935529
0.7694274
0.7694921
0.76955008
0.76960196
0.76964832
0.76968969
0.76972654
0.76975933
0.76978847
0.76981433
0.76983724
0.76985751
0.76987542
0.76989122
0.76990515
0.7699174
0.76992817
0.76993762
0.7699459
0.76995314
0.76995947
0.769965
0.76996981
0.76997399
0.76997763
0.76998078
0.76311256
0.76368877
0.76422521
0.76472359
0.76518579
0.76561368
0.76600912
0.76637395
0.76670997
0.76701895
0.76730259
0.76756256
0.76780045
0.76801779
0.76821604
0.76839661
0.76856082
0.76870993
0.76884511
0.76896749
0.76907812
0.76917797
0.76926797
0.76934896
0.76942175
0.76948708
0.76954561
0.76959799
0.7696448
0.76968657
0.76972379
0.7697569
0.76978633
0.76981244
0.76983558
0.76985605
0.76987415
0.76989011
0.76990418
0.76991656
0.76992744
0.76993698
0.76994535
0.76995267
0.76995906
0.76996464
0.7699695
0.76997373
0.7699774
0.76998059
0.7630585
0.76363905
0.7641794
0.76468144
0.76514705
0.76557813
0.76597655
0.76634415
0.76668274
0.7669941
0.76727996
0.76754197
0.76778175
0.76800083
0.76820068
0.76838272
0.76854828
0.76869862
0.76883493
0.76895834
0.7690699
0.7691706
0.76926137
0.76934307
0.7694165
0.76948239
0.76954145
0.76959429
0.76964152
0.76968366
0.76972122
0.76975464
0.76978433
0.76981068
0.76983404
0.7698547
0.76987296
0.76988908
0.76990328
0.76991577
0.76992675
0.76993639
0.76994483
0.76995222
0.76995868
0.76996431
0.76996921
0.76997348
0.76997719
0.76998041
0.76099687
0.76171234
0.76238208
0.76300866
0.76359301
0.76413695
0.76464236
0.76511113
0.76554517
0.76594634
0.7663165
0.76665748
0.76697105
0.76725896
0.76752287
0.76776439
0.76798508
0.76818642
0.76836982
0.76853663
0.76868811
0.76882547
0.76894983
0.76906226
0.76916376
0.76925525
0.7693376
0.76941161
0.76947804
0.76953757
0.76959085
0.76963847
0.76968096
0.76971883
0.76975253
0.76978247
0.76980905
0.7698326
0.76985344
0.76987186
0.76988811
0.76990243
0.76991504
0.76992612
0.76993583
0.76994435
0.7699518
0.76995832
0.769964
0.76996895
0.76997326
0.769977
0.76998024
0.76017167
0.76093853
0.7616584
0.76233243
0.76296262
0.76355045
0.76409769
0.76460621
0.76507791
0.76551467
0.76591838
0.76629092
0.7666341
0.76694972
0.76723952
0.76750517
0.76774832
0.7679705
0.76817321
0.76835787
0.76852584
0.76867838
0.7688167
0.76894195
0.76905518
0.76915741
0.76924957
0.76933252
0.76940708
0.769474
0.76953398
0.76958766
0.76963564
0.76967845
0.76971661
0.76975057
0.76978075
0.76980753
0.76983127
0.76985227
0.76987084
0.76988722
0.76990165
0.76991436
0.76992552
0.76993532
0.76994391
0.76995142
0.76995798
0.76996371
0.7699687
0.76997304
0.76997681
0.76998009
0.76011396
0.76088492
0.76160876
0.76228656
0.76292015
0.7635112
0.76406149
0.76457287
0.76504725
0.76548652
0.76589258
0.7662673
0.76661251
0.76693002
0.76722156
0.76748884
0.76773347
0.76795703
0.76816101
0.76834683
0.76851586
0.76866938
0.7688086
0.76893466
0.76904864
0.76915155
0.76924432
0.76932783
0.76940289
0.76947027
0.76953066
0.76958471
0.76963302
0.76967614
0.76971456
0.76974876
0.76977916
0.76980613
0.76983003
0.76985119
0.76986989
0.76988639
0.76990093
0.76991373
0.76992498
0.76993485
0.7699435
0.76995106
0.76995768
0.76996345
0.76996847
0.76997285
0.76997665
0.76997994
0.76006084
0.76083564
0.7615631
0.76224432
0.76288107
0.76347509
0.76402817
0.76454219
0.76501904
0.76546062
0.76586883
0.76624556
0.76659264
0.76691188
0.76720503
0.76747379
0.76771979
0.76794462
0.76814976
0.76833666
0.76850667
0.76866109
0.76880113
0.76892794
0.76904261
0.76914614
0.76923947
0.7693235
0.76939903
0.76946683
0.7695276
0.76958199
0.76963061
0.769674
0.76971267
0.76974709
0.76977768
0.76980483
0.7698289
0.76985019
0.76986902
0.76988563
0.76990027
0.76991315
0.76992447
0.76993441
0.76994312
0.76995074
0.76995739
0.7699632
0.76996826
0.76997267
0.76997649
0.76997981
0.76001211
0.76079042
0.76152121
0.76220555
0.76284521
0.76344195
0.7639976
0.76451403
0.76499314
0.76543684
0.76584703
0.76622559
0.76657439
0.76689521
0.76718984
0.76745996
0.76770723
0.76793321
0.76813943
0.76832731
0.76849822
0.76865347
0.76879427
0.76892177
0.76903707
0.76914117
0.76923502
0.76931952
0.76939547
0.76946366
0.76952478
0.76957949
0.76962839
0.76967203
0.76971093
0.76974556
0.76977633
0.76980364
0.76982785
0.76984928
0.76986821
0.76988492
0.76989965
0.76991262
0.76992401
0.76993401
0.76994277
0.76995043
0.76995713
0.76996298
0.76996807
0.7699725
0.76997635
0.76997969
0.75996755
0.76074907
0.76148289
0.76217007
0.76281239
0.76341163
0.76396963
0.76448827
0.76496944
0.76541508
0.76582707
0.76620732
0.76655768
0.76687996
0.76717593
0.7674473
0.76769572
0.76792277
0.76812996
0.76831874
0.76849048
0.76864649
0.76878798
0.76891611
0.76903198
0.76913661
0.76923094
0.76931587
0.76939222
0.76946076
0.7695222
0.76957719
0.76962635
0.76967023
0.76970934
0.76974415
0.76977509
0.76980255
0.76982689
0.76984844
0.76986748
0.76988428
0.76989909
0.76991213
0.76992358
0.76993364
0.76994245
0.76995016
0.76995689
0.76996277
0.76996789
0.76997235
0.76997622
0.76997958
0.75992695
0.76071138
0.76144795
0.76213772
0.76278247
0.76338399
0.76394413
0.76446477
0.76494783
0.76539522
0.76580886
0.76619065
0.76654243
0.76686604
0.76716324
0.76743575
0.76768522
0.76791324
0.76812132
0.76831092
0.76848342
0.76864011
0.76878223
0.76891095
0.76902734
0.76913245
0.76922721
0.76931254
0.76938924
0.76945811
0.76951984
0.7695751
0.76962449
0.76966858
0.76970788
0.76974286
0.76977396
0.76980155
0.76982602
0.76984767
0.7698668
0.76988369
0.76989858
0.76991168
0.76992319
0.7699333
0.76994215
0.7699499
0.76995668
0.76996259
0.76996773
0.76997221
0.7699761
0.76997948
0.75989007
0.76067714
0.7614162
0.76210832
0.76275527
0.76335886
0.76392095
0.76444342
0.76492818
0.76537718
0.76579231
0.76617549
0.76652857
0.76685338
0.7671517
0.76742524
0.76767566
0.76790456
0.76811346
0.76830381
0.76847699
0.76863431
0.768777
0.76890624
0.76902312
0.76912866
0.76922382
0.7693095
0.76938654
0.76945569
0.76951769
0.76957319
0.7696228
0.76966708
0.76970656
0.76974169
0.76977292
0.76980065
0.76982522
0.76984697
0.76986619
0.76988316
0.76989811
0.76991127
0.76992284
0.76993299
0.76994189
0.76994967
0.76995648
0.76996241
0.76996759
0.76997209
0.769976
0.76997939
0.75985671
0.76064617
0.76138748
0.76208171
0.76273066
0.76333612
0.76389996
0.76442408
0.76491039
0.76536083
0.76577732
0.76616175
0.76651601
0.76684191
0.76714124
0.76741572
0.76766701
0.76789671
0.76810634
0.76829736
0.76847116
0.76862905
0.76877227
0.76890198
0.76901929
0.76912522
0.76922075
0.76930675
0.76938408
0.7694535
0.76951574
0.76957146
0.76962126
0.76966572
0.76970535
0.76974063
0.76977199
0.76979982
0.76982449
0.76984633
0.76986563
0.76988267
0.76989769
0.7699109
0.76992252
0.76993271
0.76994165
0.76994947
0.7699563
0.76996226
0.76996745
0.76997197
0.7699759
0.7699793
0.75982667
0.76061826
0.76136159
0.76205773
0.76270847
0.76331562
0.76388104
0.76440665
0.76489435
0.7653461
0.7657638
0.76614937
0.76650468
0.76683156
0.7671318
0.76740713
0.7676592
0.76788961
0.76809991
0.76829154
0.7684659
0.7686243
0.76876799
0.76889813
0.76901583
0.76912213
0.76921797
0.76930427
0.76938187
0.76945153
0.76951398
0.76956989
0.76961988
0.7696645
0.76970427
0.76973967
0.76977114
0.76979908
0.76982384
0.76984576
0.76986513
0.76988223
0.76989731
0.76991057
0.76992223
0.76993246
0.76994143
0.76994928
0.76995614
0.76996212
0.76996733
0.76997187
0.76997581
0.76997923
0.75979974
0.76059325
0.76133839
0.76203623
0.76268857
0.76329723
0.76386407
0.76439101
0.76487996
0.76533287
0.76575166
0.76613825
0.76649451
0.76682228
0.76712334
0.76739941
0.76765218
0.76788325
0.76809414
0.76828632
0.76846118
0.76862004
0.76876415
0.76889468
0.76901273
0.76911934
0.76921548
0.76930204
0.76937988
0.76944976
0.7695124
0.76956849
0.76961863
0.76966339
0.76970329
0.76973881
0.76977039
0.76979841
0.76982326
0.76984525
0.76986468
0.76988184
0.76989696
0.76991027
0.76992197
0.76993224
0.76994124
0.76994911
0.76995599
0.769962
0.76996723
0.76997178
0.76997573
0.76997916
0.75977574
0.76057095
0.76131769
0.76201705
0.76267082
0.76328082
0.76384893
0.76437705
0.76486712
0.76532107
0.76574083
0.76612833
0.76648544
0.76681399
0.76711577
0.76739253
0.76764592
0.76787756
0.76808899
0.76828165
0.76845696
0.76861624
0.76876072
0.76889159
0.76900996
0.76911686
0.76921325
0.76930005
0.7693781
0.76944817
0.769511
0.76956724
0.76961752
0.76966241
0.76970242
0.76973805
0.76976971
0.76979782
0.76982273
0.76984479
0.76986428
0.76988149
0.76989666
0.76991001
0.76992174
0.76993204
0.76994106
0.76994896
0.76995586
0.76996188
0.76996713
0.7699717
0.76997566
0.7699791
0.75975449
0.7605512
0.76129936
0.76200005
0.76265508
0.76326627
0.7638355
0.76436467
0.76485572
0.7653106
0.76573123
0.76611953
0.76647738
0.76680663
0.76710907
0.76738642
0.76764037
0.76787252
0.76808441
0.76827752
0.76845322
0.76861286
0.76875768
0.76888886
0.7690075
0.76911465
0.76921128
0.76929829
0.76937652
0.76944677
0.76950974
0.76956613
0.76961654
0.76966154
0.76970165
0.76973736
0.76976911