/*--------------------------------*- C++ -*----------------------------------*\
| =========                 |                                                 |
| \\      /  F ield         | OpenFOAM: The Open Source CFD Toolbox           |
|  \\    /   O peration     | Version:  2312                                  |
|   \\  /    A nd           | Website:  www.openfoam.com                      |
|    \\/     M anipulation  |                                                 |
\*---------------------------------------------------------------------------*/
FoamFile
{
    version     2.0;
    format      ascii;
    arch        "LSB;label=32;scalar=64";
    class       volScalarField;
    location    "0.02";
    object      omega;
}
// * * * * * * * * * * * * * * * * * * * * * * * * * * * * * * * * * * * * * //

dimensions      [0 0 -1 0 0 0 0];

internalField   nonuniform List<scalar> 
3250
(
281.62334
280.83092
280.10437
279.44113
278.83886
278.29528
277.80822
277.37557
276.99535
276.66566
276.38474
276.15093
275.96271
275.81864
275.71739
275.65775
275.63857
275.65878
275.71738
275.81341
275.94594
276.11408
276.31692
276.55355
276.82304
277.12441
277.45664
277.81864
278.20924
278.6272
279.07117
279.5397
280.03126
280.54417
281.07667
281.62688
282.19282
282.7724
283.36344
283.96367
284.57075
285.18229
285.79567
286.40837
281.88308
281.07981
280.34326
279.67085
279.0602
278.509
278.01502
277.57612
277.19025
276.85549
276.57003
276.33217
276.14034
275.99308
275.88902
275.8269
275.80555
275.82387
275.88084
275.97545
276.10677
276.27386
276.4758
276.71166
276.98047
277.28125
277.61295
277.97445
278.36457
278.78204
279.22551
279.69349
280.18443
280.69666
281.22837
281.77767
282.34257
282.92095
283.51061
284.10926
284.71453
285.32399
285.93494
286.54507
282.30505
281.48234
280.72802
280.03942
279.41408
278.84959
278.34364
277.894
277.49854
277.15526
276.86225
276.61777
276.42014
276.26784
276.15943
276.09361
276.06912
276.08482
276.13962
276.23249
276.36241
276.52842
276.72954
276.96481
277.23321
277.53372
277.86525
278.22664
278.61668
279.03406
279.47738
279.94514
280.43573
280.94744
281.47846
282.02685
282.59056
283.16748
283.75535
284.35187
284.95462
285.56116
286.16878
286.77518
282.88436
282.035
281.25633
280.54557
279.90012
279.31747
278.79518
278.33089
277.92237
277.56749
277.26426
277.01079
276.80533
276.64625
276.53204
276.46127
276.43263
276.44489
276.49687
276.58749
276.71565
276.88033
277.08048
277.31508
277.58306
277.88333
278.21475
278.57612
278.96615
279.3835
279.8267
280.29421
280.78438
281.29544
281.82553
282.37266
282.93476
283.50964
284.09503
284.68858
285.28783
285.89032
286.49329
287.09446
283.59102
282.70919
281.90087
281.16313
280.49323
279.88849
279.34635
278.8643
278.43996
278.07106
277.75548
277.4912
277.27635
277.10917
276.98804
276.91142
276.8779
276.88614
276.93489
277.02295
277.14916
277.31239
277.51155
277.74551
278.01315
278.31329
278.64473
279.0062
279.39635
279.81376
280.25691
280.7242
281.21391
281.72421
282.25318
282.79878
283.35888
283.93125
284.51355
285.10338
285.69827
286.29569
286.89284
287.48746
284.39972
283.48079
282.6386
281.87004
281.17221
280.54229
279.97752
279.47524
279.03291
278.64811
278.31854
278.04204
277.8166
277.64033
277.51145
277.42833
277.38942
277.39327
277.43851
277.52384
277.64801
277.8098
278.008
278.24141
278.50882
278.80897
279.14058
279.50229
279.89269
280.31027
280.75345
281.22054
281.70975
282.2192
282.74688
283.2907
283.84845
284.41785
284.9965
285.58196
286.17169
286.76313
287.35343
287.94031
285.28895
284.32929
283.44991
282.64753
281.91908
281.26154
280.67198
280.14756
279.68556
279.28338
278.93857
278.64879
278.41187
278.22577
278.08857
277.99849
277.95384
277.95305
277.99463
278.07717
278.19929
278.35967
278.557
278.78998
279.05729
279.3576
279.68953
280.05162
280.44239
280.86023
281.30349
281.77038
282.25905
282.76753
283.29375
283.83552
284.39059
284.9566
285.53109
286.11155
286.6954
287.28002
287.86252
288.44061
286.24003
285.23691
284.31781
283.47932
282.71817
282.03116
281.41516
280.86716
280.38422
279.96359
279.6026
279.29876
279.04972
278.85328
278.70735
278.61
278.5594
278.55384
278.5917
278.67143
278.79155
278.9506
279.14716
279.37984
279.6472
279.94781
280.28018
280.64278
281.034
281.45217
281.89553
282.36221
282.85027
283.35766
283.88222
284.4217
284.97375
285.53595
286.10578
286.68067
287.25798
287.83502
288.40886
288.97722
287.23654
286.18818
285.22758
284.3513
283.55593
282.83808
282.19444
281.62178
281.117
280.67712
280.2993
279.98086
279.71927
279.51213
279.35722
279.25242
279.19577
279.1854
279.21954
279.2965
279.41468
279.5725
279.76842
280.00092
280.26846
280.56949
280.90241
281.2656
281.65735
282.07588
282.51934
282.98577
283.47313
283.97927
284.50198
285.03889
285.58761
286.14561
286.71032
287.2791
287.84926
288.41802
288.98245
289.54023
290.74568
289.45592
288.26528
287.17
286.16651
285.25124
284.42058
283.67095
282.99883
282.4008
281.87355
281.4139
281.01883
280.68544
280.41102
280.193
280.02897
279.91666
279.85392
279.83874
279.8692
279.94348
280.05982
280.21652
280.41191
280.64435
280.91217
281.21372
281.54729
281.91114
282.30345
282.72235
283.16587
283.63197
284.11852
284.62327
285.1439
285.67799
286.22304
286.77647
287.33563
287.8978
288.46024
289.02011
289.57444
290.12091
291.90303
290.55681
289.31398
288.17082
287.12362
286.1686
285.30197
284.51996
283.81885
283.19501
282.64493
282.16521
281.75264
281.40412
281.11675
280.88777
280.71459
280.59476
280.52597
280.50605
280.53292
280.6046
280.71921
280.8749
281.06987
281.30235
281.57055
281.8727
282.20697
282.57151
282.96439
283.38363
283.82717
284.29285
284.77844
285.28162
285.79996
286.33097
286.87205
287.42054
287.97374
288.52885
289.08307
289.6335
290.17713
290.71165
293.07104
291.66768
290.37219
289.18072
288.08938
287.09425
286.19133
285.37667
284.64633
283.99648
283.42341
282.92352
282.49337
282.12968
281.82935
281.58944
281.40715
281.27987
281.20511
281.18054
281.20392
281.27312
281.38611
281.54089
281.73554
281.96814
282.2368
282.5396
282.8746
283.23984
283.63328
284.05281
284.49628
284.96144
285.44594
285.94736
286.46319
286.99085
287.52766
288.07089
288.61774
289.16539
289.71095
290.25145
290.78388
291.30591
294.23964
292.77915
291.43098
290.19116
289.05567
288.02039
287.08116
286.23382
285.47426
284.79842
284.20239
283.68236
283.2347
282.85592
282.54273
282.29197
282.10069
281.96607
281.88547
281.85637
281.87638
281.94322
282.05468
282.20866
282.40307
282.63587
282.90503
283.20852
283.54427
283.91019
284.30414
284.72391
285.16722
285.63171
286.11496
286.61444
287.12755
287.65161
288.18387
288.72153
289.26171
289.80152
290.33805
290.86821
291.389
291.89809
295.40046
293.88324
292.48276
291.19492
290.01554
288.94037
287.96506
287.08526
286.29667
285.59503
284.97622
284.43625
283.97125
283.57756
283.25167
282.99024
282.79012
282.64833
282.56203
282.52854
282.54531
282.6099
282.71995
282.87321
283.06746
283.30051
283.57021
283.87439
284.21088
284.57745
284.97185
285.39177
285.8348
286.29851
286.78034
287.27769
287.78786
288.3081
288.83556
289.36737
289.90059
290.43226
290.95941
291.4789
291.98771
292.48351
296.54641
294.97324
293.52112
292.18585
290.96314
289.84856
288.83762
287.92577
287.10852
286.38143
285.74016
285.18053
284.69848
284.29013
283.95177
283.67989
283.47114
283.32236
283.23053
283.19281
283.20648
283.26893
283.37768
283.5303
283.72444
283.95778
284.22803
284.53291
284.8701
285.23727
285.63205
286.05202
286.49466
286.95744
287.4377
287.93274
288.43978
288.95597
289.47841
290.00412
290.53013
291.0534
291.57092
292.07946
292.57602
293.05828
297.67159
296.04349
294.54066
293.15883
291.89355
290.74027
289.69431
288.75098
287.90559
287.15352
286.49023
285.91133
285.41257
284.98988
284.63935
284.35729
284.14015
283.98458
283.88742
283.84562
283.85632
283.91676
284.02429
284.17634
284.37042
284.60408
284.87489
285.18043
285.51828
285.88599
286.28107
286.70098
287.14312
287.60482
288.08335
288.57592
289.07965
289.59161
290.10882
290.62824
291.14682
291.66149
292.16917
292.66658
293.1507
293.61922
298.77103
297.08932
295.53697
294.10961
292.80272
291.61159
290.53141
289.5573
288.68441
287.90793
287.22313
286.62543
286.11039
285.67374
285.31138
285.01942
284.79415
284.63203
284.52973
284.48403
284.49191
284.55044
284.65683
284.80838
285.00243
285.23641
285.50776
285.81394
286.15241
286.52058
286.91586
287.33561
287.77711
288.23761
288.71427
289.20421
289.70447
290.21203
290.72385
291.23681
291.74781
292.25372
292.75142
293.23755
293.70912
294.16382
299.8407
298.10694
296.5064
295.03474
293.68734
292.45937
291.34586
290.3418
289.44215
288.64192
287.93621
287.32024
286.78938
286.33918
285.96537
285.66384
285.43072
285.2623
285.15505
285.10563
285.11081
285.16755
285.27289
285.42397
285.61803
285.85233
286.12421
286.43098
286.76999
287.13855
287.53394
287.95342
288.39417
288.85333
289.32799
289.81516
290.3118
290.81484
291.32112
291.82751
292.33081
292.82786
293.31549
293.79028
294.24925
294.69011
302.80329
300.87772
299.09336
297.44608
295.93146
294.54477
293.28107
292.13525
291.10213
290.17653
289.35329
288.62732
287.99366
287.44751
286.98423
286.59934
286.2886
286.04793
285.87345
285.76148
285.70849
285.71112
285.76616
285.87051
286.02118
286.21525
286.44987
286.72223
287.02955
287.36904
287.7379
288.13331
288.55241
288.99229
289.45001
289.92254
290.40683
290.89974
291.39813
291.8988
292.39852
292.89406
293.38219
293.85971
294.32316
294.76956
295.19663
303.85757
301.87939
300.04617
298.35375
296.79762
295.37296
294.07473
292.89767
291.83649
290.88582
290.04035
289.29482
288.6441
288.0832
287.60731
287.21177
286.89217
286.64425
286.46398
286.34749
286.2911
286.29132
286.34476
286.44819
286.59847
286.79256
287.02748
287.3003
287.60811
287.94801
288.31708
288.71242
289.13104
289.56996
290.02612
290.49642
290.97772
291.46682
291.96049
292.45547
292.94847
293.43622
293.91544
294.38285
294.83502
295.26894
295.68234
304.87253
302.8438
300.96356
299.22768
297.63158
296.17036
294.83886
293.63173
292.54351
291.56871
290.70183
289.93748
289.27035
288.69527
288.20727
287.80152
287.47342
287.21857
287.03275
286.91196
286.85235
286.85027
286.9022
287.00476
287.15469
287.34881
287.58401
287.85724
288.16548
288.50571
288.87493
289.27009
289.68815
290.126
290.58051
291.0485
291.52674
292.01195
292.50085
292.99011
293.47639
293.95635
294.42671
294.88409
295.32508
295.74665
296.14657
305.84679
303.7696
301.84427
300.06667
298.4322
296.93588
295.57244
294.33642
293.22224
292.22426
291.33684
290.55443
289.87156
289.28289
288.78328
288.36776
288.03155
287.77007
287.57898
287.45409
287.39142
287.38716
287.43767
287.53942
287.68902
287.88316
288.11861
288.39222
288.70083
289.04132
289.41059
289.80551
290.22291
290.65962
291.1124
291.578
292.05312
292.53441
293.01852
293.50205
293.98163
294.45387
294.91543
295.3629
295.79286
296.20227
296.58894
309.06197
306.7796
304.65596
302.68747
300.86995
299.19875
297.66881
296.27478
295.0111
293.87206
292.85189
291.94481
291.14512
290.44719
289.84553
289.33484
288.90998
288.56603
288.29825
288.10213
287.97335
287.90778
287.90147
287.95063
288.05162
288.2009
288.39506
288.63074
288.90466
289.21359
289.55428
289.92353
290.31812
290.73479
291.17028
291.62127
292.08444
292.5564
293.03375
293.51306
293.9909
294.46384
294.92844
295.38133
295.81904
296.23817
296.63566
297.00935
310.00012
307.67036
305.50243
303.49274
301.6371
299.93082
298.36878
296.94554
295.65544
294.49266
293.4513
292.52545
291.70926
290.99696
290.38292
289.86166
289.42792
289.0766
288.80282
288.60194
288.46947
288.40115
288.3929
288.44079
288.54106
288.69004
288.8842
289.12008
289.39428
289.70346
290.04428
290.41345
290.80764
291.22351
291.65772
292.10687
292.56757
293.03636
293.50977
293.98433
294.45653
294.9229
295.37999
295.82436
296.25251
296.66104
297.04689
297.40791
310.8938
308.51896
306.30887
304.25996
302.36803
300.62834
299.03572
297.58466
296.26938
295.08398
294.02243
293.07871
292.24681
291.52083
290.895
290.36371
289.92151
289.5632
289.28374
289.07833
288.94237
288.87145
288.86137
288.90806
289.00764
289.15633
289.35049
289.58653
289.86097
290.17034
290.51124
290.88025
291.27398
291.689
292.12188
292.56917
293.02737
293.49299
293.9625
294.43234
294.899
295.35893
295.80864
296.24468
296.66349
297.06168
297.43619
297.78491
311.74326
309.32562
307.0755
304.98934
303.06292
301.29149
299.6698
298.19228
296.85309
295.64618
294.56545
293.60473
292.75791
292.01895
291.38193
290.8411
290.39089
290.02595
289.7411
289.53141
289.39215
289.31879
289.30697
289.35253
289.45146
289.59987
289.794
290.03018
290.30481
290.61433
290.95524
291.32405
291.71726
292.13138
292.5629
293.00829
293.46401
293.92648
294.39212
294.85733
295.31854
295.77217
296.21468
296.64261
297.05233
297.44047
297.80398
298.14076
315.17999
312.54899
310.09081
307.80275
305.68129
303.72218
301.92064
300.2714
298.76879
297.4069
296.1796
295.08068
294.10385
293.24288
292.4916
291.84398
291.29412
290.83633
290.46511
290.17518
289.96145
289.81907
289.74339
289.72994
289.77443
289.87274
290.02088
290.21498
290.45126
290.72603
291.03565
291.37653
291.74507
292.13772
292.5509
292.98104
293.42454
293.87778
294.33714
294.79898
295.25966
295.71554
296.16303
296.59855
297.01859
297.41951
297.79792
298.15076
298.476
315.98345
313.31173
310.81522
308.4913
306.33644
304.34641
302.51638
300.84105
299.3147
297.93133
296.68474
295.56859
294.57652
293.70216
292.93924
292.28159
291.7232
291.25824
290.8811
290.58636
290.36882
290.2235
290.14563
290.13064
290.17412
290.27184
290.41971
290.61376
290.85012
291.125
291.43467
291.77546
292.1437
292.53575
292.94798
293.37672
293.81832
294.26911
294.72541
295.18353
295.63978
296.0905
296.53202
296.96077
297.3732
297.7656
298.13462
298.47714
298.79119
316.74256
314.03241
311.49974
309.14196
306.95558
304.93635
303.07943
301.37946
299.83068
298.42702
297.1622
296.02979
295.02331
294.13631
293.3624
292.69528
292.12884
291.65713
291.2744
290.97512
290.75399
290.60591
290.52599
290.50954
290.55206
290.64922
290.79683
290.99081
291.22722
291.50217
291.81186
292.15252
292.52042
292.91184
293.32308
293.75043
294.19015
294.63854
295.09184
295.54634
295.99829
296.44399
296.87976
297.30197
297.70706
298.09128
298.45126
298.78384
299.08695
317.45846
314.71213
312.1454
309.75573
307.53964
305.49289
303.61062
301.88742
300.3175
298.89472
297.6127
296.46495
295.44491
294.54599
293.76171
293.08568
292.51165
292.03357
291.64559
291.34205
291.11754
290.96685
290.88499
290.86717
290.90879
291.00542
291.15276
291.34667
291.5831
291.85809
292.16775
292.50825
292.87578
293.26655
293.6768
294.10275
294.54063
294.98666
295.43705
295.88802
296.33581
296.77667
297.2069
297.62282
298.02088
298.39727
298.74862
299.07168
299.36396
318.13243
315.35209
312.75334
310.33368
308.08965
306.01701
304.11089
302.36584
300.77602
299.33523
298.03704
296.87486
295.84204
294.93191
294.13789
293.45346
292.8723
292.38824
291.99531
291.68776
291.46008
291.30694
291.22326
291.20416
291.24492
291.34103
291.48812
291.68194
291.91836
292.19336
292.50297
292.84327
293.2104
293.60051
294.00977
294.43435
294.87042
295.31414
295.7617
296.20928
296.65306
297.08926
297.51416
297.92407
298.31539
298.68431
299.0275
299.34171
299.62438
299.87384
318.76586
315.95361
313.3248
310.87699
308.60673
306.50978
304.58124
302.81567
301.20716
299.74946
298.43607
297.26034
296.21551
295.29486
294.49167
293.79937
293.21151
292.72183
292.32426
292.01295
291.78229
291.62685
291.54147
291.52114
291.5611
291.65672
291.80355
291.99727
292.23367
292.50865
292.81817
293.15826
293.52497
293.91441
294.32268
294.74591
295.1802
295.6217
296.06653
296.51083
296.95075
297.3825
297.8023
298.20647
298.59135
298.95317
299.2886
299.59442
299.86782
300.1076
319.3602
316.51806
313.86108
311.38689
309.09203
306.9723
305.02276
303.23794
301.6119
300.13834
298.8107
297.62225
296.56617
295.63563
294.82386
294.12418
293.53004
293.03509
292.63317
292.31834
292.08488
291.92729
291.84029
291.81883
291.85802
291.95317
292.09975
292.29336
292.52972
292.80465
293.11406
293.45391
293.8202
294.20896
294.61626
295.03816
295.47074
295.91008
296.35228
296.79343
297.22967
297.65715
298.07209
298.47078
298.84954
299.20461
299.53264
299.83048
300.09522
300.32547
319.91697
317.04686
314.36353
311.86465
309.54679
307.40572
305.43652
303.63369
301.99124
300.50283
299.16185
297.96149
296.89487
295.95509
295.13528
294.42868
293.82866
293.32878
292.92279
292.60466
292.36858
292.20898
292.12048
292.09794
292.1364
292.2311
292.37743
292.57092
292.80722
293.0821
293.39138
293.73097
294.09681
294.48491
294.89125
295.31186
295.74278
296.18005
296.61972
297.05786
297.49058
297.914
298.32432
298.71781
299.09076
299.43941
299.76043
300.05066
300.30717
300.52845
320.4377
317.54147
314.83354
312.3116
309.97225
307.81125
305.82367
304.004
302.34621
300.84393
299.49047
298.27898
297.20251
296.25409
295.42676
294.7137
294.10819
293.6037
293.1939
292.87269
292.63416
292.47266
292.38275
292.3592
292.39698
292.49126
292.63734
292.8307
293.06693
293.34172
293.65085
293.99017
294.35558
294.74301
295.14841
295.56778
295.9971
296.43238
296.86964
297.30492
297.73428
298.15385
298.55978
298.94834
299.31578
299.65837
299.97275
300.25576
300.50448
300.71735
320.92394
318.00337
315.27249
312.72905
310.36964
308.19005
306.18534
304.34996
302.67786
301.16262
299.79752
298.57564
297.48999
296.53349
295.69915
294.98006
294.36942
293.86063
293.44728
293.12318
292.88237
292.71911
292.62787
292.60337
292.64051
292.73437
292.88021
293.07344
293.30958
293.58427
293.89325
294.23229
294.59726
294.98403
295.38853
295.8067
296.23448
296.66786
297.10282
297.53537
297.96156
298.37747
298.77926
299.16315
299.5254
299.86226
300.17038
300.44658
300.68795
300.8929
321.37726
318.43403
315.68179
313.11832
310.74025
308.54335
306.52267
304.67265
302.98722
301.45991
300.08396
298.85241
297.75819
296.79417
295.9533
295.22858
294.61316
294.10036
293.6837
293.35692
293.11398
292.94906
292.85659
292.8312
292.86773
292.9612
293.1068
293.29988
293.53592
293.8105
294.1193
294.45807
294.8226
295.20874
295.61236
296.02938
296.4557
296.88727
297.32004
297.75001
298.17319
298.58565
298.98353
299.36304
299.72039
300.05186
300.35408
300.62389
300.85833
301.05585
321.7992
318.8349
316.06282
313.48074
311.08531
308.87231
306.83678
304.97315
303.27532
301.73679
300.35075
299.1102
298.008
297.037
296.19005
295.46009
294.84023
294.3237
293.90396
293.57467
293.32974
293.16328
293.06966
293.04343
293.07938
293.17247
293.31783
293.51077
293.74671
294.02117
294.32979
294.66827
295.03237
295.41789
295.82068
296.23659
296.66152
297.09137
297.52208
297.94961
298.36996
298.77917
299.17337
299.54875
299.90151
300.22792
300.52461
300.78841
301.01636
301.20693
322.1913
319.20745
316.41695
313.8176
311.40606
309.17811
307.1288
305.25254
303.54319
301.99424
300.59883
299.34992
298.24032
297.26282
296.41022
295.67541
295.05141
294.53141
294.1088
293.77719
293.5304
293.36251
293.26781
293.2408
293.2762
293.36893
293.51406
293.70686
293.94267
294.21701
294.52545
294.86365
295.22732
295.61225
296.01423
296.4291
296.8527
297.28093
297.70969
298.13493
298.55261
298.95877
299.34951
299.72103
300.06949
300.39117
300.68269
300.94087
301.16275
301.34681
322.55507
319.55309
316.74553
314.13018
311.70371
309.46192
307.39984
305.51186
303.79184
302.23322
300.82913
299.57246
298.456
297.47247
296.61463
295.87531
295.24748
294.72426
294.29899
293.96522
293.71672
293.54749
293.45178
293.42403
293.45892
293.5513
293.69621
293.88886
294.12456
294.39876
294.70701
295.04493
295.4082
295.79256
296.19377
296.60764
297.02999
297.45669
297.88362
298.3067
298.72188
299.12518
299.5127
299.8806
300.22505
300.54231
300.82901
301.08196
301.29818
301.47616
322.892
319.87322
317.04988
314.41973
311.97946
309.72485
307.65095
305.75213
304.02224
302.45468
301.04254
299.7787
298.65588
297.66678
296.80409
296.06059
295.4292
294.90301
294.47527
294.13949
293.88939
293.71893
293.62227
293.59384
293.62824
293.72029
293.86499
294.05749
294.29307
294.56714
294.8752
295.21285
295.57572
295.95953
296.36
296.77293
297.19411
297.61937
298.04458
298.46564
298.87849
299.27912
299.66363
300.02816
300.36887
300.68202
300.96424
301.21232
301.42328
301.59562
323.20355
320.16921
317.33129
314.68747
312.23444
309.968
307.88319
305.97436
304.23534
302.65952
301.23996
299.96949
298.8408
297.84654
296.97936
296.232
295.59733
295.06837
294.63836
294.30072
294.04914
293.87752
293.77999
293.75091
293.78486
293.87661
294.0211
294.21345
294.44891
294.72284
295.03072
295.36809
295.73058
296.11387
296.51365
296.92569
297.34576
297.76968
298.19328
298.61245
299.02312
299.42128
299.80298
300.16438
300.50162
300.81096
301.08902
301.3326
301.53868
301.70579
333.8257
330.18314
326.73795
323.49092
320.44234
317.59099
314.93458
312.46979
310.19245
308.09757
306.17951
304.43208
302.84864
301.42223
300.14564
299.01154
298.01252
297.1412
296.39028
295.75258
295.22108
294.78895
294.4496
294.19665
294.02395
293.92561
293.89593
293.92946
294.02091
294.1652
294.35741
294.59274
294.86654
295.17423
295.51135
295.87348
296.25626
296.65539
297.06659
297.48563
297.90829
298.33039
298.74781
299.15645
299.5523
299.93141
300.28991
300.62394
300.92976
301.20398
301.44339
301.64497
301.80724
337.98726
334.13418
330.47626
327.01638
323.75556
320.69388
317.83019
315.16218
312.68659
310.39921
308.29507
306.36852
304.61335
303.0229
301.59019
300.30797
299.16887
298.16547
297.29035
296.53615
295.89565
295.3618
294.92772
294.58679
294.33257
294.15888
294.05979
294.02955
294.06268
294.15386
294.29796
294.49002
294.72523
294.99889
295.30641
295.64327
296.00505
296.38736
296.78588
297.1963
297.61437
298.03585
298.45657
298.87235
299.27912
299.67284
300.04954
300.40537
300.73643
301.039
301.30969
301.54527
301.74271
301.90053
338.28511
334.41749
330.74556
327.27227
323.99876
320.92507
318.05003
315.37139
312.88587
310.58928
308.47665
306.5423
304.78002
303.18313
301.74462
300.45723
299.31355
298.30613
297.4275
296.67028
296.02721
295.4912
295.05533
294.71294
294.45755
294.28295
294.18315
294.1524
294.18516
294.27607
294.41999
294.61192
294.84701
295.12053
295.42787
295.7645
296.12594
296.50781
296.90575
297.31544
297.73261
298.15301
298.57243
298.98671
299.39175
299.78349
300.15798
300.51134
300.83968
301.13927
301.40671
301.63879
301.83243
301.98617
338.55817
334.6772
330.99246
327.50691
324.22177
321.13706
318.25164
315.56326
313.06865
310.76362
308.6432
306.70171
304.93291
303.33013
301.88631
300.59417
299.4463
298.43518
297.55334
296.79335
296.14792
295.60992
295.17241
294.82867
294.5722
294.39676
294.29632
294.26509
294.29749
294.38816
294.53191
294.7237
294.95867
295.23207
295.53924
295.87563
296.23677
296.61822
297.01562
297.42463
297.84096
298.26035
298.67858
299.09148
299.49492
299.88485
300.2573
300.6084
300.93423
301.23109
301.49557
301.72445
301.91464
302.06465
338.80786
334.91472
331.21827
327.72154
324.42577
321.33099
318.43608
315.7388
313.23588
310.92314
308.7956
306.84758
305.07283
303.46465
302.01597
300.7195
299.56778
298.55329
297.66851
296.90598
296.25839
295.71857
295.27955
294.93458
294.67712
294.5009
294.39987
294.36819
294.40028
294.49071
294.63429
294.82596
295.06081
295.33408
295.64109
295.97726
296.33811
296.71917
297.11607
297.52445
297.94001
298.35847
298.77561
299.18722
299.58919
299.97746
300.34804
300.69707
301.02062
301.31499
301.57677
301.80274
301.9898
302.13643
339.03559
335.13136
331.42425
327.91734
324.61188
321.50793
318.60438
315.89898
313.38849
311.06872
308.93469
306.98072
305.20054
303.58744
302.13434
300.83391
299.67868
298.66111
297.77364
297.0088
296.35923
295.81775
295.37735
295.03124
294.77288
294.59595
294.49436
294.46228
294.49406
294.58428
294.7277
294.91924
295.15398
295.42713
295.73398
296.06995
296.43052
296.81123
297.20766
297.61546
298.03031
298.44792
298.86404
299.27449
299.67511
300.06186
300.43074
300.77787
301.09934
301.39144
301.65078
301.87413
302.05836
302.20196
339.24269
335.3284
331.61161
328.09545
324.78119
321.66891
318.75749
316.04472
313.52735
311.2012
309.06127
307.10189
305.31677
303.69919
302.24206
300.93804
299.77962
298.75924
297.86932
297.10238
296.45101
295.90801
295.46635
295.11921
294.86002
294.68243
294.58034
294.54788
294.57938
294.6694
294.81267
295.00409
295.23873
295.51175
295.81846
296.15424
296.51455
296.89492
297.29093
297.6982
298.11239
298.52921
298.94442
299.35379
299.75319
300.13855
300.50588
300.85129
301.17087
301.46092
301.71805
301.93904
302.12076
302.26165
339.43045
335.50704
331.7815
328.25696
324.93474
321.8149
318.89637
316.17692
313.65331
311.32137
309.1761
307.21181
305.42222
303.80059
302.3398
301.03251
299.8712
298.84827
297.95614
297.18727
296.53427
295.98989
295.54708
295.199
294.93906
294.76087
294.65832
294.62551
294.65675
294.74658
294.88971
295.08102
295.31555
295.58846
295.89503
296.23063
296.5907
296.97076
297.36638
297.77316
298.18676
298.60287
299.01723
299.42563
299.82392
300.20802
300.57393
300.91779
301.23566
301.52385
301.779
301.99789
302.17737
302.31588
339.60008
335.66845
331.935
328.40291
325.07349
321.94684
319.02188
316.2964
313.76717
311.43
309.2799
307.31118
305.51755
303.89225
302.42817
301.11793
299.954
298.92876
298.03462
297.26402
296.60954
296.06391
295.62006
295.27113
295.01049
294.83176
294.72879
294.69566
294.72666
294.81631
294.95931
295.15051
295.38494
295.65774
295.96418
296.29961
296.65947
297.03925
297.4345
297.84084
298.25389
298.66935
299.08295
299.49047
299.88775
300.27071
300.63535
300.9778
301.29413
301.58065
301.83402
302.05104
302.22857
302.365
339.75273
335.8137
332.07316
328.53427
325.19839
322.06561
319.13488
316.40398
313.86968
311.52781
309.37337
307.40067
305.6034
303.9748
302.50774
301.19485
300.02856
299.00125
298.10529
297.33313
296.67731
296.13055
295.68576
295.33605
295.07479
294.89557
294.79221
294.75879
294.78957
294.87906
295.02193
295.21303
295.44736
295.72007
296.02638
296.36166
296.72131
297.10083
297.49576
297.90169
298.31425
298.72913
299.14204
299.54876
299.94513
300.32706
300.69056
301.03174
301.34668
301.63171
301.88349
302.09886
302.27469
302.40931
339.88949
335.94385
332.19695
328.65199
325.31032
322.17206
319.23615
316.5004
313.96157
311.61549
309.45717
307.48089
305.68036
304.0488
302.57909
301.2638
300.0954
299.06623
298.16865
297.39508
296.73806
296.19028
295.74464
295.39424
295.13241
294.95274
294.84903
294.81534
294.84592
294.93526
295.07801
295.26902
295.50326
295.77587
296.08208
296.41721
296.77668
297.15596
297.55059
297.95616
298.36828
298.78263
299.19492
299.60093
299.99648
300.37749
300.73996
301.08
301.3937
301.67739
301.92776
302.14166
302.31605
302.44907
340.0114
336.05987
332.30731
328.75694
325.41012
322.26698
319.32646
316.58639
314.04352
311.69369
309.5319
307.55244
305.74901
304.11482
302.64272
301.32531
300.15502
299.12418
298.22515
297.45032
296.79223
296.24354
295.79714
295.44611
295.18378
295.0037
294.89968
294.86574
294.89614
294.98533
295.12798
295.31889
295.55306
295.82558
296.13168
296.46668
296.82598
297.20505
297.59941
298.00465
298.41637
298.83025
299.24199
299.64736
300.04219
300.42237
300.78393
301.12296
301.43555
301.71805
301.96715
302.17977
302.3529
302.48446
340.11944
336.16269
332.40512
328.84997
325.49859
322.35112
319.40653
316.66263
314.11619
311.76304
309.59818
307.61589
305.80988
304.17335
302.69915
301.37986
300.20789
299.17557
298.27525
297.4993
296.84025
296.29075
295.84367
295.49208
295.22929
295.04885
294.94454
294.91038
294.94062
295.02968
295.17223
295.36306
295.59714
295.86958
296.17558
296.51046
296.86961
297.24849
297.64262
298.04757
298.45894
298.87239
299.28364
299.68845
300.08263
300.46209
300.82283
301.16096
301.47257
301.75401
302.00199
302.21345
302.38548
302.51557
302.60311
340.21452
336.25318
332.49122
328.93186
325.57647
322.42521
319.47703
316.72976
314.18018
311.8241
309.65654
307.67178
305.8635
304.22491
302.74885
301.42789
300.25444
299.22082
298.31936
297.54243
296.88252
296.33231
295.88462
295.53253
295.26934
295.08858
294.98401
294.94966
294.97973
295.06868
295.21113
295.40189
295.6359
295.90826
296.21418
296.54895
296.90796
297.28667
297.68059
298.08527
298.49633
298.90942
299.32024
299.72454
300.11815
300.49697
300.857
301.19435
301.50509
301.78559
302.03257
302.24299
302.414
302.54281
302.62843
340.29752
336.33219
332.56639
329.00337
325.64449
322.48991
319.5386
316.7884
314.23607
311.87745
309.70753
307.7206
305.91033
304.26995
302.79226
301.46985
300.29511
299.26035
298.35788
297.58008
296.91943
296.36858
295.92037
295.56784
295.30429
295.12324
295.01845
294.98391
295.01385
295.10269
295.24506
295.43574
295.66968
295.94197
296.24781
296.58248
296.94138
297.31994
297.71367
298.11812
298.52891
298.94168
299.35212
299.75598
300.1491
300.52736
300.88676
301.22342
301.53341
301.81309
302.05918
302.26866
302.43872
302.56645
302.65047
340.36925
336.40048
332.63138
329.0652
325.7033
322.54586
319.59186
316.83912
314.28442
311.92359
309.75163
307.76283
305.95085
304.3089
302.82982
301.50614
300.33028
299.29453
298.39119
297.61264
296.95134
296.39994
295.95126
295.59835
295.33448
295.15318
295.04818
295.01349
295.0433
295.13204
295.27433
295.46495
295.69883
295.97106
296.27682
296.61141
296.9702
297.34862
297.74219
298.14645
298.557
298.96949
299.3796
299.78309
300.17578
300.55356
300.91242
301.24848
301.55781
301.83678
302.0821
302.29073
302.4599
302.58673
302.66921
302.70634
340.43049
336.45879
332.68689
329.11801
325.75354
322.59366
319.63735
316.88246
314.32574
311.96303
309.78933
307.79892
305.98548
304.3422
302.86191
301.53715
300.36033
299.32372
298.41964
297.64044
296.97859
296.42671
295.97763
295.62438
295.36024
295.17871
295.07354
295.0387
295.0684
295.15706
295.29927
295.48983
295.72365
295.99582
296.30152
296.63604
296.99473
297.37304
297.76647
298.17056
298.58091
298.99316
299.40299
299.80616
300.19849
300.57585
300.93426
301.26981
301.57858
301.85693
302.10158
302.30947
302.47783
302.60385
302.68509
302.72026
340.48196
336.50783
332.73358
329.16244
325.79581
322.63388
319.67564
316.91893
314.36051
311.99622
309.82106
307.8293
306.01462
304.37022
302.88891
301.56325
300.3856
299.34828
298.44357
297.66381
297.00148
296.4492
295.99978
295.64624
295.38186
295.20014
295.09481
295.05984
295.08945
295.17803
295.32018
295.51067
295.74445
296.01657