/*--------------------------------*- C++ -*----------------------------------*\
| =========                 |                                                 |
| \\      /  F ield         | OpenFOAM: The Open Source CFD Toolbox           |
|  \\    /   O peration     | Version:  2312                                  |
|   \\  /    A nd           | Website:  www.openfoam.com                      |
|    \\/     M anipulation  |                                                 |
\*---------------------------------------------------------------------------*/
FoamFile
{
    version     2.0;
    format      ascii;
    arch        "LSB;label=32;scalar=64";
    class       surfaceScalarField;
    location    "0.02";
    object      phi;
}
// * * * * * * * * * * * * * * * * * * * * * * * * * * * * * * * * * * * * * //

dimensions      [1 0 -1 0 0 0 0];

oriented        oriented;

internalField   nonuniform List<scalar> 
6378
(
7.0953072e-08
-8.4861827e-08
6.9293849e-08
-8.3378432e-08
6.7649476e-08
-8.1923672e-08
6.6018785e-08
-8.0498253e-08
6.4400596e-08
-7.9102908e-08
6.2793712e-08
-7.7738349e-08
6.1196899e-08
-7.6405267e-08
5.9608871e-08
-7.510434e-08
5.8028294e-08
-7.383624e-08
5.6453786e-08
-7.2601628e-08
5.4883909e-08
-7.1401155e-08
5.3317173e-08
-7.0235461e-08
5.1752028e-08
-6.9105173e-08
5.0186865e-08
-6.8010902e-08
4.8620015e-08
-6.6953245e-08
4.7049746e-08
-6.5932777e-08
4.5474264e-08
-6.4950055e-08
4.3891715e-08
-6.400561e-08
4.2300183e-08
-6.3099944e-08
4.0697695e-08
-6.2233534e-08
3.9082222e-08
-6.1406823e-08
3.7451682e-08
-6.0620217e-08
3.5803941e-08
-5.9874086e-08
3.4136823e-08
-5.9168756e-08
3.2448111e-08
-5.850451e-08
3.0735556e-08
-5.7881584e-08
2.8996879e-08
-5.7300164e-08
2.7229784e-08
-5.6760381e-08
2.5431959e-08
-5.6262314e-08
2.3601092e-08
-5.5805983e-08
2.1734877e-08
-5.539135e-08
1.9831021e-08
-5.5018312e-08
1.788726e-08
-5.4686707e-08
1.5901367e-08
-5.4396305e-08
1.3871164e-08
-5.4146811e-08
1.1794534e-08
-5.3937863e-08
9.669437e-09
-5.3769031e-08
7.49392e-09
-5.3639814e-08
5.2661337e-09
-5.3549646e-08
2.984348e-09
-5.3497888e-08
6.4696376e-10
-5.3483832e-08
-1.7474541e-09
-5.3506716e-08
-4.2001583e-09
-5.3565697e-08
-5.3659843e-08
6.9370702e-08
-7.9728341e-08
6.7741782e-08
-7.82576e-08
6.6127726e-08
-7.6817421e-08
6.4527487e-08
-7.5408344e-08
6.2939917e-08
-7.4030991e-08
6.1363821e-08
-7.2685974e-08
5.9797961e-08
-7.1373892e-08
5.8241049e-08
-7.0095338e-08
5.6691753e-08
-6.8850898e-08
5.5148692e-08
-6.7641152e-08
5.3610435e-08
-6.6466675e-08
5.2075496e-08
-6.5328034e-08
5.0542336e-08
-6.4225791e-08
4.9009358e-08
-6.3160496e-08
4.7474905e-08
-6.2132688e-08
4.593726e-08
-6.1142892e-08
4.4394648e-08
-6.019162e-08
4.2845235e-08
-5.9279359e-08
4.1287128e-08
-5.840658e-08
3.9718379e-08
-5.7573727e-08
3.8136988e-08
-5.6781216e-08
3.6540901e-08
-5.6029433e-08
3.4928021e-08
-5.5318727e-08
3.3296207e-08
-5.4649413e-08
3.1643279e-08
-5.4021763e-08
2.996703e-08
-5.3436005e-08
2.8265223e-08
-5.2892321e-08
2.6535605e-08
-5.2390842e-08
2.4775915e-08
-5.1931647e-08
2.2983886e-08
-5.1514759e-08
2.1157262e-08
-5.1140144e-08
1.92938e-08
-5.0807708e-08
1.7391287e-08
-5.0517292e-08
1.5447547e-08
-5.0268677e-08
1.3460454e-08
-5.0061575e-08
1.1427943e-08
-4.9895633e-08
9.3480239e-09
-4.9770429e-08
7.2187924e-09
-4.9685472e-08
5.0384469e-09
-4.9640201e-08
2.8053024e-09
-4.9633985e-08
5.1780788e-10
-4.9666123e-08
-1.8254552e-09
-4.9735845e-08
-4.225735e-09
-4.9842307e-08
-4.9984613e-08
6.814235e-08
-7.47892e-08
6.6534995e-08
-7.333139e-08
6.4942826e-08
-7.190597e-08
6.3364799e-08
-7.0513354e-08
6.1799764e-08
-6.9154048e-08
6.0246521e-08
-6.7828561e-08
5.8703818e-08
-6.6537398e-08
5.7170354e-08
-6.5281063e-08
5.5644786e-08
-6.4060057e-08
5.412572e-08
-6.2874881e-08
5.2611716e-08
-6.1726036e-08
5.1101284e-08
-6.0614019e-08
4.9592877e-08
-5.9539328e-08
4.8084896e-08
-5.8502452e-08
4.6575685e-08
-5.7503878e-08
4.5063531e-08
-5.6544082e-08
4.3546663e-08
-5.5623529e-08
4.2023256e-08
-5.4742672e-08
4.0491428e-08
-5.3901944e-08
3.8949245e-08
-5.310176e-08
3.7394722e-08
-5.2342512e-08
3.5825827e-08
-5.1624564e-08
3.4240484e-08
-5.094825e-08
3.2636577e-08
-5.031387e-08
3.1011955e-08
-4.9721686e-08
2.9364438e-08
-4.9171921e-08
2.7691823e-08
-4.8664752e-08
2.5991893e-08
-4.8200309e-08
2.4262418e-08
-4.7778672e-08
2.2501173e-08
-4.7399866e-08
2.0705938e-08
-4.7063863e-08
1.8874511e-08
-4.6770572e-08
1.7004719e-08
-4.6519844e-08
1.5094428e-08
-4.6311465e-08
1.3141551e-08
-4.6145155e-08
1.1144066e-08
-4.602057e-08
9.1000205e-09
-4.5937294e-08
7.0075499e-09
-4.5894845e-08
4.8648887e-09
-4.5892667e-08
2.670386e-09
-4.5930137e-08
4.2252032e-10
-4.6006558e-08
-1.8800863e-09
-4.6121162e-08
-4.2386386e-09
-4.6273114e-08
-4.6461527e-08
6.7177993e-08
-7.0060986e-08
6.5585283e-08
-6.8616652e-08
6.4008288e-08
-6.720641e-08
6.2445928e-08
-6.5830571e-08
6.0897027e-08
-6.4489533e-08
5.9360358e-08
-6.3183706e-08
5.783464e-08
-6.1913505e-08
5.631855e-08
-6.0679346e-08
5.4810716e-08
-5.9481649e-08
5.3309722e-08
-5.8320839e-08
5.1814108e-08
-5.7197343e-08
5.0322362e-08
-5.6111594e-08
4.8832924e-08
-5.5064024e-08
4.7344179e-08
-5.4055069e-08
4.5854461e-08
-5.3085162e-08
4.4362047e-08
-5.2154732e-08
4.2865163e-08
-5.1264203e-08
4.1361981e-08
-5.0413989e-08
3.9850619e-08
-4.9604492e-08
3.8329149e-08
-4.8836099e-08
3.679559e-08
-4.8109177e-08
3.5247922e-08
-4.742407e-08
3.3684081e-08
-4.6781096e-08
3.2101966e-08
-4.6180543e-08
3.0499446e-08
-4.5622663e-08
2.887436e-08
-4.5107672e-08
2.722453e-08
-4.4635744e-08
2.5547762e-08
-4.4207007e-08
2.3841856e-08
-4.3821541e-08
2.2104615e-08
-4.3479375e-08
2.0333848e-08
-4.3180483e-08
1.8527387e-08
-4.292478e-08
1.6683092e-08
-4.2712122e-08
1.4798861e-08
-4.2542301e-08
1.2872642e-08
-4.2415046e-08
1.0902445e-08
-4.2330017e-08
8.886352e-09
-4.2286806e-08
6.822532e-09
-4.2284936e-08
4.7092511e-09
-4.232386e-08
2.5448892e-09
-4.2402956e-08
3.2795405e-10
-4.2521534e-08
-1.9429035e-09
-4.267883e-08
-4.2688656e-09
-4.2874011e-08
-4.3106192e-08
6.6406493e-08
-6.5554868e-08
6.4823277e-08
-6.4124751e-08
6.3256456e-08
-6.2730291e-08
6.1704896e-08
-6.1371705e-08
6.0167373e-08
-6.0049298e-08
5.8642616e-08
-5.8763389e-08
5.7129306e-08
-5.7514305e-08
5.5626079e-08
-5.6302383e-08
5.4131529e-08
-5.5127963e-08
5.2644208e-08
-5.3991397e-08
5.1162622e-08
-5.2893044e-08
4.9685233e-08
-5.1833273e-08
4.8210453e-08
-5.0812456e-08
4.6736646e-08
-4.9830976e-08
4.5262123e-08
-4.8889215e-08
4.3785147e-08
-4.7987558e-08
4.2303929e-08
-4.7126389e-08
4.081663e-08
-4.6306085e-08
3.9321361e-08
-4.5527019e-08
3.7816189e-08
-4.4789548e-08
3.6299133e-08
-4.4094019e-08
3.4768173e-08
-4.3440756e-08
3.3221251e-08
-4.2830061e-08
3.1656275e-08
-4.226221e-08
3.0071122e-08
-4.1737445e-08
2.8463648e-08
-4.1255977e-08
2.6831689e-08
-4.0817974e-08
2.5173069e-08
-4.0423564e-08
2.348561e-08
-4.0072827e-08
2.1767135e-08
-3.9765793e-08
2.0015479e-08
-3.9502438e-08
1.8228499e-08
-3.9282682e-08
1.6404081e-08
-3.9106386e-08
1.454015e-08
-3.8973346e-08
1.2634684e-08
-3.8883298e-08
1.0685719e-08
-3.8835906e-08
8.6913682e-09
-3.8830769e-08
6.6498264e-09
-3.8867413e-08
4.5593884e-09
-3.8945297e-08
2.4184608e-09
-3.9063802e-08
2.2557692e-10
-3.922224e-08
-2.0205897e-09
-3.9419851e-08
-4.3212047e-09
-3.9655801e-08
-3.9929205e-08
6.5769376e-08
-6.1277375e-08
6.4192072e-08
-5.9862339e-08
6.263194e-08
-5.8484385e-08
6.1087777e-08
-5.7143647e-08
5.9558302e-08
-5.5840342e-08
5.804219e-08
-5.4574709e-08
5.6538073e-08
-5.3346993e-08
5.5044542e-08
-5.2157452e-08
5.3560147e-08
-5.1006356e-08
5.2083398e-08
-4.9893986e-08
5.0612764e-08
-4.8820636e-08
4.914667e-08
-4.7786614e-08
4.7683497e-08
-4.6792237e-08
4.6221577e-08
-4.5837833e-08
4.4759196e-08
-4.492374e-08
4.3294591e-08
-4.4050299e-08
4.1825954e-08
-4.3217855e-08
4.0351427e-08
-4.2426753e-08
3.8869108e-08
-4.1677334e-08
3.7377053e-08
-4.0969931e-08
3.5873274e-08
-4.0304868e-08
3.4355747e-08
-3.9682452e-08
3.2822411e-08
-3.9102968e-08
3.1271178e-08
-3.8566681e-08
2.9699929e-08
-3.8073826e-08
2.8106526e-08
-3.7624604e-08
2.6488818e-08
-3.7219182e-08
2.4844641e-08
-3.6857683e-08
2.317183e-08
-3.6540188e-08
2.1468228e-08
-3.6266727e-08
1.9731687e-08
-3.6037279e-08
1.7960084e-08
-3.5851767e-08
1.6151327e-08
-3.5710055e-08
1.4303364e-08
-3.5611944e-08
1.2414196e-08
-3.5557172e-08
1.0481884e-08
-3.5545409e-08
8.5045646e-09
-3.5576257e-08
6.4804578e-09
-3.5649248e-08
4.4078824e-09
-3.5763839e-08
2.2852681e-09
-3.5919417e-08
1.1117018e-10
-3.6115294e-08
-2.1157177e-09
-3.635071e-08
-4.3965469e-09
-3.662483e-08
-3.6936763e-08
6.5219107e-08
-5.7231032e-08
6.3645431e-08
-5.5832016e-08
6.2089751e-08
-5.4471373e-08
6.0550793e-08
-5.3149157e-08
5.9027212e-08
-5.1865508e-08
5.7517626e-08
-5.0620585e-08
5.6020613e-08
-4.9414559e-08
5.4534713e-08
-4.8247616e-08
5.3058428e-08
-4.7119956e-08
5.1590222e-08
-4.6031795e-08
5.0128523e-08
-4.4983364e-08
4.8671712e-08
-4.3974914e-08
4.7218133e-08
-4.3006707e-08
4.5766084e-08
-4.2079024e-08
4.4313817e-08
-4.1192156e-08
4.2859541e-08
-4.0346404e-08
4.1401421e-08
-3.9542078e-08
3.9937579e-08
-3.8779489e-08
3.8466092e-08
-3.8058951e-08
3.6985001e-08
-3.7380773e-08
3.5492306e-08
-3.6745256e-08
3.3985973e-08
-3.6152691e-08
3.2463937e-08
-3.5603349e-08
3.0924105e-08
-3.5097482e-08
2.936436e-08
-3.4635317e-08
2.7782567e-08
-3.4217049e-08
2.617658e-08
-3.384284e-08
2.4544244e-08
-3.351281e-08
2.2883405e-08
-3.322704e-08
2.1191917e-08
-3.2985559e-08
1.9467648e-08
-3.2788348e-08
1.7708492e-08
-3.2635331e-08
1.5912374e-08
-3.2526376e-08
1.4077262e-08
-3.2461285e-08
1.2201175e-08
-3.2439801e-08
1.0282196e-08
-3.2461596e-08
8.3184827e-09
-3.2526274e-08
6.3082766e-09
-3.2633369e-08
4.2499176e-09
-3.278234e-08
2.1418563e-09
-3.2972573e-08
-1.7332492e-11
-3.3203382e-08
-2.2289371e-09
-3.3474003e-08
-4.4940954e-09
-3.37836e-08
-3.4131275e-08
6.4717672e-08
-5.3414908e-08
6.3146371e-08
-5.2032945e-08
6.1593909e-08
-5.0690483e-08
6.0058936e-08
-4.9387524e-08
5.8540044e-08
-4.8124141e-08
5.7035791e-08
-4.6900422e-08
5.5544703e-08
-4.5716467e-08
5.4065265e-08
-4.4572394e-08
5.2595929e-08
-4.3468335e-08
5.1135111e-08
-4.2404444e-08
4.968119e-08
-4.1380893e-08
4.8232506e-08
-4.0397878e-08
4.6787358e-08
-3.9455611e-08
4.5344006e-08
-3.8554325e-08
4.3900668e-08
-3.7694269e-08
4.2455518e-08
-3.6875707e-08
4.1006693e-08
-3.6098912e-08
3.9552288e-08
-3.5364167e-08
3.8090359e-08
-3.4671759e-08
3.6618925e-08
-3.4021972e-08
3.5135973e-08
-3.3415089e-08
3.3639456e-08
-3.2851384e-08
3.2127299e-08
-3.2331114e-08
3.0597403e-08
-3.185452e-08
2.9047649e-08
-3.142182e-08
2.7475901e-08
-3.1033203e-08
2.5880014e-08
-3.0688825e-08
2.425784e-08
-3.0388806e-08
2.2607233e-08
-3.0133223e-08
2.0926055e-08
-2.9922105e-08
1.9212186e-08
-2.9755435e-08
1.7463534e-08
-2.9633137e-08
1.5678039e-08
-2.9555079e-08
1.3853683e-08
-2.9521068e-08
1.1988505e-08
-2.9530846e-08
1.0080606e-08
-2.9584088e-08
8.12816e-09
-2.9680398e-08
6.1294294e-09
-2.9819311e-08
4.0827728e-09
-3.0000287e-08
1.9866597e-09
-3.0222712e-08
-1.6031732e-10
-3.0485894e-08
-2.3594298e-09
-3.078907e-08
-4.6118026e-09
-3.1131397e-08
-3.151197e-08
6.4235183e-08
-4.9825331e-08
6.2665845e-08
-4.8461495e-08
6.1116161e-08
-4.7138108e-08
5.9584719e-08
-4.5855178e-08
5.807006e-08
-4.4612716e-08
5.6570688e-08
-4.3410741e-08
5.5085072e-08
-4.2249285e-08
5.3611645e-08
-4.1128396e-08
5.2148806e-08
-4.0048144e-08
5.0694921e-08
-3.9008622e-08
4.9248319e-08
-3.8009948e-08
4.7807292e-08
-3.7052263e-08
4.6370097e-08
-3.6135734e-08
4.4934952e-08
-3.5260548e-08
4.3500035e-08
-3.4426916e-08
4.2063488e-08
-3.3635064e-08
4.0623414e-08
-3.2885232e-08
3.917788e-08
-3.2177676e-08
3.7724917e-08
-3.1512658e-08
3.6262524e-08
-3.089044e-08
3.4788669e-08
-3.0311286e-08
3.3301289e-08
-2.9775454e-08
3.1798298e-08
-2.9283188e-08
3.027759e-08
-2.883472e-08
2.8737038e-08
-2.8430258e-08
2.7174506e-08
-2.8069986e-08
2.5587848e-08
-2.7754054e-08
2.3974918e-08
-2.7482579e-08
2.2333576e-08
-2.7255636e-08
2.0661691e-08
-2.7073255e-08
1.8957154e-08
-2.6935416e-08
1.7217881e-08
-2.6842046e-08
1.5441826e-08
-2.6793012e-08
1.3626987e-08
-2.6788122e-08
1.1771415e-08
-2.6827119e-08
9.8732284e-09
-2.6909678e-08
7.9306189e-09
-2.7035405e-08
5.9418652e-09
-2.7203832e-08
3.9053438e-09
-2.7414418e-08
1.8195413e-09
-2.7666548e-08
-3.1693331e-10
-2.7959527e-08
-2.5053355e-09
-2.8292587e-08
-4.7467772e-09
-2.866488e-08
-2.9075491e-08
6.6950147e-08
-4.9271092e-08
6.5337818e-08
-4.7843019e-08
6.3748757e-08
-4.6456647e-08
6.2181544e-08
-4.5111803e-08
6.063478e-08
-4.3808375e-08
5.9107004e-08
-4.2546273e-08
5.7596709e-08
-4.1325424e-08
5.6102345e-08
-4.014577e-08
5.4622325e-08
-3.9007273e-08
5.3155026e-08
-3.7909914e-08
5.1698794e-08
-3.6853705e-08
5.0251942e-08
-3.5838679e-08
4.8812748e-08
-3.4864903e-08
4.7379456e-08
-3.3932467e-08
4.5950278e-08
-3.3041494e-08
4.4523387e-08
-3.219213e-08
4.3096923e-08
-3.1384547e-08
4.1668999e-08
-3.0618938e-08
4.023767e-08
-2.9895517e-08
3.8800982e-08
-2.921451e-08
3.7356941e-08
-2.8576152e-08
3.590352e-08
-2.7980689e-08
3.4438668e-08
-2.7428367e-08
3.2960307e-08
-2.6919428e-08
3.1466339e-08
-2.6454106e-08
2.9954644e-08
-2.603262e-08
2.8423092e-08
-2.5655173e-08
2.686954e-08
-2.532194e-08
2.5291842e-08
-2.5033069e-08
2.3687854e-08
-2.4788673e-08
2.2055438e-08
-2.4588824e-08
2.0392469e-08
-2.4433552e-08
1.8696846e-08
-2.4322835e-08
1.6966495e-08
-2.42566e-08
1.519938e-08
-2.4234716e-08
1.3393511e-08
-2.4256989e-08
1.1546955e-08
-2.4323162e-08
9.6578425e-09
-2.443291e-08
7.724382e-09
-2.4585838e-08
5.7448678e-09
-2.4781477e-08
3.7176926e-09
-2.5019283e-08
1.6413589e-09
-2.5298638e-08
-4.8550844e-10
-2.5618844e-08
-2.66415e-09
-2.5979126e-08
-4.8956646e-09
-2.6378633e-08
-2.6816435e-08
6.6440343e-08
-4.6077562e-08
6.4828711e-08
-4.4667848e-08
6.324134e-08
-4.3300763e-08
6.1676763e-08
-4.1976077e-08
6.0133477e-08
-4.0693612e-08
5.8609949e-08
-3.9453202e-08
5.7104604e-08
-3.8254698e-08
5.5615828e-08
-3.7097972e-08
5.4141975e-08
-3.5982918e-08
5.2681365e-08
-3.4909458e-08
5.1232287e-08
-3.3877544e-08
4.9792999e-08
-3.2887158e-08
4.8361731e-08
-3.1938314e-08
4.6936676e-08
-3.103106e-08
4.5515999e-08
-3.0165474e-08
4.4097833e-08
-2.9341665e-08
4.2680276e-08
-2.8559771e-08
4.1261398e-08
-2.7819952e-08
3.9839233e-08
-2.7122395e-08
3.8411792e-08
-2.64673e-08
3.6977051e-08
-2.5854883e-08
3.5532963e-08
-2.5285369e-08
3.4077456e-08
-2.4758989e-08
3.2608436e-08
-2.4275971e-08
3.1123789e-08
-2.3836537e-08
2.9621386e-08
-2.3440899e-08
2.809909e-08
-2.3089249e-08
2.6554752e-08
-2.2781759e-08
2.4986224e-08
-2.2518572e-08
2.3391362e-08
-2.2299797e-08
2.1768031e-08
-2.2125506e-08
2.011411e-08
-2.1995724e-08
1.8427504e-08
-2.1910431e-08
1.6706149e-08
-2.1869551e-08
1.4948018e-08
-2.1872954e-08
1.3151133e-08
-2.1920445e-08
1.1313573e-08
-2.2011767e-08
9.4334821e-09
-2.2146593e-08
7.5090829e-09
-2.2324527e-08
5.5386847e-09
-2.2545096e-08
3.5206955e-09
-2.2807756e-08
1.453633e-09
-2.3111883e-08
-6.6386345e-10
-2.3456774e-08
-2.8330196e-09
-2.3841651e-08
-5.0549212e-09
-2.4265652e-08
-2.472784e-08
6.5894662e-08
-4.3085148e-08
6.428479e-08
-4.1695259e-08
6.2700147e-08
-4.0348785e-08
6.1139202e-08
-3.9045434e-08
5.9600378e-08
-3.7784957e-08
5.8082067e-08
-3.656712e-08
5.6582626e-08
-3.5391707e-08
5.5100377e-08
-3.4258525e-08
5.363361e-08
-3.3167407e-08
5.2180588e-08
-3.211822e-08
5.0739544e-08
-3.111086e-08
4.9308682e-08
-3.014526e-08
4.788618e-08
-2.922139e-08
4.6470183e-08
-2.8339253e-08
4.5058811e-08
-2.749889e-08
4.3650152e-08
-2.6700374e-08
4.2242268e-08
-2.594381e-08
4.083319e-08
-2.5229332e-08
3.9420922e-08
-2.4557099e-08
3.8003442e-08
-2.392729e-08
3.6578703e-08
-2.3340099e-08
3.5144634e-08
-2.2795737e-08
3.3699142e-08
-2.2294417e-08
3.2240117e-08
-2.1836356e-08
3.0765432e-08
-2.1421766e-08
2.9272947e-08
-2.105085e-08
2.7760516e-08
-2.0723793e-08
2.6225986e-08
-2.0440763e-08
2.4667206e-08
-2.0201896e-08
2.3082032e-08
-2.0007301e-08
2.1468329e-08
-1.9857045e-08
1.9823983e-08
-1.9751154e-08
1.8146904e-08
-1.9689605e-08
1.6435035e-08
-1.9672323e-08
1.4686359e-08
-1.9699175e-08
1.2898908e-08
-1.9769966e-08
1.1070773e-08
-1.9884438e-08
9.2001106e-09
-2.0042262e-08
7.2851574e-09
-2.0243039e-08
5.3242366e-09
-2.0486296e-08
3.3157704e-09
-2.0771483e-08
1.2582911e-09
-2.1097972e-08
-8.4954785e-10
-2.1465057e-08
-3.0089582e-09
-2.1871951e-08
-5.2210122e-09
-2.2317787e-08
-2.2801616e-08
6.53036e-08
-4.0284263e-08
6.3696898e-08
-3.8915643e-08
6.211636e-08
-3.7591082e-08
6.0560381e-08
-3.6310218e-08
5.9027316e-08
-3.5072739e-08
5.7515488e-08
-3.3878344e-08
5.6023185e-08
-3.2726757e-08
5.4548667e-08
-3.1617726e-08
5.3090165e-08
-3.0551029e-08
5.1645882e-08
-2.9526479e-08
5.0213996e-08
-2.8543924e-08
4.879266e-08
-2.7603252e-08
4.7379999e-08
-2.670439e-08
4.5974114e-08
-2.5847302e-08
4.4573079e-08
-2.5031994e-08
4.3174942e-08
-2.4258508e-08
4.1777725e-08
-2.3526918e-08
4.0379426e-08
-2.2837333e-08
3.8978018e-08
-2.2189887e-08
3.7571449e-08
-2.158474e-08
3.6157648e-08
-2.1022069e-08
3.473452e-08
-2.0502066e-08
3.3299956e-08
-2.0024934e-08
3.1851827e-08
-1.9590877e-08
3.0387994e-08
-1.9200098e-08
2.8906307e-08
-1.8852792e-08
2.7404613e-08
-1.8549139e-08
2.5880752e-08
-1.82893e-08
2.4332573e-08
-1.8073411e-08
2.2757929e-08
-1.7901574e-08
2.1154689e-08
-1.7773857e-08
1.9520743e-08
-1.7690282e-08
1.7854005e-08
-1.7650827e-08
1.6152427e-08
-1.7655414e-08
1.4414e-08
-1.7703911e-08
1.2636767e-08
-1.779612e-08
1.0818829e-08
-1.7931783e-08
8.9583556e-09
-1.8110568e-08
7.0535959e-09
-1.8332074e-08
5.1028868e-09
-1.8595826e-08
3.1046643e-09
-1.8901268e-08
1.0574745e-09
-1.924777e-08
-1.0400156e-09
-1.9634619e-08
-3.1890041e-09
-2.0061022e-08
-5.3905493e-09
-2.0526106e-08
-2.1028909e-08
6.4661132e-08
-3.766489e-08
6.3059255e-08
-3.631895e-08
6.1484429e-08
-3.5017558e-08
5.9934977e-08
-3.3760296e-08
5.8409185e-08
-3.2546786e-08
5.6905309e-08
-3.1376671e-08
5.5421575e-08
-3.0249618e-08
5.3956182e-08
-2.916532e-08
5.25073e-08
-2.8123505e-08
5.107308e-08
-2.7123937e-08
4.9651645e-08
-2.6166422e-08
4.8241098e-08
-2.5250803e-08
4.6839516e-08
-2.437697e-08
4.5444955e-08
-2.3544854e-08
4.4055447e-08
-2.2754425e-08
4.2669001e-08
-2.2005698e-08
4.1283604e-08
-2.1298721e-08
3.9897219e-08
-2.0633578e-08
3.8507791e-08
-2.0010384e-08
3.7113241e-08
-1.9429277e-08
3.5711474e-08
-1.8890421e-08
3.4300375e-08
-1.8393994e-08
3.2877816e-08
-1.7940185e-08
3.1441654e-08
-1.752919e-08
2.9989739e-08
-1.7161203e-08
2.8519911e-08
-1.6836412e-08
2.7030007e-08
-1.6554992e-08
2.5517868e-08
-1.63171e-08
2.3981337e-08
-1.6122867e-08
2.2418269e-08
-1.5972395e-08
2.0826534e-08
-1.5865748e-08
1.9204027e-08
-1.5802948e-08
1.7548667e-08
-1.5783971e-08
1.5858414e-08
-1.580874e-08
1.4131267e-08
-1.5877118e-08
1.2365279e-08
-1.598891e-08
1.0558563e-08
-1.6143853e-08
8.7092994e-09
-1.6341616e-08
6.8157499e-09
-1.6581794e-08
4.8762644e-09
-1.6863908e-08
2.8892925e-09
-1.71874e-08
8.5339339e-10
-1.7551635e-08
-1.2327526e-09
-1.7955894e-08
-3.3703303e-09
-1.839938e-08
-5.560384e-09
-1.888121e-08
-1.9400414e-08
6.3964005e-08
-3.5216845e-08
6.2368775e-08
-3.3894931e-08
6.0801424e-08
-3.261791e-08
5.9260206e-08
-3.1385307e-08
5.774334e-08
-3.019669e-08
5.624902e-08
-2.9051648e-08
5.477541e-08
-2.7949794e-08
5.3320652e-08
-2.6890774e-08
5.1882863e-08
-2.5874269e-08
5.0460138e-08
-2.4899999e-08
4.9050552e-08
-2.3967729e-08
4.7652158e-08
-2.3077266e-08
4.6262991e-08
-2.2228465e-08
4.4881064e-08
-2.1421223e-08
4.3504369e-08
-2.0655485e-08
4.213088e-08
-1.9931236e-08
4.0758548e-08
-1.9248503e-08
3.9385309e-08
-1.8607347e-08
3.8009078e-08
-1.8007865e-08
3.6627753e-08
-1.745018e-08
3.5239217e-08
-1.693444e-08
3.3841336e-08
-1.646081e-08
3.2431966e-08
-1.6029471e-08
3.1008952e-08
-1.5640609e-08
2.9570131e-08
-1.5294411e-08
2.8113336e-08
-1.4991059e-08
2.6636399e-08
-1.4730723e-08
2.5137157e-08
-1.4513556e-08
2.3613451e-08
-1.4339688e-08
2.2063137e-08
-1.4209217e-08
2.048409e-08
-1.4122206e-08
1.8874206e-08
-1.4078678e-08
1.7231412e-08
-1.4078605e-08
1.5553675e-08
-1.412191e-08
1.3839003e-08
-1.4208456e-08
1.2085458e-08
-1.4338046e-08
1.0291164e-08
-1.4510417e-08
8.4543138e-09
-1.4725235e-08
6.573181e-09
-1.4982092e-08
4.6461282e-09
-1.5280507e-08
2.6716177e-09
-1.561992e-08
6.4822178e-10
-1.5999687e-08
-1.4253664e-09
-1.6419089e-08
-3.5503186e-09
-1.6877319e-08
-5.7276647e-09
-1.7373491e-08
-1.7906622e-08
6.3211176e-08
-3.2929966e-08
6.1624516e-08
-3.1633349e-08
6.0066496e-08
-3.0381826e-08
5.8535302e-08
-2.9174876e-08
5.7029094e-08
-2.8012013e-08
5.5546005e-08
-2.6892779e-08
5.4084143e-08
-2.5816739e-08
5.2641595e-08
-2.4783495e-08
5.1216427e-08
-2.3792685e-08
4.9806685e-08
-2.2843991e-08
4.8410396e-08
-2.1937139e-08
4.7025572e-08
-2.1071905e-08
4.5650205e-08
-2.0248111e-08
4.4282267e-08
-1.9465628e-08
4.2919718e-08
-1.8724372e-08
4.1560495e-08
-1.8024307e-08
4.0202522e-08
-1.7365437e-08
3.8843705e-08
-1.6747807e-08
3.7481936e-08
-1.6171496e-08
3.6115091e-08
-1.5636613e-08
3.4741032e-08
-1.5143293e-08
3.3357611e-08
-1.4691692e-08
3.1962668e-08
-1.428198e-08
3.0554037e-08
-1.3914335e-08
2.9129547e-08
-1.358894e-08
2.7687025e-08
-1.3305971e-08
2.6224297e-08
-1.3065594e-08
2.4739197e-08
-1.286796e-08
2.3229568e-08
-1.2713195e-08
2.1693267e-08
-1.2601398e-08
2.0128171e-08
-1.2532629e-08
1.8532182e-08
-1.250691e-08
1.6903235e-08
-1.2524213e-08
1.5239301e-08
-1.2584461e-08
1.35384e-08
-1.2687516e-08
1.1798604e-08
-1.283318e-08
1.0018046e-08
-1.3021188e-08
8.1949318e-09
-1.3251204e-08
6.3275462e-09
-1.3522821e-08
4.4142646e-09
-1.3835552e-08
2.4535619e-09
-1.4188834e-08
4.4402321e-10
-1.4582022e-08
-1.6156462e-09
-1.5014389e-08
-3.7266049e-09
-1.5485125e-08
-5.8898683e-09
-1.5993336e-08
-1.6538031e-08
6.2403343e-08
-3.0794264e-08
6.0827223e-08
-2.9524134e-08
5.9280427e-08
-2.8299156e-08
5.7761083e-08
-2.7118771e-08
5.6267292e-08
-2.5982454e-08
5.4797132e-08
-2.4889698e-08
5.334866e-08
-2.3840028e-08
5.1919913e-08
-2.2833003e-08
5.0508908e-08
-2.1868225e-08
4.9113647e-08
-2.094534e-08
4.7732116e-08
-2.0064042e-08
4.6362284e-08
-1.9224075e-08
4.5002105e-08
-1.8425235e-08
4.364952e-08
-1.7667366e-08
4.2302452e-08
-1.6950365e-08
4.0958812e-08
-1.6274172e-08
3.9616496e-08
-1.5638775e-08
3.8273385e-08
-1.5044202e-08
3.6927349e-08
-1.4490516e-08
3.5576245e-08
-1.3977816e-08
3.421792e-08
-1.3506225e-08
3.2850211e-08
-1.3075889e-08
3.1470947e-08
-1.2686972e-08
3.0077952e-08
-1.2339647e-08
2.8669048e-08
-1.2034088e-08
2.7242057e-08
-1.1770469e-08
2.5794803e-08
-1.1548954e-08
2.4325118e-08
-1.136969e-08
2.2830847e-08
-1.1232803e-08
2.1309849e-08
-1.1138389e-08
1.9760006e-08
-1.108651e-08
1.8179225e-08
-1.1077184e-08
1.6565447e-08
-1.1110387e-08
1.4916655e-08
-1.1186037e-08
1.3230874e-08
-1.1304e-08
1.1506188e-08
-1.1464074e-08
9.7407407e-09
-1.1665996e-08
7.9327497e-09
-1.1909427e-08
6.0805118e-09
-1.2193959e-08
4.1824143e-09
-1.2519103e-08
2.2369449e-09
-1.2884292e-08
2.4270072e-10
-1.3288878e-08
-1.8016004e-09
-1.373213e-08
-3.8971046e-09
-1.4213235e-08
-6.0448124e-09
-1.4731291e-08
-1.5285299e-08
6.1542538e-08
-2.8800097e-08
5.9978935e-08
-2.755751e-08
5.8445253e-08
-2.6360021e-08
5.6939571e-08
-2.5207032e-08
5.5459942e-08
-2.4097973e-08
5.4004394e-08
-2.3032295e-08
5.2570935e-08
-2.2009484e-08
5.1157558e-08
-2.1029064e-08
4.9762236e-08
-2.0090601e-08
4.8382932e-08
-1.9193709e-08
4.701759e-08
-1.8338056e-08
4.5664146e-08
-1.7523357e-08
4.4320521e-08
-1.6749385e-08
4.2984622e-08
-1.6015963e-08
4.1654346e-08
-1.5322965e-08
4.0327577e-08
-1.4670316e-08
3.9002188e-08
-1.4057987e-08
3.767604e-08
-1.3485991e-08
3.6346983e-08
-1.2954381e-08
3.5012859e-08
-1.2463245e-08
3.3671502e-08
-1.2012695e-08
3.2320736e-08
-1.1602872e-08
3.0958382e-08
-1.1233932e-08
2.9582258e-08
-1.0906042e-08
2.8190179e-08
-1.0619375e-08
2.6779964e-08
-1.0374099e-08
2.5349438e-08
-1.0170377e-08
2.3896433e-08
-1.0008354e-08
2.2418795e-08
-9.8881555e-09
2.0914387e-08
-9.8098763e-09
1.9381097e-08
-9.7735778e-09
1.7816839e-08
-9.7792801e-09
1.6219561e-08
-9.8269567e-09
1.4587254e-08
-9.9165285e-09
1.2917954e-08
-1.0047859e-08
1.1209755e-08
-1.0220748e-08
9.4608123e-09
-1.043493e-08
7.6693543e-09
-1.0690068e-08
5.8336899e-09
-1.098575e-08
3.9522189e-09
-1.1321487e-08
2.023441e-09
-1.169671e-08
4.596564e-11
-1.2110767e-08
-1.9814774e-09
-1.2562924e-08
-4.0600218e-09
-1.3052364e-08
-6.190653e-09
-1.3578182e-08
-1.4139371e-08
6.2213458e-08
-2.8197749e-08
6.0631867e-08
-2.6938106e-08
5.9082679e-08
-2.5724042e-08
5.7563945e-08
-2.4554902e-08
5.6073691e-08
-2.3430054e-08
5.4609921e-08
-2.2348885e-08
5.3170618e-08
-2.131081e-08
5.1753747e-08
-2.031528e-08
5.0357258e-08
-1.9361785e-08
4.8979088e-08
-1.8449863e-08
4.7617161e-08
-1.75791e-08
4.626939e-08
-1.6749137e-08
4.4933678e-08
-1.5959669e-08
4.3607915e-08
-1.5210444e-08
4.2289984e-08
-1.4501269e-08
4.0977757e-08
-1.3832e-08
3.9669095e-08
-1.3202547e-08
3.8361852e-08
-1.2612867e-08
3.7053872e-08
-1.2062962e-08
3.574299e-08
-1.1552875e-08
3.4427036e-08
-1.1082683e-08
3.3103832e-08
-1.0652493e-08
3.1771194e-08
-1.0262439e-08
3.0426937e-08
-9.9126706e-09
2.9068873e-08
-9.6033527e-09
2.7694816e-08
-9.3346533e-09
2.6302584e-08
-9.1067402e-09
2.489e-08
-8.9197731e-09
2.3454902e-08
-8.7738972e-09
2.1995137e-08
-8.6692363e-09
2.0508575e-08
-8.6058863e-09
1.8993109e-08
-8.5839086e-09
1.744666e-08
-8.6033237e-09
1.5867186e-08
-8.6641056e-09
1.4252687e-08
-8.766176e-09
1.2601209e-08
-8.9093984e-09
1.0910857e-08
-9.0935741e-09
9.1797965e-09
-9.3184368e-09
7.4062687e-09
-9.5836492e-09
5.5885945e-09
-9.8887991e-09
3.7251855e-09
-1.0233396e-08
1.8145537e-09
-1.061687e-08
-1.4467958e-10
-1.1038567e-08
-2.1537727e-09
-1.1497751e-08
-4.213847e-09
-1.1993601e-08
-6.3258726e-09
-1.2525209e-08
-1.309156e-08
6.1240919e-08
-2.6429372e-08
5.9675085e-08
-2.5199391e-08
5.8142158e-08
-2.401473e-08
5.6640139e-08
-2.2874706e-08
5.5167008e-08
-2.1778653e-08
5.3720723e-08
-2.0725924e-08
5.2299225e-08
-1.9715899e-08
5.0900442e-08
-1.8747999e-08
4.9522287e-08
-1.7821687e-08
4.8162663e-08
-1.6936473e-08
4.6819462e-08
-1.609192e-08
4.5490567e-08
-1.5287648e-08
4.4173855e-08
-1.4523329e-08
4.2867192e-08
-1.3798698e-08
4.1568437e-08
-1.3113541e-08
4.0275442e-08
-1.2467703e-08
3.8986052e-08
-1.186108e-08
3.7698103e-08
-1.1293618e-08
3.6409427e-08
-1.0765309e-08
3.5117847e-08
-1.0276186e-08
3.3821183e-08
-9.8263216e-09
3.2517249e-08
-9.4158156e-09
3.1203858e-08
-9.044796e-09
2.9878818e-08
-8.7134106e-09
2.8539942e-08
-8.4218195e-09
2.7185041e-08
-8.1701892e-09
2.5811935e-08
-7.9586857e-09
2.4418451e-08
-7.787468e-09
2.3002428e-08
-7.6566809e-09
2.1561721e-08
-7.5664483e-09
2.0094205e-08
-7.5168666e-09
1.8597781e-08
-7.5079979e-09
1.7070378e-08
-7.5398639e-09
1.5509963e-08
-7.6124395e-09
1.3914547e-08
-7.7256472e-09
1.2282186e-08
-7.879352e-09
1.0610996e-08
-8.0733556e-09
8.8991554e-09
-8.3073928e-09
7.1449161e-09
-8.5811264e-09
5.3466113e-09
-8.8941445e-09
3.5026649e-09
-9.2459564e-09
1.6116008e-09
-9.6359909e-09
-3.2794758e-10
-1.0063594e-08
-2.3172272e-09
-1.0528026e-08
-4.3573471e-09
-1.1028467e-08
-6.4492622e-09
-1.1564004e-08
-1.2133619e-08
6.0224673e-08
-2.4774985e-08
5.8676452e-08
-2.3575539e-08
5.7161548e-08
-2.2421051e-08
5.5677925e-08
-2.1310809e-08
5.422352e-08
-2.0244114e-08
5.2796254e-08
-1.9220286e-08
5.1394032e-08
-1.823868e-08
5.0014745e-08
-1.7298688e-08
4.8656278e-08
-1.6399748e-08
4.7316502e-08
-1.554135e-08
4.5993283e-08
-1.4723036e-08
4.4684482e-08
-1.3944406e-08
4.3387949e-08
-1.3205118e-08
4.2101533e-08
-1.2504889e-08
4.0823075e-08
-1.1843494e-08
3.955041e-08
-1.1220765e-08
3.8281368e-08
-1.0636587e-08
3.7013776e-08
-1.0090897e-08
3.5745454e-08
-9.5836807e-09
3.4474219e-08
-9.1149636e-09
3.3197883e-08
-8.6848111e-09
3.1914257e-08
-8.2933197e-09
3.0621149e-08
-7.9406134e-09
2.931637e-08
-7.6268371e-09
2.7997729e-08
-7.3521486e-09
2.6663041e-08
-7.1167131e-09
2.531013e-08
-6.9206958e-09
2.3936826e-08
-6.7642553e-09
2.2540975e-08
-6.6475368e-09
2.1120437e-08
-6.5706647e-09
1.9673096e-08
-6.5337364e-09
1.8196861e-08
-6.5368153e-09
1.6689671e-08
-6.5799242e-09
1.5149504e-08
-6.6630398e-09
1.357438e-08
-6.7860861e-09
1.1962367e-08
-6.9489294e-09
1.0311592e-08
-7.1513732e-09
8.6202467e-09
-7.3931532e-09
6.886594e-09
-7.6739335e-09
5.1089796e-09
-7.9933029e-09
3.2858396e-09
-8.3507714e-09
1.4157098e-09
-8.7457679e-09
-5.0276465e-10
-9.1776381e-09
-2.470819e-09
-9.645643e-09
-4.4895504e-09
-1.014896e-08
-6.5598984e-09
-1.0686676e-08
-1.1257769e-08
5.9169435e-08
-2.3226776e-08
5.7640559e-08
-2.2058621e-08
5.6145331e-08
-2.093497e-08
5.4681675e-08
-1.9855073e-08
5.3247494e-08
-1.8818202e-08
5.1840674e-08
-1.7823652e-08
5.0459089e-08
-1.6870753e-08
4.9100603e-08
-1.5958873e-08
4.7763072e-08
-1.5087432e-08
4.6444344e-08
-1.4255899e-08
4.5142263e-08
-1.3463799e-08
4.3854668e-08
-1.2710718e-08
4.2579395e-08
-1.19963e-08
4.1314275e-08
-1.1320249e-08
4.0057134e-08
-1.0682329e-08
3.8805798e-08
-1.0082364e-08
3.7558087e-08
-9.5202298e-09
3.6311819e-08
-8.9958565e-09
3.5064808e-08
-8.5092222e-09
3.3814865e-08
-8.0603487e-09
3.2559803e-08
-7.6492965e-09
3.1297429e-08
-7.2761586e-09
3.0025553e-08
-6.9410566e-09
2.8741984e-08
-6.644133e-09
2.7444538e-08
-6.3855447e-09
2.6131034e-08
-6.1654558e-09
2.4799298e-08
-5.9840315e-09
2.3447169e-08
-5.8414307e-09
2.2072499e-08
-5.7377991e-09
2.0673158e-08
-5.6732625e-09
1.9247038e-08
-5.6479195e-09
1.7792057e-08
-5.6618351e-09
1.6306167e-08
-5.715034e-09
1.4787354e-08
-5.8074946e-09
1.3233651e-08
-5.9391432e-09
1.1643138e-08
-6.109848e-09
1.0013955e-08
-6.3194144e-09
8.3443034e-09
-6.5675801e-09
6.6324602e-09
-6.8540111e-09
4.876783e-09
-7.1782975e-09
3.0757198e-09
-7.5399511e-09
1.2278188e-09
-7.9384018e-09
-6.6826334e-10
-8.3729962e-09
-2.6137504e-09
-8.8429962e-09
-4.6097275e-09
-9.3475793e-09
-6.6571188e-09
-9.8858323e-09
-1.0456731e-08
5.9623976e-08
-2.2958303e-08
5.808008e-08
-2.1777399e-08
5.6572162e-08
-2.0641198e-08
5.5098139e-08
-1.9548938e-08
5.3655902e-08
-1.8499849e-08
5.2243322e-08
-1.7493178e-08
5.0858257e-08
-1.6528197e-08
4.9498557e-08
-1.5604214e-08
4.8162059e-08
-1.4720581e-08
4.6846599e-08
-1.3876698e-08
4.5550006e-08
-1.307202e-08
4.4270107e-08
-1.2306059e-08
4.3004725e-08
-1.1578388e-08
4.1751682e-08
-1.088864e-08
4.0508799e-08
-1.023651e-08
3.9273893e-08
-9.6217539e-09
3.8044781e-08
-9.0441862e-09
3.6819279e-08
-8.503678e-09
3.5595199e-08
-8.0001536e-09
3.4370354e-08
-7.5335863e-09
3.3142555e-08