/*--------------------------------*- C++ -*----------------------------------*\
| =========                 |                                                 |
| \\      /  F ield         | OpenFOAM: The Open Source CFD Toolbox           |
|  \\    /   O peration     | Version:  2312                                  |
|   \\  /    A nd           | Website:  www.openfoam.com                      |
|    \\/     M anipulation  |                                                 |
\*---------------------------------------------------------------------------*/
FoamFile
{
    version     2.0;
    format      ascii;
    arch        "LSB;label=32;scalar=64";
    class       volScalarField;
    location    "0.02";
    object      Qdot;
}
// * * * * * * * * * * * * * * * * * * * * * * * * * * * * * * * * * * * * * //

dimensions      [1 -1 -3 0 0 0 0];

internalField   nonuniform List<scalar> 
3250
(
82820.052
68347.669
56292.264
46278.573
37979.972
31117.233
25453.142
20787.053
16949.894
13799.689
11217.598
9104.4322
7377.6255
5968.6149
4820.5913
3886.5795
3127.8082
2512.3313
2013.8683
1610.8309
1285.5091
1023.3932
812.61021
643.45636
508.00988
399.81148
313.60062
245.0984
190.82896
147.97277
114.24621
87.802815
67.15241
51.09483
38.66573
29.092247
21.756769
16.167332
11.933458
8.746451
6.363331
4.5937662
3.2894481
2.3354656
86150.048
71091.105
58548.487
48130.787
39497.802
32358.859
26467.081
21613.664
17622.67
14346.361
11661.073
9463.5954
7668.0169
6202.9976
5009.4304
4038.4424
3249.6978
2609.9633
2091.9011
1673.0559
1335.0075
1062.6655
843.68262
667.96812
527.28501
414.91747
325.3965
254.27404
197.93709
153.45519
118.45507
91.018006
69.595658
52.941169
40.0528
30.12783
22.524881
16.73314
12.34724
9.0467757
6.5796076
4.7482753
3.3989443
2.4123549
92675.034
76474.012
62979.239
51770.488
42482.021
34801.204
28462.441
23241.061
18947.735
15423.47
12535.175
10171.767
8240.7826
6665.4407
5382.1287
4338.2499
3490.3973
2802.8093
2246.0703
1796.0201
1432.8415
1140.3012
905.11774
716.43817
565.40417
444.79413
348.72786
272.42339
211.99706
164.29929
126.77973
97.37684
74.427294
56.591909
42.794989
32.174744
24.042768
17.850945
13.164437
9.6396542
7.0063115
5.0528191
3.6144033
2.5633788
102490.76
84575.609
69651.091
57253.752
46979.784
38483.803
31472.26
25696.765
20947.945
17049.943
13855.529
11241.809
9106.4793
7364.5839
5945.7357
4791.7363
3854.5563
3094.627
2479.4022
1982.1518
1580.9522
1257.8454
998.14028
789.83282
623.12611
490.03417
384.05511
299.90205
233.2818
180.71315
139.37771
106.99765
81.735492
62.112185
46.939963
35.26752
26.335176
19.538274
14.397304
10.533544
7.6492075
5.5113011
3.9384874
2.7903323
115867.8
95621.535
78751.76
64736.434
53120.222
43513.416
35584.621
29053.293
23682.875
19274.618
15662.09
12706.338
10291.674
8322.018
6717.7568
5413.0598
4353.5965
3494.6052
2799.2681
2237.3466
1784.0393
1419.0319
1125.7057
890.48232
702.28048
552.06781
432.49099
337.57136
262.45448
203.20447
156.63532
120.17248
91.73953
69.665436
52.608604
39.494833
29.466589
21.841589
16.078997
11.751861
8.5246577
6.135028
4.3789191
3.0984228
133198.84
109939.2
90553.456
74444.29
61090.154
50044.321
40926.668
33415.225
27238.378
22167.839
18012.376
14612.291
11834.591
9568.8029
7723.3739
6222.5886
5003.9512
4015.9679
3216.2796
2570.0941
2048.8737
1629.2424
1292.0762
1021.7493
805.50931
632.96182
495.64476
386.67814
300.47599
232.50963
179.11351
137.32594
104.75865
79.489977
59.977467
44.986437
33.53156
24.829177
18.258367
13.329207
9.656915
6.9408121
4.947218
3.4954454
154953.43
127920.04
105381.65
86647.311
71113.073
58261.166
47650.676
38907.906
31717.444
25814.069
20975.528
17016.154
13781.284
11142.41
8993.0063
7244.9593
5825.5243
4674.7529
3743.3232
2990.7178
2383.6991
1895.0374
1502.4537
1187.7424
936.04432
735.24694
575.48883
448.75194
348.52612
269.53344
207.50202
158.98045
121.18584
91.879295
69.264062
51.902232
38.646635
28.585218
20.995639
15.308238
11.075873
7.9493702
5.6575733
3.990998
181632.33
149979.82
123581.84
101632.12
83426.409
68360.324
55918.804
45665.03
37230.115
30303.73
24625.714
19978.653
16181.375
13083.301
10559.578
8506.8986
6839.9581
5488.4386
4394.4741
3510.5181
2797.5583
2223.628
1762.5672
1392.9948
1097.4573
861.72455
674.20971
525.49053
407.91588
315.28235
242.56867
185.71793
141.45905
107.16054
80.710855
60.420432
44.941655
33.203436
24.357806
17.736348
12.814695
9.1836451
6.5256662
4.5956623
213727.31
176514.27
145480.7
119669.69
98254.896
80528.006
65885.157
53813.966
43881.52
35723.468
29034.236
23558.363
19082.899
15430.794
12455.199
10034.572
8068.5198
6474.2648
5183.6668
4140.7222
3299.4669
2622.2274
2078.1653
1642.0691
1293.3531
1015.2294
794.02526
618.61972
479.98051
370.78308
285.09786
218.1335
166.02649
125.6687
94.566156
70.723508
52.549485
38.779644
28.413259
20.661828
14.907097
10.666893
7.5673367
5.3200834
366153.59
303876.46
251582.32
207833.42
171339.63
140977.95
115779.81
94914.856
77674.838
63458.537
51757.758
42144.621
34260.138
27804.092
22526.141
18218.079
14707.162
11850.372
9529.5366
7647.1889
6123.0715
4891.1998
3897.4001
3097.2549
2454.3935
1939.0712
1526.9925
1198.3379
936.95995
729.72112
565.94801
436.98289
335.81519
256.77892
195.30448
147.71529
111.06105
82.981302
61.593741
45.402886
33.225443
24.129367
17.384172
12.420472
8.7970564
6.1739255
429705.7
356719.96
295419.37
244117.43
201308.72
165682.07
136105.58
111608.09
91360.809
74659.881
60910.126
49610.266
40339.608
32746.233
26536.607
21466.535
17333.353
13969.225
11235.432
9017.5181
7221.2091
5768.9672
4597.1104
3653.4054
2895.0642
2287.0804
1800.8488
1413.0246
1104.5805
860.02951
666.78471
514.63241
395.29922
302.09641
229.62812
173.55191
130.3826
97.331473
72.174631
53.145277
38.845626
28.174941
20.270822
14.461367
10.226231
7.1647199
501911.72
416773.93
345243.47
285362.43
235381.44
193775.35
159226.42
130603.37
106940.36
87416.855
71338.876
58121.81
47274.946
38387.726
31117.645
25179.717
20337.373
16394.656
13189.556
10588.368
8480.9201
6776.5706
5400.846
4292.6362
3401.8603
2687.5264
2116.1226
1660.2865
1297.7057
1010.2102
783.02538
604.15684
463.88429
354.34596
269.19718
203.33025
152.64455
113.8582
84.353601
62.051014
45.305105
32.820347
23.581955
16.799573
11.861419
8.2966661
582441.44
483729.27
400779.89
331329.16
273352.45
225083.68
184996.33
151779.48
124313.77
101648.17
82978.311
67626.604
55024.314
44695.601
36243.493
29337.67
23703.904
19115.012
15383.135
12353.198
9897.3852
7910.5026
6306.0891
5013.1681
3973.5465
3139.5692
2472.2569
1939.7661
1516.1153
1180.1352
914.6023
705.52617
541.56272
413.53197
314.02169
237.06194
177.85794
132.57085
98.137971
72.125424
52.607477
38.067796
27.318743
19.435542
13.702603
9.5694776
670509.66
556900.47
461435.07
381507.81
314787.38
259239.86
213107.15
174879.63
143268.47
117178.95
95685.439
78008.41
63493.752
51594.322
41853.753
33892.354
27394.933
22100.373
17792.739
14293.758
11456.46
9159.8599
7304.4789
5808.6241
4605.2852
3639.5589
2866.5131
2249.4192
1758.2921
1368.6844
1060.6927
818.13904
627.89703
479.33752
363.87287
274.58238
205.90464
153.38479
113.46718
83.325192
60.721769
43.895134
31.465344
22.357946
15.741695
10.977393
764881.61
635214.42
526283.14
435105.03
359011.04
295673
243079.23
199503.18
163471.73
133734.38
109234.44
89082.593
72533.026
58962.221
47850.341
38765.052
31347.567
25300.707
20378.742
16378.799
13133.614
10505.469
8381.0968
6667.4492
5288.168
4180.66
3293.6711
2585.2792
2021.2365
1573.6008
1219.6069
940.73696
721.95463
551.07507
418.24644
315.52358
236.51743
176.10695
130.20242
95.551024
69.577292
50.252292
35.986473
25.542051
17.961456
12.508469
863901.7
717231.62
594082.68
491057.35
405118.11
333617.07
274268.06
225110.87
184474.66
150942.61
123318.77
100597.6
81936.621
66632.108
54097.817
43846.498
35474.015
28645.765
23085.161
18563.89
14893.73
11919.69
9514.2821
7572.7423
6009.0667
4752.7216
3745.9192
2941.3634
2300.3895
1791.4282
1388.7385
1071.3648
822.27707
627.6628
476.34458
359.30058
269.27001
200.42856
148.12144
108.64395
79.061079
57.059529
40.826228
28.948949
20.335003
14.144279
965570.08
801203.61
663325.23
548072.3
452007.92
372140
305888.59
251044.77
205728.55
168348.16
137561.98
112243.61
91450.601
74396.702
60427.647
49000.199
39664.16
32047.057
25841.159
20792.552
16691.953
13367.05
10676.098
8502.5965
6750.8791
5342.454
4212.9791
3309.7617
2589.6946
2017.5533
1564.5927
1207.3902
926.89305
707.63326
537.08165
405.11535
303.57961
225.92689
166.91973
122.38617
89.018517
64.207909
45.908457
32.525832
22.826028
15.860077
1067666.3
885166.3
732312.45
604694.96
498441.48
410192.19
337056.01
276562.5
226613.28
185435.25
151536.84
123668.17
100785.33
82018.873
66646.421
54068.984
43790.756
35401.942
28564.261
22998.764
18475.646
14805.748
11833.487
9430.9822
7493.2006
5933.9356
4682.4872
3680.9213
2881.8089
2246.3628
1742.9023
1345.5881
1033.3797
789.17785
599.1163
451.97977
338.72338
252.07697
186.21885
136.50699
99.257487
71.562207
51.138784
36.207413
25.389773
17.625471
1406543.8
1167624.9
967016.34
799252.62
659395.06
543116.52
446670.33
366839.76
300882.59
246475.3
201659.44
164791.55
134497.72
109633.04
89245.969
72547.445
58884.35
47716.917
38599.618
31165.099
25110.717
20187.328
16189.956
12950.063
10329.134
8213.3916
6509.4312
5140.6179
4044.1189
3168.4594
2471.5094
1918.8256
1482.2873
1138.9713
870.22615
660.90926
498.75747
373.86851
278.27306
205.58169
150.69352
109.55591
78.966159
56.408246
39.918416
27.974737
19.405578
1523783.8
1263147.1
1044714.6
862386.56
710667.64
584752.42
480489.76
394325.01
323236.46
264671.32
216484.21
176880.14
144362.78
117688.61
95826.803
77924.604
63277.709
51305.196
41528.405
33553.243
27055.452
21768.354
17472.721
13988.385
11167.322
8887.9524
7050.4529
5572.8976
4388.0824
3440.915
2686.2682
2087.2139
1613.5704
1240.7061
948.55448
720.80257
544.22136
408.11372
303.8584
224.53356
164.60561
119.67217
86.249713
61.598281
43.576987
30.524977
21.162569
1633961.5
1352060.1
1116374.4
920093.45
757129.28
622174.28
510656.82
418674.51
342921.06
280612.77
229418.31
187393.72
152923.94
124671.07
101529.42
82586.927
67092.275
54427.256
44083.569
35643.501
28763.903
23162.936
18609.147
14912.471
11916.831
9494.0677
7538.9596
5965.1318
4701.7025
3690.5291
2883.9488
2242.9218
1735.5057
1335.6
1021.9137
777.11342
587.12195
440.53857
328.16055
242.58742
177.8936
129.35756
93.237634
66.586649
47.098723
32.982833
22.857483
1734924.9
1432470.9
1180367.7
970985.57
797602.84
654387.22
536333.31
439184.01
359346.09
293805.97
240049.66
195989.01
159895.76
130343.51
106157.59
86372.199
70194.259
56973.017
46174.778
37361.955
30175.776
24322.055
19559.53
15690.286
12551.922
10011.152
7958.5662
6304.345
4974.759
3909.2979
3058.3208
2381.1302
1844.3903
1420.8278
1088.1638
828.23328
626.25974
470.25602
350.52915
259.27068
190.21728
138.36952
99.758726
71.253758
50.400975
35.29182
24.452159
2210029.1
1824623.5
1502822.5
1235407.3
1013984.2
831183.86
680634.06
556886.35
455325.15
372070.83
303883.51
248072.07
202410.9
165065.76
134529.03
109564.09
89158.05
72482.054
58858.242
47732.331
38651.067
31243.698
25206.832
20292.069
16295.919
13051.574
10422.229
8295.6297
6579.6318
5198.5844
4090.3736
3204.0085
2497.6471
1936.9783
1493.8946
1145.402
872.72256
660.55475
496.46291
370.37235
274.15133
201.26439
146.48463
105.65481
75.488835
53.407041
37.399441
25.911102
2310240.5
1901899.6
1562069.5
1280620.8
1048370.8
857282.49
700431.13
571919.19
466772.02
380826.94
310623.79
253301.94
206506.72
168306.55
137121.04
111659.53
90869.335
73892.447
60029.743
48711.505
39473.28
31936.202
25790.972
20784.872
16711.216
13400.802
10714.992
8540.099
6782.8317
5366.5951
4228.4803
3316.8137
2589.1569
2010.6713
1552.7805
1192.0715
909.3918
689.10649
518.48396
387.18871
286.86079
210.76684
153.51001
110.78866
79.195399
56.049888
39.2597
27.203151
2395920.8
1966042.5
1609638.8
1315560.8
1073801.4
875636.67
713579.6
581280.95
473409.56
385525.78
313957.43
255683.85
208231.2
169580.29
138087.16
112415.72
91481.19
74403.304
60467.738
49094.604
39812.805
32239.258
26062.085
21027.071
16926.72
13591.441
10882.453
8686.0471
6908.9626
5474.6415
4320.1945
3393.9387
2653.395
2063.6546
1596.0458
1227.0414
937.36218
711.2392
535.80523
400.5917
297.11168
218.51347
159.29238
115.05038
82.295625
58.275134
40.835101
28.302812
2466749.6
2016834.8
1645410.3
1340186.4
1090291.6
886299.06
720153.87
585056.35
475324.59
386250.71
313960.87
255285.42
207642.33
168935.35
137466.77
111863.88
91017.721
74032.692
60185.295
48890.662
39675.5
32156.288
26021.781
21018.975
16941.847
13622.34
10923.134
8731.8502
6956.3835
5521.1524
4364.069
3434.0907
2689.2353
2094.968
1622.8876
1249.6523
956.1009
726.52916
548.09484
410.32523
304.70925
224.35836
163.72396
118.36154
84.7333
60.043076
42.098032
29.191179
3088253.8
2522492.3
2054450.8
1669667.3
1354821.9
1098178.8
889602.73
720470.94
583538.72
472782.4
383237.02
310839.26
252282.81
204889.32
166496.52
135362.94
110088.16
89546.855
72834.817
59225.173
48133.012
39087.022
31706.782
25684.649
20771.327
16764.363
13498.988
10840.815
8680.0225
6926.6907
5507.0734
4360.6011
3437.4687
2696.6882
2104.5113
1633.1485
1259.7256
965.43038
734.81296
555.21004
416.26944
309.55608
228.22442
166.74528
120.67725
86.475258
61.329709
43.03146
29.856415
3151786.3
2563910.2
2079540
1683056.2
1360101.3
1098068.1
886111.64
715046.23
577191.12
466192.83
376842.66
304901.52
246939.7
200194.96
162450.26
131930.33
107215.75
87172.296
70893.553
57654.656
46875.187
38089.615
30923.79
25076.319
20303.823
16409.258
13232.676
10643.907
8536.7555
6824.3829
5435.6265
4312.0614
3405.6441
2676.8183
2092.9878
1627.2793
1257.5388
965.51262
736.17773
557.19136
418.43731
311.65006
230.10239
168.34458
121.98592
87.511315
62.126723
43.628966
30.293809
3200151.1
2592001.5
2093061.4
1686497.7
1356894.3
1090766.4
876562.1
704541.62
566600.71
456070.61
367514.04
296531.03
239582.4
193834.67
157027.2
127360.65
103404.86
84023.722
68314.469
55559.113
45185.763
36737.995
29850.673
24230.915
19643.123
15897.205
12839.312
10344.55
8311.2374
6656.3509
5311.9308
4222.215
3341.3567
2631.5973
2061.7994
1606.2641
1243.7735
956.81297
730.93628
554.24565
416.96322
311.07688
230.0458
168.5546
122.30711
87.852883
62.440605
43.894163
30.505498
3234514.1
2607970.8
2096185.4
1681099.6
1346230
1077214.3
861801.95
689711.76
552431.68
442994.39
355750.69
286155.38
230574.12
186114.76
150483.93
121867.45
98832.15
80246.405
65216.333
53035.09
43142.77
35094.861
28537.515
23188.203
18820.606
15252.806
12338.054
9957.5625
8014.8427
6431.2613
5142.5375
4095.973
3248.2564
2563.713
2012.9072
1571.5198
1219.4432
940.04863
719.59086
546.72076
412.08546
307.99797
228.16282
167.44705
121.68786
87.530516
62.291001
43.839544
30.499735
3256271.5
2613182.3
2090213.2
1668077.3
1329223.8
1058421.2
842732.98
671353.36
535380.89
427568.28
342072.06
274217.98
220290.78
177351.94
143085.74
115671.72
93680.727
75991.292
61722.952
50183.621
40828.244
33226.486
27037.575
21990.751
17870.106
14502.796
11749.904
9499.3352
7660.2824
6158.9025
4934.9297
3939.0133
3130.6175
2476.357
1948.6741
1524.7805
1185.8088
916.12824
702.78991
535.07502
404.12482
302.63564
224.606
165.12559
120.19794
86.590727
61.708573
43.484808
30.287457
20.839745
3266933.8
2609081.1
2076502.6
1648683.7
1307014.8
1035408.5
820260.7
650261.07
516139.47
410388.55
326988.92
261153.53
209100.17
167855.71
135091.76
108989.4
88129.733
71406.333
57955.987
47104.319
38323.385
31198.761
25404.071
20681.338
16825.835
13674.393
11096.392
8986.8013
7260.7914
5849.5521
4697.0349
3757.4072
2993.0552
2373.0107
1871.7048
1467.9787
1144.292
886.08825
681.28223
519.84438
393.46129
295.25674
219.56095
161.71807
117.92457
85.092452
60.732816
42.856383
29.887398
20.587549
3268043.3
2597123.1
2056403.9
1624151.9
1280713
1009163.5
795253.79
627192.15
495362.15
392017.25
310980.71
247368.68
197345.49
157914.42
126743.23
102021.52
82346.048
66629.567
54029.205
43890.598
35704.609
29073.952
23687.533
19300.789
15720.628
12793.876
10398.443
8436.53
6829.4141
5513.4167
4436.7873
3557.2802
2840.2651
2257.246
1784.6956
1403.1332
1096.3915
851.03157
655.87221
501.61014
380.51099
286.15634
213.23486
157.36858
114.96697
83.103365
59.409521
41.985121
29.31955
20.221809
3261111.4
2578717.4
2031209.6
1595649.9
1251360.2
980604.7
768514.06
602840.48
473645.02
372963.18
294479.33
233228.34
185333.75
147785.4
118255.14
94947.152
76478.4
61784.161
50044.312
40626.199
33040.652
26908.29
21933.8
17886.332
14584.592
11885.486
9675.4803
7864.0061
6378.4265
5160.1713
4161.7641
3344.5273
2676.801
2132.5554
1690.3041
1332.2499
1043.6087
812.07231
627.37914
480.96924
365.70481
275.64244
205.84574
152.22989
111.43112
80.69625
57.788165
40.904406
28.606555
19.756662
3247571.8
2555185
2002118.2
1564249.5
1219902.7
950558.59
740756.6
577819.9
451511.43
353670.06
277859.25
219047.29
173328.74
137689.11
109811.29
87919.234
70653.794
56975.386
46088.396
37383.013
30390.72
24750.414
20182.711
16470.489
13444.184
10970.659
8944.7953
7283.1089
5918.9115
4798.615
3878.9091
3124.5927
2506.902
2002.2151
1591.043
1257.2408
987.38614
770.28929
596.60262
458.50883
349.46974
264.02252
197.61283
146.45672
107.42508
77.945782
55.919786
39.648677
27.771479
19.207417
3228747.6
2527730.9
1970210.5
1530906.4
1187175.3
919746.48
712599.15
552655.51
429405.08
334511.01
261433.02
205086.65
161548.08
127806.66
101562.26
81062.818
64976.02
52289.319
42232.783
34220.08
27803.615
22640.591
18467.422
15080.491
12321.696
10067.58
8221.1627
6705.7889
5460.486
4436.445
3594.3459
2902.3167
2334.3678
1869.1865
1489.2027
1179.8626
929.05993
726.68985
564.29512
434.78567
332.21373
251.59253
188.74859
140.20001
103.05496
74.925735
53.855109
38.252388
26.837445
18.589537
3205832
2497427.4
1936437.6
1496451.5
1153894.3
888779.74
684558.89
527781.82
407689
315788.1
245451.32
191554.01
150163.59
118280.21
93625.702
74475.351
59525.847
47792.958
38533.076
31183.559
25317.652
20610.601
16814.258
13738.105
11235.086
9191.0177
7516.6842
6141.9198
5011.1678
4080.1366
3313.2735
2681.8468
2162.4844
1736.0538
1386.7994
1101.6755
869.82711
682.18402
531.14203
410.31095
314.31425
238.62832
179.45249
133.60245
98.421677
71.706711
51.642954
36.748891
25.826953
17.918082
3179880.3
2465208.5
1901617.8
1461589.5
1120658.7
858161.6
657055.18
503545.89
386649.02
297735.91
230106.25
178606.63
139304.06
109215.4
86088.46
68228.428
54362.471
43535.386
35030.081
28307.444
22961.192
18684.125
15242.993
12459.829
10198.093
8352.3862
6840.812
5599.2979
4577.3568
3734.9158
3039.9336
2466.6036
1993.9905
1604.993
1285.5483
1024.0202
810.726
637.56857
497.74881
385.54018
296.11041
225.37966
169.9065
126.79512
93.618608
68.354426
49.329026
35.169586
24.761297
17.207345
3151815.9
2431872.5
1866441
1426904.4
1087955.2
828293.58
630416.16
480214.03
366500.13
280527.46
215536.89
166356.35
129059.63
100685.16
79009.833
62370.541
49525.792
39549.644
31751.316
25614.773
20753.601
16877.491
13767.417
11257.314
9220.5543
7559.975
6200.5104
5083.7513
4163.9071
3404.8026
2777.6349
2259.291
1831.0795
1477.7692
1186.8575
948.0098
752.62846
593.51962
464.63449
360.86757
277.89842
212.06664
160.27228
119.89538
88.729918
64.928521
46.955061
33.543308
23.660139
16.470566
3122454.4
2398095.8
1831478.8
1392868.2
1056168.3
799484.9
604888.04
457980.64
347394.85
264281.87
201836.12
154875.66
119487.08
92734.272
72425.45
56930.354
45039.162
35854.995
28712.872
23119.132
18706.456
15200.63
12396.088
10137.949
8308.8525
6819.2876
5600.5094
4599.3267
3774.2612
3092.7064
2528.818
2061.9406
1675.4277
1355.7532
1091.8375
874.53497
696.24144
550.5924
432.23036
336.62441
259.9298
198.87797
150.68971
113.00564
83.829654
61.481844
44.558288
31.895937
22.541226
15.719753
3092546.6
2364460.6
1797197.6
1359852.6
1025590.9
771963.47
580645.71
436978.16
329432.26
249072.56
189057.95
144204.15
110615.45
85384.17
66351.375
51920.169
40912.273
32459.33
25921.383
20826.269
16824.849
13658.126
11133.166
9105.5243
7466.4315
6133.4403
5043.6093
4148.5196
3410.6223
2800.553
2295.1488
1875.9774
1528.241
1239.9537
1001.3224
804.27751
642.11564
509.22638
400.88286
313.0804
242.41188
185.971
141.27667
106.21305
78.981391
58.060146
42.171179
30.250196
21.420235
14.965572
3062764.5
2331482.7
1763968.6
1328139.4
996436.26
745887.42
557803.61
417287.1
312667.2
234935.46
177224.73
134354.78
102451.48
78637.655
60788.103
47339.297
37143.987
29361.516
23375.979
18735.688
15108.691
12250.267
9979.2607
8160.8991
6694.3295
5503.5804
4531.0065
3732.5255
3074.1458
2529.4288
2077.6249
1702.2992
1390.3119
1131.0583
915.89907
737.73049
590.6591
469.75427
370.85936
290.44733
225.51003
173.47303
132.12974
99.589847
74.238365
54.702098
39.821413
28.625606
20.310728
14.2173
6616702.2
5150720.2
3970202.6
3033119.9
2299459.1
1732056.9
1297929.8
968849.33
721356.49
536426.32
398945.72
297118.94
221876.65
166333.96
125319.82
94984.675
72483.222
55724.241
43177.166
33724.944
26553.574
21070.08
16842.137
13553.924
10974.036
8932.232
7302.6496
5991.6922
4929.2928
4062.6129
3351.4888
2765.1318
2279.7283
1876.6884
1541.36
1262.0817
1029.479
835.93996
675.22169
542.15371
432.41345
342.35592
268.88423
209.35102
161.48341
123.32551
93.194129
69.64395
51.439562
37.532024
27.038556
19.224179
13.482846
8429782.1
6618417.8
5136857.6
3946400.5
3004167.8
2268657.5
1701655.4
1269359.8
942919.11
698422.79
516538.4
381958.89
282779.02
209879.37
156364.27
117076.06
88191.84
66898.887
51139.755
39416.059
30639.857
24022.591
18992.99
15136.917
12153.606
9823.9961
7987.9091
6527.6511
5356.243
4408.9759
3637.3536
3004.7373
2483.2079
2051.296
1692.3339
1393.2533
1143.7033
935.3987
761.63727
616.9385
496.77301
397.35858
315.50615
248.50345
194.02713
150.07631
114.92243
87.071045
65.23239
48.298045
35.32168
25.502466
18.170074
12.768796
8448979.5
6617558.9
5122066.2
3922923.9
2976217.3
2239274.5
1672896.3
1242512.1
918689.32
677100.69
498133.22
366305.92
269618.2
198909.99
147280.7
109589.28
82040.861
61855.443
47008.725
36033.43
27869.453
21752.348
17131.25
13609.012
10898.836
8793.0526
7140.7153
5831.5854
4784.693
3940.1719
3253.4322
2690.9932
2227.4964
1843.5565
1524.2103
1257.7897
1035.0998
848.81579
693.03629
562.95244
454.60016
364.67454
290.39034
229.37713
179.60064
139.3038
106.9628
81.254142
61.029683
45.297269
33.205035
24.028017
17.156043
12.080503
8464733.9
6614892.8
5106844.4
3900026.9
2949463.6
2211444.2
1645861.2
1217426.4
896167.93
657375.28
481180.51
351947.23
257592.25
188923.07
139039
102817.97
76493.885
57319.135
43301.596
33003.803
25392.07
19724.647
15469.747
12246.002
9779.5175
7873.0828
6384.1863
5209.3662
4273.0889
3519.8487
2908.5578
2408.5548
1996.7581
1655.6294
1371.7105
1134.5665
936.01896
769.58526
630.06644
513.2424
415.64502
334.38889
267.04451
211.54358
166.10829
129.19889
99.474934
75.76681
57.054549
42.451804
31.19315
22.623407
16.188033
11.422187
8477490.1
6610874.1
5091518.7
3877909.2
2924043.1
2185251.1
1620590.7
1194108.6
875335.42
639209.72
465632.8
338829.95
246646.82
179865.53
131589.17
96716.319
71509.847
53253.79
39986.97
30300.272
23184.906
17920.361
13992.588
11034.801
8784.9664
7055.4408
5711.3878
4655.4835
3817.0951
3144.631
2600.1329
2155.4487
1789.5154
1486.4263
1234.0481
1023.0288
846.07981
697.45509
572.56904
467.71558
379.85989
306.4835
245.46887
195.01339
153.5657
119.77869
92.47531
70.623743
53.31941
39.771729
29.293922
21.294642
15.270485
10.79705
8487671
6605847.2
5076335.7
3856727.2
2900049.1
2160741.3
1597092.9
1172538.3
856151.54
622551.27
451430.69
326892.49
236721.3
171679.91
124878.25
91236.574
67046.423
49622.449
37032.974
27895.641
21224.98
16320.237
12683.769
9962.2089
7904.3776
6331.3467
5115.2395
4164.2722
3412.2169
2810.9839
2325.4044
1929.553
1604.152
1334.7317
1110.3225
922.52011
764.81323
632.09758
520.32146
426.22598
347.15339
280.90496
225.63549
179.77508
141.97133
111.04722
85.970555
65.832335
49.831353
37.263272
27.512515
20.045812
14.406519
10.207395
8495666.1
6600097.2
5061490
3836598.2
2877540.3
2137930.1
1575350.7
1152675.4
838561.12
607336.25
438507.1
316068.09
227751.84
164306.93
118852.43
86330.766
63061.496
46388.59
34408.272
25763.272
19489.829
14905.477
11527.668
9015.3263
7127.1686
5692.1748
4588.7565
3730.1151
3053.9689
2515.3538
2081.5797
1728.6934
1438.9914
1199.2672
999.57046
832.32445
691.69492
573.1354
473.05748
388.5901
317.40252
257.57361
207.4951
165.80002
131.3102
102.99804
79.959318
61.393981
46.593028
34.929436
25.851778
18.879373
13.598122
9.6547468
8501818.8
6593861.1
5047133.5
3817604.9
2856546.5
2116808.7
1555327.9
1134465.3
822498.6
593493.99
426790.6
306287.63
219673.7
157687.38
113458.61
81952.013
59514.208
43516.986
32082.772
23877.665
17958.001
13658.144
10509.381
8181.839
6443.2211
5129.6577
4125.2227
3347.5884
2737.999
2254.2717
1865.9146
1550.7158
1292.3575
1078.741
900.80671
751.69907
626.17208
520.16288
430.4841
354.60004
290.46274
236.39132
190.98287
153.04686
121.557
95.6166
74.433929
57.30526
43.603472
32.770555
24.31263
17.796409
12.846311
9.1399615
8506419.5
6587332.6
5033382
3799801
2837074
2097349.7
1536974.1
1117843.3
807891.76
580949.92
416207.98
297481.78
212422.92
151763.5
108645.51
78055.406
56365.671
40974.284
30028.097
22214.847
16609.365
12561.431
9614.943
7450.2037
5843.0393
4636.0213
3718.3054
3011.5608
2460.1726
2024.4266
1675.7743
1393.5389
1162.619
971.88529
813.05511
679.90004
567.68407
472.7627
392.29484
324.03406
266.17624
217.24779
176.02332
141.4651
112.67889
88.882185
69.381857
53.558968
40.85884
30.784816
22.894411
16.796866
12.151307
8.6633403
8509708
6580666.2
5020320
3783215.3
2819110
2079511
1520228.6
1102738
794664.63
569627.96
406686.15
289582.43
205937.53
146479.95
104364.41
74598.588
53579.423
38729.358
28217.866
20752.591
15425.294
11599.803
8831.4574
6809.7561
5317.8418
4204.0655
3362.1264
2717.2558
2216.6276
1822.7123
1508.6758
1255.1902
1048.2201
877.48248
735.37088
616.20098
515.67806
430.51872
358.18019
296.66493
244.37855
200.02582
162.53429
130.99822
104.63776
82.769675
64.78695
50.145022
38.353052
28.968699
21.595197
15.87977
11.512672
8.2247336
8511878.4
6573982.9
5008006.2
3767856.9
2802626.9
2063240.3
1505023.7
1089073.9
782739.64
559452.27
398153.56
282523.87
200158.39
141784.39
100569.62
71542.084
51121.671
36753.492
26627.826
19470.522
14388.751
10759.069
8147.1473
6250.7585
4859.605
3827.2027
3051.2978
2460.2841
2003.8041
1646.2557
1362.3124
1133.8289
947.7011
794.38325
666.85612
559.90639
469.62029
393.02543
327.83541
272.26632
224.90368
184.60531
150.43016
121.58611
97.392097
77.250927
60.63049
47.051224
36.078334
27.317376
20.412069
15.043419
10.92945
7.8236448
8513088
6567376.1
4996477.7
3753718.7
2787585.4
2048477.2
1491287
1076773.8
772039.33
550348.55
390541.16
276243.41
195029.7
137627.86
97218.687
68849.46
48961.387
35020.433
25235.885
18350.134
13484.289
10026.381
7551.3604
5764.4042
4461.0691
3499.466
2780.9311
2236.6552
1818.4569
1492.4291
1234.5666
1027.7577
859.70966
721.51722
606.66966
510.36042
429.00383
359.8946
300.96617
250.61749
207.58799
170.86644
139.62432
113.16705
90.898549
72.295939
56.892049
44.2639
34.025691
25.825035
19.341352
14.28554
10.400284
7.4593359
8513466.7
6560918
4985755
3740781.1
2773937.8
2035156
1478943.8
1065760
762487.57
542244.94
383783.01
270681.89
190499.24
133964.9
94272.491
66487.334
47070.288
33506.357
24022.066
17374.737
12698.012
9390.1997
7034.5355
5342.7903
4115.7174
3215.4952
2546.6291
2042.7722
1657.6542
1358.8517
1123.5135
935.4277
783.00632
657.89849
554.03257
466.9522
393.35339
330.7597
277.29244
231.50665
192.273
158.69196
130.03108
105.67918
85.113061
67.873765
53.550194
41.768418
32.185285
24.485166
18.378804
13.603429
9.9235091
7.1309502
5.0441137
8513128.4
6554664.6
4975845.7
3729015
2761629.8
2023207.8
1467918.2
1055955.7
754010.4
535072.63
377816.71
265783.83
186518.49
130753.61
91695.192
64425.302
45422.747
32189.767
22968.407
16529.372
12017.49
8840.2186
6588.144
4978.8712
3817.7395
2970.5076
2344.4636
1875.4168
1518.7668
1243.3829
1027.4169
855.43701
716.46467
602.62712
508.23031
429.11828
362.22805
305.27848
256.5509
214.73312
178.80733
147.96889
121.56705
99.061682
79.991813
63.95323
50.583034
39.549612
30.546751
23.29078
17.519784
12.994059
9.4972135
6.8371017
4.8449359
8512179.4
6548660.5
4966747.9
3718384.4
2750603.3
2012561.6
1458134.5
1047285.9
746536.71
528766.24
372583.57
261497.56
183042.6
127955.53
89454.121
62635.808
43995.647
31051.356
22058.838
15800.692
11431.662
8367.2829
6204.6182
4666.3985
3561.9826
2760.2599
2170.9457
1731.7266
1399.4515
1144.11
944.72099
786.52525
659.06826
554.88759
468.6124
396.34316
335.22215
283.13418
238.4963
200.1087
167.04793
138.5896
114.15212
93.255584
75.491893
60.503483
47.968659
37.592117
29.099449
22.234607
16.759387
12.454165
9.1192558
6.5763769
4.6680561
8510722.9
6542940.7
4958453.4
3708849.2
2740797.8
2003146.3
1449518.5
1039678.3
739998.81
523264.19
368028.83
257775.22
180030.36
125535.56
87519.629
61093.979
42768.228
30073.861
21279.038
15176.842
10930.724
7963.2941
5877.2723
4399.8561
3343.8985
2581.005
2022.9923
1609.1679
1297.6307
1059.3337
874.03971
727.5658
609.90524
513.94542
434.59039
368.15825
311.96506
264.03579
222.90194
187.45832
156.86081
130.45254
107.71011
88.204341
71.571795
57.494404
45.68547
35.880629
27.832671
21.309243
16.092557
11.980331
8.7873588
6.3472738
4.5125933
3.1561353
8508853.4
6537532.3
4950951.5
3700368.9
2732154
1994892.9
1441999.1
1033064.6
734333.28
518509.17
364101.86
254572.87
177444.16
123461.85
85864.969
59777.489
41721.937
29241.91
20616.302
14647.334
10506.025
7621.1182
5600.2243
4174.3942
3159.4894
2429.4487
1897.8901
1505.5088
1211.4708
987.55052
814.14364
677.55646
568.16169
479.14248
405.63483
344.14003
292.1201
247.71756
209.55963
176.62019
148.12138
123.46265
102.16918
83.854233
68.191777
54.896918
43.712439
34.400117
26.735798
20.507281
15.514186
11.56907
8.499149
6.1482411
4.3774381
3.0660431
8506647.9
6532457.5
4944236
3692909.1
2724619
1987738.6
1435511.7
1027382.9
729482.62
514449.33
360756.94
251850.95
175250.24
121705.91
84466.3
58666.503
40840.343
28541.935
20059.442
14202.954
10149.978
7334.5071
5368.3273
3985.7716
3005.2591
2302.7083
1793.2632
1418.7919
1139.3611
927.43698
763.94768
635.61003
533.11467
449.89206