/*--------------------------------*- C++ -*----------------------------------*\
| =========                 |                                                 |
| \\      /  F ield         | OpenFOAM: The Open Source CFD Toolbox           |
|  \\    /   O peration     | Version:  2312                                  |
|   \\  /    A nd           | Website:  www.openfoam.com                      |
|    \\/     M anipulation  |                                                 |
\*---------------------------------------------------------------------------*/
FoamFile
{
    version     2.0;
    format      ascii;
    arch        "LSB;label=32;scalar=64";
    class       volVectorField;
    location    "0.02";
    object      U;
}
// * * * * * * * * * * * * * * * * * * * * * * * * * * * * * * * * * * * * * //

dimensions      [0 1 -1 0 0 0 0];

internalField   nonuniform List<vector> 
3250
(
(0.35230242 -0.777901 0)
(0.34314009 -0.76272623 0)
(0.33410613 -0.74788042 0)
(0.32519735 -0.73336905 0)
(0.31640729 -0.71919625 0)
(0.30772894 -0.70536549 0)
(0.29915507 -0.69187974 0)
(0.29067815 -0.67874152 0)
(0.28229038 -0.66595297 0)
(0.27398372 -0.65351588 0)
(0.26574993 -0.64143167 0)
(0.25758051 -0.62970144 0)
(0.24946678 -0.61832596 0)
(0.24139983 -0.60730568 0)
(0.23337057 -0.59664075 0)
(0.22536973 -0.586331 0)
(0.21738789 -0.57637594 0)
(0.20941549 -0.56677474 0)
(0.20144286 -0.55752621 0)
(0.19346026 -0.54862884 0)
(0.1854579 -0.54008073 0)
(0.17742599 -0.53187959 0)
(0.16935477 -0.52402274 0)
(0.16123455 -0.51650703 0)
(0.15305579 -0.50932888 0)
(0.1448091 -0.50248424 0)
(0.13648537 -0.49596854 0)
(0.12807576 -0.48977673 0)
(0.11957181 -0.48390321 0)
(0.1109655 -0.47834182 0)
(0.1022493 -0.47308587 0)
(0.093416275 -0.46812807 0)
(0.084460138 -0.46346056 0)
(0.075375331 -0.45907489 0)
(0.066157105 -0.45496204 0)
(0.056801595 -0.45111238 0)
(0.047305892 -0.44751574 0)
(0.037668122 -0.44416135 0)
(0.02788751 -0.44103795 0)
(0.017964451 -0.43813373 0)
(0.0079005774 -0.43543644 0)
(-0.0023011718 -0.43293336 0)
(-0.012636354 -0.43061137 0)
(-0.023098178 -0.42845682 0)
(0.35466846 -0.71529645 0)
(0.3454107 -0.70042429 0)
(0.33628344 -0.6859022 0)
(0.3272843 -0.67173378 0)
(0.318407 -0.65792187 0)
(0.30964439 -0.64446874 0)
(0.30098904 -0.63137621 0)
(0.29243318 -0.61864571 0)
(0.28396882 -0.60627837 0)
(0.27558772 -0.59427503 0)
(0.26728143 -0.58263625 0)
(0.25904127 -0.57136237 0)
(0.25085838 -0.56045347 0)
(0.24272365 -0.54990941 0)
(0.23462783 -0.53972983 0)
(0.22656146 -0.52991414 0)
(0.21851495 -0.52046148 0)
(0.21047859 -0.51137075 0)
(0.20244254 -0.5026406 0)
(0.19439691 -0.49426938 0)
(0.18633178 -0.48625512 0)
(0.17823722 -0.47859554 0)
(0.17010333 -0.47128798 0)
(0.16192033 -0.46432941 0)
(0.15367855 -0.45771638 0)
(0.14536855 -0.45144501 0)
(0.13698109 -0.44551095 0)
(0.12850729 -0.43990935 0)
(0.11993862 -0.43463485 0)
(0.11126701 -0.42968156 0)
(0.10248491 -0.42504301 0)
(0.093585354 -0.42071216 0)
(0.084562046 -0.41668138 0)
(0.075409435 -0.41294243 0)
(0.066122788 -0.40948646 0)
(0.056698269 -0.40630401 0)
(0.047133015 -0.403385 0)
(0.037425205 -0.40071875 0)
(0.027574132 -0.39829399 0)
(0.017580273 -0.39609889 0)
(0.007445355 -0.39412107 0)
(-0.0028276385 -0.39234764 0)
(-0.013234294 -0.3907652 0)
(-0.023767601 -0.38935999 0)
(0.35932571 -0.67469128 0)
(0.34990806 -0.65999989 0)
(0.34062565 -0.64567325 0)
(0.33147592 -0.63171365 0)
(0.3224524 -0.61812289 0)
(0.31354775 -0.60490234 0)
(0.30475426 -0.59205299 0)
(0.29606389 -0.57957553 0)
(0.28746836 -0.56747041 0)
(0.27895915 -0.55573782 0)
(0.27052751 -0.54437776 0)
(0.2621645 -0.53339006 0)
(0.25386096 -0.52277434 0)
(0.24560752 -0.51253009 0)
(0.23739465 -0.50265659 0)
(0.22921266 -0.49315298 0)
(0.22105168 -0.48401818 0)
(0.21290177 -0.47525093 0)
(0.20475286 -0.46684974 0)
(0.19659485 -0.45881289 0)
(0.18841758 -0.45113836 0)
(0.18021094 -0.44382389 0)
(0.17196485 -0.43686684 0)
(0.16366933 -0.43026425 0)
(0.15531459 -0.42401275 0)
(0.14689101 -0.41810859 0)
(0.13838924 -0.41254753 0)
(0.12980029 -0.40732488 0)
(0.12111553 -0.40243542 0)
(0.11232681 -0.39787341 0)
(0.10342651 -0.39363253 0)
(0.094407635 -0.38970589 0)
(0.085263857 -0.386086 0)
(0.075989619 -0.38276474 0)
(0.066580202 -0.37973336 0)
(0.057031801 -0.37698247 0)
(0.047341602 -0.37450206 0)
(0.037507852 -0.37228147 0)
(0.027529927 -0.37030942 0)
(0.017408402 -0.36857405 0)
(0.0071451181 -0.36706289 0)
(-0.003256786 -0.36576296 0)
(-0.01379269 -0.36466072 0)
(-0.024455464 -0.36374222 0)
(0.36588135 -0.63590871 0)
(0.35624855 -0.62138258 0)
(0.34675739 -0.60723552 0)
(0.33740488 -0.59346873 0)
(0.3281842 -0.58008303 0)
(0.31908765 -0.56707891 0)
(0.31010716 -0.55445656 0)
(0.30123433 -0.54221594 0)
(0.2924605 -0.5303568 0)
(0.28377677 -0.51887875 0)
(0.27517403 -0.50778123 0)
(0.26664297 -0.49706356 0)
(0.25817405 -0.48672496 0)
(0.24975757 -0.47676451 0)
(0.24138365 -0.4671812 0)
(0.23304224 -0.45797389 0)
(0.22472319 -0.4491413 0)
(0.21641621 -0.44068199 0)
(0.20811095 -0.43259436 0)
(0.199797 -0.4248766 0)
(0.19146395 -0.41752668 0)
(0.18310142 -0.41054231 0)
(0.17469908 -0.40392091 0)
(0.16624675 -0.39765955 0)
(0.15773441 -0.39175496 0)
(0.14915226 -0.38620347 0)
(0.1404908 -0.38100097 0)
(0.13174086 -0.37614288 0)
(0.12289371 -0.37162411 0)
(0.11394109 -0.36743906 0)
(0.1048753 -0.36358152 0)
(0.095689292 -0.36004474 0)
(0.086376703 -0.3568213 0)
(0.07693197 -0.35390319 0)
(0.067350395 -0.35128171 0)
(0.057628218 -0.34894754 0)
(0.047762697 -0.34689065 0)
(0.037752175 -0.34510038 0)
(0.027596154 -0.3435654 0)
(0.017295358 -0.34227376 0)
(0.006851802 -0.34121287 0)
(-0.0037311673 -0.34036956 0)
(-0.014448714 -0.33973013 0)
(-0.025293598 -0.33928041 0)
(0.37401203 -0.59900057 0)
(0.36411755 -0.58462798 0)
(0.35437254 -0.57064823 0)
(0.34477337 -0.55706153 0)
(0.33531272 -0.54386781 0)
(0.32598242 -0.53106674 0)
(0.31677394 -0.51865774 0)
(0.30767842 -0.50664007 0)
(0.29868672 -0.49501285 0)
(0.2897895 -0.4837751 0)
(0.28097721 -0.47292573 0)
(0.27224007 -0.4624636 0)
(0.26356813 -0.4523875 0)
(0.25495124 -0.44269618 0)
(0.24637913 -0.4333883 0)
(0.23784133 -0.42446248 0)
(0.2293273 -0.41591723 0)
(0.22082638 -0.40775096 0)
(0.21232784 -0.39996195 0)
(0.20382095 -0.39254832 0)
(0.19529495 -0.38550801 0)
(0.18673915 -0.37883871 0)
(0.17814295 -0.37253787 0)
(0.16949589 -0.36660262 0)
(0.16078768 -0.36102975 0)
(0.15200833 -0.35581568 0)
(0.14314811 -0.3509564 0)
(0.1341977 -0.34644743 0)
(0.1251482 -0.34228379 0)
(0.11599124 -0.33845999 0)
(0.10671903 -0.33496992 0)
(0.097324445 -0.3318069 0)
(0.087801099 -0.32896362 0)
(0.078143425 -0.3264321 0)
(0.068346754 -0.32420369 0)
(0.058407388 -0.32226906 0)
(0.048322677 -0.3206182 0)
(0.038091095 -0.31924036 0)
(0.027712303 -0.31812416 0)
(0.01718722 -0.31725751 0)
(0.0065180833 -0.31662766 0)
(-0.0042915035 -0.31622128 0)
(-0.015236445 -0.31602441 0)
(-0.026309369 -0.31602263 0)
(0.38343393 -0.5641826 0)
(0.37323963 -0.54995537 0)
(0.36320368 -0.53613388 0)
(0.35332172 -0.52271751 0)
(0.34358583 -0.50970539 0)
(0.33398727 -0.49709643 0)
(0.32451697 -0.48488935 0)
(0.31516551 -0.47308278 0)
(0.30592325 -0.46167522 0)
(0.2967803 -0.45066514 0)
(0.2877266 -0.44005097 0)
(0.27875187 -0.42983113 0)
(0.26984565 -0.42000401 0)
(0.26099731 -0.41056803 0)
(0.25219607 -0.40152157 0)
(0.24343104 -0.392863 0)
(0.23469121 -0.38459064 0)
(0.22596548 -0.37670277 0)
(0.21724271 -0.36919756 0)
(0.20851177 -0.36207305 0)
(0.19976154 -0.35532715 0)
(0.19098095 -0.34895755 0)
(0.18215908 -0.34296171 0)
(0.17328515 -0.33733681 0)
(0.16434861 -0.33207971 0)
(0.15533919 -0.3271869 0)
(0.14624695 -0.32265443 0)
(0.13706236 -0.31847794 0)
(0.12777636 -0.31465253 0)
(0.11838043 -0.31117277 0)
(0.1088667 -0.30803266 0)
(0.099227966 -0.30522558 0)
(0.089457808 -0.30274424 0)
(0.079550666 -0.30058071 0)
(0.069501912 -0.29872635 0)
(0.059307929 -0.2971718 0)
(0.048966187 -0.29590699 0)
(0.038475316 -0.29492111 0)
(0.027835175 -0.29420264 0)
(0.017046915 -0.29373936 0)
(0.006113046 -0.29351832 0)
(-0.0049625237 -0.29352597 0)
(-0.016174384 -0.2937481 0)
(-0.027514992 -0.29416998 0)
(0.39389675 -0.53134142 0)
(0.38337191 -0.51725486 0)
(0.37301511 -0.50358611 0)
(0.36282115 -0.49033379 0)
(0.35278144 -0.47749628 0)
(0.34288663 -0.46507181 0)
(0.33312702 -0.45305847 0)
(0.32349261 -0.44145427 0)
(0.31397317 -0.43025717 0)
(0.30455824 -0.41946512 0)
(0.29523717 -0.40907608 0)
(0.28599911 -0.39908806 0)
(0.27683304 -0.38949909 0)
(0.2677278 -0.38030727 0)
(0.25867208 -0.37151072 0)
(0.24965446 -0.36310759 0)
(0.24066342 -0.35509603 0)
(0.23168739 -0.34747417 0)
(0.22271478 -0.34024008 0)
(0.213734 -0.33339176 0)
(0.20473351 -0.32692707 0)
(0.19570186 -0.32084369 0)
(0.18662775 -0.31513912 0)
(0.17750006 -0.30981057 0)
(0.16830794 -0.30485494 0)
(0.15904082 -0.30026879 0)
(0.14968852 -0.29604826 0)
(0.14024129 -0.29218903 0)
(0.13068989 -0.28868629 0)
(0.12102566 -0.28553468 0)
(0.11124062 -0.28272824 0)
(0.10132748 -0.28026039 0)
(0.091279822 -0.27812388 0)
(0.081092083 -0.27631077 0)
(0.070759695 -0.27481238 0)
(0.060279141 -0.27361933 0)
(0.049648036 -0.27272144 0)
(0.038865195 -0.27210781 0)
(0.027930712 -0.27176676 0)
(0.016846012 -0.27168589 0)
(0.0056139194 -0.27185205 0)
(-0.0057613015 -0.27225141 0)
(-0.01727387 -0.27286949 0)
(-0.028916033 -0.27369123 0)
(0.40517968 -0.50034879 0)
(0.39429979 -0.4864011 0)
(0.38359843 -0.47288258 0)
(0.37306934 -0.45979097 0)
(0.36270318 -0.44712404 0)
(0.3524899 -0.43487938 0)
(0.34241917 -0.42305446 0)
(0.33248034 -0.41164673 0)
(0.32266256 -0.40065362 0)
(0.31295473 -0.3900726 0)
(0.30334557 -0.37990119 0)
(0.29382362 -0.37013702 0)
(0.28437727 -0.36077779 0)
(0.27499474 -0.35182129 0)
(0.26566414 -0.34326541 0)
(0.2563735 -0.33510808 0)
(0.24711075 -0.3273473 0)
(0.2378638 -0.31998107 0)
(0.22862054 -0.31300738 0)
(0.21936892 -0.30642417 0)
(0.21009693 -0.30022926 0)
(0.2007927 -0.29442036 0)
(0.19144454 -0.28899495 0)
(0.18204095 -0.28395029 0)
(0.17257074 -0.27928334 0)
(0.16302305 -0.27499069 0)
(0.15338742 -0.27106856 0)
(0.14365388 -0.26751268 0)
(0.13381299 -0.26431829 0)
(0.12385596 -0.26148009 0)
(0.11377466 -0.25899214 0)
(0.10356178 -0.25684788 0)
(0.093210842 -0.25504007 0)
(0.082716335 -0.25356073 0)
(0.072073756 -0.25240116 0)
(0.061279708 -0.25155186 0)
(0.050331976 -0.25100258 0)
(0.039229594 -0.25074226 0)
(0.027972921 -0.25075906 0)
(0.016563698 -0.25104035 0)
(0.0050051059 -0.25157275 0)
(-0.0066981855 -0.25234216 0)
(-0.018539973 -0.25333377 0)
(-0.03051225 -0.25453218 0)
(0.41708799 -0.47110004 0)
(0.40583336 -0.45729218 0)
(0.39476919 -0.4439238 0)
(0.38388723 -0.43099207 0)
(0.37317719 -0.41849416 0)
(0.36262836 -0.40642702 0)
(0.35222973 -0.39478757 0)
(0.34196998 -0.38357269 0)
(0.33183756 -0.37277933 0)
(0.32182072 -0.36240449 0)
(0.3119075 -0.3524453 0)
(0.30208579 -0.34289901 0)
(0.2923433 -0.33376301 0)
(0.28266763 -0.32503483 0)
(0.27304628 -0.31671212 0)
(0.26346666 -0.30879264 0)
(0.25391611 -0.30127423 0)
(0.244382 -0.29415478 0)
(0.23485167 -0.28743222 0)
(0.22531255 -0.28110442 0)
(0.21575216 -0.27516921 0)
(0.20615818 -0.26962426 0)
(0.19651847 -0.26446709 0)
(0.18682116 -0.25969499 0)
(0.17705471 -0.25530495 0)
(0.16720791 -0.25129363 0)
(0.15727006 -0.24765727 0)
(0.14723091 -0.24439168 0)
(0.13708086 -0.24149212 0)
(0.12681092 -0.23895333 0)
(0.1164129 -0.23676938 0)
(0.1058794 -0.23493372 0)
(0.095203953 -0.23343907 0)
(0.084381064 -0.23227742 0)
(0.073406329 -0.23143999 0)
(0.062276494 -0.23091719 0)
(0.050989538 -0.23069862 0)
(0.039544743 -0.23077308 0)
(0.027942768 -0.2311285 0)
(0.016185706 -0.23175206 0)
(0.0042771378 -0.23263008 0)
(-0.0077778171 -0.23374817 0)
(-0.019972481 -0.2350912 0)
(-0.032298556 -0.2366434 0)
(0.45337625 -0.47219326 0)
(0.44130159 -0.45761723 0)
(0.42944661 -0.44349846 0)
(0.41780388 -0.42983308 0)
(0.40636385 -0.41661681 0)
(0.39511597 -0.40384628 0)
(0.3840493 -0.39151794 0)
(0.37315244 -0.37962815 0)
(0.36241366 -0.36817323 0)
(0.35182093 -0.35714955 0)
(0.34136199 -0.34655356 0)
(0.33102436 -0.33638185 0)
(0.32079538 -0.32663117 0)
(0.31066222 -0.31729843 0)
(0.30061191 -0.30838073 0)
(0.29063139 -0.29987536 0)
(0.28070746 -0.29177975 0)
(0.27082694 -0.28409152 0)
(0.26097655 -0.27680837 0)
(0.25114301 -0.26992811 0)
(0.24131314 -0.26344856 0)
(0.23147383 -0.25736759 0)
(0.22161208 -0.25168298 0)
(0.2117151 -0.24639244 0)
(0.2017703 -0.2414935 0)
(0.19176541 -0.23698346 0)
(0.18168849 -0.23285937 0)
(0.17152805 -0.22911793 0)
(0.16127304 -0.22575542 0)
(0.15091302 -0.22276767 0)
(0.14043814 -0.22015 0)
(0.1298393 -0.21789714 0)
(0.11910816 -0.21600319 0)
(0.10823731 -0.21446155 0)
(0.097220243 -0.21326493 0)
(0.086051544 -0.21240525 0)
(0.074726907 -0.21187362 0)
(0.063243243 -0.21166035 0)
(0.05159875 -0.21175488 0)
(0.039792986 -0.21214582 0)
(0.027826945 -0.2128209 0)
(0.015703105 -0.21376703 0)
(0.0034254849 -0.21497027 0)
(-0.0090003024 -0.2164159 0)
(-0.021567058 -0.21808844 0)
(-0.034266153 -0.21997176 0)
(0.46686358 -0.44587696 0)
(0.45436655 -0.43143102 0)
(0.44210233 -0.41745098 0)
(0.43006287 -0.40393299 0)
(0.41823743 -0.3908731 0)
(0.40661464 -0.37826715 0)
(0.39518272 -0.36611089 0)
(0.38392947 -0.35440008 0)
(0.37284238 -0.34313048 0)
(0.36190867 -0.33229796 0)
(0.35111529 -0.32189854 0)
(0.34044902 -0.31192841 0)
(0.32989643 -0.30238395 0)
(0.31944397 -0.29326178 0)
(0.30907794 -0.28455874 0)
(0.29878455 -0.27627189 0)
(0.28854995 -0.2683985 0)
(0.27836025 -0.26093602 0)
(0.26820153 -0.25388205 0)
(0.25805994 -0.24723432 0)
(0.24792168 -0.2409906 0)
(0.23777307 -0.23514872 0)
(0.22760059 -0.22970646 0)
(0.21739095 -0.22466154 0)
(0.2071311 -0.2200115 0)
(0.19680836 -0.21575368 0)
(0.18641039 -0.21188517 0)
(0.17592537 -0.2084027 0)
(0.16534195 -0.20530259 0)
(0.15464943 -0.20258071 0)
(0.14383777 -0.20023239 0)
(0.13289771 -0.19825237 0)
(0.12182083 -0.19663472 0)
(0.11059965 -0.19537285 0)
(0.099227685 -0.19445938 0)
(0.087699583 -0.19388616 0)
(0.076011166 -0.19364421 0)
(0.064159529 -0.19372368 0)
(0.052143113 -0.19411386 0)
(0.039961782 -0.19480315 0)
(0.027616889 -0.19577907 0)
(0.015111336 -0.19702823 0)
(0.0024496137 -0.19853643 0)
(-0.010362133 -0.20028861 0)
(-0.023316141 -0.20226895 0)
(-0.036403411 -0.2044609 0)
(0.48052125 -0.42100981 0)
(0.46759656 -0.40670207 0)
(0.45491796 -0.39286888 0)
(0.44247643 -0.37950601 0)
(0.43026049 -0.36660887 0)
(0.41825792 -0.3541727 0)
(0.40645607 -0.34219268 0)
(0.39484193 -0.330664 0)
(0.38340214 -0.31958194 0)
(0.37212311 -0.30894191 0)
(0.36099099 -0.29873952 0)
(0.34999176 -0.2889706 0)
(0.33911123 -0.27963122 0)
(0.32833504 -0.27071774 0)
(0.31764876 -0.26222675 0)
(0.30703788 -0.25415513 0)
(0.29648781 -0.24649998 0)
(0.28598396 -0.23925863 0)
(0.27551179 -0.23242859 0)
(0.26505678 -0.22600751 0)
(0.25460451 -0.21999315 0)
(0.24414075 -0.21438329 0)
(0.23365143 -0.20917574 0)
(0.22312272 -0.20436821 0)
(0.21254114 -0.19995828 0)
(0.20189355 -0.19594332 0)
(0.19116723 -0.19232046 0)
(0.18035 -0.18908645 0)
(0.16943023 -0.18623766 0)
(0.15839695 -0.18376998 0)
(0.14723993 -0.18167875 0)
(0.13594975 -0.1799587 0)
(0.12451791 -0.17860391 0)
(0.11293688 -0.17760771 0)
(0.10120021 -0.17696268 0)
(0.089302624 -0.17666058 0)
(0.077240085 -0.17669229 0)
(0.065009894 -0.17704784 0)
(0.052610759 -0.17771633 0)
(0.040042872 -0.17868594 0)
(0.027307978 -0.17994396 0)
(0.014409428 -0.18147673 0)
(0.0013522194 -0.18326974 0)
(-0.011856937 -0.18530761 0)
(-0.025209672 -0.18757416 0)
(-0.03869658 -0.19005247 0)
(0.49421981 -0.39750528 0)
(0.48086564 -0.38334693 0)
(0.46777111 -0.36967079 0)
(0.45492619 -0.35647195 0)
(0.44231852 -0.34374523 0)
(0.42993503 -0.33148534 0)
(0.41776219 -0.31968692 0)
(0.40578612 -0.3083447 0)
(0.39399262 -0.29745349 0)
(0.38236726 -0.28700832 0)
(0.37089536 -0.27700442 0)
(0.35956206 -0.26743732 0)
(0.34835237 -0.2583028 0)
(0.33725114 -0.24959697 0)
(0.32624317 -0.24131624 0)
(0.31531317 -0.2334573 0)
(0.30444584 -0.22601714 0)
(0.29362589 -0.21899298 0)
(0.28283807 -0.21238224 0)
(0.27206721 -0.20618255 0)
(0.2612983 -0.20039162 0)
(0.25051648 -0.19500724 0)
(0.23970713 -0.19002722 0)
(0.22885592 -0.18544929 0)
(0.21794888 -0.18127107 0)
(0.20697241 -0.17748997 0)
(0.19591343 -0.17410313 0)
(0.18475938 -0.17110736 0)
(0.17349833 -0.16849906 0)
(0.16211908 -0.16627413 0)
(0.15061118 -0.16442792 0)
(0.13896509 -0.16295516 0)
(0.12717219 -0.16184989 0)
(0.11522494 -0.1611054 0)
(0.10311693 -0.1607142 0)
(0.090842978 -0.16066794 0)
(0.078399199 -0.1609574 0)
(0.065783119 -0.16157242 0)
(0.052993736 -0.16250193 0)
(0.040031593 -0.16373391 0)
(0.02689885 -0.16525537 0)
(0.013599336 -0.16705241 0)
(0.0001385844 -0.1691102 0)
(-0.013476098 -0.17141304 0)
(-0.027235701 -0.17394438 0)
(-0.041130375 -0.17668693 0)
(0.50784461 -0.37528482 0)
(0.49406279 -0.36128827 0)
(0.48055437 -0.34778025 0)
(0.46730817 -0.33475523 0)
(0.45431093 -0.32220751 0)
(0.44154865 -0.31013128 0)
(0.42900695 -0.29852073 0)
(0.41667105 -0.28737014 0)
(0.4045259 -0.27667395 0)
(0.39255616 -0.2664268 0)
(0.38074634 -0.25662363 0)
(0.36908072 -0.24725967 0)
(0.35754347 -0.23833047 0)
(0.34611867 -0.22983192 0)
(0.33479029 -0.22176027 0)
(0.32354228 -0.21411208 0)
(0.3123586 -0.20688421 0)
(0.30122324 -0.2000738 0)
(0.29012024 -0.19367825 0)
(0.27903379 -0.18769512 0)
(0.26794822 -0.18212212 0)
(0.25684808 -0.17695705 0)
(0.24571819 -0.17219773 0)
(0.2345437 -0.16784193 0)
(0.22331013 -0.16388731 0)
(0.21200346 -0.1603313 0)
(0.2006102 -0.1571711 0)
(0.18911744 -0.15440355 0)
(0.17751295 -0.15202507 0)
(0.16578527 -0.15003159 0)
(0.15392377 -0.14841846 0)
(0.14191875 -0.1471804 0)
(0.12976154 -0.14631142 0)
(0.11744457 -0.14580475 0)
(0.10496147 -0.14565284 0)
(0.092307168 -0.14584721 0)
(0.079477956 -0.14637853 0)
(0.066471599 -0.14723648 0)
(0.053287401 -0.14840979 0)
(0.039926279 -0.14988624 0)
(0.026390831 -0.15165258 0)
(0.012685385 -0.15369465 0)
(-0.0011839636 -0.15599731 0)
(-0.015209283 -0.15854453 0)
(-0.029380892 -0.16131944 0)
(-0.043688465 -0.16430436 0)
(0.52129527 -0.35427485 0)
(0.50709102 -0.34045321 0)
(0.49317392 -0.32712505 0)
(0.47953163 -0.31428431 0)
(0.46614993 -0.3019248 0)
(0.45301394 -0.29004026 0)
(0.44010834 -0.27862446 0)
(0.42741747 -0.2676713 0)
(0.41492539 -0.25717486 0)
(0.40261589 -0.24712949 0)
(0.39047259 -0.23752982 0)
(0.37847893 -0.22837086 0)
(0.36661825 -0.21964794 0)
(0.35487379 -0.21135679 0)
(0.34322872 -0.20349351 0)
(0.33166624 -0.19605454 0)
(0.32016951 -0.18903667 0)
(0.30872181 -0.18243698 0)
(0.29730649 -0.17625282 0)
(0.28590705 -0.17048176 0)
(0.27450719 -0.16512149 0)
(0.26309086 -0.16016984 0)
(0.2516423 -0.15562467 0)
(0.24014613 -0.15148376 0)
(0.22858738 -0.14774482 0)
(0.21695159 -0.14440535 0)
(0.20522487 -0.14146256 0)
(0.19339395 -0.13891335 0)
(0.18144632 -0.13675415 0)
(0.16937026 -0.13498092 0)
(0.15715494 -0.13358902 0)
(0.14479055 -0.13257315 0)
(0.13226833 -0.13192728 0)
(0.11958071 -0.13164461 0)
(0.10672137 -0.13171747 0)
(0.093685361 -0.13213733 0)
(0.080469165 -0.13289468 0)
(0.0670708 -0.13397906 0)
(0.053489894 -0.13537903 0)
(0.039727754 -0.13708213 0)
(0.025787435 -0.13907489 0)
(0.011673787 -0.14134287 0)
(-0.002606513 -0.14387064 0)
(-0.017044886 -0.14664186 0)
(-0.03163095 -0.14963934 0)
(-0.046353872 -0.15284504 0)
(0.53448488 -0.33440631 0)
(0.51986629 -0.32077308 0)
(0.50554851 -0.30763693 0)
(0.49151803 -0.29499133 0)
(0.47775964 -0.28282965 0)
(0.46425754 -0.27114522 0)
(0.4509955 -0.25993146 0)
(0.43795695 -0.24918192 0)
(0.42512504 -0.23889037 0)
(0.41248269 -0.22905088 0)
(0.40001264 -0.21965787 0)
(0.38769747 -0.21070611 0)
(0.37551967 -0.20219079 0)
(0.36346165 -0.19410748 0)
(0.35150578 -0.18645216 0)
(0.33963446 -0.1792212 0)
(0.32783012 -0.17241132 0)
(0.31607528 -0.16601958 0)
(0.30435258 -0.16004329 0)
(0.29264487 -0.15448003 0)
(0.28093519 -0.14932752 0)
(0.26920689 -0.14458361 0)
(0.25744364 -0.14024618 0)
(0.24562952 -0.1363131 0)
(0.23374909 -0.13278209 0)
(0.22178743 -0.1296507 0)
(0.20973024 -0.12691622 0)
(0.19756393 -0.12457556 0)
(0.18527567 -0.1226252 0)
(0.1728535 -0.12106111 0)
(0.16028642 -0.11987866 0)
(0.14756447 -0.11907252 0)
(0.13467885 -0.11863665 0)
(0.12162197 -0.11856419 0)
(0.10838758 -0.1188474 0)
(0.094970863 -0.11947763 0)
(0.081368504 -0.12044526 0)
(0.067578787 -0.12173967 0)
(0.053601677 -0.12334924 0)
(0.039438886 -0.12526129 0)
(0.025093941 -0.12746214 0)
(0.010572232 -0.12993708 0)
(-0.0041189636 -0.13267041 0)
(-0.018970402 -0.1356455 0)
(-0.033970977 -0.13884481 0)
(-0.049109321 -0.14225001 0)
(0.54733897 -0.31561437 0)
(0.5323166 -0.30218322 0)
(0.5176086 -0.28925139 0)
(0.50320018 -0.27681195 0)
(0.48907515 -0.26485788 0)
(0.47521677 -0.25338219 0)
(0.46160789 -0.24237795 0)
(0.44823105 -0.23183841 0)
(0.43506848 -0.22175708 0)
(0.42210222 -0.21212781 0)
(0.40931413 -0.2029448 0)
(0.39668592 -0.19420267 0)
(0.38419923 -0.18589645 0)
(0.37183565 -0.17802162 0)
(0.35957673 -0.17057406 0)
(0.3474041 -0.16355008 0)
(0.33529942 -0.15694637 0)
(0.32324447 -0.15075997 0)
(0.3112212 -0.14498819 0)
(0.29921178 -0.13962863 0)
(0.28719861 -0.13467904 0)
(0.27516442 -0.13013731 0)
(0.26309233 -0.12600138 0)
(0.25096589 -0.12226915 0)
(0.23876915 -0.11893842 0)
(0.22648677 -0.11600679 0)
(0.21410405 -0.11347159 0)
(0.20160705 -0.11132978 0)
(0.18898264 -0.10957789 0)
(0.17621864 -0.10821189 0)
(0.16330385 -0.10722716 0)
(0.1502282 -0.10661837 0)
(0.13698283 -0.10637946 0)
(0.12356015 -0.1065035 0)
(0.10995399 -0.1069827 0)
(0.096159674 -0.10780828 0)
(0.08217409 -0.10897053 0)
(0.067995804 -0.11045867 0)
(0.053625129 -0.11226091 0)
(0.039064195 -0.11436438 0)
(0.024317015 -0.11675517 0)
(0.0093895298 -0.11941834 0)
(-0.0057103691 -0.12233792 0)
(-0.020972755 -0.12549701 0)
(-0.036385781 -0.12887779 0)
(-0.051937519 -0.1324616 0)
(0.55979464 -0.29783837 0)
(0.54438115 -0.28462276 0)
(0.52929548 -0.27190745 0)
(0.51452139 -0.25968512 0)
(0.50004172 -0.24794845 0)
(0.48583878 -0.2366901 0)
(0.47189454 -0.22590287 0)
(0.4581906 -0.21557975 0)
(0.44470831 -0.20571404 0)
(0.43142881 -0.19629937 0)
(0.41833307 -0.18732979 0)
(0.40540196 -0.17879977 0)
(0.39261627 -0.17070426 0)
(0.37995675 -0.16303862 0)
(0.36740416 -0.1557987 0)
(0.35493934 -0.14898077 0)
(0.34254319 -0.1425815 0)
(0.33019678 -0.13659792 0)
(0.31788134 -0.13102739 0)
(0.30557837 -0.12586752 0)
(0.29326964 -0.1211161 0)
(0.28093728 -0.11677108 0)
(0.26856383 -0.11283047 0)
(0.25613233 -0.10929222 0)
(0.24362634 -0.10615419 0)
(0.23103008 -0.10341405 0)
(0.21832845 -0.10106919 0)
(0.20550718 -0.099116609 0)
(0.19255285 -0.09755287 0)
(0.17945304 -0.096373985 0)
(0.16619638 -0.095575339 0)
(0.15277268 -0.095151607 0)
(0.13917302 -0.095096685 0)
(0.12538984 -0.095403614 0)
(0.11141704 -0.096064522 0)
(0.097250084 -0.097070569 0)
(0.082886088 -0.098411906 0)
(0.0683239 -0.10007764 0)
(0.053564189 -0.10205579 0)
(0.038609514 -0.10433334 0)
(0.023464381 -0.10689617 0)
(0.0081352939 -0.1097291 0)
(-0.0073692323 -0.11281594 0)
(-0.023038578 -0.11613954 0)
(-0.038860138 -0.11968179 0)
(-0.054821401 -0.12342376 0)
(0.58794663 -0.29451561 0)
(0.57179951 -0.28102106 0)
(0.55600964 -0.26803421 0)
(0.54056054 -0.25554736 0)
(0.52543472 -0.24355292 0)
(0.51061402 -0.23204324 0)
(0.49607986 -0.2210107 0)
(0.48181327 -0.21044784 0)
(0.46779495 -0.20034746 0)
(0.45400536 -0.19070265 0)
(0.44042474 -0.18150689 0)
(0.4270332 -0.17275411 0)
(0.41381074 -0.16443867 0)
(0.40073732 -0.15655542 0)
(0.38779286 -0.1490997 0)
(0.37495735 -0.14206731 0)
(0.36221083 -0.1354545 0)
(0.34953346 -0.12925796 0)
(0.33690558 -0.12347473 0)
(0.32430774 -0.11810221 0)
(0.31172076 -0.11313805 0)
(0.29912579 -0.10858011 0)
(0.28650435 -0.10442639 0)
(0.27383845 -0.10067497 0)
(0.26111057 -0.097323878 0)
(0.24830381 -0.094371045 0)
(0.23540196 -0.0918142 0)
(0.22238954 -0.089650791 0)
(0.20925192 -0.087877883 0)
(0.19597541 -0.086492076 0)
(0.18254734 -0.085489416 0)
(0.1689562 -0.084865303 0)
(0.15519167 -0.084614415 0)
(0.14124479 -0.08473063 0)
(0.12710801 -0.085206953 0)
(0.11277531 -0.086035455 0)
(0.098242321 -0.087207219 0)
(0.083506367 -0.088712295 0)
(0.068566595 -0.090539665 0)
(0.053424035 -0.092677225 0)
(0.038081678 -0.095111771 0)
(0.022544534 -0.097829008 0)
(0.0068196713 -0.10081357 0)
(-0.0090837616 -0.10404904 0)
(-0.025154446 -0.10751803 0)
(-0.041379005 -0.11120223 0)
(-0.057744329 -0.11508243 0)
(0.59983149 -0.27835987 0)
(0.58331098 -0.26510848 0)
(0.56716111 -0.25236327 0)
(0.55136431 -0.24011652 0)
(0.53590208 -0.2283604 0)
(0.52075536 -0.21708697 0)
(0.50590462 -0.2062884 0)
(0.49133 -0.19595703 0)
(0.47701128 -0.18608546 0)
(0.46292802 -0.17666664 0)
(0.44905961 -0.16769394 0)
(0.43538529 -0.15916117 0)
(0.4218842 -0.15106263 0)
(0.40853548 -0.14339312 0)
(0.39531826 -0.13614794 0)
(0.3822117 -0.1293229 0)
(0.36919511 -0.12291424 0)
(0.3562479 -0.11691867 0)
(0.3433497 -0.1113333 0)
(0.33048036 -0.10615554 0)
(0.31762007 -0.10138313 0)
(0.30474934 -0.097013978 0)
(0.29184912 -0.093046176 0)
(0.27890083 -0.089477864 0)
(0.26588648 -0.086307155 0)
(0.25278868 -0.083532055 0)
(0.23959078 -0.081150369 0)
(0.22627692 -0.079159608 0)
(0.21283216 -0.0775569 0)
(0.1992425 -0.076338892 0)
(0.18549508 -0.075501668 0)
(0.17157819 -0.075040652 0)
(0.15748142 -0.074950531 0)
(0.14319575 -0.075225173 0)
(0.12871366 -0.075857557 0)
(0.11402923 -0.076839708 0)
(0.099138215 -0.078162645 0)
(0.084038189 -0.079816331 0)
(0.068728585 -0.081789645 0)
(0.053210801 -0.084070359 0)
(0.037488263 -0.086645127 0)
(0.021566483 -0.089499495 0)
(0.0054531042 -0.092617921 0)
(-0.010842093 -0.095983808 0)
(-0.027307083 -0.099579576 0)
(-0.043927715 -0.10338669 0)
(-0.060690259 -0.10738574 0)
(0.61117186 -0.26304518 0)
(0.59429585 -0.25005022 0)
(0.57780336 -0.23755891 0)
(0.56167576 -0.22556336 0)
(0.54589362 -0.21405547 0)
(0.53043697 -0.20302712 0)
(0.51528537 -0.19247028 0)
(0.50041805 -0.18237712 0)
(0.48581391 -0.1727401 0)
(0.47145163 -0.16355206 0)
(0.45730972 -0.15480627 0)
(0.44336658 -0.14649649 0)
(0.42960053 -0.13861697 0)
(0.41598987 -0.13116248 0)
(0.40251295 -0.12412833 0)
(0.38914816 -0.11751032 0)
(0.37587405 -0.11130473 0)
(0.36266931 -0.10550832 0)
(0.34951285 -0.10011823 0)
(0.33638388 -0.09513196 0)
(0.32326193 -0.090547302 0)
(0.31012689 -0.086362258 0)
(0.29695913 -0.082574991 0)
(0.28373955 -0.079183727 0)
(0.27044963 -0.076186667 0)
(0.25707153 -0.073581897 0)
(0.24358817 -0.071367302 0)
(0.22998333 -0.069540466 0)
(0.21624171 -0.06809858 0)
(0.20234907 -0.06703835 0)
(0.1882923 -0.066355901 0)
(0.17405953 -0.066046689 0)
(0.15964026 -0.066105417 0)
(0.14502543 -0.066525954 0)
(0.13020752 -0.067301264 0)
(0.1151807 -0.068423339 0)
(0.09994091 -0.069883147 0)
(0.084485922 -0.071670584 0)
(0.068815472 -0.073774442 0)
(0.052931323 -0.076182391 0)
(0.036837338 -0.078880966 0)
(0.020539533 -0.081855582 0)
(0.0040461221 -0.085090549 0)
(-0.012632478 -0.088569117 0)
(-0.029483538 -0.092273538 0)
(-0.046492125 -0.096185111 0)
(-0.06364388 -0.10028423 0)
(0.62194182 -0.24852494 0)
(0.60472907 -0.23579898 0)
(0.58791224 -0.2235731 0)
(0.57147164 -0.21183913 0)
(0.55538696 -0.2005888 0)
(0.53963732 -0.18981378 0)
(0.5242014 -0.1795059 0)
(0.50905752 -0.1696572 0)
(0.49418371 -0.16026004 0)
(0.47955779 -0.15130718 0)
(0.46515742 -0.14279183 0)
(0.45096017 -0.13470771 0)
(0.43694353 -0.12704906 0)
(0.42308502 -0.11981064 0)
(0.4093622 -0.11298779 0)
(0.3957527 -0.10657632 0)
(0.38223434 -0.10057259 0)
(0.3687851 -0.094973394 0)
(0.35538321 -0.089775941 0)
(0.34200721 -0.084977811 0)
(0.328636 -0.080576876 0)
(0.31524888 -0.076571228 0)
(0.30182564 -0.072959117 0)
(0.28834665 -0.069738864 0)
(0.2747929 -0.066908758 0)
(0.26114609 -0.064466975 0)
(0.24738872 -0.062411483 0)
(0.2335042 -0.060739944 0)
(0.21947692 -0.059449621 0)
(0.20529236 -0.05853728 0)
(0.1909372 -0.057999098 0)
(0.1763994 -0.057830569 0)
(0.16166836 -0.058026422 0)
(0.14673496 -0.058580538 0)
(0.13159172 -0.059485877 0)
(0.11623291 -0.060734413 0)
(0.1006546 -0.062317079 0)
(0.084854793 -0.064223722 0)
(0.068833524 -0.066443069 0)
(0.052592916 -0.068962709 0)
(0.036137264 -0.071769088 0)
(0.019473086 -0.074847512 0)
(0.0026091644 -0.078182178 0)
(-0.01444345 -0.081756212 0)
(-0.031671328 -0.085551738 0)
(-0.04905875 -0.089549915 0)
(-0.066590719 -0.093730997 0)
(0.65008145 -0.24770408 0)
(0.63212329 -0.23475543 0)
(0.61459317 -0.22231031 0)
(0.59747088 -0.21036055 0)
(0.58073576 -0.1988978 0)
(0.56436654 -0.18791361 0)
(0.54834147 -0.17739953 0)
(0.53263835 -0.16734725 0)
(0.51723461 -0.15774872 0)
(0.50210744 -0.14859623 0)
(0.48723382 -0.1398825 0)
(0.47259056 -0.13160071 0)
(0.45815442 -0.12374457 0)
(0.44390211 -0.11630831 0)
(0.42981035 -0.10928674 0)
(0.41585595 -0.10267521 0)
(0.40201581 -0.096469612 0)
(0.38826701 -0.090666341 0)
(0.37458686 -0.085262271 0)
(0.36095291 -0.080254695 0)
(0.34734305 -0.075641278 0)
(0.33373556 -0.071419982 0)
(0.32010918 -0.067588994 0)
(0.30644313 -0.064146662 0)
(0.29271725 -0.061091403 0)
(0.27891205 -0.058421604 0)
(0.26500878 -0.056135534 0)
(0.25098955 -0.054231249 0)
(0.23683739 -0.052706495 0)
(0.22253637 -0.051558611 0)
(0.20807171 -0.05078443 0)
(0.19342987 -0.050380188 0)
(0.17859865 -0.050341426 0)
(0.16356735 -0.050662909 0)
(0.14832681 -0.051338539 0)
(0.13286958 -0.052361288 0)
(0.11718999 -0.053723126 0)
(0.10128428 -0.055414968 0)
(0.085150663 -0.057426632 0)
(0.068789468 -0.059746802 0)
(0.052203175 -0.062363014 0)
(0.035396507 -0.065261645 0)
(0.018376477 -0.06842793 0)
(0.0011524278 -0.071845981 0)
(-0.016263959 -0.075498836 0)
(-0.033858556 -0.079368526 0)
(-0.051614863 -0.083436109 0)
(-0.069517234 -0.087681726 0)
(0.6599725 -0.234347 0)
(0.64170477 -0.22169581 0)
(0.62387734 -0.20954239 0)
(0.60646903 -0.19787856 0)
(0.58945826 -0.18669583 0)
(0.57282293 -0.17598561 0)
(0.55654038 -0.16573934 0)
(0.54058755 -0.15594864 0)
(0.52494104 -0.14660539 0)
(0.50957719 -0.13770185 0)
(0.49447214 -0.1292307 0)
(0.47960191 -0.12118514 0)
(0.46494247 -0.11355888 0)
(0.45046973 -0.10634619 0)
(0.43615968 -0.099541922 0)
(0.42198837 -0.093141484 0)
(0.407932 -0.087140829 0)
(0.39396695 -0.081536434 0)
(0.38006983 -0.076325253 0)
(0.36621757 -0.071504672 0)