/*--------------------------------*- C++ -*----------------------------------*\
| =========                 |                                                 |
| \\      /  F ield         | OpenFOAM: The Open Source CFD Toolbox           |
|  \\    /   O peration     | Version:  2312                                  |
|   \\  /    A nd           | Website:  www.openfoam.com                      |
|    \\/     M anipulation  |                                                 |
\*---------------------------------------------------------------------------*/
FoamFile
{
    version     2.0;
    format      ascii;
    arch        "LSB;label=32;scalar=64";
    class       volScalarField;
    location    "0.06";
    object      CO2;
}
// * * * * * * * * * * * * * * * * * * * * * * * * * * * * * * * * * * * * * //

dimensions      [0 0 0 0 0 0 0];

internalField   nonuniform List<scalar> 
3257
(
0.0034487179
0.0033740379
0.0032998787
0.0032262253
0.0031530496
0.0030803219
0.0030080131
0.0029360952
0.0028645424
0.0027933324
0.0027224458
0.0026518667
0.0025815819
0.0025115814
0.0024418572
0.0023724033
0.0023032152
0.0022342884
0.0021656157
0.0020971759
0.0020288975
0.0019605298
0.0018911953
0.0018178253
0.0017296709
0.0015890217
0.0012640333
0.0010962407
0.00090862249
0.00078082382
0.00066687595
0.0005781232
0.00050285887
0.00044093925
0.00038840426
0.00034384798
0.00030548449
0.00027222223
0.00024305297
0.0002172298
0.00019411572
0.00017321835
0.00015420804
0.00013710886
0.00012295927
0.00011596539
0.00012979319
0.00012044778
9.6901437e-05
6.2708424e-05
2.1668599e-05
0.0035666155
0.003486606
0.0034072929
0.003328661
0.0032506818
0.003173324
0.0030965555
0.0030203452
0.0029446637
0.0028694848
0.0027947849
0.0027205439
0.0026467442
0.0025733712
0.0025004124
0.0024278571
0.0023556965
0.0022839223
0.0022125254
0.0021414905
0.0020707804
0.0020002874
0.001929692
0.0018580754
0.0017829849
0.0016988011
0.0015975386
0.0014995512
0.00139561
0.0012966122
0.0011991364
0.0011070481
0.0010194135
0.00093726592
0.00086024606
0.00078846491
0.00072160645
0.00065941726
0.00060152436
0.00054752467
0.00049694591
0.00044927753
0.0004039812
0.00036054241
0.0003185802
0.0002779732
0.00023829944
0.00019428011
0.0001445802
8.9335902e-05
3.0196066e-05
0.0037853288
0.0036955091
0.0036067153
0.0035189258
0.0034321072
0.0033462234
0.003261237
0.0031771111
0.0030938102
0.0030113012
0.0029295536
0.0028485399
0.0027682347
0.0026886156
0.002609662
0.0025313552
0.0024536783
0.0023766154
0.0023001511
0.0022242687
0.0021489441
0.0020741323
0.0019997321
0.0019255138
0.0018510063
0.0017754415
0.0016980275
0.0016197942
0.0015402346
0.001460496
0.001380612
0.0013014163
0.0012232101
0.0011465487
0.0010717535
0.00099917334
0.00092902024
0.00086143972
0.00079645488
0.00073396863
0.00067373386
0.00061533954
0.00055819477
0.00050152766
0.00044441
0.00038580804
0.00032458539
0.00025937686
0.00018957349
0.00011555212
3.8757502e-05
0.0040852671
0.003982164
0.0038805208
0.0037803084
0.0036814874
0.0035840157
0.0034878492
0.0033929442
0.0032992577
0.0032067483
0.003115377
0.0030251067
0.0029359026
0.0028477322
0.0027605646
0.0026743709
0.0025891236
0.0025047966
0.0024213649
0.0023388044
0.0022570902
0.0021761934
0.0020960736
0.0020166649
0.0019378608
0.0018595272
0.0017815282
0.0017038553
0.0016264437
0.0015493931
0.0014727615
0.0013967248
0.0013214444
0.0012471405
0.0011740234
0.0011023102
0.0010321832
0.00096377473
0.00089712847
0.00083216466
0.0007686368
0.00070609226
0.00064384151
0.00058095365
0.0005162993
0.00044866202
0.00037692245
0.00030029863
0.00021868345
0.00013285176
4.4459689e-05
0.0044464172
0.0043275668
0.0042106704
0.0040956922
0.0039825878
0.0038713093
0.0037618068
0.0036540293
0.0035479262
0.0034434479
0.0033405459
0.0032391736
0.0031392856
0.0030408386
0.0029437904
0.0028481005
0.0027537298
0.0026606403
0.0025687954
0.0024781599
0.0023886995
0.0023003806
0.0022131687
0.0021270264
0.002041911
0.0019577787
0.001874588
0.0017923112
0.0017109291
0.0016304507
0.0015509024
0.0014723441
0.0013948581
0.001318554
0.0012435554
0.001169991
0.0010979724
0.0010275682
0.00095876657
0.00089143084
0.00082525007
0.00075969195
0.00069397155
0.00062705583
0.00055772776
0.00048472989
0.00040698881
0.0003238891
0.00023553567
0.0001429016
4.7777506e-05
0.0048498664
0.0047137278
0.0045800605
0.0044488244
0.0043199715
0.0041934499
0.0040692044
0.0039471784
0.0038273145
0.0037095553
0.0035938437
0.0034801236
0.0033683396
0.0032584375
0.0031503641
0.003044067
0.0029394952
0.0028365987
0.0027353284
0.0026356369
0.0025374779
0.0024408069
0.0023455812
0.0022517597
0.0021593034
0.0020681771
0.0019783504
0.0018898012
0.0018025174
0.0017165012
0.0016317718
0.0015483682
0.0014663493
0.0013857927
0.0013067885
0.0012294275
0.0011537829
0.0010798823
0.0010076705
0.00093696289
0.00086739527
0.00079837726
0.00072906609
0.00065838084
0.00058508017
0.00050791869
0.00042587686
0.00033842759
0.00024577013
0.0001489452
4.9763163e-05
0.0052788997
0.0051247119
0.0049735084
0.0048252471
0.0046798789
0.0045373494
0.0043976003
0.0042605706
0.0041261975
0.0039944173
0.0038651655
0.0037383775
0.0036139889
0.0034919356
0.0033721536
0.0032545799
0.0031391519
0.0030258076
0.0029144863
0.002805128
0.0026976744
0.0025920688
0.0024882568
0.002386187
0.0022858115
0.0021870875
0.0020899786
0.001994457
0.0019005056
0.0018081209
0.0017173149
0.0016281176
0.0015405771
0.0014547572
0.001370732
0.0012885735
0.0012083335
0.0011300145
0.0010535328
0.00097867216
0.0009050346
0.00083199762
0.00075869385
0.00068403349
0.00060678958
0.00052575748
0.00043997904
0.00034899261
0.00025304268
0.0001531721
5.1141148e-05
0.0057196148
0.0055472254
0.005378311
0.0052128302
0.0050507345
0.0048919691
0.0047364743
0.0045841865
0.0044350392
0.0042889638
0.0041458898
0.0040057457
0.0038684593
0.0037339576
0.0036021676
0.0034730161
0.0033464301
0.0032223369
0.0031006642
0.0029813409
0.0028642967
0.0027494632
0.0026367742
0.0025261666
0.0024175813
0.0023109646
0.00220627
0.0021034597
0.0020025075
0.0019034004
0.0018061416
0.0017107515
0.0016172682
0.0015257445
0.0014362421
0.0013488192
0.0012635113
0.0011803027
0.0010990891
0.0010196325
0.00094151449
0.0008640977
0.0007865111
0.00070767863
0.00062640839
0.00054155036
0.00045221021
0.00035798057
0.00025912782
0.0001566663
5.2273465e-05
0.0061611
0.0059707943
0.0057844228
0.0056019465
0.0054233196
0.0052484885
0.0050773935
0.0049099701
0.0047461494
0.0045858594
0.0044290252
0.0042755697
0.0041254141
0.0039784783
0.0038346811
0.0036939407
0.0035561746
0.0034213005
0.0032892359
0.003159899
0.0030332089
0.0029090861
0.0027874532
0.0026682357
0.0025513635
0.0024367716
0.0023244024
0.0022142074
0.0021061497
0.0020002059
0.0018963688
0.0017946484
0.0016950718
0.001597681
0.0015025255
0.0014096505
0.0013190768
0.0012307732
0.0011446185
0.0010603592
0.00097756438
0.00089559237
0.00081358067
0.00073047928
0.00064514139
0.00055647669
0.00046365313
0.00036630935
0.00026472069
0.00015985865
5.3304865e-05
0.0065952774
0.0063876272
0.0061843359
0.0059853689
0.0057906838
0.0056002296
0.0054139478
0.005231774
0.0050536383
0.0048794663
0.0047091799
0.0045426977
0.0043799356
0.0042208075
0.0040652252
0.0039130994
0.0037643396
0.0036188546
0.0034765531
0.0033373436
0.0032011354
0.0030678388
0.0029373663
0.0028096328
0.0026845573
0.0025620645
0.0024420857
0.0023245618
0.002209445
0.0020967012
0.0019863125
0.0018782778
0.0017726132
0.0016693489
0.0015685223
0.0014701656
0.0013742858
0.0012808371
0.0011896846
0.0011005626
0.0010130337
0.00092645884
0.00083999166
0.00075261537
0.0006632331
0.00057081536
0.00047458909
0.00037423206
0.00027002022
0.00016287501
5.427791e-05
0.0070165336
0.0067922763
0.00657277
0.0063579854
0.0061478842
0.0059424185
0.0057415318
0.0055451604
0.0053532342
0.0051656774
0.0049824095
0.0048033456
0.0046283975
0.0044574738
0.0042904806
0.004127322
0.0039679003
0.0038121168
0.003659872
0.0035110659
0.003365599
0.0032233723
0.0030842887
0.0029482537
0.0028151762
0.0026849707
0.0025575585
0.00243287
0.0023108469
0.0021914445
0.0020746339
0.0019604031
0.0018487567
0.0017397131
0.0016332973
0.0015295286
0.0014284005
0.001329854
0.0012337421
0.0011397905
0.0010475596
0.00095641806
0.00086554156
0.00077395118
0.00068060272
0.00058452717
0.00048500693
0.00038175312
0.00027503633
0.00016572376
5.519564e-05
0.0074212524
0.0071812038
0.0069462697
0.0067164259
0.0064916388
0.0062718638
0.0060570466
0.0058471246
0.0056420278
0.0054416796
0.0052459975
0.005054894
0.0048682771
0.004686051
0.0045081169
0.004334373
0.0041647154
0.0039990385
0.0038372354
0.0036791987
0.0035248205
0.0033739938
0.0032266125
0.0030825732
0.0029417758
0.0028041252
0.002669533
0.0025379197
0.0024092169
0.0022833696
0.0021603379
0.002040099
0.0019226459
0.001807985
0.0016961288
0.0015870835
0.0014808301
0.0013772969
0.001276327
0.0011776401
0.0010807982
0.00098518244
0.00088999478
0.00079429803
0.00069710247
0.00059749889
0.00049482192
0.00038881126
0.00027972746
0.00016838073
5.6050098e-05
0.0078073413
0.0075523378
0.0073027877
0.0070586722
0.0068199621
0.006586616
0.0063585816
0.0061357978
0.0059181945
0.0057056946
0.0054982139
0.0052956625
0.0050979452
0.0049049623
0.0047166103
0.0045327823
0.0043533687
0.0041782577
0.0040073358
0.0038404885
0.0036776006
0.0035185573
0.0033632447
0.0032115509
0.0030633672
0.0029185898
0.0027771212
0.0026388724
0.0025037652
0.0023717343
0.0022427297
0.0021167171
0.0019936781
0.0018736071
0.0017565039
0.0016423621
0.0015311499
0.0014227845
0.0013171003
0.0012138139
0.0011124923
0.0010125327
0.00091316771
0.0008135047
0.00071260987
0.00060963299
0.00050395807
0.00039534938
0.00028405371
0.00017082232
5.6833488e-05
0.0081738064
0.0079046705
0.0076413067
0.0073837011
0.0071318285
0.0068856504
0.0066451166
0.0064101669
0.0061807314
0.0059567321
0.0057380834
0.005524693
0.0053164628
0.0051132894
0.004915065
0.004721678
0.0045330133
0.0043489536
0.0041693791
0.0039941688
0.0038232008
0.003656353
0.0034935041
0.0033345344
0.0031793274
0.0030277708
0.0028797585
0.0027351925
0.0025939852
0.0024560614
0.0023213606
0.0021898376
0.0020614624
0.0019362172
0.0018140893
0.0016950595
0.0015790838
0.0014660691
0.0013558429
0.001248121
0.0011424781
0.0010383314
0.00093494706
0.00083147972
0.00072705243
0.00062087307
0.00051237239
0.00040133578
0.00028799325
0.00017303572
5.7541619e-05
0.0085204041
0.0082379273
0.0079615239
0.0076911849
0.0074268884
0.0071685986
0.006916267
0.0066698339
0.0064292294
0.0061943747
0.0059651825
0.0057415583
0.0055234009
0.0053106034
0.005103054
0.0049006364
0.0047032306
0.0045107138
0.0043229606
0.0041398436
0.0039612347
0.003787005
0.0036170262
0.0034511714
0.0032893166
0.0031313415
0.0029771318
0.002826581
0.0026795922
0.0025360807
0.0023959757
0.0022592211
0.0021257753
0.0019956082
0.0018686946
0.0017450027
0.0016244767
0.001507014
0.0013924367
0.0012804616
0.0011706742
0.0010625145
0.00095528471
0.00084818885
0.00074040731
0.00063120492
0.00052005671
0.00040676613
0.000291544
0.00017502011
5.8174302e-05
0.0088473758
0.0085523115
0.0082636073
0.0079812581
0.0077052453
0.0074355352
0.0071720806
0.006914822
0.0066636896
0.0064186031
0.0061794737
0.0059462043
0.0057186909
0.0054968231
0.005280485
0.005069556
0.0048639112
0.0046634226
0.0044679591
0.0042773879
0.0040915745
0.0039103837
0.0037336807
0.0035613318
0.0033932056
0.0032291744
0.0030691162
0.002912916
0.0027604683
0.0026116789
0.0024664668
0.0023247653
0.0021865211
0.0020516919
0.0019202397
0.0017921205
0.0016672672
0.0015455684
0.0014268421
0.0013108081
0.0011970646
0.0010850768
0.00097418546
0.00086364485
0.00075269277
0.00064064959
0.00052703215
0.00041165927
0.00029472066
0.00017678477
5.873472e-05
0.0091552569
0.0088483203
0.0085480168
0.0082543452
0.0079672897
0.0076868182
0.0074128845
0.0071454293
0.0068843821
0.0066296615
0.0063811766
0.0061388279
0.0059025085
0.0056721043
0.0054474955
0.0052285572
0.0050151598
0.0048071703
0.0046044524
0.0044068674
0.0042142752
0.0040265346
0.0038435045
0.0036650445
0.0034910166
0.003321286
0.003155723
0.0029942047
0.0028366171
0.0026828569
0.0025328332
0.0023864684
0.0022436978
0.002104467
0.0019687256
0.001836417
0.0017074636
0.0015817458
0.0014590786
0.0013391865
0.0012216822
0.0011060579
0.00099169408
0.000877896
0.0007639582
0.00064925482
0.00053334201
0.0004160515
0.00029755052
0.0001783466
5.9228589e-05
0.009444748
0.0091266179
0.0088153814
0.0085110407
0.0082135824
0.0079229759
0.0076391756
0.0073621222
0.0070917443
0.0068279591
0.0065706736
0.006319786
0.0060751859
0.005836756
0.0056043725
0.0053779063
0.0051572231
0.004942185
0.0047326507
0.0045284761
0.0043295155
0.0041356219
0.0039466482
0.0037624479
0.0035828764
0.003407792
0.003237058
0.0030705438
0.0029081272
0.0027496959
0.0025951492
0.0024443993
0.0022973699
0.0021539946
0.0020142107
0.0018779496
0.0017451233
0.001615605
0.0014892076
0.0013656613
0.001244595
0.0011255287
0.0010078836
0.00089101558
0.00077427476
0.00065708689
0.00053904484
0.0004199911
0.00030006948
0.00017972767
5.9663338e-05
0.0097166311
0.0093879534
0.0090664176
0.008752029
0.0084447763
0.0081446303
0.0078515456
0.0075654628
0.0072863094
0.0070140012
0.0067484431
0.0064895304
0.0062371499
0.0059911806
0.0057514951
0.0055179597
0.0052904359
0.0050687811
0.0048528488
0.00464249
0.0044375535
0.0042378867
0.0040433369
0.0038537516
0.00366898
0.0034888741
0.00331329
0.00314209
0.0029751438
0.0028123306
0.0026535404
0.0024986748
0.0023476466
0.0022003775
0.0020567927
0.0019168121
0.0017803375
0.0016472358
0.0015173186
0.0013903227
0.0012658938
0.0011435808
0.0010228452
0.00090309272
0.00078372719
0.00066422348
0.00054420851
0.00042353354
0.00030231856
0.00018095309
6.00474e-05
0.0099717195
0.0096331102
0.0093018791
0.0089780341
0.0086615662
0.0083524471
0.0080506318
0.0077560604
0.0074686594
0.0071883428
0.0069150135
0.0066485642
0.0063888785
0.006135832
0.0058892934
0.005649125
0.005415184
0.0051873229
0.0049653908
0.0047492334
0.0045386945
0.0043336164
0.0041338405
0.003939209
0.003749565
0.0035647543
0.0033846267
0.0032090373
0.0030378481
0.0028709302
0.0027081644
0.0025494422
0.0023946658
0.0022437452
0.002096594
0.0019531209
0.0018132183
0.001676747
0.0015435182
0.0014132759
0.0012856832
0.0011603174
0.00103668
0.00091422474
0.0007924069
0.00067074753
0.00054890488
0.00042673724
0.00030434079
0.00018204913
6.0389585e-05
0.010210829
0.0098628764
0.0095225262
0.0091897893
0.0088646581
0.0085471055
0.0082370866
0.007934541
0.0076393942
0.0073515584
0.0070709345
0.0067974123
0.0065308726
0.0062711875
0.006018222
0.0057718345
0.0055318778
0.0052982001
0.0050706458
0.0048490559
0.0046332692
0.0044231229
0.0042184534
0.0040190972
0.0038248921
0.0036356779
0.003451298
0.003271601
0.0030964417
0.0029256831
0.0027591973
0.0025968664
0.0024385818
0.0022842427
0.0021337512
0.0019870056
0.0018438894
0.0017042578
0.001567922
0.0014346337
0.0013040733
0.0011758462
0.001049492
0.00092451079
0.0008004061
0.00067674204
0.00055320541
0.00042965998
0.00030617856
0.00018304164
6.069854e-05
0.010434761
0.010078028
0.00972911
0.0093880196
0.0090547516
0.0087292796
0.008411559
0.0081015289
0.0077991135
0.0075042236
0.0072167576
0.006936603
0.0066636375
0.0063977301
0.0061387418
0.0058865275
0.0056409358
0.0054018106
0.0051689919
0.0049423162
0.0047216176
0.0045067283
0.0042974799
0.0040937038
0.0038952324
0.0037018998
0.0035135438
0.0033300065
0.0031511359
0.0029767873
0.0028068246
0.0026411206
0.0024795569
0.0023220221
0.0021684076
0.0020186016
0.0018724792
0.0017298908
0.001590648
0.0014545101
0.0013211745
0.0011902734
0.001061383
0.00093404668
0.00080781304
0.00068228579
0.00055717747
0.00043235594
0.00030787146
0.00018395464
6.09823e-05
0.010644298
0.010279323
0.0099223624
0.0095734327
0.0092325301
0.0088996289
0.0085746846
0.0082576359
0.0079484059
0.0076469038
0.0073530258
0.0070666569
0.006787672
0.0065159368
0.006251309
0.0059936396
0.0057427734
0.0054985504
0.005260806
0.0050293726
0.0048040797
0.004584755
0.0043712255
0.0041633175
0.0039608584
0.0037636773
0.0035716063
0.0033844814
0.0032021442
0.003024443
0.0028512337
0.0026823804
0.0025177555
0.0023572374
0.0022007075
0.0020480445
0.001899116
0.0017537677
0.001611812
0.0014730158
0.0013370925
0.0012036999
0.0010724482
0.00094292108
0.00081470848
0.00068745011
0.00056088145
0.00043487332
0.00030945449
0.00018480932
6.1247934e-05
0.010840197
0.010467494
0.010102993
0.0097467146
0.0093986559
0.0090587923
0.0087270796
0.0084034557
0.0080878427
0.0077801482
0.0074802666
0.0071880802
0.0069034613
0.0066262725
0.0063563682
0.0060935958
0.0058377965
0.0055888063
0.0053464566
0.0051105757
0.0048809888
0.0046575194
0.0044399898
0.004228222
0.0040220386
0.0038212636
0.003625724
0.0034352502
0.0032496777
0.0030688481
0.00289261
0.0027208194
0.0025533396
0.00239004
0.0022307926
0.0020754672
0.0019239243
0.0017760058
0.0016315247
0.0014902552
0.0013519259
0.0012162181
0.0010827737
0.00095121284
0.00082116315
0.00069229663
0.00056436895
0.00043725286
0.000310957
0.00018562333
6.1501312e-05
0.01102319
0.010643249
0.010271687
0.0099085272
0.0095537681
0.0092073865
0.0088693382
0.0085395606
0.0082179748
0.0079044868
0.007598989
0.0073013615
0.007011474
0.006729186
0.006454349
0.0061868068
0.0059263973
0.0056729526
0.0054263004
0.0051862651
0.0049526679
0.0047253281
0.0045040639
0.004288693
0.0040790334
0.0038749048
0.003676129
0.0034825313
0.0032939416
0.0031101952
0.0029311338
0.0027566059
0.0025864668
0.0024205769
0.0022587998
0.0021009972
0.0019470232
0.001796716
0.0016498894
0.0015063247
0.001365764
0.0012279106
0.0010924347
0.00095898956
0.00082723651
0.00069687613
0.00056768166
0.00043952696
0.00031240204
0.0001864104
6.1746985e-05
0.011193984
0.010807272
0.010429105
0.010059508
0.0096984815
0.0093460043
0.0090020316
0.0086665007
0.0083393313
0.0080204281
0.0077096816
0.0074069697
0.0071121595
0.006825108
0.0065456635
0.0062736668
0.0060089522
0.0057513485
0.0055006799
0.0052567669
0.005019427
0.0047884757
0.0045637272
0.0043449951
0.0041320935
0.0039248375
0.0037230445
0.003526535
0.0033351335
0.0031486696
0.0029669786
0.0027899022
0.002617288
0.0024489887
0.0022848598
0.0021247557
0.0019685247
0.0018160017
0.0016670016
0.0015213115
0.0013786865
0.0012388491
0.001101495
0.00096630719
0.0008329764
0.00070122836
0.00057085137
0.00044171971
0.00031380634
0.00018718038
6.1988187e-05
0.011353261
0.010960222
0.010575881
0.010200268
0.0098333862
0.0094752142
0.0091257077
0.0087848031
0.0084524192
0.0081284593
0.007812812
0.0075053535
0.0072059481
0.0069144504
0.0066307059
0.0063545525
0.0060858212
0.0058243375
0.0055699224
0.0053223927
0.0050815626
0.0048472438
0.0046192469
0.0043973817
0.0041814584
0.0039712881
0.003766684
0.0035674621
0.0033734421
0.0031844482
0.00300031
0.0028208627
0.0026459471
0.0024754088
0.0023090961
0.0021468566
0.0019885335
0.0018339588
0.0016829481
0.0015352941
0.0013907631
0.001249095
0.0011100079
0.00097321057
0.00083841971
0.00070538266
0.00057390048
0.00044384733
0.00031518078
0.00018793944
6.2226924e-05
0.011501678
0.01110273
0.010712625
0.010331395
0.0099590477
0.009595561
0.0092408905
0.0088949719
0.008557723
0.0082290457
0.0079088269
0.0075969409
0.0072932499
0.0069976059
0.0067098519
0.0064298228
0.0061573469
0.0058922465
0.0056343394
0.0053834392
0.0051393567
0.0049019003
0.0046708771
0.0044460934
0.0042273558
0.0040144718
0.0038072505
0.0036055038
0.0034090469
0.0032176993
0.0030312852
0.0028496341
0.0026725805
0.0024999636
0.002331625
0.0021674067
0.0020071468
0.0018506751
0.0016978077
0.0015483421
0.0014020547
0.0012587002
0.0011180165
0.00097973458
0.00084359356
0.0007093592
0.00057684324
0.00044591927
0.00031653112
0.00018869062
6.2464139e-05
0.011639868
0.011235403
0.010839918
0.010453451
0.010076007
0.0097075653
0.0093480809
0.0089974886
0.0086557051
0.008322631
0.0079981519
0.0076821399
0.0073744555
0.0070749483
0.0067834588
0.0064998192
0.0062238552
0.0059553862
0.0056942269
0.005440188
0.0051930772
0.0049526996
0.0047188591
0.0044913589
0.0042700021
0.0040545927
0.0038449364
0.0036408411
0.0034421181
0.0032485824
0.0030600533
0.0028763551
0.0026973169
0.0025227718
0.0023525559
0.0021865056
0.002024455
0.0018662316
0.0017116518
0.0015605177
0.0014126139
0.0012677082
0.0011255554
0.00098590567
0.00084851694
0.0007131706
0.00057968718
0.00044793943
0.00031785899
0.00018943442
6.2699926e-05
0.011768445
0.011358813
0.010958316
0.01056697
0.01018478
0.009811724
0.0094477567
0.0090928121
0.0087468061
0.008409638
0.0080811919
0.0077613386
0.0074499362
0.0071468326
0.0068518658
0.0065648657
0.0062856553
0.0060140512
0.0057498656
0.0054929062
0.0052429777
0.0049998824
0.0047634213
0.0045333943
0.0043096015
0.0040918439
0.0038799237
0.0036736454
0.0034728165
0.0032772479
0.0030867548
0.0029011566
0.0027202775
0.0025439453
0.002371991
0.0022042464
0.0020405417
0.0018807023
0.0017245453
0.0015718761
0.0014224866
0.0012761558
0.0011326527
0.00099174362
0.00085320248
0.00071682363
0.00058243477
0.00044990755
0.00031916293
0.00019016945
6.2933743e-05
0.011473515
0.011068346
0.010672463
0.010285859
0.0099085108
0.0095403732
0.0091813795
0.0088314451
0.0084904682
0.0081583319
0.0078349051
0.0075200445
0.0072135957
0.0069153948
0.0066252693
0.0063430398
0.0060685205
0.0058015209
0.0055418461
0.0052892981
0.0050436765
0.0048047793
0.0045724039
0.0043463474
0.0041264078
0.0039123843
0.0037040782
0.0035012937
0.0033038379
0.0031115221
0.0029241617
0.0027415762
0.0025635889
0.0023900262
0.0022207157
0.0020554844
0.0018941559
0.0017365473
0.0015824671
0.0014317134
0.0012840743
0.001139331
0.00099726321
0.00085765819
0.00072032095
0.00058508492
0.00045182051
0.00032043943
0.00019089307
6.3164629e-05
0.011579986
0.01117051
0.010770418
0.010379713
0.0099983769
0.0096263632
0.009263606
0.0089100202
0.0085655032
0.0082299369
0.0079031888
0.0075851141
0.0072755566
0.0069743502
0.0066813205
0.0063962857
0.0061190579
0.0058494439
0.0055872465
0.0053322651
0.0050842968
0.0048431371
0.0046085806
0.0043804219
0.0041584563
0.0039424802
0.0037322919
0.0035276925
0.003328486
0.0031344801
0.0029454862
0.0027613201
0.002581801
0.0024067512
0.0022359947
0.0020693555
0.0019066555
0.0017477119
0.0015923358
0.0014403301
0.0012914909
0.0011456091
0.0010024758
0.00086188904
0.00072366259
0.00058763439
0.00045367356
0.00032168379
0.00019160191
6.3391393e-05
0.01167878
0.011265301
0.010861302
0.010466791
0.010081751
0.0097061378
0.0093398856
0.0089829088
0.0086351043
0.0082963527
0.0079665206
0.0076454613
0.0073330171
0.0070290202
0.0067332941
0.0064456548
0.0061659124
0.0058938715
0.0056293325
0.0053720924
0.0051219461
0.0048786865
0.004642106
0.0044119967
0.0041881513
0.0039703638
0.0037584298
0.0035521475
0.003351318
0.0031557458
0.0029652391
0.00277961
0.0025986742
0.0024222503
0.0022501592
0.0020822223
0.0019182599
0.0017580894
0.0016015235
0.0014483696
0.0012984299
0.0011515035
0.0010073906
0.00086589827
0.00072684723
0.00059007897
0.00045546124
0.00032289086
0.00019229239
6.3612767e-05
0.01177038
0.011353183
0.010945559
0.010547516
0.010159039
0.0097800866
0.0094105915
0.0090504684
0.0086996135
0.0083579066
0.0080252129
0.0077013847
0.0073862624
0.0070796767
0.0067814492
0.006491394
0.0062093192
0.0059350272
0.0056683163
0.0054089815
0.0051568152
0.0049116084
0.0046731511
0.0044412333
0.0042156453
0.0039961787
0.0037826268
0.0035747851
0.0033724522
0.0031754296
0.0029835226
0.0027965402
0.0026142949
0.0024366022
0.0022632801
0.0020941478
0.0019290241
0.0017677264
0.0016100688
0.001455862
0.0013049134
0.0011570287
0.0010120157
0.00086968838
0.00072987321
0.00059241431
0.00045717814
0.00032405562
0.00019296104
6.3827525e-05
0.011855238
0.011434593
0.011023606
0.010622289
0.010230627
0.0098485781
0.0094760767
0.0091130368
0.0087593541
0.0084149075
0.0080795612
0.0077531662
0.0074355616
0.0071265763
0.0068260303
0.006533736
0.0062494995
0.0059731213
0.0057043978
0.0054431219
0.005189084
0.004942073
0.0047018769
0.0044682837
0.0042410815
0.0040200597
0.0038050095
0.0035957241
0.0033919995
0.0031936348
0.0030004328
0.0028121995
0.0026287446
0.002449881
0.0022754241
0.0021051911
0.0019389996
0.0017766666
0.0016180075
0.0014628355
0.0013109622
0.0011621988
0.0010163587
0.00087326192
0.00073273916
0.0005946366
0.00045881943
0.00032517358
0.00019360473
6.4034564e-05
0.011933783
0.011509942
0.01109584
0.010691489
0.010296877
0.0099119604
0.0095366744
0.0091709329
0.008814631
0.008467647
0.008129844
0.0078010718
0.0074811682
0.0071699607
0.0068672677
0.0065729
0.0062866619
0.0060083521
0.0057377652
0.005474692
0.0052189214
0.0049702402
0.0047284346
0.0044932906
0.0042645944
0.0040421334
0.0038256968
0.0036150758
0.0034100641
0.0032104587
0.0030160597
0.0028266709
0.0026420996
0.0024621561
0.0022866537
0.0021154077
0.0019482347
0.0017849512
0.0016253736
0.0014693171
0.0013165965
0.0011670272
0.0010204276
0.00087662195
0.00073544452
0.00059674295
0.00046038121
0.00032624099
0.00019422082
6.4232954e-05
0.012006417
0.011579618
0.011162633
0.010755475
0.010358132
0.0099705617
0.0095926989
0.0092244574
0.0088657318
0.0085163997
0.0081763235
0.0078453517
0.007523321
0.0072100575
0.0069053782
0.0066090923
0.0063210025
0.0060409058
0.0057685951
0.0055038596
0.0052464862
0.0049962603
0.0047529662
0.004516388
0.0042863103
0.0040625187
0.0038448005
0.0036329449
0.0034267438
0.0032259921
0.0030304878
0.0028400326
0.0026544315
0.0024734927
0.0022970276
0.0021248499
0.001956775
0.0017926193
0.0016321995
0.0014753325
0.0013218356
0.0011715276
0.0010242305
0.00087977231
0.00073798976
0.00059873158
0.00046186062
0.00032725498
0.00019480727
6.4421963e-05
0.012073521
0.011643987
0.011224336
0.010814583
0.010414715
0.010024691
0.0096444462
0.0092738933
0.008912927
0.0085614243
0.0082192465
0.0078862415
0.0075622445
0.0072470806
0.0069405654
0.0066425066
0.0063527054
0.0060709573
0.0057970536
0.0055307819
0.0052719276
0.0050202744
0.0047756049
0.0045377017
0.0043063478
0.0040813271
0.0038624251
0.0036494295
0.0034421303
0.0032403206
0.0030437965
0.0028523578
0.0026658075
0.0024839521
0.0023066012
0.0021335669
0.0019646638
0.0017997078
0.0016385161
0.0014809066
0.0013266986
0.0011757136
0.0010277764
0.00088271777
0.00074037647
0.00060060193
0.00046325594
0.0003282136
0.00019536262
6.4601063e-05
0.012135454
0.011703393
0.011281281
0.01086913
0.01046693
0.01007464
0.0096921945
0.0093195068
0.0089564711
0.0086029636
0.0082588452
0.0079239624
0.0075981499
0.0072812311
0.0069730207
0.0066733249
0.0063819437
0.006098671
0.0058232966
0.0055556068
0.0052953854
0.0050424146
0.0047964757
0.0045573497
0.004324818
0.0040986631
0.0038786689
0.0036646215
0.0034563095
0.0032535242
0.0030560601
0.0028637152
0.0026762908
0.0024935918
0.0023154263
0.0021416051
0.0019719418
0.001806252
0.0016443529
0.0014860634
0.0013312043
0.001179599
0.0010310746
0.00088546396
0.00074260733
0.00060235457
0.00046456655
0.00032911579
0.00019588596
6.4769919e-05
0.012192552
0.011758161
0.011333777
0.010919414
0.010515063
0.010120681
0.0097362054
0.0093615482
0.0089966031
0.0086412462
0.0082953374
0.0079587225
0.0076312351
0.0073126977
0.0070029237
0.0067017182
0.0064088797
0.0061242009
0.0058474703
0.0055784728
0.0053169908
0.0050628052
0.0048156959
0.0045754424
0.0043418249
0.0041146245
0.0038936237
0.0036786071
0.0034693618
0.0032656778
0.0030673481
0.002874169
0.0026859404
0.0025024658
0.0023235518
0.0021490081
0.0019786475
0.0018122851
0.0016497382
0.0014908263
0.0013353712
0.0011831978
0.0010341351
0.00088801737
0.00074468602
0.00060399116
0.00046579277
0.00032996125
0.00019637693
6.4928374e-05
0.012245133
0.011808595
0.011382117
0.010965716
0.010559381
0.010163072
0.0097767246
0.0094002521
0.0090335475
0.0086764862
0.0083289276
0.0079907167
0.0076616861
0.0073416575
0.0070304429
0.0067278466
0.0064336656
0.0061476917
0.0058697118
0.0055995098
0.0053368668
0.0050815624
0.0048333752
0.0045920835
0.0043574662
0.0041293031
0.0039073756
0.0036914668
0.0034813627
0.0032768518
0.0030777257
0.0028837796
0.0026948119
0.0025106248
0.0023310236
0.0021558172
0.0019848175
0.001817839
0.0016546991
0.0014952177
0.0013392174
0.0011865242
0.0010369683
0.00089038515
0.00074661708
0.00060551424
0.00046693581
0.00033075039
0.00019683557
6.5076421e-05
0.012293494
0.01185498
0.011426575
0.011008297
0.010600136
0.010202052
0.0098139825
0.009435839
0.0090675148
0.0087088848
0.0083598078
0.008020128
0.0076896773
0.0073682764
0.0070557363
0.0067518603
0.0064564442
0.0061692787
0.0058901496
0.0056188395
0.0053551285
0.005098795
0.0048496164
0.0046073699
0.0043718332
0.0041427849
0.0039200052
0.0037032763
0.0034923826
0.0032871118
0.0030872541
0.0028926035
0.0027029573
0.0025181163
0.002337885
0.0021620712
0.0019904861
0.0018229438
0.0016592616
0.0014992594
0.0013427607
0.001189592
0.0010395847
0.000892575
0.00074840574
0.0006069271
0.00046799756
0.00033148419
0.00019726232
6.5214183e-05
0.012337915
0.011897584
0.011467408
0.011047404
0.010637564
0.010237849
0.0098481952
0.0094685154
0.0090987022
0.0087386303
0.0083881576
0.0080471279
0.0077153721
0.00739271
0.007078952
0.0067739
0.0064773492
0.0061890888
0.0059089039
0.0056365759
0.0053718838
0.005114605
0.0048645158
0.0046213923
0.0043850113
0.0041551501
0.003931588
0.003714106
0.0035024877
0.0032965194
0.0030959904
0.0029006936
0.0027104252
0.0025249849
0.0023441764
0.0021678066
0.0019956859
0.0018276282
0.0016634503
0.0015029725
0.0013460184
0.0011924154
0.0010419952
0.000894595
0.00075005776
0.00060823364
0.00046898049
0.0003321641
0.00019765793
6.5341886e-05
0.012378658
0.01193666
0.011504857
0.011083268
0.010671886
0.010270673
0.009879565
0.0094984747
0.0091272948
0.0087658993
0.0084141456
0.0080718769
0.0077389234
0.0074151041
0.0071002285
0.0067940976
0.0064965056
0.0062072409
0.0059260874
0.0056528257
0.0053872337
0.0051290879
0.0048781635
0.0046342359
0.0043970805
0.004166474
0.0039421945
0.0037240222
0.0035117396
0.0033051321
0.0031039881
0.0029080994
0.0027172612
0.0025312726
0.002349936
0.0021730578
0.0020004477
0.0018319191
0.0016672888
0.0015063769
0.0013490073
0.0011950079
0.0010442108
0.00089645346
0.00075157926
0.00060943819
0.00046988751
0.00033279192
0.00019802337
6.5459837e-05
0.012415968
0.011972443
0.011539148
0.011116105
0.01070331