/*--------------------------------*- C++ -*----------------------------------*\
| =========                 |                                                 |
| \\      /  F ield         | OpenFOAM: The Open Source CFD Toolbox           |
|  \\    /   O peration     | Version:  2312                                  |
|   \\  /    A nd           | Website:  www.openfoam.com                      |
|    \\/     M anipulation  |                                                 |
\*---------------------------------------------------------------------------*/
FoamFile
{
    version     2.0;
    format      ascii;
    arch        "LSB;label=32;scalar=64";
    class       volScalarField;
    location    "0.06";
    object      H2O;
}
// * * * * * * * * * * * * * * * * * * * * * * * * * * * * * * * * * * * * * //

dimensions      [0 0 0 0 0 0 0];

internalField   nonuniform List<scalar> 
3257
(
0.002823435
0.0027622951
0.0027015817
0.0026412823
0.0025813739
0.0025218325
0.0024626339
0.0024037553
0.0023451757
0.0022868767
0.0022288425
0.0021710599
0.0021135184
0.0020562096
0.001999127
0.0019422657
0.001885622
0.0018291923
0.0017729705
0.0017169395
0.0016610406
0.0016050685
0.001548305
0.0014882376
0.0014160664
0.0013009181
0.0010348529
0.0008974826
0.00074388124
0.0006392536
0.00054596548
0.00047330438
0.00041168614
0.00036099308
0.00031798316
0.00028150531
0.00025009747
0.00022286595
0.00019898533
0.00017784413
0.00015892084
0.00014181234
0.00012624877
0.00011224981
0.00010066567
9.4939844e-05
0.00010626054
9.8609534e-05
7.9332355e-05
5.1338836e-05
1.7739891e-05
0.0029199567
0.0028544537
0.0027895207
0.0027251455
0.0026613046
0.0025979725
0.0025351228
0.00247273
0.0024107703
0.002349222
0.0022880659
0.0022272854
0.0021668662
0.0021067964
0.0020470656
0.0019876653
0.001928588
0.0018698271
0.0018113751
0.0017532194
0.0016953297
0.0016376177
0.0015798218
0.00152119
0.0014597141
0.0013907936
0.0013078908
0.0012276694
0.0011425736
0.001061525
0.00098172241
0.00090633056
0.00083458484
0.00076733137
0.00070427588
0.00064550929
0.00059077285
0.00053985911
0.0004924627
0.00044825363
0.00040684524
0.00036781956
0.00033073585
0.0002951729
0.00026081881
0.00022757421
0.00019509366
0.00015905542
0.00011836654
7.3138517e-05
2.4721254e-05
0.0030990154
0.0030254808
0.0029527861
0.0028809136
0.002809836
0.0027395237
0.0026699461
0.0026010729
0.0025328752
0.0024653258
0.0023983998
0.0023320745
0.0022663294
0.002201146
0.0021365073
0.0020723982
0.0020088048
0.0019457141
0.0018831135
0.0018209892
0.0017593216
0.0016980739
0.0016371631
0.0015764012
0.0015154026
0.0014535384
0.0013901602
0.0013261113
0.0012609765
0.0011956952
0.0011302949
0.001065458
0.0010014314
0.00093866936
0.00087743517
0.00081801443
0.0007605807
0.00070525313
0.00065205061
0.00060089366
0.00055157999
0.00050377307
0.00045698915
0.00041059629
0.00036383456
0.00031585765
0.0002657352
0.00021234955
0.00015520215
9.4601506e-05
3.1730426e-05
0.0033445722
0.0032601626
0.0031769483
0.0030949053
0.0030140014
0.0029342021
0.0028554715
0.0027777736
0.0027010733
0.0026253367
0.0025505317
0.0024766282
0.0024035977
0.0023314133
0.00226005
0.002189484
0.0021196927
0.0020506549
0.0019823502
0.0019147586
0.0018478599
0.0017816304
0.001716037
0.0016510258
0.0015865096
0.0015223785
0.0014585215
0.0013949313
0.0013315552
0.0012684745
0.0012057369
0.0011434863
0.0010818549
0.001021023
0.00096116264
0.00090245168
0.0008450393
0.0007890339
0.00073447119
0.00068128589
0.00062927619
0.00057807152
0.00052710739
0.00047562165
0.0004226897
0.00036731565
0.0003085831
0.00024585185
0.00017903422
0.00010876457
3.6398756e-05
0.0036402427
0.0035429408
0.0034472388
0.0033531072
0.0032605096
0.0031694069
0.0030797581
0.0029915216
0.002904656
0.0028191205
0.0027348756
0.0026518829
0.0025701056
0.0024895078
0.0024100553
0.0023317149
0.0022544543
0.0021782428
0.0021030502
0.0020288477
0.0019556073
0.0018833013
0.0018119018
0.0017413778
0.0016716946
0.0016028162
0.0015347087
0.0014673494
0.0014007226
0.0013348356
0.0012697101
0.0012053951
0.001141958
0.0010794886
0.0010180879
0.00095786135
0.00089890037
0.00084126109
0.00078493376
0.00072980659
0.00067562497
0.00062195312
0.00056814841
0.0005133651
0.00045660681
0.0003968441
0.00033319816
0.00026516516
0.00019283098
0.00011699228
3.9115024e-05
0.003970543
0.0038590875
0.0037496553
0.0036422134
0.0035367227
0.0034331405
0.0033314218
0.0032315202
0.0031333887
0.0030369803
0.0029422482
0.0028491466
0.00275763
0.0026676541
0.0025791754
0.0024921509
0.0024065389
0.0023222984
0.0022393893
0.0021577727
0.0020774108
0.0019982672
0.0019203067
0.0018434958
0.0017678027
0.0016931984
0.0016196581
0.0015471637
0.0014757051
0.0014052845
0.0013359172
0.0012676354
0.0012004872
0.0011345363
0.0010698562
0.0010065215
0.00094459189
0.00088409016
0.00082497095
0.00076708328
0.00071012888
0.00065362445
0.00059688
0.0005390106
0.00047899999
0.00041582856
0.00034866164
0.00027706769
0.00020120984
0.00012194013
4.0740664e-05
0.0043217888
0.0041955566
0.0040717676
0.0039503874
0.0038313757
0.0037146881
0.0036002767
0.0034880917
0.0033780816
0.0032701943
0.003164377
0.0030605768
0.002958741
0.0028588169
0.0027607525
0.002664496
0.002569996
0.0024772021
0.0023860643
0.0022965336
0.0022085623
0.0021221039
0.002037114
0.0019535503
0.0018713738
0.0017905493
0.0017110471
0.0016328444
0.0015559273
0.0014802926
0.0014059506
0.0013329256
0.0012612569
0.0011909969
0.0011222062
0.0010549438
0.00098925199
0.00092513292
0.00086251802
0.00080123029
0.00074094387
0.00068114913
0.00062113599
0.00056001221
0.00049677329
0.00043043303
0.00036020697
0.00028571718
0.00020716382
0.00012540065
4.1868808e-05
0.0046825983
0.0045414647
0.004403176
0.0042676983
0.0041349919
0.0040050121
0.0038777098
0.0037530332
0.0036309276
0.0035113369
0.0033942035
0.0032794688
0.0031670736
0.0030569582
0.0029490629
0.0028433278
0.0027396929
0.0026380989
0.0025384865
0.0024407976
0.0023449745
0.0022509613
0.0021587038
0.0020681504
0.0019792525
0.0018919664
0.0018062538
0.001722084
0.0016394352
0.0015582972
0.0014786722
0.0014005772
0.0013240432
0.0012491136
0.0011758387
0.0011042664
0.0010344256
0.00096630344
0.00089981455
0.00083476413
0.00077080963
0.00070742919
0.00064390972
0.00057937027
0.00051283504
0.00044336252
0.00037022052
0.00029307554
0.00021214567
0.00012826132
4.2795827e-05
0.0050440384
0.0048882368
0.004735656
0.0045862644
0.0044400241
0.0042968914
0.0041568174
0.0040197493
0.0038856308
0.0037544028
0.003626004
0.0035003713
0.0033774403
0.0032571452
0.0031394197
0.0030241968
0.0029114089
0.0028009886
0.0026928685
0.0025869815
0.0024832615
0.0023816432
0.0022820634
0.0021844611
0.0020887788
0.0019949634
0.0019029678
0.0018127521
0.0017242862
0.001637551
0.0015525404
0.0014692628
0.0013877404
0.0013080074
0.0012301044
0.0011540684
0.0010799166
0.0010076232
0.00093708913
0.00086810671
0.00080032336
0.0007332136
0.00066607134
0.00059803697
0.00052817159
0.00045558258
0.00037958874
0.00029989424
0.00021672451
0.00013087487
4.3640224e-05
0.0053994957
0.0052294942
0.0050630614
0.0049001689
0.0047407819
0.0045848587
0.0044323515
0.0042832074
0.0041373692
0.0039947762
0.0038553642
0.0037190666
0.0035858148
0.003455538
0.0033281641
0.0032036201
0.0030818317
0.0029627244
0.0028462234
0.0027322538
0.0026207414
0.0025116127
0.0024047959
0.0023002216
0.0021978235
0.0020975396
0.0019993141
0.0019030983
0.0018088532
0.0017165509
0.0016261766
0.0015377295
0.0014512228
0.0013666813
0.0012841354
0.0012036116
0.0011251157
0.0010486101
0.00097398431
0.0009010209
0.00082936182
0.0007584837
0.00068769379
0.00061615959
0.00054298311
0.00046732152
0.00038854192
0.00030638049
0.00022106318
0.00013334434
4.4436847e-05
0.0057443744
0.0055607769
0.005381069
0.0052052267
0.0050332187
0.0048650058
0.0047005416
0.0045397741
0.0043826458
0.0042290947
0.0040790548
0.0039324568
0.0037892284
0.0036492946
0.0035125788
0.0033790022
0.0032484851
0.0031209465
0.002996305
0.0028744788
0.0027553863
0.0026389466
0.0025250801
0.0024137094
0.00230476
0.0021981619
0.0020938507
0.0019917693
0.00189187
0.0017941163
0.0016984845
0.0016049648
0.0015135609
0.0014242878
0.0013371662
0.0012522116
0.0011694189
0.0010887398
0.0010100538
0.00093313644
0.00085762782
0.00078301106
0.00070861126
0.00063362703
0.00055720346
0.00047854725
0.00039707091
0.00031253793
0.00022516983
0.00013567659
4.5188185e-05
0.0060757141
0.0058791884
0.0056868499
0.0054986788
0.0053146476
0.0051347198
0.0049588508
0.0047869895
0.0046190786
0.0044550553
0.004294852
0.0041383973
0.0039856156
0.0038364288
0.0036907557
0.003548513
0.0034096159
0.0032739776
0.0031415109
0.0030121276
0.0028857396
0.002762259
0.0026415993
0.0025236756
0.002408406
0.0022957126
0.0021855232
0.0020777726
0.0019724047
0.0018693746
0.0017686497
0.0016702111
0.0015740533
0.0014801814
0.0013886057
0.0012993313
0.0012123426
0.0011275809
0.0010449177
0.0009641236
0.00088484001
0.0008065602
0.0007286309
0.00065028481
0.00057071167
0.00048916709
0.00040510635
0.00031831636
0.00022901041
0.00013785182
4.5887722e-05
0.0063918017
0.0061830326
0.0059787281
0.0057788729
0.005583443
0.0053924046
0.0052057149
0.0050233237
0.0048451738
0.004671202
0.0045013394
0.0043355123
0.0041736429
0.0040156495
0.0038614473
0.003710949
0.0035640647
0.0034207028
0.0032807706
0.0031441742
0.0030108193
0.0028806119
0.0027534588
0.0026292684
0.0025079518
0.0023894238
0.0022736047
0.0021604216
0.0020498105
0.0019417181
0.0018361031
0.0017329377
0.0016322067
0.0015339056
0.0014380343
0.0013445874
0.0012535389
0.0011648211
0.0010782984
0.00099373877
0.00091078763
0.00082895164
0.00074760237
0.00066600914
0.00058340743
0.00049910117
0.00041258604
0.00032366906
0.00023255228
0.00013985073
4.6529077e-05
0.0066918234
0.0064714843
0.0062558706
0.0060449711
0.0058387653
0.0056372214
0.0054402986
0.0052479472
0.0050601104
0.0048767242
0.0046977184
0.0045230176
0.0043525414
0.0041862051
0.0040239205
0.0038655962
0.0037111382
0.0035604501
0.003413434
0.0032699909
0.0031300209
0.002993424
0.0028601011
0.002729954
0.0026028874
0.0024788094
0.002357633
0.0022392781
0.0021236729
0.0020107559
0.0019004775
0.0017928007
0.0016877011
0.001585164
0.001485179
0.0013877303
0.001292782
0.0012002579
0.0011100167
0.0010218257
0.00093533676
0.00085007281
0.00076543294
0.00068072513
0.00059523143
0.00050830332
0.00041947477
0.00032857007
0.00023577754
0.00014166283
4.7108817e-05
0.0069755799
0.0067443186
0.0065180296
0.0062967054
0.0060803282
0.0058688687
0.005662287
0.0054605343
0.0052635536
0.0050712801
0.0048836425
0.0047005633
0.0045219597
0.0043477443
0.0041778254
0.0040121079
0.0038504936
0.0036928818
0.0035391698
0.0033892536
0.003243028
0.0031003877
0.0029612275
0.0028254437
0.0026929346
0.0025636018
0.0024373517
0.002314097
0.0021937585
0.002076267
0.0019615642
0.0018496044
0.0017403535
0.0016337869
0.0015298839
0.0014286183
0.0013299448
0.0012337791
0.0011399757
0.0010483027
0.0009584207
0.00086987124
0.00078208319
0.00069440475
0.00060616496
0.00051676192
0.00042576585
0.00033301585
0.00023868451
0.00014328742
4.7626789e-05
0.0072432687
0.0070017023
0.0067653426
0.0065341858
0.0063082166
0.0060874073
0.0058717193
0.005661104
0.0054555041
0.0052548539
0.0050590807
0.0048681052
0.004681842
0.0045002008
0.0043230867
0.0041504009
0.0039820413
0.003817903
0.0036578789
0.0035018599
0.003349736
0.0032013968
0.0030567316
0.002915631
0.0027779876
0.0026436967
0.0025126585
0.0023847787
0.0022599711
0.0021381585
0.0020192747
0.0019032649
0.0017900856
0.0016797021
0.0015720834
0.0014671933
0.001364977
0.0012653433
0.0011681431
0.001073147
0.00098002627
0.00088834282
0.00079755707
0.00070705845
0.00061622296
0.00052449419
0.00043147659
0.00033702183
0.00024128521
0.00014473214
4.8085599e-05
0.0074953283
0.0072440421
0.0069981862
0.0067577598
0.00652275
0.0062931305
0.0060688633
0.0058499002
0.0056361831
0.0054276455
0.0052242131
0.0050258044
0.0048323318
0.0046437019
0.0044598167
0.0042805738
0.0041058673
0.0039355881
0.0037696247
0.0036078636
0.0034501901
0.0032964885
0.0031466433
0.0030005397
0.0028580646
0.0027191076
0.0025835627
0.0024513291
0.0023223135
0.0021964314
0.0020736082
0.0019537807
0.0018368957
0.0017229086
0.0016117783
0.0015034585
0.0013978854
0.0012949614
0.0011945349
0.0010963802
0.0010001805
0.00090551984
0.00081189122
0.00071872574
0.00062544586
0.00053153921
0.00043664241
0.00034061771
0.00024360199
0.00014601079
4.8489925e-05
0.0077323321
0.0074718818
0.0072170752
0.0069679142
0.0067243877
0.0064864707
0.0062541259
0.0060273047
0.0058059487
0.00558999
0.0053793527
0.0051739532
0.0049737013
0.0047785008
0.0045882505
0.0044028446
0.0042221732
0.0040461234
0.0038745795
0.0037074236
0.0035445363
0.0033857973
0.0032310862
0.003080283
0.0029332694
0.0027899294
0.0026501509
0.0025138272
0.0023808582
0.0022511518
0.0021246259
0.0020012082
0.0018808366
0.0017634565
0.0016490166
0.0015374609
0.0014287171
0.0013226816
0.0012192012
0.0011180549
0.001018939
0.00092146042
0.00082514542
0.00072946662
0.00063389194
0.00053795126
0.00044131127
0.00034384302
0.00024566424
0.00014714146
4.884585e-05
0.0079549204
0.0076858349
0.0074225964
0.0071652092
0.0069136641
0.0066679372
0.0064279913
0.0061937779
0.0059652375
0.0057423011
0.005524891
0.0053129215
0.0051062997
0.0049049269
0.0047086984
0.0045175051
0.0043312334
0.0041497665
0.0039729847
0.0038007657
0.003632986
0.0034695206
0.0033102444
0.0031550326
0.0030037617
0.0028563105
0.0027125614
0.0025724015
0.0024357241
0.0023024304
0.0021724302
0.0020456431
0.0019219977
0.0018014297
0.0016838781
0.0015692772
0.0014575467
0.0013485775
0.0012422154
0.0011382449
0.0010363761
0.00093623952
0.00083739436
0.00073935407
0.00064163056
0.00054379392
0.00044553872
0.00034674318
0.00024750555
0.0001481447
4.9160278e-05
0.0081637591
0.0078865426
0.0076153666
0.0073502376
0.0070911481
0.006838075
0.0065909815
0.0063498184
0.0061145258
0.0058850331
0.0056612608
0.0054431211
0.0052305186
0.0050233517
0.0048215127
0.0046248889
0.0044333635
0.0042468157
0.0040651218
0.0038881556
0.0037157893
0.0035478936
0.0033843389
0.0032249958
0.0030697359
0.002918433
0.0027709641
0.0026272106
0.0024870596
0.0023504053
0.0022171503
0.0020872059
0.0019604918
0.0018369345
0.001716463
0.0015990029
0.0014844659
0.0013727381
0.0012636648
0.0011570365
0.0010525775
0.00094994166
0.00084872076
0.00074846776
0.00064873656
0.0005491351
0.0004493836
0.00034936602
0.00024916113
0.00014904202
4.9440422e-05
0.0083595157
0.0080746502
0.0077960085
0.0075235997
0.0072574177
0.0069974401
0.0067436304
0.0064959389
0.0062543048
0.0060186562
0.0057889119
0.0055649817
0.005346768
0.0051341661
0.0049270654
0.0047253501
0.0045288997
0.0043375898
0.0041512931
0.0039698794
0.0037932167
0.0036211718
0.0034536107
0.0032903996
0.0031314055
0.0029764975
0.0028255473
0.002678431
0.0025350296
0.002395231
0.0022589306
0.0021260317
0.0019964455
0.0018700894
0.0017468834
0.001626744
0.001509576
0.0013952609
0.0012836439
0.001174522
0.0010676334
0.00096265492
0.00085920986
0.00075688885
0.00065528543
0.00055404275
0.00045290441
0.00035175885
0.0002506657
0.00014985458
4.9693361e-05
0.0085428472
0.0082507932
0.0079651368
0.0076858891
0.0074130455
0.0071465845
0.0068864694
0.0066326505
0.0063850656
0.0061436419
0.005908296
0.0056789359
0.0054554615
0.0052377653
0.005025734
0.0048192483
0.0046181845
0.0044224149
0.0042318082
0.0040462308
0.0038655468
0.0036896188
0.003518309
0.0033514793
0.0031889925
0.0030307128
0.0028765075
0.002726247
0.0025798072
0.0024370696
0.0022979226
0.0021622622
0.0020299915
0.0019010191
0.0017752563
0.0016526114
0.0015329823
0.0014162464
0.0013022495
0.0011907946
0.0010816339
0.00097446635
0.00086894493
0.0007646958
0.00066134943
0.00055858138
0.00045615629
0.000353966
0.00025205165
0.00015060204
4.9925673e-05
0.0087143933
0.0084155913
0.0081233509
0.0078376852
0.0075585912
0.0072860479
0.0070200189
0.0067604539
0.0065072901
0.0062604529
0.0060198575
0.0057854099
0.0055570074
0.0053345401
0.0051178917
0.00490694
0.0047015581
0.0045016148
0.0043069756
0.0041175031
0.0039330578
0.0037534986
0.0035786838
0.0034084714
0.0032427199
0.0030812895
0.0029240426
0.0027708451
0.0026215673
0.0024760849
0.0023342799
0.0021960413
0.0020612643
0.0019298495
0.0018016999
0.001676716
0.0015547895
0.0014357942
0.0013195763
0.0012059451
0.0010946659
0.0009854585
0.00087800394
0.0007719612
0.00066699467
0.00056280936
0.00045918871
0.00035602696
0.00025334767
0.00015130176
5.0143145e-05
0.008874774
0.0085696449
0.0082712317
0.0079795496
0.0076945969
0.0074163536
0.0071447833
0.0068798353
0.0066214457
0.0063695389
0.0061240285
0.0058848181
0.0056518031
0.005424871
0.0052039028
0.0049887733
0.0047793527
0.0045755066
0.004377097
0.0041839834
0.0039960226
0.0038130702
0.0036349806
0.0034616082
0.0032928076
0.0031284349
0.0029683483
0.0028124091
0.0026604826
0.002512439
0.0023681544
0.0022275109
0.0020903967
0.0019567048
0.0018263303
0.0016991667
0.0015750999
0.0014540003
0.0013357149
0.0012200588
0.0011068098
0.00099570709
0.00088645732
0.00077874959
0.00067227905
0.00056677716
0.00046204389
0.00035797507
0.00025457776
0.00015196818
5.0350583e-05
0.0090245889
0.0087135343
0.0084093402
0.0081120241
0.007821586
0.0075380064
0.0072612492
0.0069912632
0.0067279837
0.0064713338
0.0062212254
0.0059775605
0.0057402321
0.0055091254
0.0052841187
0.0050650844
0.0048518893
0.0046443964
0.0044424645
0.0042459496
0.0040547056
0.0038685846
0.0036874375
0.0035111152
0.0033394688
0.0031723505
0.0030096145
0.0028511178
0.002696721
0.0025462895
0.0023996935
0.002256809
0.0021175176
0.0019817051
0.0018492596
0.001720068
0.0015940107
0.0014709556
0.00135075
0.0012332147
0.001118139
0.0010052796
0.00089436665
0.00078511632
0.00067725125
0.00057052636
0.00046475598
0.00035983686
0.0002557608
0.00015261256
5.0551714e-05
0.0091644165
0.0088478187
0.0085382167
0.0082356304
0.0079400615
0.0076514915
0.0073698841
0.0070951879
0.0068273372
0.006566254
0.0063118485
0.006064021
0.0058226625
0.0055876559
0.0053588771
0.0051361958
0.0049194763
0.0047085785
0.0045033583
0.0043036688
0.0041093607
0.003920283
0.0037362833
0.0035572093
0.0033829086
0.00321323
0.0030480238
0.0028871432
0.0027304445
0.0025777881
0.0024290393
0.0022840684
0.0021427506
0.0020049655
0.0018705946
0.0017395188
0.0016116138
0.0014867446
0.0013647596
0.0012454844
0.0011287185
0.0010142349
0.00090178431
0.0007911072
0.00068195045
0.00057408949
0.00046735099
0.00036163204
0.00025691049
0.00015324293
5.0749184e-05
0.0092948151
0.0089730371
0.0086583811
0.0083508697
0.0080505068
0.0077572746
0.0074711366
0.007192041
0.0069199213
0.0066546981
0.0063962805
0.0061445669
0.0058994463
0.0056607997
0.0054285006
0.0052024162
0.0049824083
0.0047683339
0.0045600465
0.0043573961
0.0041602306
0.0039683959
0.0037817368
0.0036000977
0.0034233232
0.0032512586
0.0030837511
0.0029206499
0.0027618074
0.0026070797
0.0024563274
0.0023094155
0.0021662136
0.0020265954
0.0018904366
0.0017576127
0.0016279948
0.0015014459
0.0013778148
0.0012569318
0.0011386056
0.0010226231
0.00090875372
0.00079675894
0.00068640685
0.00057749058
0.00046984727
0.0003633739
0.00025803574
0.00015386436
5.0944635e-05
0.0094163227
0.0090897074
0.0087703318
0.0084582224
0.0081533848
0.0078558014
0.0075654358
0.0072822353
0.0070061326
0.0067370473
0.0064748871
0.0062195487
0.0059709195
0.0057288784
0.0054932967
0.0052640394
0.0050409658
0.0048239304
0.0046127841
0.0044073743
0.0042075461
0.0040131427
0.003824006
0.0036399776
0.003460899
0.0032866127
0.0031169625
0.0029517943
0.0027909568
0.0026343021
0.0024816866
0.0023329704
0.0021880182
0.0020466982
0.0019088809
0.0017744368
0.0016432335
0.0015151314
0.0013899802
0.0012676141
0.0011478498
0.0010304867
0.00091531024
0.00080210008
0.00069064263
0.00058074614
0.00047225648
0.00036507018
0.00025914125
0.00015447935
5.1138842e-05
0.0095294577
0.0091983259
0.0088745457
0.0085581481
0.0082491382
0.0079474983
0.0076531916
0.0073661648
0.0070863497
0.0068136648
0.0065480166
0.0062893004
0.0060374019
0.005792198
0.005553558
0.0053213449
0.0050954155
0.0048756223
0.0046618135
0.0044538341
0.0042515266
0.0040547316
0.0038632885
0.003677036
0.0034958131
0.0033194594
0.0031478156
0.0029807246
0.0028180319
0.0026595858
0.0025052387
0.0023548467
0.0022082696
0.0020653711
0.0019260168
0.0017900729
0.0016574035
0.0015278674
0.0014013143
0.0012775821
0.0011564945
0.0010378615
0.00092148233
0.0008071523
0.00069467336
0.0005838665
0.0004745848
0.00036672407
0.00026022836
0.0001550883
5.1331878e-05
0.0096347221
0.0092993606
0.0089714773
0.0086510852
0.0083381895
0.0080327721
0.0077347954
0.0074442053
0.0071609332
0.0068848967
0.0066160008
0.0063541396
0.0060991973
0.005851049
0.0056095623
0.0053745978
0.0051460107
0.0049236509
0.0047073644
0.004496994
0.0042923797
0.0040933598
0.0038997711
0.00371145
0.0035282329
0.0033499566
0.0031764594
0.0030075812
0.0028431643
0.0026830541
0.002527099
0.0023751514
0.0022270672
0.0020827056
0.0019419282
0.0018045971
0.0016705735
0.0015397145
0.0014118701
0.0012868811
0.0011645773
0.0010447775
0.00092729282
0.00081193178
0.00069850937
0.0005868572
0.00047683423
0.00036833535
0.00026129589
0.00015569006
5.1523302e-05
0.0093932658
0.0090615574
0.0087374513
0.008420942
0.0081120107
0.0078106196
0.0075167147
0.0072302264
0.0069510717
0.0066791546
0.0064143679
0.0061565943
0.0059057074
0.0056615729
0.0054240497
0.0051929909
0.0049682444
0.0047496542
0.0045370607
0.0043303019
0.0041292136
0.0039336306
0.0037433869
0.0035583164
0.0033782538
0.0032030346
0.0030324963
0.0028664783
0.002704823
0.0025473758
0.0023939855
0.0022445043
0.0020987877
0.0019566934
0.0018180804
0.001682807
0.0015507288
0.001421696
0.0012955519
0.0011721312
0.0010512604
0.00093276027
0.00081645062
0.00070215722
0.00058972043
0.00047900388
0.00036990148
0.00026234095
0.00015628247
5.1712326e-05
0.0094804328
0.0091451981
0.0088176463
0.0084977801
0.0081855833
0.0078810189
0.0075840328
0.0072945552
0.0070125021
0.0067377769
0.0064702712
0.0062098662
0.0059564342
0.0057098392
0.0054699384
0.0052365829
0.0050096189
0.0047888883
0.0045742296
0.0043654786
0.0041624691
0.0039650337
0.0037730044
0.0035862129
0.0034044916
0.0032276738
0.0030555946
0.0028880909
0.0027250022
0.0025661713
0.0024114437
0.0022606685
0.0021136978
0.0019703861
0.0018305892
0.0016941632
0.0015609621
0.0014308364
0.0013036313
0.0011791856
0.0010573323
0.00093790013
0.00082071813
0.00070562098
0.0005924562
0.00048109111
0.00037141856
0.00026335969
0.0001568628
5.1897976e-05
0.0095613142
0.009222803
0.0088920525
0.0085690698
0.0082538409
0.0079463297
0.0076464822
0.0073542284
0.0070694839
0.006792151
0.0065221203
0.0062592719
0.0060034766
0.005754597
0.0055124886
0.0052770009
0.0050479783
0.0048252608
0.004608685
0.0043980848
0.0041932922
0.0039941377
0.0038004513
0.0036120629
0.0034288027
0.0032505019
0.0030769935
0.002908112
0.0027436946
0.0025835814
0.0024276152
0.0022756423
0.0021275117
0.001983075
0.0018421855
0.0017046971
0.0015704625
0.0014393323
0.0013111532
0.0011857675
0.0010630131
0.00094272576
0.00082474182
0.0007089033
0.00059506344
0.00048309246
0.00037288211
0.00026434791
0.00015742809
5.2079213e-05
0.0096363062
0.0092947515
0.0089610326
0.0086351584
0.0083171162
0.0080068709
0.0077043685
0.0074095389
0.007122297
0.0068425446
0.0065701713
0.0063050559
0.0060470681
0.0057960691
0.0055519128
0.0053144472
0.005083515
0.0048589546
0.0046406007
0.0044282856
0.0042218392
0.0040210906
0.0038258677
0.0036359986
0.0034513117
0.0032716364
0.0030968033
0.0029266452
0.0027609969
0.0025996963
0.0024425838
0.0022895029
0.0021403002
0.0019948248
0.0018529275
0.0017144604
0.0015792751
0.001447222
0.0013181492
0.0011919014
0.0010683211
0.00094724923
0.00082852832
0.00071200623
0.00059754078
0.00048500438
0.00037428772
0.00026530149
0.00015797551
5.2255034e-05
0.0097057793
0.0093614009
0.0090249294
0.0086963744
0.0083757243
0.0080629443
0.0077579807
0.0074607631
0.0071712061
0.0068892108
0.0066146657
0.006347449
0.0060874289
0.0058344653
0.005588411
0.0053491122
0.0051164103
0.0048901419
0.0046701403
0.004456236
0.0042482574
0.0040460317
0.0038493853
0.0036581446
0.0034721361
0.0032911875
0.0031151278
0.0029437877
0.0027770001
0.0026146008
0.0024564279
0.002302323
0.0021521301
0.002005696
0.0018628697
0.0017235014
0.0015874419
0.0014545413
0.0013246485
0.0011976106
0.0010732733
0.00095148192
0.00083208394
0.00071493186
0.00059988711
0.00048682375
0.00037563144
0.00026621675
0.00015850249
5.2424534e-05
0.0097700832
0.0094230883
0.0090840666
0.0087530284
0.0084299626
0.0081148348
0.0078075915
0.0075081621
0.0072164609
0.0069323881
0.0066558318
0.0063866689
0.0061247666
0.0058699838
0.0056221717
0.0053811755
0.0051468348
0.0049189851
0.0046974579
0.0044820822
0.004272685
0.004069092
0.0038711279
0.0036786175
0.0034913859
0.0033092591
0.0031320644
0.0029596307
0.0027917895
0.0026283743
0.0024692215
0.0023141706
0.0021630637
0.0020157455
0.0018720633
0.0017318657
0.0015950026
0.0014613239
0.0013306791
0.001202917
0.001077886
0.00095543494
0.00083541509
0.00071768268
0.00060210196
0.0004885482
0.00037691005
0.00026709063
0.00015900688
5.2586954e-05
0.0098295482
0.0094801314
0.0091387495
0.008805413
0.0084801116
0.0081628112
0.0078534583
0.0075519822
0.0072582967
0.0069723016
0.0066938841
0.0064229204
0.0061592767
0.0059028107
0.0056533724
0.0054108057
0.0051749491
0.0049456365
0.004722698
0.0045059614
0.0042952521
0.0040903944
0.0038912116
0.0036975271
0.0035091646
0.0033259484
0.0031477044
0.00297426
0.002805445
0.0026410914
0.0024810338
0.0023251097
0.0021731597
0.0020250267
0.0018805563
0.001739596
0.0016019945
0.0014676017
0.0013362674
0.0012078418
0.0010821752
0.00095911937
0.00083852854
0.00072026186
0.00060418573
0.00049017628
0.00037812123
0.00026792077
0.000159487
5.2741694e-05
0.0098844856
0.0095328298
0.0091892655
0.0088538042
0.0085264358
0.0082071266
0.0078958233
0.0075924549
0.007296935
0.0070091628
0.0067290249
0.0064563965
0.0061911431
0.0059331212
0.0056821798
0.0054381617
0.005200904
0.0049702394
0.0047459968
0.0045280025
0.0043160808
0.0041100545
0.0039097457
0.0037149765
0.0035255691
0.0033413466
0.0031621335
0.0029877558
0.0028180418
0.002652822
0.0024919295
0.0023352003
0.0021824732
0.0020335898
0.0018883941
0.0017467325
0.001608453
0.001473405
0.0013414387
0.0012124052
0.0010861565
0.00096254639
0.00084143152
0.00072267327
0.00060613971
0.00049170752
0.00037926357
0.00026870559
0.00015994166
5.2888322e-05
0.0099351892
0.0095814653
0.0092358853
0.0088984613
0.0085691838
0.0082480192
0.0079349144
0.0076297983
0.0073325841
0.0070431707
0.0067614439
0.0064872784
0.0062205385
0.0059610799
0.0057087507
0.0054633924
0.0052248412
0.0049929283
0.0047674817
0.0045483264
0.0043352855
0.0041281805
0.0039268325
0.0037310621
0.0035406905
0.0033555394
0.0031754321
0.0030001934
0.0028296502
0.0026636316
0.0025019695
0.0023444984
0.0021910557
0.0020414817
0.0018956191
0.0017533133
0.0016144114
0.0014787626
0.0013462172
0.001216627
0.0010898453
0.00096572734
0.00084413174
0.00072492156
0.00060796609
0.00049314239
0.00038033655
0.0002694442
0.00016037012
5.3026563e-05
0.009981935
0.0096263032
0.0092788635
0.0089396285
0.0086085893
0.0082857128
0.0079709458
0.0076642172
0.0073654399
0.0070745123
0.0067913198
0.0065157361
0.0062476251
0.0059868413
0.005733232
0.0054866378
0.0052468934
0.0050138295
0.0047872725
0.0045670466
0.0043529736
0.0041448741
0.0039425679
0.0037458745
0.0035546139
0.0033686069
0.0031876755
0.0030116433
0.002840336
0.0026735817
0.0025112109
0.0023530569
0.0021989558
0.0020487468
0.0019022714
0.0017593741
0.0016199013
0.0014837019
0.0013506261
0.0012205263
0.0010932567
0.00096867367
0.00084663733
0.00072701201
0.0006096679
0.00049448225
0.00038134045
0.00027013637
0.00016077206
5.3156289e-05
0.010024983
0.0096675927
0.009318439
0.0089775349
0.008644872
0.0083204176
0.0080041185
0.0076959037
0.0073956859
0.007103363
0.0068188198
0.0065419295
0.0062725551
0.0060105504
0.0057557618
0.0055080288
0.0052671855
0.0050330611
0.0048054815
0.0045842694
0.0043692459
0.0041602304
0.0039570417
0.0037594984
0.0035674193
0.0033806242
0.003198934
0.0030221714
0.002850161
0.0026827297
0.002519707
0.002360925
0.0022062188
0.0020554264
0.0019083885
0.0017649486
0.0016249526
0.0014882488
0.0013546876
0.0012241216
0.0010964055
0.0009713969
0.00084895679
0.00072895049
0.00061124884
0.00049572918
0.00038227624
0.00027078243
0.00016114755
5.3277493e-05
0.010064576
0.0097055677
0.0093548363
0.0090123956
0.0086782378
0.0083523306
0.0080346212
0.0077250384
0.0074234946
0.0071298874
0.0068441011
0.0065660083
0.0062954712
0.0060323431
0.0057764693
0.0055276886
0.0052858341
0.0050507342
0.0048222137
0.0046000945
0.0043841966
0.0041743386
0.0039703383
0.0037720132
0.0035791814
0.0033916616
0.0032092738
0.0030318397
0.002859183
0.0026911295
0.0025275078
0.0023681491
0.0022128873
0.0020615597
0.0019140059
0.0017700687
0.0016295935
0.0014924281
0.0013584229
0.0012274305
0.0010993063
0.00097390853
0.00085109884
0.00073074331
0.0006127132
0.00049688588
0.00038314548
0.00027138319
0.00016149693
5.3390278e-05
0.010100943
0.0097404478
0.0093882659
0.0090444122
0.0087088798
0.0083816369
0.0080626308
0.0077517903
0.0074490275
0.0071542398
0.0068673109
0.0065881128
0.0063165073
0.0060523467
0.0057954757
0.0055457324
0.0053029488
0.0050669526
0.0048375677
0.0046146151
0.0043979141
0.0041872821
0.0039825363
0.0037834933
0.0035899702
0.0034017848
0.0032187565
0.0030407059
0.0028674559
0.0026988314
0.0025346601
0.0023747723
0.0022190012
0.002067183
0.0019191566
0.0017747642
0.0016338505
0.0014962631
0.0013618521
0.0012304704
0.0011019734
0.00097621997
0.00085307234
0.00073239706
0.00061406569
0.00049795554
0.0003839502
0.00027193983
0.00016182081
5.3494827e-05
0.010134299
0.0097724387
0.0094189251
0.0090737739
0.0087369792
0.0084085097
0.008088313
0.0077763177
0.007472436
0.0071765646
0.006888587
0.0066083747
0.0063357885
0.0060706805
0.0058128946
0.005562268
0.005318632
0.0050818135
0.0048516356
0.0046279187
0.0044104809
0.0041991392
0.0039937096
0.0037940081
0.0035998511
0.0034110556
0.00322744
0.0030488242
0.0028750304
0.0027058826
0.0025412078
0.0023808354
0.0022245979
0.0020723306
0.0019238719
0.0017790633
0.0016377489
0.0014997761