/*--------------------------------*- C++ -*----------------------------------*\
| =========                 |                                                 |
| \\      /  F ield         | OpenFOAM: The Open Source CFD Toolbox           |
|  \\    /   O peration     | Version:  2312                                  |
|   \\  /    A nd           | Website:  www.openfoam.com                      |
|    \\/     M anipulation  |                                                 |
\*---------------------------------------------------------------------------*/
FoamFile
{
    version     2.0;
    format      ascii;
    arch        "LSB;label=32;scalar=64";
    class       volScalarField;
    location    "0.06";
    object      k;
}
// * * * * * * * * * * * * * * * * * * * * * * * * * * * * * * * * * * * * * //

dimensions      [0 2 -2 0 0 0 0];

internalField   nonuniform List<scalar> 
3257
(
10.409222
10.395199
10.381727
10.368839
10.356558
10.344904
10.333897
10.32356
10.313914
10.304985
10.296798
10.28938
10.282758
10.276959
10.272011
10.26794
10.264776
10.262544
10.26128
10.261032
10.261909
10.264191
10.268654
10.277482
10.296738
10.343298
10.470594
10.544571
10.643212
10.708086
10.761622
10.803842
10.834443
10.85949
10.878537
10.894274
10.907054
10.917922
10.92691
10.933431
10.938019
10.941555
10.944671
10.947724
10.950242
10.949443
10.936836
10.938571
10.949454
10.966483
10.987852
10.400629
10.386448
10.372849
10.359861
10.347507
10.335803
10.324769
10.314424
10.30479
10.295892
10.287752
10.280395
10.273848
10.268135
10.263282
10.259312
10.256248
10.254113
10.252928
10.252726
10.25356
10.255568
10.259092
10.264991
10.275245
10.293743
10.325053
10.357346
10.398114
10.438532
10.480455
10.52081
10.558773
10.59434
10.627085
10.657379
10.685292
10.711161
10.735063
10.756775
10.774982
10.791153
10.806433
10.821848
10.838169
10.855592
10.87403
10.89625
10.922355
10.951575
10.983199
10.374644
10.360754
10.34747
10.334822
10.322827
10.311505
10.300871
10.290946
10.28175
10.273304
10.265631
10.258755
10.2527
10.24749
10.243148
10.239698
10.237162
10.235561
10.234916
10.235252
10.236603
10.239032
10.242669
10.247779
10.254868
10.264721
10.278102
10.29455
10.313798
10.33483
10.358262
10.383436
10.409862
10.437013
10.46446
10.491925
10.519217
10.546265
10.573044
10.599585
10.625942
10.652485
10.679798
10.708596
10.739555
10.773071
10.809196
10.847961
10.889101
10.932208
10.976885
10.33805
10.324562
10.311715
10.299535
10.288042
10.27725
10.267176
10.257838
10.249254
10.241445
10.234432
10.228236
10.222881
10.218388
10.21478
10.212079
10.210308
10.209488
10.20964
10.210787
10.212956
10.216185
10.22053
10.226087
10.233008
10.241497
10.251757
10.263856
10.277751
10.29324
10.310267
10.328728
10.34847
10.369356
10.391223
10.413945
10.437443
10.461721
10.486872
10.513105
10.540751
10.570283
10.60229
10.637389
10.676061
10.71847
10.764367
10.813206
10.864354
10.917333
10.971883
10.293035
10.280009
10.26767
10.25604
10.245137
10.234975
10.225569
10.216934
10.209088
10.202049
10.195836
10.190469
10.185969
10.182357
10.179653
10.17788
10.177059
10.177211
10.178358
10.180522
10.183729
10.188005
10.193384
10.199912
10.207648
10.216661
10.227017
10.238753
10.251857
10.266274
10.28194
10.29877
10.316676
10.335576
10.355406
10.376135
10.397793
10.420491
10.44445
10.470021
10.497696
10.52809
10.561886
10.599715
10.641989
10.688734
10.73953
10.793625
10.850213
10.908736
10.968961
10.24146
10.228937
10.217153
10.206128
10.195878
10.186415
10.177752
10.169904
10.162885
10.156713
10.151403
10.146973
10.143444
10.140833
10.139161
10.138447
10.138713
10.139978
10.142265
10.145595
10.14999
10.155473
10.16207
10.169808
10.178716
10.188823
10.200152
10.212712
10.226487
10.241439
10.257511
10.274633
10.292728
10.31173
10.331593
10.352316
10.373962
10.396692
10.420784
10.446661
10.474891
10.506162
10.541203
10.580653
10.624891
10.673881
10.727136
10.783843
10.84315
10.904455
10.967514
10.184916
10.172932
10.161744
10.151371
10.141823
10.133113
10.125252
10.118253
10.112128
10.106892
10.102561
10.099149
10.096674
10.095153
10.094604
10.095045
10.096495
10.098976
10.102505
10.107104
10.112793
10.119593
10.127523
10.136602
10.146849
10.158277
10.170891
10.184686
10.199643
10.215725
10.232877
10.251036
10.270134
10.290109
10.310925
10.332589
10.355179
10.37887
10.403963
10.430905
10.460288
10.492812
10.529203
10.570076
10.615768
10.666207
10.720883
10.778991
10.839692
10.90239
10.966826
10.124802
10.113396
10.102844
10.093162
10.084359
10.076446
10.069433
10.063331
10.05815
10.053904
10.050605
10.048267
10.046906
10.046536
10.047173
10.048835
10.051539
10.055303
10.060145
10.066085
10.073139
10.081327
10.090665
10.101168
10.112847
10.125708
10.139749
10.154961
10.171317
10.18878
10.207301
10.226817
10.247266
10.268592
10.290764
10.313797
10.337773
10.362875
10.389411
10.41783
10.448719
10.48276
10.520648
10.56295
10.609956
10.661562
10.717256
10.776263
10.837793
10.901276
10.966462
10.062447
10.051647
10.041761
10.032799
10.024772
10.017686
10.011552
10.006378
10.002174
9.9989502
9.9967186
9.9954909
9.9952797
9.996098
9.9979611
10.000884
10.004881
10.00997
10.016167
10.023488
10.03195
10.04157
10.05236
10.064333
10.077496
10.091851
10.107393
10.124107
10.141966
10.160932
10.180956
10.201979
10.223943
10.246795
10.270511
10.295109
10.320677
10.347401
10.375587
10.405677
10.43824
10.473929
10.51339
10.557137
10.605411
10.658078
10.714635
10.774347
10.836482
10.900516
10.966216
9.9991316
9.9889492
9.9797388
9.9715091
9.9642671
9.9580202
9.9527756
9.9485413
9.9453253
9.9431366
9.9419846
9.9418793
9.9428309
9.9448524
9.9479554
9.9521531
9.9574592
9.9638881
9.9714547
9.9801739
9.9900602
10.001127
10.013387
10.026849
10.041517
10.057392
10.074465
10.09272
10.112127
10.13265
10.15424
10.176839
10.200393
10.224855
10.250201
10.276456
10.30371
10.332149
10.362075
10.393918
10.428222
10.465601
10.506652
10.551834
10.60134
10.655014
10.712366
10.772708
10.835368
10.89987
10.966007
9.9360556
9.9264768
9.9179287
9.9104174
9.9039486
9.8985279
9.8941615
9.8908555
9.8886166
9.8874519
9.8873689
9.8883751
9.890481
9.8936956
9.8980291
9.9034929
9.9100988
9.9178593
9.9267874
9.936896
9.9481979
9.9607048
9.9744266
9.9893704
10.005539
10.022931
10.041535
10.061334
10.0823
10.104393
10.127566
10.151764
10.176936
10.203035
10.230046
10.257992
10.286967
10.317155
10.348851
10.382468
10.418521
10.457585
10.500204
10.546785
10.597479
10.652115
10.710221
10.771158
10.834312
10.899256
10.965807
9.8742649
9.8652525
9.8573304
9.850502
9.8447715
9.8401431
9.8366214
9.8342108
9.8329165
9.8327436
9.8336971
9.8357849
9.8390135
9.8433904
9.8489241
9.8556238
9.8634995
9.8725618
9.8828216
9.8942902
9.9069782
9.9208956
9.9360506
9.9524484
9.9700905
9.988973
10.009085
10.030407
10.052911
10.076558
10.101302
10.127091
10.153872
10.181607
10.210279
10.239917
10.270613
10.302548
10.336006
10.371381
10.409159
10.449871
10.494012
10.54194
10.593769
10.649321
10.708145
10.769651
10.833281
10.898654
10.965612
9.8145954
9.8060957
9.7987461
9.7925482
9.7875043
9.7836171
9.7808895
9.7793244
9.7789251
9.7796941
9.7816367
9.7847572
9.7890603
9.7945516
9.8012378
9.8091261
9.8182244
9.8285413
9.840086
9.8528676
9.8668951
9.8821765
9.8987183
9.9165243
9.9355944
9.9559235
9.9774998
10.000304
10.024306
10.049471
10.075751
10.103096
10.131459
10.160801
10.191109
10.222413
10.254804
10.288458
10.323647
10.360743
10.400199
10.442503
10.488105
10.537315
10.590219
10.646633
10.706136
10.768184
10.832274
10.898065
10.965421
9.7576468
9.7495974
9.7427583
9.737129
9.7327102
9.7295029
9.7275084
9.726728
9.7271625
9.7288138
9.7316851
9.7357779
9.7410954
9.7476413
9.7554201
9.7644371
9.7746983
9.7862102
9.7989801
9.8130152
9.8283226
9.8449085
9.8627779
9.8819329
9.9023723
9.9240899
9.9470733
9.9713026
9.9967495
10.023377
10.051142
10.079996
10.109892
10.140795
10.172695
10.205622
10.239666
10.274993
10.311863
10.350624
10.391696
10.435526
10.482515
10.532935
10.586847
10.644069
10.704209
10.76677
10.8313
10.897495
10.965236
9.7037899
9.6961278
9.6897357
9.6846111
9.6807529
9.6781609
9.6768346
9.6767735
9.677976
9.6804445
9.6841778
9.6891766
9.6954419
9.7029755
9.7117799
9.7218585
9.7332152
9.7458547
9.7597821
9.7750028
9.7915221
9.8093446
9.8284735
9.8489095
9.8706504
9.893689
9.9180125
9.943601
9.9704268
9.9984542
10.027641
10.057941
10.089311
10.121718
10.155154
10.189647
10.225285
10.262227
10.300715
10.341074
10.383689
10.428966
10.477264
10.528818
10.58367
10.641643
10.702375
10.765419
10.830367
10.896948
10.965058
9.6531988
9.6458662
9.6398617
9.6351812
9.6318222
9.6297828
9.629061
9.6296539
9.6315602
9.6347788
9.6393072
9.6451441
9.6522887
9.660741
9.6705014
9.6815714
9.693953
9.7076489
9.7226623
9.7389969
9.7566559
9.7756424
9.7959579
9.8176021
9.8405714
9.8648581
9.8904489
9.9173242
9.9454569
9.9748128
10.005351
10.037029
10.069805
10.103649
10.138554
10.174548
10.211713
10.250201
10.290235
10.332115
10.376194
10.422836
10.47236
10.52497
10.580692
10.639359
10.70064
10.764134
10.829477
10.896426
10.964889
9.6058947
9.598842
9.5931735
9.5888835
9.5859683
9.5844244
9.5842483
9.5854348
9.5879833
9.5918888
9.5971479
9.6037572
9.6117145
9.6210176
9.6316653
9.6436571
9.6569931
9.6716741
9.6877016
9.7050773
9.7238029
9.7438796
9.7653076
9.7880852
9.812208
9.8376675
9.8644504
9.8925373
9.921902
9.9525117
9.9843281
10.01731
10.051419
10.086628
10.122929
10.160351
10.198971
10.238928
10.28043
10.32375
10.369207
10.417128
10.467795
10.521383
10.577908
10.637214
10.699004
10.762918
10.828631
10.89593
10.964728
9.561792
9.5549791
9.5496038
9.5456591
9.54314
9.5420416
9.5423587
9.5440857
9.5472199
9.5517546
9.5576846
9.5650053
9.5737124
9.5838023
9.5952718
9.6081187
9.6223412
9.6379386
9.6549102
9.6732562
9.6929766
9.714071
9.7365382
9.7603755
9.7855773
9.8121348
9.8400345
9.8692574
9.8997783
9.9315662
9.9645848
9.9987956
10.034163
10.070661
10.108283
10.147057
10.187053
10.2284
10.271287
10.315961
10.36271
10.411824
10.463552
10.518043
10.575307
10.635201
10.69746
10.761765
10.827829
10.895458
10.964575
9.5207385
9.5141342
9.5090178
9.5053815
9.5032187
9.5025237
9.5032889
9.5055096
9.5091799
9.514292
9.5208394
9.5288158
9.5382153
9.5490327
9.5612633
9.5749029
9.5899483
9.6063968
9.6242463
9.6434951
9.6641417
9.6861843
9.7096203
9.7344458
9.7606546
9.7882373
9.8171803
9.8474653
9.8790681
9.9119594
9.9461051
9.9814692
10.018019
10.055729
10.094596
10.134643
10.175936
10.21859
10.262778
10.308721
10.356675
10.406897
10.459606
10.514929
10.572872
10.633308
10.696002
10.760672
10.827066
10.89501
10.96443
9.4825471
9.4761276
9.4712436
9.4678859
9.466047
9.4657199
9.4668954
9.4695693
9.4737326
9.4793767
9.4864938
9.4950761
9.5051162
9.5166074
9.5295434
9.5439184
9.5597277
9.576967
9.5956324
9.6157209
9.6372293
9.6601544
9.6844926
9.7102386
9.7373857
9.765924
9.79584
9.8271159
9.8597288
9.8936509
9.9288504
9.9652939
10.002951
10.041799
10.081832
10.123074
10.165582
10.209462
10.254866
10.301992
10.351067
10.402316
10.45593
10.512019
10.570588
10.631524
10.694621
10.759634
10.82634
10.894583
10.964292
9.4470184
9.4407661
9.4360937
9.4329909
9.4314494
9.4314609
9.4330147
9.436107
9.440726
9.4468624
9.4545071
9.463651
9.4742853
9.4864018
9.4999927
9.515051
9.5315702
9.5495446
9.5689689
9.5898384
9.6121487
9.6358952
9.6610731
9.6876762
9.7156969
9.7451252
9.7759476
9.8081468
9.8417012
9.8765846
9.9127674
9.9502187
9.98891
10.028821
10.069946
10.112305
10.155949
10.200972
10.24751
10.295736
10.345849
10.398048
10.452497
10.509292
10.568438
10.629837
10.693311
10.758647
10.825649
10.894177
10.964161
9.4139554
9.4078569
9.4033799
9.4005131
9.399247
9.399572
9.4014778
9.4049581
9.4100005
9.4165945
9.4247296
9.4343956
9.4455825
9.4582806
9.4724809
9.488175
9.5053549
9.5240135
9.5441442
9.5657408
9.5887976
9.6133088
9.6392684
9.6666694
9.6955035
9.7257603
9.7574266
9.7904855
9.8249166
9.8606953
9.8977942
9.9361846
9.9758403
10.016742
10.058885
10.102285
10.146987
10.193075
10.240665
10.289911
10.340985
10.394061
10.44928
10.506728
10.566408
10.628237
10.692065
10.757707
10.824992
10.893791
10.964037
9.383172
9.3772169
9.3729222
9.3702756
9.3692667
9.3698842
9.3721184
9.3759607
9.381398
9.3884186
9.3970111
9.407164
9.418866
9.4321064
9.4468748
9.4631615
9.4809572
9.5002535
9.5210423
9.5433164
9.5670687
9.5922923
9.6189799
9.647124
9.6767154
9.7077435
9.7401952
9.7740543
9.8093012
9.8459131
9.8838644
9.9231287
9.9636818
10.005506
10.048595
10.092962
10.138648
10.185723
10.234289
10.284478
10.336441
10.390327
10.446258
10.50431
10.564486
10.626719
10.69088
10.756813
10.824366
10.893424
10.963919
9.3544971
9.3486767
9.3445533
9.3421135
9.3413458
9.3422375
9.3447795
9.3489607
9.3547674
9.3621871
9.3712072
9.3818151
9.3939984
9.4077453
9.4230441
9.4398839
9.4582544
9.4781456
9.4995485
9.5224544
9.5468551
9.5727426
9.6001088
9.628945
9.6592418
9.6909882
9.7241709
9.7587745
9.7947804
9.832167
9.8709108
9.9109873
9.952374
9.995054
10.039021
10.084287
10.130884
10.178872
10.22834
10.279402
10.332186
10.386819
10.44341
10.502022
10.562661
10.625274
10.689752
10.755962
10.823772
10.893076
10.963807
9.3277752
9.3220821
9.3181202
9.3158753
9.3153348
9.3164843
9.3193153
9.3238144
9.3299676
9.3377612
9.3471818
9.3582156
9.3708493
9.3850698
9.4008646
9.4182214
9.4371288
9.4575757
9.4795519
9.5030475
9.5280532
9.55456
9.5825588
9.6120402
9.6429941
9.6754093
9.7092726
9.7445689
9.7812806
9.8193874
9.8588674
9.899698
9.9418582
9.9853321
10.030113
10.07621
10.123649
10.172482
10.222784
10.27465
10.328192
10.383517
10.440718
10.499852
10.560927
10.623899
10.688679
10.755153
10.823208
10.892746
10.963701
9.3028662
9.2972933
9.2934844
9.2914237
9.2910973
9.2924896
9.2955923
9.3003902
9.3068685
9.3150129
9.3248089
9.3362418
9.3492973
9.3639613
9.3802201
9.3980605
9.4174699
9.4384361
9.4609479
9.4849942
9.5105647
9.5376494
9.5662383
9.5963212
9.6278876
9.6609258
9.6954227
9.7313636
9.7687315
9.8075075
9.8476711
9.8892012
9.9320783
9.9762874
10.021821
10.068686
10.116903
10.166515
10.217585
10.270194
10.324435
10.3804
10.438169
10.497791
10.559276
10.622588
10.687657
10.754386
10.822674
10.892435
10.963601
9.2796436
9.2741845
9.2705206
9.2686341
9.2685098
9.2701308
9.273489
9.2785675
9.2853511
9.2938247
9.3039727
9.3157797
9.3292304
9.3443097
9.361003
9.3792959
9.3991748
9.4206266
9.4436389
9.4681997
9.4942977
9.5219218
9.5510613
9.5817052
9.6138425
9.6474611
9.682548
9.7190885
9.7570666
9.7964643
9.8372622
9.8794408
9.9229818
9.9678708
10.0141
10.061674
10.110608
10.160938
10.212715
10.266009
10.320895
10.377453
10.43575
10.495829
10.557701
10.621339
10.686685
10.753656
10.822169
10.89214
10.963507
9.2579923
9.2526413
9.2491154
9.2473939
9.24746
9.2492964
9.2528946
9.2582366
9.2653068
9.2740891
9.2845673
9.2967249
9.3105459
9.3260142
9.3431141
9.3618305
9.3821487
9.4040546
9.4275347
9.4525763
9.4791669
9.5072946
9.5369479
9.5681151
9.6007846
9.6349439
9.6705801
9.7076786
9.7462239
9.7861988
9.8275852
9.8703647
9.9145201
9.9600374
10.006909
10.055135
10.10473
10.15572
10.208149
10.262073
10.317556
10.374663
10.433452
10.49396
10.556198
10.620147
10.685758
10.752964
10.821689
10.891862
10.963418
9.2378059
9.2325604
9.2291667
9.2276012
9.2278463
9.2298852
9.2337084
9.2392976
9.2466364
9.2557081
9.2664957
9.2789819
9.2931496
9.3089821
9.3264626
9.3455752
9.3663042
9.3886347
9.4125521
9.4380428
9.4650934
9.4936913
9.523824
9.5554793
9.5886449
9.6233081
9.6594556
9.6970733
9.7361457
9.7766566
9.8185887
9.8619247
9.9066481
9.9527456
10.000209
10.049037
10.099239
10.150837
10.203865
10.258369
10.314402
10.372018
10.431266
10.492177
10.554762
10.619008
10.684874
10.752305
10.821235
10.891597
10.963333
9.2189823
9.2138522
9.2105825
9.2091635
9.2095761
9.2118045
9.2158383
9.2216588
9.2292492
9.2385919
9.2496691
9.2624628
9.2769551
9.2931283
9.310965
9.3304481
9.3515612
9.3742885
9.3986145
9.4245246
9.4520049
9.4810415
9.5116216
9.543732
9.57736
9.6124926
9.6491161
9.6872166
9.7267789
9.7677873
9.8102253
9.8540763
9.8993249
9.9459578
9.993966
10.043347
10.094108
10.146264
10.199843
10.254881
10.311421
10.36951
10.429185
10.490475
10.55339
10.617918
10.68403
10.751677
10.820802
10.891347
10.963253
9.1964284
9.1932801
9.1919964
9.1925643
9.1949693
9.1991996
9.2052363
9.2130618
9.2226579
9.234006
9.2470874
9.2618832
9.278375
9.2965445
9.316374
9.337846
9.3609439
9.3856514
9.4119533
9.4398344
9.4692805
9.5002777
9.5328124
9.5668713
9.6024409
9.6395075
9.6780569
9.7180744
9.7595444
9.8024512
9.846779
9.8925126
9.9396393
9.9881496
10.03804
10.089313
10.141982
10.196066
10.251595
10.308605
10.36713
10.427204
10.488849
10.552076
10.616876
10.683223
10.751078
10.820391
10.891108
10.963176
9.180241
9.1771841
9.176021
9.1767318
9.1793007
9.183714
9.1899524
9.1979974
9.2078302
9.2194313
9.2327814
9.2478608
9.2646502
9.2831306
9.3032834
9.3250906
9.3485344
9.3735982
9.4002654
9.4285205
9.4583484
9.4897345
9.5226646
9.5571249
9.5931013
9.6305801
9.6695468
9.7099869
9.7518852
9.7952264
9.8399951
9.8861768
9.9337587
9.9827312
10.033089
10.084833
10.137972
10.192521
10.248502
10.305943
10.364873
10.425318
10.487298
10.55082
10.615877
10.68245
10.750505
10.819997
10.89088
10.963103
9.1651865
9.1622149
9.1611623
9.1620048
9.1647256
9.1693091
9.1757352
9.1839848
9.1940383
9.2058756
9.2194763
9.2348203
9.2518874
9.270658
9.2911126
9.3132323
9.336999
9.3623948
9.3894027
9.4180065
9.4481901
9.4799386
9.5132369
9.5480708
9.5844259
9.6222879
9.6616424
9.7024749
9.7447703
9.7885137
9.8336902
9.8802855
9.9282871
9.9776848
10.028472
10.080649
10.134219
10.189193
10.24559
10.303429
10.362733
10.423524
10.485817
10.549617
10.614921
10.68171
10.749956
10.819621
10.890662
10.963033
9.1511912
9.1483004
9.1473499
9.1483142
9.1511757
9.1559172
9.1625179
9.170958
9.181217
9.1932742
9.2071086
9.2226993
9.2400253
9.2590663
9.2798022
9.3022133
9.3262807
9.351986
9.3793114
9.4082399
9.4387549
9.4708406
9.5044817
9.5396632
9.5763703
9.6145885
9.6543032
9.6954998
9.7381634
9.7822792
9.8278326
9.8748097
9.9231979
9.9729867
10.024169
10.076742
10.130707
10.186073
10.24285
10.301056
10.360707
10.421819
10.484404
10.548468
10.614005
10.681001
10.74943
10.819261
10.890454
10.962966
9.1381897
9.1353746
9.1345186
9.1355955
9.1385872
9.1434752
9.150238
9.1588552
9.1693054
9.1815674
9.1956193
9.2114395
9.2290067
9.2482995
9.2692973
9.2919798
9.3163272
9.3423206
9.3699415
9.3991721
9.4299955
9.4623951
9.4963549
9.5318595
9.5688938
9.6074429
9.6474919
9.6890261
9.7320308
9.7764912
9.8223931
9.8697224
9.9184668
9.9686153
10.02016
10.073097
10.127425
10.183149
10.240276
10.298819
10.358789
10.4202
10.483059
10.54737
10.613129
10.680321
10.748926
10.818916
10.890254
10.962902
9.1261212
9.123376
9.1226074
9.1237883
9.1269005
9.1319241
9.1388373
9.1476188
9.1582467
9.1706989
9.1849531
9.2009869
9.2187783
9.2383054
9.2595468
9.2824817
9.3070896
9.3333509
9.3612466
9.3907583
9.4218682
9.4545595
9.4888155
9.5246204
9.5619585
9.6008146
9.6411737
9.6830209
9.7263415
9.7711207
9.8173443
9.8649987
9.914071
9.9645503
10.016428
10.069698
10.124359
10.180411
10.237859
10.296712
10.356978
10.418665
10.48178
10.546323
10.612291
10.679671
10.748444
10.818585
10.890062
10.96284
9.1149284
9.1122474
9.1115591
9.1128359
9.1160594
9.1212086
9.1282612
9.137195
9.1479878
9.1606166
9.1750586
9.1912908
9.2092905
9.2290352
9.2505031
9.2736724
9.2985224
9.3250327
9.3531836
9.3829563
9.4143325
9.4472946
9.4818256
9.5179091
9.5555291
9.5946701
9.6353166
9.6774538
9.7210666
9.7661406
9.8126613
9.8606152
9.9099896
9.960773
10.012956
10.066532
10.121497
10.17785
10.235594
10.294732
10.35527
10.417213
10.480565
10.545326
10.611491
10.679049
10.747982
10.818268
10.889879
10.962781
9.1045571
9.1019347
9.1013202
9.1026853
9.1060115
9.1112767
9.1184582
9.1275332
9.1384787
9.1512713
9.1658875
9.1823038
9.2004968
9.2204436
9.2421216
9.2655086
9.2905832
9.3173245
9.3457123
9.3757272
9.4073504
9.4405638
9.4753499
9.5116917
9.5495731
9.5889779
9.6298907
9.6722962
9.7161794
9.7615256
9.8083206
9.8565506
9.9062029
9.9572658
10.009729
10.063586
10.11883
10.175459
10.233473
10.292872
10.353661
10.415841
10.479415
10.544379
10.610729
10.678455
10.74754
10.817964
10.889703
10.962724
9.0949563
9.0923871
9.0918401
9.0932863
9.0967072
9.1020796
9.1093802
9.1185858
9.1296728
9.1426171
9.1573948
9.1739816
9.1923539
9.2124879
9.2343607
9.2579495
9.2832323
9.3101878
9.3387953
9.3690347
9.4008868
9.434333
9.4693553
9.5059366
9.5440599
9.583709
9.6248682
9.6675218
9.7116548
9.7572525
9.8043004
9.8527848
9.9026927
9.9540124
10.006733
10.060847
10.116347
10.173228
10.231489
10.29113
10.352149
10.414548
10.478326
10.543481
10.610005
10.677889
10.747118
10.817674
10.889535
10.96267
9.0860778
9.0835567
9.0830713
9.084592
9.0881
9.0935713
9.100982
9.1103083
9.1215261
9.1346108
9.1495379
9.1662826
9.1848208
9.2051283
9.2271814
9.2509571
9.2764327
9.3035865
9.3323973
9.3628445
9.3949085
9.4285703
9.4638113
9.500614
9.5389612
9.5788363
9.6202231
9.663106
9.7074697
9.7532993
9.8005803
9.8492989
9.899442
9.9509974
10.003954
10.058303
10.114037
10.17115
10.229638
10.289499
10.350731
10.413332
10.4773
10.542631
10.609318
10.677351
10.746717
10.817398
10.889374
10.962618
9.0778759
9.0753981
9.0749689
9.076558
9.0801462
9.0857086
9.0932209
9.1026588
9.1139974
9.1272119
9.142277
9.1591678
9.1778594
9.1983272
9.2205472
9.2444956
9.2701496
9.2974868
9.3264856
9.357125
9.389385
9.4232459
9.4586891
9.4956965
9.5342505
9.5743343
9.6159314
9.6590259
9.7036024
9.7496457
9.7971414
9.8460755
9.8964346
9.9482065
10.00138
10.055945
10.111893
10.169218
10.227913
10.287976
10.349403
10.41219
10.476334
10.541829
10.608668
10.676841
10.746336
10.817135
10.889221
10.962569
9.0703077
9.0678688
9.0674907
9.0691425
9.0728045
9.078451
9.086057
9.0955977
9.1070479
9.1203821
9.1355748
9.1526004
9.1714337
9.1920497
9.2144237
9.2385318
9.2643505
9.2918571
9.3210295
9.3518464
9.3842872
9.4183321
9.4539619
9.4911581
9.529903
9.5701793
9.6119704
9.65526
9.7000325
9.7462727
9.793966
9.8430981
9.8936556
9.945626
9.9989977
10.05376
10.109905
10.167423
10.226309
10.286557
10.348162
10.41112
10.475426
10.541074
10.608055
10.676359
10.745974
10.816886
10.889076
10.962522
9.0633326
9.0609284
9.0605968
9.0623062
9.0660362
9.0717601
9.0794525
9.089088
9.1006411
9.1140857
9.1293961
9.1465461
9.1655101
9.1862627
9.2087789
9.2330342
9.2590048
9.2866676
9.3160001
9.3469806
9.3795882
9.4138027
9.4496045
9.4869749
9.5258957
9.5663494
9.6083191
9.6517883
9.6967412
9.7431625
9.7910373
9.8403513
9.8910909
9.9432433
9.9967966
10.05174
10.108064
10.165759
10.224819
10.285236
10.347006
10.410121
10.474577
10.540365
10.607477
10.675904
10.745633
10.81665
10.888939
10.962477
9.0569124
9.0545391
9.0542498
9.0560121
9.0598047
9.0655999
9.073372
9.0830949
9.0947427
9.1082891
9.1237077
9.1409724
9.1600569
9.1809353
9.2035825
9.2279734
9.2540839
9.2818906
9.3113705
9.3425017
9.3752628
9.4096334
9.4455935
9.4831241
9.5222068
9.5628237
9.6049576
9.648592
9.6937108
9.7402984
9.7883398
9.8378207
9.8887272
9.9410462
9.9947657
10.049874
10.106362
10.164219
10.223438
10.28401
10.34593
10.40919
10.473783
10.539701
10.606936
10.675476
10.745311
10.816427
10.888809
10.962435
9.0510109
9.048665
9.0484144
9.0502253
9.0540758
9.0599369
9.0677822
9.0775856
9.0893205
9.1029605
9.1184788
9.1358489
9.1550442
9.1760385
9.1988061
9.2233217
9.2495609
9.2774998
9.3071153
9.3383849
9.3712872
9.4058012
9.4419068
9.4795847
9.518816
9.5595828
9.6018677
9.6456537
9.6909247
9.7376649
9.7858591
9.8354928
9.886552
9.9390236
9.992895
10.048155
10.104792
10.162797
10.22216
10.282875
10.344932
10.408324
10.473043
10.539081
10.606429
10.675076
10.745009
10.816218
10.888686
10.962395
9.045594
9.0432723
9.0430571
9.0449132
9.0488172
9.054739
9.0626519
9.0725292
9.0843442
9.0980702
9.1136801
9.1311471
9.1504442
9.1715449
9.1944231
9.2190533
9.2454106
9.2734709
9.3032107
9.3346075
9.3676392
9.4022848
9.4385239
9.4763368
9.5157045
9.5566088
9.5990319
9.6429569
9.6883673
9.7352472
9.7835814
9.8333549
9.8845539
9.9371647
9.9911749
10.046572
10.103346
10.161486
10.220982
10.281825
10.344008
10.407521
10.472356
10.538504
10.605956
10.674701
10.744727
10.816021
10.888571
10.962357
9.0406296
9.0383291
9.0381467
9.0400449
9.0439986
9.0499767
9.0579517
9.0678969
9.0797854
9.0935902
9.1092842
9.12684
9.1462305
9.1674288
9.1904085
9.2151437
9.2416093
9.2697808
9.2996346
9.3311477
9.364298
9.3990641
9.4354253
9.4733618
9.5128544
9.5538844
9.5964342
9.6404863
9.6860242
9.7330319
9.7814939
9.8313952
9.8827217
9.9354596
9.9895962
10.045119
10.102017
10.160279
10.219896
10.280857
10.343154
10.406778
10.471719
10.537969
10.605517
10.674352
10.744463
10.815838
10.888464
10.962322
9.0360869
9.0338053
9.0336537
9.0355917
9.0395918
9.0456218
9.053654
9.0636614
9.0756172
9.0894943
9.1052652
9.1229025
9.1423786
9.1636662
9.1867388
9.2115701
9.2381347
9.2664079
9.2963658
9.3279853
9.3612439
9.3961201
9.432593
9.4706424
9.510249
9.5513939
9.5940592
9.6382275
9.6838818
9.7310061
9.7795846
9.8296025
9.8810451
9.9338989
9.9881506
10.043788
10.100799
10.159173
10.218899
10.279967
10.342368
10.406093
10.471131
10.537473
10.605109
10.674028
10.744218
10.815667
10.888363
10.962289
9.031937
9.0296723
9.0295505
9.0315264
9.0355702
9.0416483
9.0497329
9.0597973
9.0718146
9.0857577
9.101599
9.1193108
9.1388651
9.1602345
9.1833919
9.2083109
9.2349659
9.2633319
9.2933848
9.3251013
9.3584587
9.3934353
9.4300099
9.4681622
9.5078727
9.5491223
9.5918929
9.6361669
9.6819273
9.7291577
9.7778424
9.8279662
9.8795146
9.9324736
9.9868299
10.042571
10.099685
10.15816
10.217985
10.279151
10.341647
10.405463
10.47059
10.537017
10.604733
10.673728
10.743991
10.815508
10.88827
10.962259
9.028152
9.0259033
9.0258111
9.0278239
9.0319088
9.0380314
9.0461642
9.0562805
9.0683539
9.0823573
9.0982629
9.1160426
9.1356684
9.1571124
9.1803471
9.2053461
9.2320834
9.2605339
9.2906732
9.3224779
9.3559252
9.390993
9.4276601
9.465906
9.5057108
9.5470556
9.589922
9.634292
9.6801487
9.7274755
9.7762566
9.8264766
9.8781209
9.9311753
9.9856265
10.041461
10.098668
10.157235
10.217151
10.278405
10.340986
10.404886
10.470093
10.536597
10.604387
10.673452
10.743781
10.815362
10.888185
10.962231
9.0247045
9.0224729
9.0224116
9.0244605
9.0285844
9.0347482
9.0429249
9.0530885
9.0652129
9.0792711
9.0952353
9.1130771
9.132768
9.1542799
9.177585
9.2026567
9.2294687
9.2579959
9.2882136
9.3200984
9.3536271
9.3887776
9.4255285
9.4638592
9.5037497
9.5451807
9.5881338
9.6325909
9.6785348
9.725949
9.7748173
9.8251244
9.8768555
9.9299963
9.9845332
10.040453
10.097744
10.156394
10.216391
10.277724
10.340384
10.404359
10.469639
10.536213
10.60407
10.673199
10.743589
10.815228
10.888105
10.962205
9.0215674
9.0193579
9.0193297
9.0214145
9.0255753
9.0317772
9.0399938
9.0502002
9.0623707
9.0764787
9.0924962
9.1103945
9.1301447
9.1517183
9.1750873
9.2002248
9.2271046
9.2557011
9.2859898
9.3179469
9.3515492
9.3867745
9.4236012
9.4620085
9.5019763
9.5434852
9.5865166
9.6310523
9.6770751
9.7245681
9.7735152
9.8239009
9.8757103
9.9289289
9.9835432
10.03954
10.096906
10.155631
10.215701
10.277107
10.339837
10.40388
10.469225
10.535862
10.60378
10.672967
10.743413
10.815105
10.888033
10.962181
9.0187117
9.016538
9.0165453
9.0186655
9.0228613
9.029098
9.0373507
9.0475956
9.0598078
9.0739609
9.0900268
9.1079764
9.1277804
9.1494099
9.1728368
9.1980339
9.2249747
9.2536338
9.2839865
9.3160087
9.3496774
9.38497
9.4218649
9.4603412
9.5003785
9.5419576
9.5850594
9.6296659
9.6757595
9.7233235
9.7723414
9.8227978
9.8746776
9.9279663
9.98265
10.038716
10.09615
10.154942
10.215078
10.276548
10.339341
10.403445
10.46885
10.535544
10.603517
10.672757
10.743253
10.814993
10.887967
10.962159
9.0161041
9.0139986
9.0140401
9.0161951
9.0204234
9.0266918
9.0349768
9.045256
9.0575056
9.0716994
9.0878092
9.1058055
9.1256583
9.1473384
9.1708174
9.1960681
9.2230639
9.2517792
9.2821893
9.31427
9.3479981
9.3833511
9.4203071
9.4588452
9.4989449
9.5405868
9.5837518
9.6284216
9.6745788
9.7222063
9.7712877
9.8218074
9.8737502
9.9271015
9.9818475
10.037975
10.09547
10.154322
10.214517
10.276045
10.338894
10.403053
10.468511
10.535257
10.603279
10.672567
10.743108
10.814891
10.887908
10.96214
9.0117159
9.0117975
9.0139858
9.0182441
9.0245409
9.0328544
9.0431639
9.0554467
9.0696772
9.0858269
9.1038654
9.1237623
9.145488
9.169014
9.1943128
9.2213578
9.2501234
9.2805847
9.3127176
9.3464988
9.3819056
9.4189162
9.4575094
9.4976647
9.5393626
9.5825839
9.6273103
9.673524
9.7212082
9.7703462
9.8209223
9.8729212
9.9263284
9.9811298
10.037312
10.094862
10.153767
10.214015
10.275594
10.338494
10.402702
10.468207
10.534999
10.603066
10.672395
10.742977
10.8148
10.887854
10.962122
9.0096862
9.0098031
9.0120217
9.0163068
9.0226286
9.0309668
9.0413027
9.0536149
9.0678783
9.084064
9.1021409
9.1220776
9.1438444
9.1674123
9.192754
9.2198428
9.2486531
9.27916
9.3113393
9.3451675
9.3806221
9.417681
9.4563231
9.4965277
9.5382752
9.5815464
9.6263229
9.6725869
9.7203212
9.7695094
9.8201355
9.8721842
9.9256409
9.9804914
10.036722
10.09432
10.153272
10.213567
10.275192
10.338136
10.402388
10.467936
10.534768
10.602874
10.672242
10.74286
10.814718
10.887806
10.962106
9.0078588
9.0080451
9.0102877
9.0145962
9.0209392
9.0292983
9.0396569
9.0519947
9.0662876
9.082506
9.1006176
9.1205902
9.1423936
9.165999
9.1913787
9.2185064
9.2473561
9.2779032
9.3101233
9.343993
9.3794897
9.4165912
9.4552762
9.4955243
9.5373155
9.5806307
9.6254512
9.6717594
9.7195379
9.7687702
9.8194404
9.8715329
9.9250332
9.9799269
10.0362
10.093841
10.152835
10.21317
10.274836
10.337819
10.402109
10.467694
10.534563
10.602704
10.672105
10.742756
10.814645
10.887763
10.962092
9.0065029
9.0087694
9.0130977
9.019458
9.0278342
9.0382116
9.0505716
9.0648908
9.0811389
9.0992819
9.1192868
9.1411229
9.1647614
9.1901747
9.2173363
9.2462207
9.2768029
9.3090588
9.3429647
9.3784981
9.4156368
9.4543594
9.4946454
9.5364748
9.5798283
9.6246873
9.6710341
9.7188512
9.7681221
9.8188306
9.8709615
9.9244998
9.9794313
10.035742
10.093419
10.15245
10.212822
10.274522
10.33754
10.401864
10.467482
10.534382
10.602554
10.671985
10.742664
10.81458
10.887725
10.96208
9.0051764
9.0074536
9.0117977
9.0181713
9.0265606
9.036953
9.0493318
9.0636745
9.0799497
9.0981212
9.118155
9.14002
9.1636875
9.1891301
9.2163213
9.2452358