/*--------------------------------*- C++ -*----------------------------------*\
| =========                 |                                                 |
| \\      /  F ield         | OpenFOAM: The Open Source CFD Toolbox           |
|  \\    /   O peration     | Version:  2312                                  |
|   \\  /    A nd           | Website:  www.openfoam.com                      |
|    \\/     M anipulation  |                                                 |
\*---------------------------------------------------------------------------*/
FoamFile
{
    version     2.0;
    format      ascii;
    arch        "LSB;label=32;scalar=64";
    class       volScalarField;
    location    "0.06";
    object      Ma;
}
// * * * * * * * * * * * * * * * * * * * * * * * * * * * * * * * * * * * * * //

dimensions      [0 0 0 0 0 0 0];

internalField   nonuniform List<scalar> 
3257
(
0.0016395418
0.0016094214
0.0015796679
0.0015502257
0.0015210637
0.0014921621
0.001463501
0.0014350504
0.0014067703
0.0013786017
0.0013504706
0.0013222721
0.0012938787
0.001265109
0.0012357407
0.0012054491
0.0011738315
0.0011402739
0.0011040158
0.00106391
0.0010185992
0.00096660346
0.00090774767
0.00084860395
0.00081995636
0.00090800822
0.0012820979
0.0019012945
0.0020768845
0.0020353785
0.0020037438
0.0020079574
0.0019438602
0.0018297722
0.0016804433
0.0015164529
0.001347687
0.0011826182
0.0010253033
0.0008775772
0.00073896887
0.00060805268
0.00048284859
0.00036414449
0.00026753615
0.00022164354
0.000205464
0.00019703814
0.00021953919
0.00024090441
0.0002447331
0.0013117387
0.0012912552
0.0012709995
0.0012509407
0.0012310536
0.0012113172
0.0011917137
0.001172217
0.0011527994
0.0011334164
0.001114023
0.0010945494
0.0010749283
0.0010550593
0.0010348507
0.0010141774
0.00099294043
0.00097106099
0.00094855692
0.00092573997
0.00090338433
0.00088360068
0.00087062879
0.00087306406
0.00090536041
0.00098649231
0.0011319394
0.0013411841
0.0015031568
0.0014649638
0.0013028382
0.0011259499
0.00092598333
0.00074825829
0.00059099325
0.00046316632
0.00035788766
0.00027827106
0.00022009617
0.00018242048
0.00016137375
0.00015547825
0.00016199239
0.00018093422
0.00020987604
0.00023713415
0.00024986447
0.00026418438
0.0002943186
0.00031817056
0.00032376112
0.0011120716
0.0010965915
0.0010813155
0.0010662236
0.0010512941
0.0010365096
0.0010218554
0.0010073148
0.00099286953
0.00097849683
0.00096417257
0.00094986936
0.00093556245
0.00092123338
0.00090687778
0.00089252972
0.00087827243
0.00086432145
0.00085105358
0.00083922531
0.0008300877
0.00082579188
0.00082973147
0.00084676521
0.00088314077
0.0009446557
0.0010329523
0.0011403465
0.0012427928
0.0012808451
0.0012459378
0.001175696
0.0010741896
0.00096649073
0.00086192641
0.0007674623
0.00068498279
0.00061411517
0.00055331018
0.00050173471
0.00045901941
0.00042489278
0.00040002909
0.00038507799
0.00038015432
0.00038339522
0.00039397494
0.00041533225
0.00043976742
0.00045298992
0.00044877085
0.00095485757
0.00094243379
0.00093024835
0.00091828684
0.00090653212
0.00089497211
0.00088359821
0.0008724033
0.0008613811
0.00085052678
0.00083983759
0.00082931755
0.00081897883
0.00080885524
0.00079900459
0.00078954069
0.0007806409
0.00077261255
0.0007659198
0.00076129594
0.00075981589
0.00076299626
0.0007728866
0.0007919036
0.00082253657
0.00086630997
0.00092230862
0.000984995
0.0010423619
0.0010792329
0.0010897789
0.0010750254
0.0010396623
0.00099126942
0.00093632747
0.00087941573
0.00082361933
0.00077038491
0.00072025792
0.00067366677
0.00063087008
0.00059242151
0.00055917755
0.00053247719
0.00051390568
0.00050507952
0.00050723094
0.00051967092
0.0005366219
0.00054631863
0.00054300723
0.0008402354
0.00082891347
0.00081791494
0.00080723023
0.00079684754
0.00078676089
0.0007769685
0.00076747176
0.0007582747
0.00074938548
0.00074081699
0.00073259219
0.00072474548
0.00071733541
0.00071044694
0.00070421673
0.0006988388
0.00069460636
0.00069192714
0.00069137234
0.00069370319
0.00069987278
0.00071101799
0.00072828898
0.0007526323
0.00078426544
0.00082208082
0.00086295822
0.00090151235
0.00093126015
0.00094806431
0.00095050951
0.00093939118
0.00091764364
0.00088823398
0.00085422363
0.00081779512
0.00078058922
0.00074359576
0.00070753199
0.00067294882
0.00064047804
0.00061100923
0.00058586415
0.00056693546
0.00055649587
0.00055633259
0.0005659784
0.00058105024
0.00059271228
0.00059532239
0.00076568443
0.00075381987
0.00074238654
0.00073138146
0.00072080032
0.00071064464
0.00070092009
0.00069163597
0.00068280483
0.00067444399
0.00066657607
0.00065923361
0.0006524603
0.00064632061
0.00064090199
0.00063633141
0.00063277934
0.00063048256
0.00062975036
0.00063098264
0.0006346718
0.00064138167
0.00065171434
0.00066619255
0.00068512583
0.00070835283
0.00073499928
0.0007632448
0.00079035586
0.00081318347
0.00082910799
0.00083660305
0.0008354066
0.00082636417
0.0008109335
0.00079073742
0.00076730094
0.00074184425
0.00071532596
0.00068846615
0.00066188977
0.0006362431
0.00061239193
0.00059163498
0.00057587677
0.00056745242
0.00056824759
0.0005781063
0.00059362178
0.00060818302
0.00061632126
0.0007232203
0.00070973552
0.00069678167
0.00068436475
0.00067249012
0.0006611683
0.00065041335
0.00064024254
0.00063067619
0.00062173876
0.00061345924
0.00060587443
0.00059902995
0.00059298678
0.00058782259
0.00058364215
0.00058057895
0.00057880719
0.00057854237
0.00058004614
0.00058361953
0.00058958115
0.00059823574
0.00060980159
0.00062433217
0.00064158964
0.00066094368
0.00068129045
0.00070110045
0.00071863058
0.00073227664
0.00074087027
0.00074387615
0.00074140136
0.0007339999
0.00072250331
0.00070780098
0.00069073853
0.00067204858
0.00065236874
0.00063228604
0.000612443
0.00059369965
0.0005773502
0.00056527459
0.00055974169
0.00056254225
0.00057358626
0.00059000785
0.00060660605
0.00061826985
0.00070368954
0.0006880534
0.00067302355
0.0006586157
0.00064484559
0.00063173316
0.000619301
0.00060757433
0.00059658082
0.00058635119
0.0005769194
0.00056832463
0.00056061178
0.00055383552
0.00054806094
0.00054336954
0.0005398595
0.00053765162
0.00053688753
0.00053772965
0.00054035282
0.00054492766
0.00055159716
0.00056043313
0.00057139215
0.00058425123
0.0005985642
0.00061363099
0.00062853017
0.00064221459
0.00065366436
0.00066204858
0.00066684181
0.00066786971
0.00066525918
0.00065935909
0.00065064001
0.00063961493
0.00062679772
0.00061268717
0.00059780128
0.00058275177
0.00056839595
0.00055602535
0.00054748462
0.00054492445
0.00054995005
0.00056237252
0.00057955917
0.00059715371
0.00061053223
0.0006991468
0.00068120645
0.00066392306
0.00064732107
0.0006314255
0.00061626463
0.00060186867
0.0005882699
0.00057550248
0.0005636027
0.00055260877
0.00054256186
0.000533506
0.00052549036
0.00051856919
0.00051280504
0.0005082683
0.00050503986
0.00050320879
0.00050287074
0.00050412097
0.00050704272
0.00051169156
0.00051806972
0.00052610118
0.0005355983
0.00054624162
0.00055756713
0.00056898545
0.00057982788
0.00058942052
0.00059716857
0.00060262566
0.00060553419
0.0006058215
0.00060357421
0.00059899313
0.00059235546
0.0005839873
0.00057425704
0.00056359946
0.00055258672
0.00054206388
0.00053330739
0.00052810377
0.00052844784
0.00053570341
0.00054949433
0.0005672549
0.00058513402
0.00059903486
0.00070363865
0.00068344867
0.00066394832
0.00064516885
0.00062714266
0.00060990459
0.0005934908
0.00057793922
0.00056328923
0.00054958171
0.00053685851
0.00052516271
0.00051453815
0.00050503035
0.00049668596
0.00048955425
0.00048368617
0.00047913538
0.00047595603
0.00047420102
0.00047391692
0.00047513627
0.00047786779
0.00048208119
0.00048769338
0.00049455033
0.00050241751
0.00051097368
0.00051982184
0.00052851224
0.00053658031
0.00054359127
0.00054918004
0.00055308089
0.00055513653
0.00055529598
0.00055360052
0.00055017059
0.00054519671
0.00053894217
0.00053177066
0.00052421453
0.00051709687
0.0005116679
0.00050962459
0.00051277038
0.00052219547
0.00053730143
0.00055551691
0.00057331374
0.00058709354
0.00071306655
0.00069077662
0.00066919755
0.0006483656
0.00062831858
0.00060909609
0.00059073867
0.0005732884
0.00055678865
0.00054128386
0.00052681887
0.00051343868
0.00050118765
0.0004901095
0.00048024645
0.00047163953
0.0004643275
0.00045834684
0.00045372998
0.00045050371
0.00044868575
0.00044827991
0.00044927017
0.00045161187
0.00045522406
0.00045997959
0.00046570029
0.00047215361
0.00047905868
0.00048609774
0.00049293607
0.00049924558
0.000504728
0.00050913479
0.00051227892
0.00051404235
0.0005143777
0.0005133106
0.00051094342
0.00050746776
0.00050319653
0.00049863058
0.00049456735
0.00049221492
0.00049315138
0.0004989599
0.00051044538
0.00052678691
0.00054539363
0.00056296981
0.00057635264
0.00072472017
0.00070051494
0.0006770351
0.00065432033
0.00063241229
0.00061135389
0.0005911888
0.0005719621
0.00055372011
0.00053651005
0.00052037929
0.00050537477
0.00049154198
0.00047892442
0.00046756247
0.00045749298
0.00044874803
0.00044135442
0.00043533214
0.00043069302
0.00042743858
0.00042555696
0.00042501958
0.00042577613
0.00042775053
0.00043083542
0.00043488977
0.00043973687
0.00044516745
0.00045094519
0.00045681705
0.00046252566
0.00046782291
0.00047248325
0.00047631509
0.00047917193
0.00048096217
0.00048166016
0.00048131867
0.00048008807
0.0004782516
0.00047629008
0.00047497644
0.00047545424
0.00047916133
0.00048744405
0.00050082586
0.00051828823
0.00053723664
0.00055457272
0.00056749083
0.00073684497
0.00071091419
0.00068571952
0.00066130304
0.00063770902
0.00061498267
0.00059316985
0.00057231786
0.00055247529
0.00053369162
0.0005160165
0.00049949892
0.00048418611
0.00047012264
0.00045734909
0.0004459012
0.00043580853
0.00042709349
0.00041977005
0.00041384257
0.00040930428
0.00040613548
0.00040430172
0.00040375114
0.00040441241
0.00040619192
0.00040897254
0.00041261244
0.00041694646
0.00042178863
0.00042693714
0.00043218085
0.00043730755
0.00044211305
0.00044641185
0.00045004983
0.00045291792
0.00045496843
0.00045623258
0.00045684383
0.00045707392
0.00045739256
0.0004585448
0.0004615964
0.00046782778
0.00047834255
0.00049340328
0.00051183168
0.00053106175
0.00054818315
0.00056067291
0.00074833649
0.00072085948
0.00069412794
0.00066818507
0.00064307704
0.00061885055
0.0005955531
0.00057323368
0.00055194271
0.00053173174
0.00051265257
0.00049475649
0.00047809307
0.00046270901
0.00044864678
0.00043594335
0.00042462881
0.00041472501
0.00040624442
0.00039918876
0.00039354815
0.00038929964
0.00038640666
0.00038481729
0.00038446393
0.00038526149
0.00038710745
0.00038988063
0.00039344225
0.00039763637
0.00040229257
0.00040722884
0.00041225766
0.00041719208
0.0004218565
0.00042609972
0.0004298111
0.00043293941
0.00043551323
0.00043766591
0.00043967009
0.00044198917
0.00044533581
0.00045068818
0.00045915932
0.00047161753
0.00048809576
0.00050730187
0.0005267332
0.00054367328
0.00055581476
0.00075853579
0.00072967498
0.00070156815
0.00067425983
0.00064779713
0.00062222786
0.00059760073
0.00057396607
0.00055137603
0.00052988402
0.00050954418
0.0004904104
0.00047253512
0.00045596825
0.00044075538
0.00042693676
0.00041454511
0.00040360483
0.00039412972
0.00038612264
0.00037957343
0.00037445916
0.00037074248
0.00036837231
0.00036728252
0.00036739287
0.00036860774
0.00037081724
0.00037389608
0.00037770518
0.0003820914
0.00038689057
0.00039193019
0.0003970369
0.00040204518
0.00040681196
0.00041123347
0.00041526584
0.00041894626
0.00042241786
0.00042596052
0.00043003208
0.00043530783
0.0004426708
0.00045306649
0.00046714564
0.00048475157
0.00050452431
0.00052405925
0.00054084314
0.00055273069
0.00076709107
0.000736988
0.00070764869
0.00067911766
0.00065144275
0.00062467267
0.00059885691
0.0005740472
0.00055029716
0.00052766224
0.00050619911
0.00048596449
0.00046701463
0.00044940308
0.00043318036
0.00041839078
0.00040507253
0.00039325363
0.0003829528
0.00037417501
0.00036691351
0.00036114541
0.00035683505
0.00035393002
0.00035236549
0.00035206047
0.00035292241
0.0003548435
0.00035770477
0.00036137266
0.00036570308
0.00037053986
0.00037572018
0.00038107921
0.00038646142
0.00039173319
0.00039680207
0.00040163653
0.00040628786
0.00041091291
0.00041579972
0.00042139826
0.00042834058
0.00043741195
0.00044939741
0.00046475768
0.00048318895
0.00050330867
0.00052283841
0.00053948067
0.00055120961
0.00077385616
0.00074263324
0.00071218464
0.00068255483
0.00065379245
0.00062594633
0.00059906717
0.00057320768
0.00054842314
0.0005247713
0.00050231125
0.00048110372
0.00046120832
0.00044268455
0.00042558717
0.00040996812
0.00039587008
0.00038332939
0.0003723683
0.00036299919
0.0003552163
0.00034900165
0.00034431723
0.0003411125
0.00033931753
0.00033885122
0.00033961525
0.0003415018
0.00034438793
0.0003481418
0.00035261845
0.00035766589
0.00036312439
0.00036883613
0.00037465268
0.000380451
0.00038615056
0.00039173382
0.00039726716
0.00040291996
0.00040898634
0.00041590228
0.00042425323
0.00043472627
0.00044796207
0.00046426194
0.00048322021
0.0005034699
0.00052288369
0.00053938959
0.00055105116
0.00077881899
0.00074658072
0.00071512813
0.00068450648
0.00065476387
0.00062595028
0.0005981168
0.00057131754
0.00054560965
0.0005210529
0.00049771012
0.00047564504
0.00045492342
0.00043560887
0.00041776479
0.00040144815
0.00038671204
0.00037359769
0.00036213784
0.00035234772
0.00034422966
0.00033776452
0.00033291785
0.00032963308
0.00032783896
0.00032744482
0.00032834788
0.00033043016
0.00033356398
0.00033760999
0.00034242081
0.00034784163
0.00035371448
0.00035988477
0.00036621073
0.00037257882
0.00037891951
0.00038522896
0.00039158514
0.00039816778
0.00040526953
0.00041330853
0.00042281784
0.00043439359
0.00044854886
0.00046546192
0.0004846648
0.00050484178
0.00052403281
0.00054040171
0.00055208105
0.00078204882
0.00074888446
0.00071651854
0.00068499604
0.00065436589
0.00062467804
0.00059598478
0.00056834145
0.00054180712
0.00051644443
0.00049231938
0.00046950077
0.00044805915
0.00042806582
0.00040959071
0.0003927008
0.00037745684
0.00036391095
0.00035210276
0.0003420565
0.00033377783
0.00032725143
0.00032244028
0.00031928453
0.00031770436
0.00031759971
0.00031885614
0.00032134365
0.00032492382
0.00032944695
0.00033475939
0.00034070072
0.00034711326
0.00035384315
0.00036075567
0.0003677438
0.00037474959
0.00038177795
0.00038891686
0.00039634829
0.00040435896
0.00041334098
0.00042377487
0.00043617197
0.00045093991
0.00046816689
0.00048736012
0.0005072825
0.00052615402
0.00054238155
0.00055415481
0.00078366149
0.00074964705
0.00071644554
0.00068410097
0.00065266257
0.00062218107
0.00059270947
0.00056430498
0.00053702848
0.00051094612
0.00048612735
0.00046264672
0.00044058044
0.00042000824
0.00040100812
0.00038365793
0.00036802795
0.00035418211
0.00034216848
0.00033202081
0.00032374816
0.0003173386
0.00031275008
0.00030991806
0.00030874906
0.00030913211
0.00031093423
0.00031401309
0.00031821244
0.00032337352
0.00032933021
0.00033591934
0.00034297838
0.00035035767
0.00035792495
0.00036558223
0.00037327795
0.00038102525
0.00038891527
0.00039712739
0.00040593495
0.00041569836
0.0004268462
0.00043981238
0.00045492196
0.00047220154
0.00049116668
0.00051067949
0.00052914815
0.00054522608
0.0005571589
0.00078379185
0.00074899585
0.00071502543
0.00068192682
0.00064974902
0.00061854325
0.00058836408
0.00055926983
0.00053132477
0.00050459735
0.00047916291
0.00045510023
0.00043249453
0.00041143224
0.00039200372
0.00037429571
0.00035839321
0.00034436925
0.00033228578
0.0003221818
0.00031407449
0.00030794853
0.00030376012
0.00030143073
0.00030085548
0.00030190214
0.00030442181
0.00030825025
0.0003132172
0.00031914739
0.00032586694
0.00033320462
0.00034099762
0.0003490966
0.00035737484
0.00036573981
0.0003741463
0.00038261142
0.00039122497
0.00040015869
0.00040966487
0.00042007044
0.00043174981
0.00044507185
0.00046029486
0.00047741244
0.00049597157
0.00051495023
0.00053294736
0.00054886458
0.0005610069
0.00078258501
0.00074706395
0.00071238483
0.00067859146
0.00064573403
0.00061386471
0.00058303889
0.00055331763
0.00052476709
0.00049746075
0.00047147767
0.00044690475
0.00042383361
0.00040236245
0.00038259105
0.0003646212
0.00034854913
0.00033446363
0.00032243595
0.00031251613
0.00030472285
0.00029904102
0.00029541619
0.0002937572
0.00029393819
0.0002958063
0.00029918876
0.00030390101
0.00030975381
0.00031655803
0.00032412978
0.00033229249
0.00034088241
0.00034975214
0.00035878009
0.00036787862
0.00037700765
0.00038618457
0.00039549527
0.00040509733
0.00041521947
0.00042615011
0.0004382134
0.00045171972
0.00046687807
0.0004836684
0.0005016874
0.00052003953
0.00053751225
0.00055325282
0.00056563721
0.00078017834
0.00074398739
0.00070865056
0.00067421506
0.00064073074
0.0006082506
0.00057683195
0.00054653761
0.00051743755
0.00048960885
0.00046313715
0.0004381157
0.00041464639
0.00039283736
0.0003728026
0.00035465706
0.00033851352
0.0003244741
0.00031262388
0.00030302002
0.00029568467
0.00029059668
0.00028768975
0.00028685266
0.00028793584
0.00029076005
0.00029512691
0.00030082918
0.00030765874
0.00031541328
0.00032389977
0.0003329385
0.00034236523
0.00035203657
0.00036183525
0.00037167947
0.00038153163
0.00039140874
0.00040138846
0.00041161225
0.00042228114
0.00043364479
0.00044597889
0.0004595429
0.0004745092
0.00049085762
0.00050824752
0.00052591233
0.00054282393
0.00055836769
0.00057100573
0.00077670892
0.00073989222
0.0007039462
0.00066891491
0.0006348502
0.00060180601
0.00056984127
0.00053902158
0.00050942017
0.00048111931
0.00045421058
0.00042879593
0.00040498701
0.00038290502
0.00036267793
0.00034443761
0.00032831307
0.00031442319
0.00030286542
0.00029370515
0.00028696388
0.000282612
0.00028056488
0.00028068669
0.00028279848
0.00028669118
0.00029213868
0.00029891041
0.00030678059
0.00031553479
0.00032497374
0.00033491561
0.00034519843
0.00035568293
0.00036625775
0.00037684571
0.00038741193
0.00039797068
0.00040859047
0.0004193942
0.00043055447
0.00044228234
0.00045480788
0.00046834625
0.00048304138
0.00049888283
0.00051559654
0.00053254511
0.00054887457
0.00056419676
0.00057708001
0.00077229813
0.00073490178
0.00069838693
0.00066280206
0.00062819833
0.00059463132
0.00056216188
0.00053085838
0.0005007981
0.00047206847
0.00044476835
0.00041900862
0.00039491266
0.00037261543
0.0003522616
0.00033400092
0.00031798156
0.0003043394
0.00029318552
0.00028459115
0.00027857474
0.00027509222
0.00027403529
0.00027523681
0.00027848403
0.00028353472
0.00029013423
0.00029802935
0.00030697855
0.00031675798
0.0003271644
0.00033801659
0.00034915617
0.00036044963
0.00037179162
0.00038311007
0.00039437189
0.00040558835
0.00041681772
0.00042816427
0.00043977237
0.00045181628
0.00046448397
0.00047795134
0.00049233999
0.00050765268
0.00052368241
0.00053991408
0.00055565563
0.00057072932
0.00058382994
0.00076706451
0.00072912447
0.00069208115
0.00065597976
0.00062087413
0.00058682091
0.00055388322
0.0005221325
0.00049165031
0.00046253001
0.00043487817
0.00040881592
0.00038447936
0.00036201927
0.00034159861
0.00032338767
0.00030755521
0.00029425593
0.00028361378
0.00027570414
0.00027053736
0.00026804912
0.00026809995
0.00027048557
0.00027495469
0.0002812303
0.00028902934
0.00029807813
0.00030812222
0.00031893146
0.0003303016
0.00034205425
0.00035403649
0.0003661215
0.00037821057
0.00039023661
0.00040216836
0.00041401376
0.00042582119
0.00043767692
0.00044969893
0.00046202743
0.00047481229
0.00048819461
0.00050227698
0.00051707597
0.00053244626
0.00054798578
0.00056314806
0.00057794581
0.00059122147
0.00076111094
0.0007226659
0.00068512715
0.00064854374
0.00061296928
0.00057846251
0.0005450888
0.00051292296
0.00048205123
0.00045257333
0.00042460447
0.00039827692
0.00037374116
0.00035116549
0.00033073356
0.0003126384
0.00029707171
0.00028420782
0.00027418311
0.00026707352
0.00026287576
0.00026149739
0.00026276037
0.00026641697
0.00027217418
0.00027971954
0.0002887435
0.00029895502
0.00031009039
0.00032191665
0.00033423144
0.00034686142
0.00035966062
0.00037250977
0.00038531715
0.00039802081
0.00041059122
0.00042303336
0.0004353864
0.00044772032
0.00046012933
0.00047272332
0.00048561835
0.0004989247
0.00051272796
0.00052705585
0.00054181725
0.00055670956
0.00057131446
0.00058581194
0.00059921037
0.00075453646
0.00071561777
0.0006776172
0.00064058197
0.00060456863
0.00056963733
0.0005358561
0.0005033033
0.00047207019
0.00044226343
0.0004140076
0.00038744739
0.00036274914
0.00034010083
0.00031970928
0.00030179294
0.0002865686
0.00027423121
0.00026492791
0.00025873082
0.00025561548
0.00025545276
0.0002580179
0.00026301444
0.00027010558
0.00027894468
0.00028919884
0.00030056381
0.00031277071
0.0003255873
0.00033881587
0.00035229008
0.00036587207
0.00037945076
0.00039294166
0.00040628793
0.00041946198
0.00043246624
0.00044533193
0.00045811483
0.00047088862
0.00048373706
0.00049674698
0.00051000161
0.00052357049
0.0005374889
0.00055170965
0.0005660154
0.00058009629
0.00059427467
0.00060774054
0.00074742863
0.00070806848
0.00066963418
0.00063217577
0.00059575023
0.00056042042
0.00052625685
0.00049334172
0.00046177162
0.00043166074
0.00040314387
0.00037637934
0.00035155115
0.00032886928
0.0003085665
0.00029088964
0.0002760829
0.00026436233
0.00025588341
0.00025070827
0.00024878236
0.00024993007
0.00025387214
0.00026025915
0.00026871043
0.00027884794
0.00029031998
0.00030281379
0.00031605962
0.00032982928
0.00034393214
0.00035821042
0.00037253527
0.00038680415
0.00040093986
0.00041489068
0.00042863107
0.00044216156
0.00045550673
0.00046871055
0.00048182957
0.00049492582
0.00050806159
0.00052129665
0.00053468532
0.00054826594
0.00056202512
0.00057581484
0.00058941482
0.00060326357
0.00061674372
0.00073986744
0.00070009559
0.00066125597
0.00062339935
0.00058658622
0.00055088106
0.00051635741
0.00048310137
0.00045121529
0.00042082138
0.00039206558
0.00036512118
0.0003401918
0.00031751198
0.00029734365
0.00027996525
0.00026565075
0.00025463731
0.00024708501
0.00024303809
0.00024240127
0.00024494212
0.0002503197
0.00025812929
0.00026794819
0.00027937154
0.00029203418
0.00030561996
0.00031986232
0.00033454019
0.00034947196
0.0003645096
0.00037953382
0.00039445078
0.00040919048
0.00042370624
0.00043797472
0.00045199515
0.00046578684
0.00047938424
0.0004928302
0.00050616926
0.00051944369
0.00053269349
0.00054595846
0.00055927618
0.0005726566
0.00058600649
0.00059917579
0.00061269384
0.00062614301
0.00069177138
0.00065255205
0.00061432189
0.00057714305
0.0005410834
0.00050621921
0.00047264083
0.00044045663
0.00040979745
0.00038082127
0.00035371785
0.00032871249
0.00030606728
0.00028607683
0.00026905482
0.00025530733
0.00024509194
0.00023856797
0.00023575179
0.00023649525
0.00024049853
0.00024735336
0.00025659954
0.00026777633
0.00028045792
0.00029427171
0.00030890315
0.00032409265
0.00033962873
0.0003553404
0.00037109014
0.00038676846
0.0004022902
0.00041759233
0.00043263311
0.00044739147
0.00046186593
0.00047607176
0.00049003602
0.00050379095
0.00051736757
0.00053079242
0.00054408918
0.00055728439
0.00057041137
0.00058349477
0.00059648182
0.00060927586
0.00062247228
0.00063585583
0.00068316793
0.00064359008
0.00060500693
0.00056748266
0.00053108692
0.0004958993
0.00046201445
0.00042954712
0.00039863732
0.00036945605
0.00034221103
0.00031715169
0.00029457088
0.00027479997
0.00025819184
0.00024508696
0.00023576163
0.00023036708
0.0002288796
0.00023108463
0.00023660505
0.00024496163
0.00025564108
0.00026815057
0.00028205026
0.00029696621
0.00031259019
0.00032867277
0.00034501409
0.0003614548
0.00037786834
0.00039415507
0.00041023823
0.00042606156
0.00044158801
0.00045679887
0.0004716924
0.00048628093
0.00050058598
0.00051463185
0.00052843953
0.00054202369
0.00055539512
0.00056856843
0.0005815706
0.00059443329
0.00060713253
0.00061960908
0.00063250233
0.00064579889
0.00067435232
0.00063443274
0.00059551524
0.00055766263
0.00052094699
0.00048545065
0.00045127273
0.00041853458
0.00038738593
0.00035801172
0.00033063938
0.000305545
0.00028305595
0.00026354488
0.00024740829
0.00023502312
0.00022668135
0.00022251637
0.00022244973
0.00022618621
0.00023326278
0.0002431284
0.0002552217
0.00026902534
0.00028409286
0.00030005493
0.00031661377
0.00033353272
0.00035062495
0.0003677434
0.00038477258
0.00040162253
0.0004182246
0.00043452893
0.00045050293
0.00046613027
0.00048140933
0.00049635038
0.00051097091
0.00052528957
0.00053932022
0.00055306902
0.00056653699
0.00057972863
0.00059266323
0.000605374
0.00061785534
0.00063007288
0.00064268942
0.00065589041
0.00066538281
0.00062513853
0.00058590198
0.00054773647
0.00051071488
0.00047492243
0.00044046259
0.00040746349
0.00037608504
0.00034652718
0.00031903875
0.00029392543
0.00027155328
0.00025234144
0.00023673485
0.00022514864
0.00021788562
0.00021504875
0.00021648784
0.0002218126
0.00023046785
0.00024183303
0.00025530623
0.00027035432
0.00028653171
0.00030347904
0.00032091244
0.00033860993
0.00035639866
0.00037414411
0.00039174177
0.000409111
0.00042619086
0.0004429375
0.00045932258
0.00047533208
0.00049096483
0.00050622971
0.00052114143
0.00053571473
0.00054995872
0.0005638739
0.00057745433
0.00059069628
0.00060361115
0.00061622952
0.0006285567
0.00064057181
0.00065294417
0.00066605352
0.00065631192
0.00061575871
0.00057621835
0.00053775332
0.00050043809
0.00046436025
0.0004296276
0.00039637515
0.00036477348
0.00033503848
0.00030744233
0.00028232347
0.0002600914
0.00024121767
0.00022620098
0.00021549568
0.00020940833
0.00020799548
0.00021101614
0.00021797145
0.00022821099
0.00024105046
0.000255857
0.00027209098
0.00028931474
0.00030718358
0.00032543016
0.00034384853
0.00036228022
0.00038060326
0.00039872377
0.00041657002
0.00043408832
0.00045124045
0.00046800201
0.0004843613
0.00050031774
0.00051587943
0.00053105918
0.0005458692
0.00056031573
0.00057439585
0.00058809909
0.00060141552
0.00061434898
0.00062692516
0.00063915404
0.00065102052
0.00066318485
0.00067621637
0.0006471889
0.00060634191
0.00056651078
0.00052775862
0.00049016046
0.00045380632
0.00041880817
0.00038530799
0.00035348734
0.00032357914
0.00029588087
0.00027076728
0.00024869671
0.0002301999
0.00021583507
0.00020609594
0.00020128264
0.00020138574
0.00020605282
0.00021466502
0.00022647763
0.00024075168
0.00025683444
0.00027418908
0.00029239223
0.00031111754
0.00033011612
0.00034919874
0.00036822145
0.00038707448
0.00040567417
0.00042395715
0.00044187653
0.00045939929
0.00047650478
0.00049318346
0.00050943554
0.00052526872
0.00054069462
0.00055572393
0.00057036141
0.00058460246
0.00059843412
0.00061184212
0.0006248238
0.00063739855
0.00064957734
0.00066134415
0.00067333817
0.00068631382
0.00063805833
0.00059693139
0.00055682241
0.00051779405
0.00047992248
0.00044329973
0.00040804183
0.00037429768
0.00034226021
0.00031218025
0.0002843828
0.00025928281
0.00023739361
0.00021931287
0.00020566459
0.00019698058
0.00019354066
0.00019524584
0.00020161116
0.00021188968
0.00022524789
0.00024090411
0.00025819763
0.00027660314
0.00029571687
0.00031523365
0.00033492416
0.00035461619
0.00037417999
0.00039351756
0.00041255488
0.00043123646
0.00044952164
0.00046738228
0.00048480114
0.00050177082
0.00051829239
0.00053437347
0.00055002495
0.0005652568
0.00058007322
0.00059446927
0.00060843111
0.00062194185
0.00063499353
0.00064759915
0.00065976778
0.00067147895
0.00068333961
0.00069628625
0.00062896202
0.00058756803
0.00054719238
0.00050789802
0.00046976144
0.00043287661
0.00039736335
0.0003633774
0.00033112328
0.00030087073
0.00027297443
0.00024789393
0.00022620455
0.00020857986
0.00019571624
0.00018818032
0.00018621309
0.0001895986
0.00019769893
0.00020963578
0.00022449695
0.00024147226
0.00025990489
0.00027928875
0.00029924392
0.00031948822
0.00033981246
0.00036006123
0.00038011854
0.00039989754
0.00041933325
0.00043837745
0.00045699529
0.00047516307
0.00049286676
0.00051010097
0.00052686773
0.00054317474
0.00055903261
0.000574451
0.00058943428
0.00060397807
0.00061806887
0.00063168864
0.00064482554
0.00065748644
0.00066967747
0.00068137082
0.00069313291
0.00070608042
0.00061993709
0.00057828815
0.00053765691
0.00049810574
0.00045971175
0.00042257039
0.00038680503
0.00035257805
0.0003201057
0.00028967748
0.00026168014
0.00023662259
0.00021515025
0.0001980228
0.00018601606
0.00017972534
0.00017932873
0.00018446244
0.00019431779
0.0002078876
0.00022419551
0.00024241832
0.00026191424
0.00028220288
0.00030293113
0.00032384084
0.00034474293
0.0003654983
0.00038600403
0.00040618376
0.0004259809
0.00044535394
0.00046427336
0.00048271954
0.00050068142
0.00051815553
0.00053514488
0.00055165744
0.00056770375
0.00058329353
0.00059843173
0.00061311515
0.00062733147
0.00064106277
0.00065429457
0.00066702858
0.00067926717
0.00069097494
0.00070266945
0.00071564804
0.00061101845
0.0005691258
0.00052824881
0.00048844955
0.00044980501
0.00041241195
0.00037639683
0.00034192841
0.00030923464
0.0002786256
0.0002505225
0.00022548893
0.00020424968
0.00018766246
0.00017658958
0.00017164515
0.00017291376
0.00017985056
0.00019146277
0.00020662353
0.00022431034
0.00024370275
0.00026418389
0.00028530399
0.00030673868
0.00032825409
0.00034968081
0.00037089529
0.00039180695
0.00041234914
0.00043247302
0.00045214325
0.00047133516
0.00049003289
0.00050822814
0.00052591921
0.00054311014
0.00055980928
0.00057602728
0.00059177413
0.00060705561
0.00062187004
0.00063620691
0.00065004925
0.00066338128
0.0006762004
0.00068850561
0.00070025374
0.00071190744
0.0007249464
0.0006022366
0.00056011119
0.00051899828
0.00047895907
0.00044007045
0.00040242994
0.00036616671
0.00033145544
0.00029853567
0.00026773866
0.00023952256
0.0002145115
0.00019352033
0.00017751852
0.00016746193
0.00016396831
0.00016699107
0.00017577015
0.00018912221
0.0002058165
0.00022480498
0.00024528491
0.00026667252
0.00028855215
0.00031062901
0.00033269321
0.00035459416
0.00037622303
0.00039750067
0.00041836944
0.00043878757
0.00045872535
0.00047816256
0.00049708678
0.00051549221
0.00053337889
0.00055075184
0.00056761988
0.0005839939
0.00059988428
0.00061529776
0.00063023436
0.00064468569
0.00065863645
0.0006720705
0.00068498214
0.00069736715
0.00070917648
0.00072081106
0.00073393697
0.00059362047
0.0005512725
0.00050993278
0.00046966153
0.00043053492
0.00039265091
0.00035614074
0.00032118449
0.00028803289
0.0002570389
0.0002287
0.00020370736
0.00018297817
0.00016760971
0.0001586578
0.00015672203
0.00016157915
0.00017222163
0.00018727756
0.00020543448