/*--------------------------------*- C++ -*----------------------------------*\
| =========                 |                                                 |
| \\      /  F ield         | OpenFOAM: The Open Source CFD Toolbox           |
|  \\    /   O peration     | Version:  2312                                  |
|   \\  /    A nd           | Website:  www.openfoam.com                      |
|    \\/     M anipulation  |                                                 |
\*---------------------------------------------------------------------------*/
FoamFile
{
    version     2.0;
    format      ascii;
    arch        "LSB;label=32;scalar=64";
    class       volScalarField;
    location    "0.06";
    object      N2;
}
// * * * * * * * * * * * * * * * * * * * * * * * * * * * * * * * * * * * * * //

dimensions      [0 0 0 0 0 0 0];

internalField   nonuniform List<scalar> 
3257
(
0.76727521
0.7673568
0.7674365
0.7675145
0.76759084
0.76766553
0.7677386
0.76781008
0.76788003
0.76794849
0.76801551
0.76808114
0.76814542
0.7682084
0.76827012
0.76833062
0.76838994
0.76844813
0.76850522
0.76856125
0.76861632
0.76867061
0.76872475
0.76878077
0.76884577
0.76894451
0.76916352
0.76927763
0.76940382
0.76948978
0.76956613
0.76962542
0.76967554
0.76971662
0.76975135
0.76978068
0.76980584
0.76982755
0.76984652
0.76986323
0.76987812
0.76989153
0.76990366
0.76991454
0.76992352
0.76992803
0.76991962
0.7699255
0.76994011
0.76996126
0.76998662
0.7671803
0.76726691
0.76735145
0.76743408
0.76751484
0.76759373
0.76767079
0.76774608
0.76781965
0.76789154
0.76796182
0.76803054
0.76809776
0.76816353
0.7682279
0.76829091
0.76835262
0.76841306
0.76847228
0.76853033
0.76858728
0.76864323
0.76869846
0.76875367
0.76881066
0.76887332
0.76894591
0.76901532
0.76908778
0.76915611
0.76922278
0.76928527
0.76934433
0.76939932
0.76945057
0.76949806
0.76954204
0.76958274
0.76962043
0.76965542
0.76968804
0.76971864
0.76974756
0.76977515
0.76980166
0.76982719
0.76985206
0.76987954
0.76991045
0.76994471
0.76998132
0.76700449
0.76710048
0.76719398
0.76728514
0.76737402
0.76746064
0.76754507
0.76762735
0.76770758
0.7677858
0.7678621
0.76793654
0.76800919
0.76808011
0.76814937
0.76821703
0.76828315
0.76834777
0.76841096
0.76847276
0.76853324
0.76859246
0.76865051
0.76870759
0.76876407
0.76882064
0.76887771
0.7689346
0.76899167
0.76904815
0.76910409
0.76915894
0.76921259
0.76926469
0.7693151
0.76936363
0.7694102
0.76945475
0.76949732
0.769538
0.76957699
0.76961457
0.76965114
0.7696872
0.76972332
0.76976018
0.7697985
0.76983916
0.76988255
0.76992845
0.76997601
0.7667634
0.76687214
0.76697781
0.76708057
0.76718049
0.76727764
0.76737209
0.76746393
0.76755324
0.76764011
0.76772463
0.7678069
0.76788698
0.76796497
0.76804094
0.76811497
0.76818714
0.76825751
0.76832615
0.76839313
0.76845852
0.76852237
0.76858476
0.76864576
0.7687055
0.76876414
0.76882181
0.76887853
0.7689344
0.76898937
0.76904344
0.76909653
0.76914858
0.76919946
0.76924908
0.76929735
0.76934418
0.76938952
0.76943338
0.76947585
0.76951711
0.76955747
0.76959738
0.76963745
0.76967839
0.76972097
0.7697659
0.76981369
0.76986444
0.76991769
0.76997246
0.76647313
0.76659703
0.76671718
0.76683376
0.76694686
0.76705658
0.76716302
0.76726628
0.76736647
0.76746371
0.7675581
0.76764975
0.76773877
0.76782526
0.76790931
0.76799103
0.76807049
0.7681478
0.76822303
0.76829627
0.7683676
0.76843709
0.76850482
0.76857087
0.7686353
0.76869822
0.76875968
0.76881975
0.7688785
0.76893597
0.76899216
0.7690471
0.76910076
0.76915312
0.76920413
0.76925375
0.76930194
0.7693487
0.76939407
0.76943817
0.76948122
0.76952358
0.76956576
0.76960843
0.76965235
0.76969834
0.76974706
0.76979892
0.7698539
0.7699114
0.76997039
0.76614887
0.76628947
0.76642559
0.76655742
0.7666851
0.76680873
0.76692845
0.76704438
0.76715666
0.76726542
0.76737079
0.76747291
0.76757189
0.76766787
0.76776095
0.76785125
0.76793888
0.76802396
0.76810658
0.76818684
0.76826485
0.76834068
0.76841444
0.76848621
0.76855607
0.7686241
0.76869038
0.76875497
0.76881793
0.76887931
0.76893914
0.76899745
0.76905425
0.76910953
0.76916327
0.76921547
0.76926611
0.76931521
0.76936284
0.76940917
0.76945443
0.76949904
0.76954354
0.76958862
0.76963508
0.7696837
0.76973514
0.76978976
0.76984744
0.76990759
0.76996914
0.76580404
0.76596213
0.766115
0.76626287
0.76640587
0.76654415
0.76667787
0.76680718
0.76693223
0.76705319
0.76717019
0.7672834
0.76739296
0.76749901
0.76760169
0.76770113
0.76779747
0.76789083
0.76798133
0.7680691
0.76815424
0.76823686
0.76831708
0.768395
0.7684707
0.76854428
0.76861583
0.76868541
0.76875311
0.76881898
0.76888306
0.76894538
0.76900597
0.76906484
0.76912197
0.76917739
0.76923109
0.76928311
0.76933355
0.76938258
0.76943049
0.76947768
0.76952474
0.76957236
0.76962132
0.7696724
0.7697262
0.76978305
0.76984282
0.76990491
0.76996826
0.76544979
0.76562558
0.76579543
0.76595956
0.76611813
0.76627133
0.76641931
0.76656226
0.76670035
0.76683377
0.76696267
0.76708724
0.76720764
0.76732403
0.76743657
0.76754541
0.7676507
0.76775259
0.76785122
0.76794672
0.76803923
0.76812887
0.76821577
0.76830004
0.76838179
0.76846114
0.76853817
0.76861298
0.76868565
0.76875625
0.76882482
0.76889143
0.76895609
0.76901883
0.76907966
0.7691386
0.76919567
0.76925091
0.76930445
0.76935648
0.76940728
0.76945729
0.76950708
0.76955735
0.76960887
0.76966237
0.76971843
0.76977733
0.76983895
0.76990268
0.76996754
0.76509484
0.76528813
0.76547477
0.76565501
0.76582903
0.76599702
0.76615918
0.7663157
0.76646678
0.76661262
0.7667534
0.76688931
0.76702054
0.76714728
0.76726969
0.76738794
0.76750222
0.76761267
0.76771947
0.76782275
0.76792267
0.76801938
0.76811301
0.7682037
0.76829156
0.76837673
0.76845932
0.76853942
0.76861712
0.76869252
0.76876569
0.76883666
0.7689055
0.76897222
0.76903686
0.76909944
0.76916
0.7692186
0.76927538
0.76933052
0.76938434
0.76943727
0.76948989
0.76954288
0.76959698
0.76965289
0.76971115
0.76977203
0.76983538
0.76990064
0.76996688
0.76474566
0.76495595
0.76515894
0.76535486
0.76554393
0.76572636
0.76590236
0.76607215
0.76623593
0.76639393
0.76654634
0.76669338
0.76683525
0.76697214
0.76710426
0.76723178
0.7673549
0.76747379
0.76758863
0.76769959
0.76780684
0.76791053
0.76801081
0.76810785
0.76820176
0.7682927
0.76838079
0.76846613
0.76854885
0.76862903
0.76870675
0.76878209
0.76885509
0.7689258
0.76899426
0.7690605
0.76912457
0.76918656
0.7692466
0.7693049
0.76936177
0.76941766
0.76947312
0.76952883
0.76958549
0.76964377
0.76970419
0.76976698
0.76983199
0.76989871
0.76996625
0.76440674
0.76463337
0.76485207
0.76506309
0.76526666
0.76546301
0.76565236
0.76583495
0.76601101
0.76618075
0.76634442
0.76650223
0.76665439
0.76680113
0.76694265
0.76707917
0.76721087
0.76733796
0.76746063
0.76757906
0.76769343
0.76780392
0.76791069
0.76801391
0.76811373
0.76821031
0.76830376
0.76839424
0.76848186
0.76856671
0.76864891
0.76872852
0.76880561
0.76888024
0.76895246
0.76902231
0.76908986
0.7691552
0.76921847
0.7692799
0.7693398
0.76939862
0.7694569
0.76951528
0.76957446
0.76963506
0.76969756
0.76976218
0.76982879
0.76989689
0.76996567
0.76408097
0.76432319
0.76455688
0.76478233
0.76499976
0.76520941
0.76541154
0.76560638
0.76579418
0.76597519
0.76614963
0.76631776
0.76647981
0.766636
0.76678656
0.76693171
0.76707166
0.76720664
0.76733683
0.76746245
0.76758368
0.76770072
0.76781375
0.76792293
0.76802845
0.76813046
0.76822911
0.76832454
0.76841689
0.76850628
0.7685928
0.76867655
0.76875762
0.76883605
0.76891193
0.7689853
0.76905624
0.76912485
0.76919129
0.76925579
0.76931866
0.76938035
0.76944137
0.76950237
0.76956398
0.76962681
0.76969132
0.76975768
0.76982579
0.76989519
0.76996512
0.76377003
0.76402706
0.76427501
0.76451416
0.76474476
0.76496707
0.76518135
0.76538785
0.76558683
0.76577855
0.76596326
0.76614123
0.76631268
0.76647788
0.76663705
0.76679043
0.76693826
0.76708076
0.76721814
0.76735063
0.76747842
0.76760171
0.76772072
0.76783561
0.76794658
0.76805379
0.76815741
0.7682576
0.76835449
0.76844821
0.76853889
0.76862662
0.7687115
0.7687936
0.768873
0.76894977
0.76902398
0.76909577
0.76916528
0.76923276
0.76929851
0.76936297
0.76942666
0.76949018
0.76955413
0.7696191
0.7696855
0.76975351
0.76982303
0.76989362
0.76996462
0.76347473
0.76374579
0.76400725
0.76425939
0.76450248
0.76473678
0.76496257
0.76518012
0.7653897
0.76559158
0.76578603
0.76597331
0.7661537
0.76632743
0.76649478
0.76665598
0.76681128
0.76696091
0.76710512
0.76724412
0.76737814
0.76750739
0.76763207
0.76775239
0.76786854
0.7679807
0.76808905
0.76819376
0.76829497
0.76839283
0.76848747
0.768579
0.76866752
0.76875312
0.76883589
0.76891591
0.76899328
0.76906811
0.76914058
0.76921092
0.76927945
0.76934659
0.76941284
0.76947877
0.76954497
0.76961196
0.76968014
0.76974969
0.76982051
0.7698922
0.76996416
0.76319528
0.76347963
0.76375386
0.76401829
0.76427319
0.76451884
0.76475552
0.76498351
0.76520311
0.7654146
0.76561825
0.76581435
0.76600317
0.76618498
0.76636004
0.76652863
0.766691
0.76684739
0.76699804
0.76714321
0.76728312
0.76741799
0.76754805
0.76767351
0.76779456
0.76791141
0.76802424
0.76813322
0.76823853
0.76834031
0.7684387
0.76853383
0.76862582
0.76871475
0.76880073
0.76888385
0.76896421
0.76904196
0.76911726
0.76919035
0.76926154
0.76933125
0.76939994
0.76946817
0.76953649
0.76960539
0.76967525
0.76974623
0.76981824
0.76989093
0.76996376
0.76293152
0.76322842
0.76351474
0.76379077
0.76405683
0.76431319
0.76456015
0.76479801
0.76502707
0.76524762
0.76545995
0.76566436
0.76586114
0.76605057
0.76623292
0.76640848
0.7665775
0.76674026
0.766897
0.76704798
0.76719345
0.76733363
0.76746875
0.76759905
0.76772473
0.767846
0.76796305
0.76807607
0.76818525
0.76829073
0.76839267
0.7684912
0.76858645
0.76867854
0.76876756
0.76885362
0.76893684
0.76901735
0.76909535
0.76917105
0.76924479
0.76931694
0.76938796
0.76945837
0.76952869
0.76959939
0.76967081
0.76974311
0.7698162
0.7698898
0.7699634
0.76268304
0.76299181
0.76328952
0.76357653
0.76385311
0.76411958
0.76437624
0.76462341
0.76486138
0.76509047
0.76531098
0.76552323
0.7657275
0.7659241
0.76611331
0.76629543
0.76647072
0.76663947
0.76680194
0.76695839
0.76710908
0.76725425
0.76739414
0.76752899
0.76765902
0.76778445
0.76790548
0.76802231
0.76813511
0.76824408
0.76834936
0.7684511
0.76854944
0.76864449
0.76873638
0.76882522
0.76891114
0.76899428
0.76907483
0.76915303
0.76922917
0.76930364
0.76937687
0.76944934
0.76952155
0.76959393
0.7696668
0.7697403
0.7698144
0.7698888
0.76996308
0.7624493
0.76276927
0.76307776
0.7633751
0.76366162
0.76393762
0.76420342
0.76445935
0.76470572
0.76494285
0.76517107
0.76539068
0.76560201
0.76580535
0.76600101
0.76618929
0.76637048
0.76654486
0.7667127
0.76687429
0.76702989
0.76717975
0.76732412
0.76746325
0.76759737
0.7677267
0.76785146
0.76797185
0.76808808
0.76820031
0.76830873
0.76841348
0.76851471
0.76861257
0.76870716
0.76879862
0.76888709
0.76897271
0.76905568
0.76913623
0.76921465
0.76929131
0.76936662
0.76944104
0.76951502
0.76958896
0.76966317
0.76973779
0.76981279
0.76988792
0.7699628
0.76222971
0.76256025
0.76287889
0.76318598
0.76348186
0.76376684
0.76404125
0.76430542
0.7645597
0.7648044
0.76503985
0.7652664
0.76548435
0.76569403
0.76589575
0.76608982
0.76627653
0.7664562
0.76662909
0.76679551
0.76695571
0.76710996
0.76725854
0.76740167
0.76753962
0.76767261
0.76780087
0.76792461
0.76804403
0.76815933
0.76827069
0.76837827
0.76848222
0.7685827
0.76867983
0.76877375
0.76886462
0.76895258
0.76903782
0.76912059
0.76920117
0.76927989
0.76935717
0.76943341
0.76950904
0.76958444
0.7696599
0.76973554
0.76981135
0.76988713
0.76996255
0.76202363
0.76236413
0.76269234
0.76300862
0.76331331
0.76360674
0.76388925
0.76416118
0.76442288
0.76467469
0.76491696
0.76515001
0.76537418
0.76558981
0.76579722
0.76599672
0.76618862
0.76637324
0.76655087
0.7667218
0.76688632
0.76704469
0.7671972
0.76734409
0.76748563
0.76762204
0.76775357
0.76788044
0.76800286
0.76812103
0.76823514
0.76834537
0.76845187
0.7685548
0.76865431
0.76875055
0.76884366
0.76893381
0.7690212
0.76910606
0.76918865
0.76926932
0.76934843
0.76942638
0.76950356
0.76958032
0.76965692
0.76973351
0.76981006
0.76988643
0.76996234
0.76183044
0.76218031
0.76251752
0.76284245
0.76315543
0.7634568
0.76374693
0.76402615
0.76429483
0.76455332
0.76480197
0.76504113
0.76527115
0.76549235
0.76570509
0.76590968
0.76610645
0.76629571
0.76647777
0.76665293
0.76682149
0.76698372
0.76713991
0.76729031
0.7674352
0.76757482
0.76770942
0.76783922
0.76796444
0.76808529
0.76820197
0.76831467
0.76842355
0.76852878
0.76863052
0.76872892
0.76882414
0.76891634
0.76900574
0.76909255
0.76917704
0.76925953
0.76934036
0.7694199
0.76949852
0.76957654
0.7696542
0.76973166
0.7698089
0.7698858
0.76996214
0.76164949
0.76200819
0.76235387
0.76268692
0.76300769
0.76331653
0.7636138
0.76389987
0.7641751
0.76443986
0.7646945
0.76493939
0.76517487
0.76540131
0.76561904
0.76582839
0.76602972
0.76622332
0.76640953
0.76658865
0.76676099
0.76692683
0.76708645
0.76724014
0.76738817
0.76753079
0.76766824
0.76780077
0.76792861
0.76805197
0.76817105
0.76828605
0.76839716
0.76850454
0.76860835
0.76870877
0.76880596
0.76890009
0.76899136
0.76908
0.76916626
0.76925045
0.76933288
0.7694139
0.76949386
0.76957305
0.7696517
0.76972996
0.76980783
0.76988522
0.76996196
0.76148019
0.76184718
0.76220081
0.76254149
0.76286957
0.76318541
0.7634894
0.76378188
0.76406326
0.76433388
0.76459414
0.76484439
0.765085
0.76531633
0.76553873
0.76575255
0.76595813
0.7661558
0.76634589
0.76652871
0.76670458
0.76687378
0.76703663
0.76719339
0.76734434
0.76748975
0.76762988
0.76776496
0.76789524
0.76802093
0.76814226
0.76825941
0.76837259
0.76848197
0.76858773
0.76869003
0.76878905
0.76888497
0.76897799
0.76906833
0.76915625
0.76924201
0.76932593
0.76940834
0.76948954
0.76956981
0.76964938
0.76972838
0.76980683
0.76988469
0.76996179
0.76132193
0.7616967
0.76205779
0.76240562
0.76274056
0.76306297
0.76337323
0.76367174
0.76395886
0.76423499
0.76450049
0.76475577
0.76500117
0.76523708
0.76546385
0.76568184
0.76589141
0.76609288
0.76628659
0.76647287
0.76665203
0.76682438
0.76699022
0.76714985
0.76730353
0.76745155
0.76759417
0.76773163
0.76786418
0.76799205
0.76811547
0.76823463
0.76834974
0.76846098
0.76856854
0.7686726
0.76877333
0.76887092
0.76896556
0.76905749
0.76914693
0.76923416
0.76931946
0.76940315
0.7694855
0.76956678
0.7696472
0.76972689
0.76980589
0.76988418
0.76996163
0.76117414
0.76155621
0.76192428
0.76227881
0.76262016
0.76294872
0.76326487
0.763569
0.7638615
0.76414277
0.7644132
0.76467316
0.76492305
0.76516323
0.76539409
0.76561598
0.76582926
0.76603427
0.76623137
0.76642087
0.76660311
0.7667784
0.76694704
0.76710933
0.76726557
0.76741602
0.76756095
0.76770063
0.7678353
0.7679652
0.76809056
0.76821159
0.76832849
0.76844147
0.76855071
0.7686564
0.76875871
0.76885785
0.76895401
0.7690474
0.76913826
0.76922684
0.76931343
0.7693983
0.76948171
0.76956393
0.76964514
0.76972547
0.769805
0.76988369
0.76996148
0.76103627
0.76142515
0.76179977
0.76216056
0.76250792
0.76284222
0.76316387
0.76347326
0.76377079
0.76405687
0.76433188
0.76459623
0.7648503
0.76509448
0.76532915
0.76555468
0.76577142
0.76597975
0.76618
0.76637251
0.76655762
0.76673564
0.76690689
0.76707167
0.76723027
0.76738299
0.76753008
0.76767183
0.76780847
0.76794026
0.76806742
0.76819019
0.76830876
0.76842335
0.76853415
0.76864135
0.76874514
0.76884571
0.76894326
0.769038
0.76913018
0.76922002
0.76930778
0.76939374
0.76947815
0.76956123
0.76964317
0.76972412
0.76980413
0.76988321
0.76996133
0.76090776
0.76130303
0.76168375
0.76205039
0.76240335
0.76274303
0.76306981
0.76338411
0.76368634
0.7639769
0.7642562
0.76452464
0.76478262
0.76503052
0.76526874
0.76549766
0.76571764
0.76592905
0.76613224
0.76632755
0.76651533
0.7666959
0.76686958
0.76703668
0.76719749
0.76735231
0.76750142
0.76764508
0.76778356
0.7679171
0.76804595
0.76817032
0.76829045
0.76840653
0.76851877
0.76862737
0.76873252
0.76883442
0.76893326
0.76902926
0.76912264
0.76921364
0.76930249
0.76938946
0.76947478
0.76955866
0.76964129
0.76972281
0.76980328
0.76988275
0.76996119
0.76078813
0.76118935
0.76157575
0.76194785
0.76230604
0.76265072
0.76298229
0.76330118
0.76360778
0.76390253
0.76418582
0.76445807
0.76471969
0.76497107
0.7652126
0.76544468
0.76566767
0.76588195
0.76608787
0.76628579
0.76647606
0.766659
0.76683494
0.76700419
0.76716706
0.76732384
0.76747481
0.76762026
0.76776044
0.76789562
0.76802602
0.76815189
0.76827346
0.76839093
0.76850451
0.76861441
0.76872082
0.76882394
0.76892397
0.76902112
0.76911561
0.76920767
0.76929753
0.76938543
0.76947159
0.76955621
0.76963948
0.76972154
0.76980246
0.76988229
0.76996104
0.76067688
0.76108363
0.76147532
0.76185249
0.76221555
0.76256489
0.76290093
0.76322409
0.76353477
0.76383341
0.76412043
0.76439623
0.76466124
0.76491585
0.76516046
0.76539548
0.76562127
0.76583822
0.76604669
0.76624704
0.76643962
0.76662476
0.7668028
0.76697406
0.76713883
0.76729743
0.76745014
0.76759725
0.76773901
0.7678757
0.76800755
0.76813481
0.76825771
0.76837646
0.76849129
0.76860238
0.76870995
0.7688142
0.76891533
0.76901354
0.76910906
0.76920209
0.76929287
0.76938162
0.76946856
0.76955387
0.76963774
0.7697203
0.76980165
0.76988183
0.7699609
0.76057362
0.76098539
0.761382
0.76176388
0.76213147
0.76248516
0.76282536
0.76315249
0.76346697
0.76376924
0.76405972
0.76433883
0.76460698
0.7648646
0.76511208
0.76534983
0.76557822
0.76579766
0.76600849
0.7662111
0.76640583
0.76659302
0.76677301
0.76694612
0.76711267
0.76727296
0.76742729
0.76757593
0.76771916
0.76785725
0.76799045
0.76811899
0.76824313
0.76836307
0.76847903
0.76859124
0.76869988
0.76880517
0.7689073
0.76900649
0.76910295
0.76919688
0.7692885
0.76937804
0.76946569
0.76955164
0.76963607
0.7697191
0.76980085
0.76988139
0.76996076
0.76089421
0.76129535
0.76168162
0.76205343
0.76241116
0.76275522
0.76308605
0.76340407
0.76370971
0.7640034
0.76428558
0.76455667
0.76481708
0.76506722
0.76530751
0.76553832
0.76576006
0.76597309
0.76617779
0.76637452
0.76656361
0.76674541
0.76692025
0.76708844
0.7672503
0.76740612
0.76755619
0.76770078
0.76784017
0.76797461
0.76810435
0.76822962
0.76835066
0.76846769
0.76858091
0.76869054
0.76879679
0.76889985
0.76899993
0.76909725
0.769192
0.7692844
0.76937465
0.76946296
0.76954951
0.76963446
0.76971794
0.76980008
0.76988095
0.76996062
0.76080939
0.7612149
0.7616053
0.76198104
0.76234253
0.76269019
0.76302446
0.76334575
0.76365453
0.76395121
0.76423624
0.76451005
0.76477305
0.76502567
0.76526831
0.76550137
0.76572524
0.76594032
0.76614696
0.76634553
0.76653638
0.76671986
0.7668963
0.76706602
0.76722933
0.76738654
0.76753793
0.76768378
0.76782438
0.76795997
0.76809081
0.76821714
0.76833919
0.76845719
0.76857136
0.7686819
0.76878902
0.76889294
0.76899384
0.76909194
0.76918745
0.76928056
0.76937147
0.76946039
0.76954748
0.76963291
0.76971682
0.76979933
0.76988053
0.76996048
0.76073077
0.76114033
0.76153456
0.76191396
0.76227895
0.76262995
0.7629674
0.76329175
0.76360343
0.76390288
0.76419056
0.76446689
0.76473229
0.7649872
0.76523202
0.76546717
0.76569303
0.76590999
0.76611843
0.76631871
0.7665112
0.76669624
0.76687416
0.76704529
0.76720995
0.76736844
0.76752105
0.76766807
0.76780978
0.76794644
0.76807829
0.7682056
0.76832859
0.76844749
0.76856252
0.7686739
0.76878183
0.76888653
0.76898818
0.76908701
0.7691832
0.76927696
0.76936848
0.76945795
0.76954555
0.76963144
0.76971575
0.76979861
0.76988011
0.76996035
0.76065798
0.76107127
0.76146906
0.76185186
0.76222009
0.76257419
0.7629146
0.76324177
0.76355615
0.76385817
0.7641483
0.76442696
0.7646946
0.76495163
0.76519848
0.76543555
0.76566324
0.76588195
0.76609206
0.76629393
0.76648793
0.76667441
0.7668537
0.76702614
0.76719204
0.76735172
0.76750546
0.76765356
0.7677963
0.76793394
0.76806674
0.76819495
0.7683188
0.76843853
0.76855436
0.76866651
0.76877518
0.76888059
0.76898294
0.76908242
0.76917924
0.76927359
0.76936567
0.76945566
0.76954373
0.76963003
0.76971472
0.76979791
0.76987971
0.76996022
0.76059065
0.76100739
0.76140848
0.76179442
0.76216566
0.76252264
0.76286579
0.76319557
0.76351244
0.76381685
0.76410925
0.76439007
0.76465977
0.76491877
0.76516749
0.76540634
0.76563573
0.76585606
0.76606771
0.76627105
0.76646645
0.76665426
0.76683482
0.76700846
0.76717552
0.76733629
0.76749108
0.76764018
0.76778387
0.76792241
0.76805608
0.76818512
0.76830977
0.76843027
0.76854683
0.76865969
0.76876904
0.7688751
0.76897808
0.76907816
0.76917556
0.76927046
0.76936304
0.7694535
0.769542
0.7696287
0.76971374
0.76979724
0.76987933
0.7699601
0.76052844
0.76094837
0.7613525
0.76174136
0.76211539
0.76247502
0.7628207
0.76315291
0.76347209
0.7637787
0.76407319
0.76435602
0.76462762
0.76488844
0.76513888
0.76537939
0.76561035
0.76583217
0.76604524
0.76624994
0.76644663
0.76663567
0.7668174
0.76699216
0.76716028
0.76732206
0.76747782
0.76762784
0.76777241
0.76791179
0.76804626
0.76817606
0.76830145
0.76842265
0.76853989
0.76865339
0.76876337
0.76887003
0.76897358
0.76907422
0.76917214
0.76926754
0.76936059
0.76945148
0.76954038
0.76962744
0.7697128
0.76979661
0.76987896
0.76995998
0.76047101
0.76089389
0.76130084
0.76169239
0.76206899
0.76243108
0.76277911
0.76311355
0.76343486
0.7637435
0.76403994
0.76432461
0.76459798
0.76486047
0.76511251
0.76535454
0.76558695
0.76581015
0.76602454
0.76623049
0.76642837
0.76661854
0.76680136
0.76697715
0.76714625
0.76730896
0.76746561
0.76761648
0.76776185
0.76790201
0.76803722
0.76816773
0.76829379
0.76841563
0.76853349
0.76864759
0.76875814
0.76886535
0.76896943
0.76907058
0.76916898
0.76926483
0.76935831
0.7694496
0.76953886
0.76962625
0.76971193
0.76979601
0.76987862
0.76995987
0.76041805
0.76084365
0.76125321
0.76164725
0.76202622
0.76239058
0.76274077
0.76307728
0.76340056
0.76371108
0.7640093
0.76429568
0.76457067
0.76483471
0.76508823
0.76533166
0.7655654
0.76578988
0.76600548
0.76621258
0.76641156
0.76660278
0.76678659
0.76696333
0.76713333
0.76729691
0.76745438
0.76760603
0.76775215
0.76789302
0.76802891
0.76816006
0.76828674
0.76840918
0.76852761
0.76864225
0.76875333
0.76886105
0.76896561
0.76906721
0.76916605
0.76926231
0.76935619
0.76944784
0.76953744
0.76962514
0.7697111
0.76979544
0.76987829
0.76995976
0.76036927
0.76079739
0.76120935
0.76160568
0.76198685
0.76235329
0.76270549
0.76304389
0.76336899
0.76368124
0.76398111
0.76426906
0.76454555
0.76481101
0.76506589
0.76531061
0.76554559
0.76577124
0.76598795
0.76619612
0.76639611
0.76658829
0.76677302
0.76695063
0.76712147
0.76728584
0.76744406
0.76759643
0.76774324
0.76788476
0.76802127
0.76815302
0.76828027
0.76840326
0.76852221
0.76863735
0.76874891
0.76885708
0.76896208
0.76906411
0.76916335
0.76925999
0.76935422
0.76944621
0.76953612
0.76962411
0.76971033
0.76979491
0.76987798
0.76995966
0.7603244
0.76075483
0.76116901
0.76156746
0.76195064
0.76231901
0.76267305
0.76301321
0.76333997
0.76365382
0.76395521
0.7642446
0.76452246
0.76478924
0.76504536
0.76529127
0.76552739
0.76575411
0.76597185
0.766181
0.76638192
0.76657499
0.76676056
0.76693898
0.76711057
0.76727567
0.76743459
0.76758762
0.76773506
0.76787718
0.76801426
0.76814657
0.76827434
0.76839782
0.76851725
0.76863285
0.76874485
0.76885344
0.76895884
0.76906125
0.76916086
0.76925785
0.7693524
0.7694447
0.76953489
0.76962315
0.76970961
0.76979441
0.76987769
0.76995957
0.76028318
0.76071575
0.76113196
0.76153236
0.7619174
0.76228754
0.76264326
0.76298503
0.76331334
0.76362864
0.76393143
0.76422215
0.76450128
0.76476926
0.76502653
0.76527354
0.76551069
0.76573841
0.76595709
0.76616713
0.76636891
0.76656279
0.76674913
0.76692829
0.76710059
0.76726636
0.76742591
0.76757955
0.76772756
0.76787024
0.76800785
0.76814065
0.7682689
0.76839284
0.76851271
0.76862873
0.76874113
0.7688501
0.76895587
0.76905863
0.76915857
0.76925587
0.76935073
0.7694433
0.76953376
0.76962225
0.76970894
0.76979395
0.76987743
0.76995948
0.76024536
0.7606799
0.76109798
0.76150017
0.76188692
0.76225869
0.76261596
0.76295921
0.76328892
0.76360557
0.76390964
0.76420158
0.76448187
0.76475095
0.76500928
0.76525729
0.76549539
0.76572402
0.76594357
0.76615443
0.76635699
0.76655162
0.76673868
0.76691851
0.76709145
0.76725783
0.76741797
0.76757216
0.76772071
0.76786389
0.76800198
0.76813524
0.76826393
0.76838829
0.76850856
0.76862496
0.76873772
0.76884705
0.76895315
0.76905623
0.76915647
0.76925406
0.76934919
0.76944202
0.76953271
0.76962143
0.76970832
0.76979353
0.76987718
0.7699594
0.76021073
0.76064707
0.76106687
0.7614707
0.76185901
0.76223228
0.76259097
0.76293558
0.76326658
0.76358446
0.7638897
0.76418276
0.76446411
0.76473421
0.7649935
0.76524242
0.76548141
0.76571086
0.7659312
0.76614282
0.7663461
0.76654141
0.76672912
0.76690957
0.7670831
0.76725005
0.76741072
0.76756542
0.76771445
0.76785809
0.76799662
0.7681303
0.76825939
0.76838413
0.76850477
0.76862152
0.76873461
0.76884426
0.76895067
0.76905403
0.76915455
0.76925241
0.76934778
0.76944084
0.76953175
0.76962067
0.76970775
0.76979314
0.76987695
0.76995933
0.76017907
0.76061707
0.76103845
0.76144378
0.76183352
0.76220814
0.76256814
0.76291399
0.76324617
0.76356518
0.76387149
0.76416557
0.7644479
0.76471892
0.76497909
0.76522886
0.76546864
0.76569885
0.76591992
0.76613222
0.76633616
0.7665321
0.7667204
0.76690141
0.76707549
0.76724294
0.7674041
0.76755927
0.76770874
0.76785281
0.76799174
0.7681258
0.76825526
0.76838035
0.76850131
0.76861838
0.76873178
0.76884172
0.7689484
0.76905203
0.7691528
0.76925089
0.76934649
0.76943976
0.76953087
0.76961998
0.76970723
0.76979278
0.76987674
0.76995926
0.76015019
0.7605897
0.76101252
0.76141922
0.76181027
0.76218614
0.76254732
0.7628943
0.76322756
0.7635476
0.76385489
0.76414991
0.76443312
0.76470499
0.76496596
0.76521649
0.765457
0.76568791
0.76590964
0.76612257
0.76632711
0.76652361
0.76671246
0.76689399
0.76706855
0.76723648
0.76739808
0.76755367
0.76770355
0.767848
0.7679873
0.76812171
0.7682515
0.76837691
0.76849817
0.76861553
0.76872921
0.76883941
0.76894634
0.76905021
0.7691512
0.76924951
0.76934531
0.76943877
0.76953006
0.76961934
0.76970675
0.76979245
0.76987655
0.7699592
0.76012389
0.76056479
0.76098892
0.76139687
0.76178911
0.76216611
0.76252838
0.76287639
0.76321064
0.76353161
0.76383979
0.76413566
0.76441968
0.76469232
0.76495402
0.76520525
0.76544642
0.76567797
0.76590029
0.7661138
0.76631888
0.7665159
0.76670524
0.76688724
0.76706226
0.76723061
0.76739262
0.76754859
0.76769884
0.76784364
0.76798327
0.768118
0.76824809
0.76837378
0.76849533
0.76861295
0.76872687
0.76883731
0.76894447
0.76904856
0.76914976
0.76924826
0.76934424
0.76943788
0.76952933
0.76961876
0.76970632
0.76979215
0.76987638
0.76995915
0.76010002
0.76054219
0.76096751
0.76137659
0.7617699
0.76214793
0.76251118
0.76286013
0.76319527
0.7635171
0.76382609
0.76412273
0.76440748
0.76468082
0.76494319
0.76519505
0.76543683
0.76566894
0.76589182
0.76610585
0.76631142
0.76650892
0.7666987
0.76688113
0.76705655
0.76722529
0.76738766
0.76754399
0.76769457
0.76783968
0.76797962
0.76811464
0.768245
0.76837096
0.76849275
0.76861061
0.76872476
0.76883541
0.76894278
0.76904706
0.76914845
0.76924712
0.76934327
0.76943707
0.76952867
0.76961824
0.76970593
0.76979187
0.76987622
0.7699591
0.76007841
0.76052173
0.76094813
0.76135823
0.76175251
0.76213148
0.76249561
0.76284541
0.76318136
0.76350396
0.76381369
0.76411102
0.76439645
0.76467042
0.76493339
0.76518582
0.76542815
0.76566078
0.76588415
0.76609865
0.76630467
0.7665026
0.76669279
0.76687561
0.76705139
0.76722048
0.76738319
0.76753984
0.76769071
0.76783612
0.76797632
0.7681116
0.76824221
0.76836841
0.76849043
0.7686085
0.76872285
0.7688337
0.76894125
0.76904571
0.76914726
0.7692461
0.7693424
0.76943634
0.76952807
0.76961777
0.76970557
0.76979163
0.76987608
0.76995905
0.76005891
0.76050328
0.76093064
0.76134166
0.76173682
0.76211662
0.76248156
0.76283213
0.76316881
0.76349211
0.7638025
0.76410047
0.76438649
0.76466103
0.76492455
0.7651775
0.76542032
0.76565343
0.76587724
0.76609217
0.76629859
0.7664969
0.76668746
0.76687063
0.76704675
0.76721615
0.76737916
0.76753609
0.76768725
0.76783291
0.76797336
0.76810887
0.76823971
0.76836612
0.76848834
0.7686066
0.76872114
0.76883216
0.76893988
0.7690445
0.7691462
0.76924518
0.76934162
0.76943568
0.76952753
0.76961734
0.76970525
0.76979141
0.76987595
0.76995901
0.76004141
0.76048672
0.76091493
0.76132676
0.7617227
0.76210326
0.76246892
0.76282018
0.76315752
0.76348145
0.76379244
0.76409098
0.76437754
0.7646526
0.76491661
0.76517002
0.76541328
0.76564681
0.76587103
0.76608634
0.76629313
0.76649179
0.76668268
0.76686616
0.76704258
0.76721227
0.76737555
0.76753274
0.76768413
0.76783003
0.7679707
0.76810643
0.76823746
0.76836406
0.76848646
0.7686049
0.76871961
0.76883079
0.76893865
0.76904341
0.76914525
0.76924436
0.76934091
0.76943509
0.76952705
0.76961696
0.76970496
0.76979121
0.76987583
0.76995897
0.76002578
0.76047192
0.76090088
0.76131341
0.76171005
0.76209128
0.76245759
0.76280947
0.76314741
0.7634719
0.76378343
0.76408247
0.76436952
0.76464504
0.76490949
0.76516333
0.76540698
0.7656409
0.76586547
0.76608113
0.76628825
0.76648722
0.7666784
0.76686217
0.76703885
0.76720879
0.76737232
0.76752974
0.76768135
0.76782746
0.76796833
0.76810425
0.76823546
0.76836223
0.7684848
0.76860339
0.76871824
0.76882956
0.76893756
0.76904244
0.7691444
0.76924362
0.76934029
0.76943457
0.76952662
0.76961662
0.76970471
0.76979103
0.76987573
0.76995894
0.76001193
0.76045877
0.76088836
0.76130151
0.76169876
0.76208059
0.76244748
0.76279992
0.76313839
0.76346339
0.76377539
0.7640749
0.76436238
0.76463831
0.76490315
0.76515736
0.76540137
0.76563562
0.76586052
0.76607648
0.7662839
0.76648314
0.76667459
0.76685861
0.76703553
0.76720571
0.76736945
0.76752707
0.76767888
0.76782518
0.76796623
0.76810231
0.76823368
0.76836061
0.76848332
0.76860205
0.76871703
0.76882847
0.76893659
0.76904159
0.76914365
0.76924297
0.76933973
0.7694341
0.76952624
0.76961632
0.76970448
0.76979088
0.76987564
0.76995891
0.7599998
0.76044716
0.76087728
0.76129096
0.76168875
0.76207111
0.76243851
0.76279145
0.76313039
0.76345584
0.76376827
0.76406817
0.76435604
0.76463233
0.76489753
0.76515207
0.7653964
0.76563095
0.76585614
0.76607237
0.76628004
0.76647954
0.76667122
0.76685546
0.7670326
0.76720297
0.76736691
0.76752472
0.7676767
0.76782316
0.76796437
0.7681006
0.76823212
0.76835917
0.76848201
0.76860086
0.76871596
0.76882751
0.76893574
0.76904083
0.76914299