/*--------------------------------*- C++ -*----------------------------------*\
| =========                 |                                                 |
| \\      /  F ield         | OpenFOAM: The Open Source CFD Toolbox           |
|  \\    /   O peration     | Version:  2312                                  |
|   \\  /    A nd           | Website:  www.openfoam.com                      |
|    \\/     M anipulation  |                                                 |
\*---------------------------------------------------------------------------*/
FoamFile
{
    version     2.0;
    format      ascii;
    arch        "LSB;label=32;scalar=64";
    class       volScalarField;
    location    "0.06";
    object      nut;
}
// * * * * * * * * * * * * * * * * * * * * * * * * * * * * * * * * * * * * * //

dimensions      [0 2 -1 0 0 0 0];

internalField   nonuniform List<scalar> 
3257
(
0.050429317
0.050791901
0.051153622
0.051514187
0.051873409
0.052231123
0.052587183
0.052941455
0.053293822
0.053644176
0.053992426
0.054338486
0.054682282
0.055023748
0.055362824
0.055699455
0.056033595
0.056365207
0.056694281
0.057020885
0.05734533
0.057668686
0.057994277
0.058332196
0.05871295
0.059230389
0.060198396
0.060825689
0.061544322
0.062086016
0.06257265
0.062988625
0.063350295
0.06367226
0.063960231
0.064221375
0.06445961
0.064678119
0.064878565
0.065060254
0.065226121
0.065379439
0.065521916
0.065653159
0.065768704
0.065853417
0.065861894
0.065932993
0.066040254
0.066170336
0.066313223
0.050403089
0.050764948
0.051126013
0.051486004
0.051844737
0.052202046
0.052557784
0.052911816
0.053264021
0.05361429
0.053962526
0.05430864
0.054652553
0.054994192
0.05533349
0.055670383
0.056004811
0.056336717
0.056666055
0.056992816
0.057317102
0.057639361
0.057960944
0.058285499
0.058621923
0.058988613
0.059408581
0.059823972
0.06026781
0.060700583
0.061131057
0.061544868
0.061940311
0.062315484
0.062669552
0.063002937
0.063316176
0.063610189
0.063885579
0.064141939
0.064375903
0.064592914
0.064797199
0.064992186
0.065180032
0.065360843
0.065534534
0.065716827
0.06591009
0.0661117
0.066316791
0.050330133
0.050691777
0.051052747
0.05141277
0.05177166
0.052129252
0.052485396
0.052839954
0.053192803
0.053543829
0.05389293
0.054240014
0.054584996
0.054927799
0.055268351
0.055606584
0.055942435
0.056275845
0.056606758
0.056935138
0.057260994
0.057584465
0.05790596
0.05822648
0.058548077
0.058874107
0.059207887
0.059546868
0.059890865
0.060235412
0.060582232
0.060928188
0.061271129
0.0616085
0.061938368
0.062259206
0.062570001
0.062870176
0.063159534
0.063438201
0.063706608
0.063966476
0.06422042
0.064471608
0.064723201
0.064977695
0.065236859
0.065502954
0.065776352
0.066055352
0.066336384
0.050226959
0.050588347
0.050949232
0.051309347
0.051668506
0.052026542
0.052383302
0.052738646
0.053092444
0.053444579
0.053794945
0.054143442
0.054489981
0.05483448
0.055176863
0.05551706
0.055855007
0.056190642
0.05652391
0.056854763
0.057183184
0.057509189
0.057832882
0.058154526
0.058474619
0.058793879
0.059113045
0.059432285
0.059751482
0.060069807
0.060386942
0.060702265
0.061014984
0.061324277
0.061629245
0.061929104
0.062223284
0.062511546
0.062794094
0.06307167
0.063345636
0.063618073
0.063891727
0.064169731
0.064455096
0.064750084
0.065055786
0.065372153
0.065698039
0.066031402
0.066369354
0.050098984
0.050460113
0.050820948
0.051181229
0.051540767
0.051899396
0.052256959
0.052613311
0.05296832
0.053321862
0.053673825
0.054024105
0.054372607
0.054719244
0.055063937
0.055406611
0.055747202
0.056085648
0.056421891
0.056755892
0.05708761
0.057417027
0.057744153
0.058069042
0.058391804
0.058712593
0.059031558
0.059348741
0.059664028
0.059977128
0.060287698
0.060595294
0.060899425
0.0611996
0.061495363
0.061786386
0.062072567
0.062354149
0.06263185
0.062906987
0.063181547
0.063458191
0.06374009
0.064030581
0.064332626
0.06464821
0.064977946
0.065321074
0.065675824
0.066039917
0.066410761
0.049950896
0.050311851
0.050672744
0.051033319
0.051393391
0.051752789
0.052111355
0.05246894
0.052825407
0.053180628
0.053534484
0.053886868
0.054237677
0.054586821
0.054934215
0.055279782
0.055623454
0.055965167
0.056304871
0.056642514
0.056978055
0.05731146
0.057642706
0.057971778
0.058298673
0.058623386
0.058945893
0.059266115
0.059583893
0.059898977
0.060211035
0.060519672
0.060824457
0.061124971
0.061420869
0.061711961
0.061998319
0.062280403
0.06255919
0.062836295
0.06311403
0.063395355
0.063683664
0.06398238
0.064294404
0.064621542
0.064964171
0.065321281
0.065690914
0.066070711
0.066458177
0.049786808
0.050147778
0.050508924
0.050869999
0.051230817
0.051591206
0.051951006
0.052310067
0.052668245
0.053025409
0.053381435
0.053736209
0.054089626
0.054441589
0.054792009
0.055140805
0.055487905
0.055833249
0.056176776
0.056518437
0.056858184
0.057195978
0.057531778
0.057865545
0.058197233
0.058526784
0.058854111
0.059179085
0.059501518
0.059821154
0.06013767
0.060450688
0.060759805
0.061064631
0.061364859
0.061660349
0.061951236
0.062238061
0.062521902
0.06280448
0.063088204
0.063376096
0.063671547
0.063977894
0.064297881
0.064633142
0.064983914
0.065349131
0.065726856
0.066114785
0.066510525
0.049610437
0.049971696
0.050333363
0.050695203
0.05105703
0.051418672
0.051779967
0.052140761
0.052500909
0.052860275
0.053218731
0.053576158
0.053932447
0.054287495
0.054641209
0.054993507
0.055344315
0.055693564
0.056041194
0.056387152
0.056731388
0.057073855
0.057414507
0.05775329
0.058090143
0.058424983
0.058757701
0.059088146
0.059416118
0.059741359
0.060063553
0.060382337
0.060697327
0.061008158
0.061314549
0.06161639
0.061913848
0.062207499
0.062498448
0.062788429
0.06307983
0.063375602
0.063679
0.063993165
0.064320624
0.064662821
0.065019896
0.065390806
0.065773729
0.066166521
0.066566947
0.049425368
0.049787224
0.050149713
0.050512609
0.050875726
0.051238893
0.051601946
0.051964729
0.052327095
0.052688904
0.053050025
0.053410334
0.053769719
0.05412807
0.054485297
0.054841311
0.055196033
0.055549393
0.055901328
0.056251781
0.056600701
0.056948037
0.057293736
0.05763774
0.057979978
0.058320358
0.058658762
0.05899503
0.059328958
0.059660292
0.059988722
0.060313901
0.060635464
0.060953066
0.061266453
0.061575536
0.061880509
0.062181959
0.062480989
0.062779302
0.06307921
0.063383525
0.063695306
0.064017455
0.064352256
0.064700972
0.065063668
0.065439356
0.065826378
0.066222795
0.066626584
0.049235118
0.04959787
0.049961468
0.050325694
0.050690365
0.051055307
0.051420357
0.051785357
0.052150157
0.052514613
0.052878593
0.053241969
0.05360462
0.053966447
0.054327345
0.054687225
0.055046005
0.055403612
0.055759981
0.056115053
0.056468774
0.056821089
0.057171946
0.05752128
0.057869017
0.058215062
0.058559292
0.058901548
0.059241626
0.059579275
0.059914199
0.060246061
0.060574516
0.060899241
0.061220002
0.061536735
0.061849647
0.062159331
0.062466871
0.062773914
0.063082664
0.063395773
0.063716075
0.064046225
0.064388272
0.06474331
0.065111355
0.065491494
0.065882244
0.066281889
0.066688633
0.049043051
0.04940695
0.049771898
0.050137685
0.050504126
0.050871048
0.051238287
0.051605681
0.051973079
0.052340337
0.052707316
0.053073884
0.053439929
0.053805336
0.054170003
0.054533836
0.054896751
0.055258674
0.055619538
0.05597928
0.056337846
0.056695179
0.057051223
0.057405914
0.057759177
0.058110914
0.058461004
0.058809289
0.059155571
0.059499604
0.059841103
0.060179748
0.060515209
0.060847185
0.061175464
0.0615
0.061821012
0.062139087
0.06245528
0.062771166
0.063088831
0.063410744
0.063739519
0.064077569
0.064426722
0.06478793
0.065161177
0.065545638
0.065940004
0.066342776
0.066752381
0.048852207
0.049217442
0.049583921
0.049951438
0.050319807
0.050688855
0.051058414
0.051428324
0.051798429
0.052168582
0.05253864
0.052908479
0.053277973
0.053647009
0.05401548
0.054383292
0.05475036
0.055116605
0.055481959
0.055846359
0.056209746
0.056572066
0.056933261
0.057293265
0.057652004
0.058009383
0.058365281
0.058719545
0.059071983
0.05942236
0.059770401
0.060115802
0.060458252
0.06079747
0.061133264
0.061465604
0.061794717
0.062121178
0.062446002
0.062770683
0.063097174
0.063427766
0.063764854
0.064110621
0.064466697
0.064833913
0.065212239
0.065600942
0.065998882
0.066404762
0.066817212
0.048665147
0.049031847
0.049399978
0.049769334
0.05013973
0.05051099
0.050882946
0.051255433
0.051628296
0.05200138
0.052374551
0.052747674
0.053120622
0.053493278
0.053865537
0.0542373
0.05460848
0.054978997
0.055348782
0.055717769
0.0560859
0.056453119
0.056819367
0.057184581
0.057548686
0.05791159
0.058273177
0.058633299
0.058991772
0.059348371
0.059702836
0.060054878
0.060404206
0.060750558
0.061093763
0.061433806
0.061770914
0.062105649
0.062438971
0.06277229
0.063107425
0.063446486
0.063791657
0.064144906
0.064507685
0.064880727
0.065264
0.065656868
0.066058344
0.066467314
0.066882588
0.048483862
0.048852105
0.049221957
0.049593212
0.049965684
0.050339194
0.050713572
0.051088653
0.051464273
0.051840285
0.052216549
0.052592924
0.052969283
0.053345507
0.053721489
0.054097129
0.054472336
0.054847031
0.055221141
0.055594601
0.05596735
0.056339333
0.056710492
0.057080763
0.057450075
0.057818339
0.058185444
0.058551248
0.058915577
0.059278218
0.059638925
0.059997427
0.060353453
0.060706762
0.061057203
0.061404769
0.061749688
0.062092499
0.062434113
0.062775844
0.063119375
0.063466639
0.063819616
0.064180077
0.064549317
0.064927986
0.065316064
0.065713003
0.066117964
0.066529988
0.066948046
0.048309762
0.04867959
0.049051195
0.049424372
0.04979893
0.050174692
0.050551482
0.050929133
0.051307478
0.051686376
0.052065675
0.052445236
0.052824929
0.053204634
0.053584241
0.053963648
0.054342764
0.054721506
0.055099802
0.055477584
0.055854794
0.056231372
0.056607263
0.056982406
0.057356731
0.057730153
0.058102566
0.058473838
0.058843802
0.05921226
0.059578981
0.059943715
0.060306209
0.060666244
0.061023684
0.061378538
0.06173103
0.062081669
0.062431311
0.062781175
0.063132806
0.063487965
0.063848441
0.064215822
0.064591267
0.064975356
0.065368085
0.065768995
0.066177372
0.0665924
0.067013181
0.048143722
0.048515153
0.048888521
0.049263618
0.049640252
0.05001824
0.050397407
0.050777579
0.051158598
0.051540311
0.051922566
0.052305222
0.052688149
0.053071223
0.053454332
0.053837374
0.054220255
0.054602892
0.054985211
0.055367144
0.05574863
0.056129612
0.056510035
0.056889839
0.057268958
0.057647311
0.058024798
0.058401294
0.058776646
0.059150667
0.059523143
0.059893842
0.060262536
0.060629029
0.060993202
0.06135507
0.061714851
0.062073026
0.062430391
0.062788068
0.063147468
0.063510187
0.063877836
0.064251835
0.06463322
0.065022518
0.065419743
0.065824515
0.066236235
0.066654202
0.067077633
0.047986177
0.048359217
0.048734344
0.049111345
0.049490027
0.049870204
0.050251699
0.050634331
0.051017952
0.051402398
0.051787515
0.052173162
0.052559206
0.052945523
0.053331999
0.053718529
0.054105019
0.054491385
0.05487755
0.055263446
0.055649013
0.056034194
0.056418934
0.056803176
0.057186856
0.057569898
0.05795221
0.058333672
0.058714144
0.059093451
0.0594714
0.059847783
0.060222393
0.060595052
0.060965659
0.061334237
0.061700993
0.06206638
0.06243113
0.062796272
0.063163087
0.063533012
0.063907494
0.064287803
0.064674865
0.065069161
0.065470725
0.06587925
0.06629423
0.066715068
0.067141069
0.047837223
0.048211873
0.048588747
0.04896763
0.049348325
0.049730646
0.05011441
0.050499439
0.050885582
0.051272669
0.051660548
0.052049075
0.052438115
0.052827542
0.053217242
0.053607107
0.053997043
0.054386964
0.054776793
0.055166461
0.055555907
0.055945076
0.056333912
0.056722363
0.057110365
0.05749785
0.057884728
0.058270888
0.058656199
0.05904051
0.059423647
0.059805421
0.060185646
0.060564165
0.06094089
0.061315852
0.061689248
0.062061497
0.062433274
0.062805512
0.063179369
0.063556137
0.063937107
0.064323415
0.06471589
0.065114975
0.065520723
0.065932888
0.066351046
0.06677468
0.067203172
0.047696721
0.048072976
0.048451583
0.048832322
0.049214994
0.04959941
0.049985382
0.050372741
0.050761323
0.051150959
0.051541497
0.05193279
0.052324702
0.052717106
0.053109885
0.053502932
0.053896151
0.054289453
0.054682762
0.05507601
0.055469134
0.055862079
0.056254792
0.056647222
0.057039309
0.057430987
0.057822168
0.058212753
0.058602632
0.058991668
0.059379703
0.05976657
0.060152102
0.060536163
0.06091868
0.061299687
0.061679371
0.062058121
0.06243655
0.062815503
0.063196021
0.063579259
0.06396637
0.064358365
0.064755993
0.065159659
0.065569433
0.065985122
0.066406369
0.066832721
0.067263621
0.047564382
0.047942236
0.048322557
0.048705124
0.049089734
0.049476196
0.049864315
0.050253933
0.050644872
0.051036967
0.051430062
0.051824009
0.052218671
0.05261392
0.053009637
0.053405714
0.053802053
0.054198567
0.054595177
0.054991815
0.055388419
0.055784934
0.056181309
0.056577493
0.056973431
0.057369051
0.057764278
0.05815903
0.058553208
0.058946689
0.059339335
0.059730996
0.060121527
0.060510811
0.060898787
0.061285494
0.061671109
0.062055987
0.062440686
0.062825965
0.063212756
0.06360209
0.063994992
0.064392366
0.064794882
0.065202919
0.065616559
0.06603565
0.066459889
0.066888877
0.067322101
0.047439832
0.047819274
0.04820129
0.048585654
0.048972162
0.049360618
0.049750827
0.050142632
0.050535849
0.050930312
0.051325863
0.051722355
0.052119648
0.052517612
0.052916129
0.053315089
0.053714393
0.054113954
0.054513691
0.054913537
0.055313429
0.055713315
0.056113143
0.056512865
0.056912418
0.05731174
0.057710771
0.058109438
0.058507653
0.058905308
0.059302281
0.059698444
0.060093669
0.060487857
0.06088096
0.061273021
0.061664206
0.062054837
0.062445419
0.062836633
0.063229309
0.063624364
0.06402271
0.064425151
0.064832293
0.065244486
0.065661822
0.066084183
0.066511309
0.06694284
0.067378299
0.047322661
0.047703676
0.048087364
0.048473492
0.048861855
0.049252253
0.049644493
0.050038414
0.050433829
0.050830571
0.051228482
0.051627412
0.05202722
0.052427776
0.052828959
0.05323066
0.053632779
0.054035227
0.054437924
0.054840802
0.0552438
0.055646864
0.056049946
0.056452992
0.056855938
0.057258738
0.057661339
0.058063678
0.058465677
0.058867243
0.059268271
0.059668648
0.060068269
0.060467048
0.060864952
0.061262023
0.061658417
0.062054428
0.062450509
0.062847268
0.063245443
0.063645848
0.064049291
0.064456491
0.064867992
0.065284121
0.065704974
0.066130462
0.066560356
0.066994326
0.067431925
0.047212456
0.047595023
0.047980353
0.048368209
0.048758383
0.049150668
0.04954488
0.049940846
0.05033838
0.050737314
0.051137489
0.051538752
0.051940963
0.05234399
0.052747712
0.053152017
0.053556806
0.05396199
0.054367488
0.054773231
0.055179159
0.055585219
0.055991363
0.056397524
0.056803656
0.05720972
0.057615669
0.058021448
0.058426989
0.058832214
0.059237033
0.05964135
0.060045076
0.060448143
0.060850525
0.06125227
0.06165352
0.062054543
0.062455744
0.062857664
0.063260959
0.063666346
0.064074545
0.064486195
0.064901787
0.065321624
0.065745807
0.066174264
0.066606794
0.067043091
0.06748273
0.047108815
0.047492908
0.047879846
0.04826939
0.048661326
0.049055444
0.049451563
0.049849503
0.050249077
0.050650117
0.051052461
0.051455957
0.051860462
0.052265843
0.052671979
0.053078758
0.053486079
0.053893852
0.054301998
0.054710446
0.055119138
0.055528021
0.055937036
0.056346122
0.056755246
0.05716437
0.057573456
0.057982454
0.058391308
0.058799951
0.059208309
0.059616301
0.060023853
0.060430913
0.060837464
0.061243554
0.061649317
0.062054993
0.062460944
0.062867651
0.063275693
0.063685706
0.064098324
0.064514119
0.064933534
0.065356848
0.065784162
0.066215421
0.066650443
0.067088945
0.067530516
0.04701136
0.047396945
0.047785453
0.04817664
0.048570287
0.04896618
0.049364141
0.049763982
0.050165518
0.050568577
0.050972998
0.051378626
0.051785318
0.052192941
0.052601371
0.053010497
0.053420217
0.05383044
0.054241087
0.054652089
0.055063386
0.055474924
0.055886631
0.056298465
0.056710394
0.057122387
0.057534407
0.057946416
0.058358365
0.058770199
0.059181855
0.05959327
0.060004383
0.060415154
0.060825575
0.061235694
0.061645636
0.062055619
0.062465963
0.062877096
0.063289526
0.063703816
0.064120527
0.064540168
0.064963138
0.065389695
0.065819938
0.066253823
0.066691187
0.067131762
0.067575157
0.046919738
0.047306777
0.047696812
0.048089594
0.048484898
0.048882504
0.04928224
0.049683908
0.050087325
0.050492317
0.050898722
0.051306384
0.051715159
0.052124913
0.052535522
0.052946873
0.053358864
0.053771404
0.054184413
0.054597823
0.055011575
0.055425601
0.055839836
0.056254249
0.056668809
0.057083487
0.057498254
0.057913076
0.058327913
0.058742722
0.059157451
0.059572048
0.059986468
0.060400681
0.060814686
0.061228534
0.061642338
0.062056295
0.06247069
0.0628859
0.063302375
0.063720608
0.064141097
0.064564293
0.064990556
0.065420123
0.065853091
0.066289424
0.066728975
0.06717149
0.067616596
0.046833622
0.047222071
0.047613588
0.048007914
0.048404818
0.048804074
0.049205514
0.049608933
0.05001415
0.050420989
0.050829286
0.051238885
0.051649641
0.052061418
0.052474093
0.05288755
0.053301689
0.053716418
0.054131656
0.054547335
0.054963395
0.055379754
0.055796365
0.056213196
0.05663022
0.057047413
0.057464747
0.057882196
0.058299728
0.058717307
0.059134893
0.059552447
0.059969934
0.060387334
0.060804654
0.061221943
0.061639307
0.062056922
0.062475044
0.062894002
0.063314194
0.063736052
0.064160017
0.064586488
0.065015791
0.065448142
0.065883633
0.066322237
0.066763819
0.067208144
0.067654851
0.046752704
0.047142518
0.047535474
0.047931291
0.048329733
0.048730573
0.049133644
0.049538738
0.049945672
0.050354271
0.050764369
0.05117581
0.051588446
0.052002142
0.052416772
0.052832223
0.053248391
0.053665185
0.054082524
0.054500341
0.054918564
0.055337113
0.055755952
0.05617505
0.056594382
0.057013926
0.057433659
0.05785356
0.058273603
0.05869376
0.059114003
0.0595343
0.059954628
0.060374975
0.060795354
0.061215814
0.061636453
0.06205743
0.062478971
0.062901367
0.063324966
0.06375015
0.064177306
0.064606788
0.065038888
0.065473804
0.065911625
0.066352328
0.066795792
0.067241797
0.067690002
0.046676687
0.047067837
0.047462188
0.04785944
0.048259356
0.048661712
0.049066339
0.049473029
0.049881598
0.05029187
0.050703679
0.051116866
0.051531284
0.051946797
0.052363277
0.05278061
0.053198692
0.053617432
0.05403675
0.054456577
0.054876825
0.055297431
0.055718359
0.05613958
0.056561072
0.056982813
0.057404786
0.057826973
0.058249355
0.058671911
0.059094619
0.059517459
0.059940416
0.060363485
0.060786684
0.061210061
0.061633709
0.062057769
0.062482443
0.062907986
0.063334704
0.063762932
0.064193011
0.064625255
0.065059924
0.0654972
0.065937165
0.066379805
0.066825009
0.067272575
0.067722179
0.046605264
0.046997795
0.047393479
0.047792105
0.048193425
0.048597224
0.049003329
0.049411535
0.049821656
0.050233516
0.050646946
0.051061787
0.051477891
0.051895119
0.052313345
0.052732453
0.05315234
0.053572912
0.05399409
0.054415803
0.054837949
0.055260482
0.055683367
0.056106575
0.056530086
0.05695388
0.057377943
0.057802261
0.05822682
0.058651605
0.059076601
0.059501797
0.059927183
0.060352763
0.060778559
0.061204618
0.061631025
0.062057909
0.062485448
0.062913869
0.063343437
0.063774449
0.064207201
0.064641975
0.065079001
0.065518444
0.065960384
0.066404808
0.066851621
0.067300636
0.067751549
0.046932135
0.047329125
0.047729048
0.048131694
0.04853686
0.048944366
0.049354007
0.049765598
0.050178959
0.050593922
0.051010326
0.051428021
0.051846868
0.05226674
0.05268752
0.053109104
0.053531399
0.053954327
0.054377799
0.054801725
0.055226064
0.05565078
0.056075847
0.056501244
0.056926955
0.057352966
0.057779269
0.058205852
0.058632706
0.059059824
0.0594872
0.059914831
0.060342726
0.06077091
0.061199431
0.061628367
0.062057835
0.062487993
0.062919041
0.063351212
0.063784765
0.064219962
0.064657051
0.065096238
0.065537672
0.065981427
0.066427498
0.0668758
0.067326164
0.067778303
0.046870832
0.047268924
0.047670043
0.048073934
0.048480387
0.048889216
0.049300213
0.049713192
0.050127971
0.05054438
0.050962257
0.051381452
0.051801823
0.052223244
0.052645596
0.053068775
0.053492688
0.053917255
0.054342371
0.054767964
0.055193992
0.055620421
0.056047224
0.056474382
0.056901879
0.057329707
0.057757855
0.05818632
0.058615096
0.05904418
0.059473571
0.059903274
0.060333302
0.060763682
0.061194461
0.061625713
0.062057544
0.062490093
0.062923538
0.063358084
0.063793957
0.064231388
0.064670595
0.065111763
0.065555026
0.066000454
0.066448045
0.066897727
0.06734935
0.06780264
0.046813484
0.047212625
0.047614863
0.048019923
0.048427588
0.048837662
0.049249937
0.049664223
0.050080338
0.050498108
0.050917372
0.051337977
0.051759782
0.052182657
0.052606485
0.05303116
0.053456589
0.053882688
0.054309342
0.054736494
0.0551641
0.055592128
0.056020551
0.056449351
0.056878514
0.057308031
0.057737897
0.058168109
0.058598666
0.05902957
0.059460825
0.059892439
0.060324431
0.060756828
0.061189679
0.06162305
0.062057039
0.062491772
0.062927404
0.063364116
0.063802106
0.064241578
0.064682724
0.065125708
0.065570653
0.066017623
0.066466622
0.066917587
0.067370386
0.067824761
0.046759857
0.047160001
0.047563294
0.047969452
0.048378255
0.0487895
0.049202976
0.049618491
0.050035861
0.050454911
0.050875477
0.051297406
0.051720555
0.052144795
0.052570006
0.052996083
0.053422932
0.053850457
0.054278549
0.054707157
0.055136237
0.055565756
0.05599569
0.056426019
0.056856732
0.057287821
0.057719282
0.058151115
0.058583324
0.059015912
0.059448888
0.059882265
0.060316063
0.060750313
0.061185061
0.061620372
0.062056334
0.062493058
0.062930685
0.063369372
0.063809295
0.064250632
0.064693552
0.065138204
0.065584696
0.066033092
0.066483396
0.066935558
0.067389459
0.067844859
0.046709755
0.047110849
0.047515134
0.047922323
0.048332194
0.048744537
0.04915914
0.049575808
0.049994356
0.050414606
0.050836393
0.051259562
0.051683971
0.052109488
0.052535993
0.052963381
0.053391558
0.05382041
0.054249844
0.054679809
0.055110263
0.055541172
0.055972512
0.056404265
0.056836419
0.057268968
0.057701909
0.058135246
0.058568984
0.059003129
0.059437694
0.059872696
0.060308156
0.060744107
0.061180594
0.061617679
0.062055441
0.062493984
0.062933429
0.063373918
0.063815604
0.064258646
0.064703193
0.065149376
0.065597295
0.066047009
0.066498526
0.066951806
0.067406745
0.067863113
0.04666299
0.047064979
0.047470196
0.04787835
0.048289221
0.048702592
0.049118251
0.049535998
0.049955648
0.050377021
0.050799951
0.051224281
0.051649867
0.052076578
0.052504292
0.052932904
0.053362318
0.053792405
0.05422309
0.054654319
0.055086052
0.055518255
0.055950903
0.056383979
0.056817471
0.057251375
0.05768569
0.05812042
0.058555571
0.058991156
0.059427187
0.059863685
0.060300673
0.060738185
0.061176265
0.061614972
0.062054379
0.06249458
0.062935684
0.063377817
0.063821114
0.064265714
0.064711752
0.065159343
0.065608579
0.066059515
0.066512162
0.066966488
0.067422404
0.06787969
0.046619384
0.047022211
0.047428299
0.047837357
0.048249162
0.048663494
0.049080138
0.049498895
0.049919575
0.050341997
0.050765994
0.051191408
0.051618094
0.052045919
0.052474761
0.052904514
0.053335076
0.053766314
0.054198161
0.054630567
0.05506349
0.055496894
0.055930757
0.056365061
0.056799795
0.057234955
0.057670542
0.058106561
0.05854302
0.058979933
0.059417316
0.059855191
0.060293583
0.060732527
0.061172066
0.061612256
0.062053166
0.06249488
0.062937497
0.06338113
0.063825897
0.064271924
0.064719328
0.065168216
0.065618668
0.066070738
0.066524439
0.066979746
0.067436584
0.06789474
0.046578767
0.046982375
0.047389275
0.047799174
0.048211851
0.04862708
0.049044644
0.049464342
0.049885983
0.050309384
0.050734376
0.0511608
0.051588511
0.052017373
0.052447267
0.052878084
0.053309707
0.053742014
0.054174943
0.054608442
0.055042468
0.055476988
0.055911978
0.056347421
0.056783305
0.057219629
0.057656392
0.058093602
0.058531269
0.058969408
0.059408037
0.059847178
0.06028686
0.060727117
0.061167992
0.061609538
0.06205182
0.062494915
0.062938913
0.063383913
0.063830024
0.064277356
0.064726015
0.065176095
0.065627672
0.066080795
0.066535479
0.066991708
0.067449416
0.067908398
0.046540973
0.046945306
0.047352962
0.047763645
0.048177132
0.048593196
0.049011617
0.049432192
0.049854727
0.05027904
0.050704958
0.051132323
0.051560987
0.051990815
0.052421685
0.05285349
0.053286096
0.053719396
0.054153328
0.05458784
0.05502289
0.055458444
0.055894477
0.056330974
0.056767923
0.057205322
0.057643173
0.058081484
0.058520265
0.058959534
0.059399309
0.059839615
0.06028048
0.060721941
0.061164039
0.061606825
0.062050359
0.062494714
0.062939971
0.06338622
0.063833559
0.064282086
0.064731896
0.065183075
0.065635692
0.066089792
0.066545396
0.067002489
0.067461018
0.067920784
0.046505845
0.046910849
0.047319206
0.047730616
0.048144857
0.048561697
0.048980915
0.049402305
0.049825671
0.050250831
0.050677611
0.051105849
0.051535399
0.051966123
0.052397899
0.052830619
0.053264135
0.053698355
0.054133216
0.054568667
0.055004664
0.055441174
0.055878173
0.056315644
0.056753577
0.05719197
0.057630825
0.05807015
0.058509958
0.058950267
0.059391096
0.059832472
0.060274424
0.060716987
0.061160204
0.061604122
0.0620488
0.062494305
0.06294071
0.063388099
0.06383656
0.064286181
0.064737047
0.065189238
0.065642817
0.066097827
0.066554288
0.067012193
0.067471498
0.067932005
0.046473233
0.046878854
0.047287859
0.047699943
0.048114884
0.048532444
0.048952402
0.049374548
0.049798687
0.050224633
0.050652211
0.05108126
0.051511631
0.051943186
0.052375803
0.052809367
0.053243724
0.053678795
0.054114516
0.054550834
0.054987706
0.0554251
0.055862991
0.056301361
0.056740202
0.057179511
0.057619291
0.058059551
0.058500304
0.058941569
0.059383367
0.059825725
0.060268672
0.060712245
0.061156484
0.061601438
0.06204716
0.062493713
0.062941166
0.063389595
0.06383908
0.064289702
0.064741539
0.065194662
0.065649129
0.066104983
0.066562245
0.067020913
0.067480948
0.067942157
0.04644299
0.04684918
0.047258783
0.047671491
0.04808708
0.048505307
0.04892595
0.049348797
0.049773652
0.050200325
0.050628644
0.051058443
0.051489574
0.051921899
0.052355294
0.052789634
0.053224769
0.053660626
0.05409714
0.054534258
0.054971939
0.055410147
0.05584886
0.056288059
0.056727736
0.057167888
0.05760852
0.058049639
0.058491262
0.058933405
0.059376092
0.05981935
0.060263209
0.060707706
0.06115288
0.061598778
0.062045452
0.062492961
0.06294137
0.063390748
0.063841169
0.064292707
0.064745433
0.065199414
0.065654702
0.06611134
0.066569349
0.067028731
0.067489454
0.067951325
0.04641498
0.04682169
0.047231843
0.047645127
0.048061316
0.048480161
0.048901438
0.049324935
0.04975045
0.050177797
0.0506068
0.051037294
0.051469127
0.051902163
0.052336277
0.052771329
0.053207183
0.053643764
0.054081009
0.054518865
0.054957289
0.055396248
0.055835716
0.056275678
0.056716123
0.057157051
0.057598465
0.058040374
0.058482794
0.058925743
0.059369245
0.059813327
0.060258021
0.060703361
0.061149389
0.061596148
0.062043691
0.062492071
0.062941351
0.063391594
0.06384287
0.064295246
0.064748788
0.065203556
0.065659604
0.066116968
0.066575673
0.067035722
0.067497091
0.067959588
0.046389069
0.046796253
0.047206912
0.047620729
0.048037472
0.048456889
0.048878752
0.049302848
0.049728974
0.050156943
0.050586577
0.051017711
0.051450193
0.051883884
0.052318661
0.052754367
0.053190882
0.053628129
0.054066047
0.054504581
0.054943689
0.055383336
0.055823499
0.056264161
0.056705313
0.057146952
0.057589083
0.058031717
0.058474867
0.058918554
0.059362802
0.059807638
0.060253093
0.060699204
0.06114601
0.061593556
0.062041889
0.062491063
0.062941135
0.063392168
0.063844223
0.064297364
0.064751653
0.065207147
0.065663893
0.06612193
0.066581281
0.067041954
0.06750393
0.067967013
0.04636513
0.046772746
0.04718387
0.047598178
0.048015434
0.048435379
0.048857783
0.049282431
0.049709121
0.050137662
0.050567878
0.050999602
0.051432681
0.051866976
0.052302361
0.052738668
0.05317579
0.053613649
0.054052184
0.05449134
0.054931075
0.055371355
0.055812154
0.056253457
0.056695255
0.057137546
0.057580335
0.05802363
0.058467449
0.058911811
0.05935674
0.059802264
0.060248415
0.060695229
0.061142744
0.061591005
0.062040057
0.062489954
0.062940748
0.063392498
0.063845264
0.064299104
0.064754077
0.065210235
0.065667625
0.066126283
0.066586234
0.067047488
0.067510031
0.067973666
0.046343044
0.04675105
0.047162601
0.047577363
0.047995093
0.048415526
0.048838428
0.049263585
0.049690792
0.05011986
0.050550611
0.050982878
0.051416506
0.051851356
0.052287298
0.052724156
0.053161834
0.053600254
0.054039354
0.05447908
0.054919389
0.055360246
0.055801628
0.056243518
0.056685907
0.057128793
0.057572182
0.058016083
0.058460512
0.058905489
0.05935104
0.059797191
0.060243976
0.060691429
0.06113959
0.0615885
0.062038207
0.06248876
0.06294021
0.063392613
0.063846026
0.064300503
0.0647561
0.065212867
0.065670849
0.06613008
0.066590587
0.06705238
0.067515452
0.067979602
0.046322692
0.046731051
0.047142995
0.047558179
0.047976347
0.04839723
0.048820591
0.049246215
0.049673897
0.050103449
0.050534691
0.050967455
0.051401588
0.051836947
0.052273396
0.052710759
0.053148946
0.053587879
0.054027496
0.054467742
0.054908575
0.05534996
0.055791873
0.056234298
0.056677225
0.057120655
0.05756459
0.058009042
0.058454027
0.058899566
0.059345682
0.059792404
0.060239765
0.060687799
0.061136546
0.061586047
0.062036348
0.062487496
0.062939542
0.063392538
0.063846538
0.064301596
0.064757762
0.065215086
0.06567361
0.066133369
0.066594388
0.067056682
0.067520246
0.067984876
0.046303965
0.04671264
0.047124949
0.047540525
0.047959101
0.048380398
0.04880418
0.049230231
0.049658349
0.050088343
0.050520035
0.050953256
0.05138785
0.051823677
0.052260586
0.052698411
0.053137062
0.053576464
0.054016551
0.054457271
0.054898581
0.055340446
0.055782843
0.056225754
0.056669172
0.057113095
0.057557528
0.058002481
0.058447972
0.058894019
0.059340649
0.05978789
0.060235773
0.060684335
0.061133613
0.06158365
0.062034488
0.062486176
0.062938761
0.063392295
0.063846828
0.064302413
0.064759098
0.06521693
0.06567595
0.066136193
0.066597685
0.067060441
0.067524461
0.067989537
0.046286752
0.046695713
0.047108364
0.047524308
0.047943262
0.048364941
0.048789109
0.049215551
0.049644065
0.050074463
0.050506566
0.050940205
0.051375222
0.051811475
0.052248803
0.052687049
0.053126123
0.05356595