/*--------------------------------*- C++ -*----------------------------------*\
| =========                 |                                                 |
| \\      /  F ield         | OpenFOAM: The Open Source CFD Toolbox           |
|  \\    /   O peration     | Version:  2312                                  |
|   \\  /    A nd           | Website:  www.openfoam.com                      |
|    \\/     M anipulation  |                                                 |
\*---------------------------------------------------------------------------*/
FoamFile
{
    version     2.0;
    format      ascii;
    arch        "LSB;label=32;scalar=64";
    class       volVectorField;
    location    "0.06";
    object      U;
}
// * * * * * * * * * * * * * * * * * * * * * * * * * * * * * * * * * * * * * //

dimensions      [0 1 -1 0 0 0 0];

internalField   nonuniform List<vector> 
3257
(
(0.14885018 -0.58007582 0)
(0.14725627 -0.56871644 0)
(0.14561313 -0.55751675 0)
(0.14390553 -0.54645972 0)
(0.14212036 -0.53553725 0)
(0.14025393 -0.52474303 0)
(0.13830929 -0.51406898 0)
(0.1362943 -0.5035019 0)
(0.13421958 -0.49302405 0)
(0.13209902 -0.48260963 0)
(0.12994873 -0.47222657 0)
(0.12778944 -0.46182999 0)
(0.12564675 -0.45136503 0)
(0.12355594 -0.44075385 0)
(0.12156628 -0.42989904 0)
(0.11974955 -0.41865762 0)
(0.11822342 -0.40684243 0)
(0.11716572 -0.39416492 0)
(0.11689685 -0.38022758 0)
(0.11794417 -0.3643925 0)
(0.12126999 -0.34571422 0)
(0.12859059 -0.32267211 0)
(0.14303191 -0.29283737 0)
(0.17019691 -0.25235194 0)
(0.21977768 -0.19501012 0)
(0.30537379 -0.11132818 0)
(0.45796282 0.019078141 0)
(0.63859944 0.22859148 0)
(0.56400847 0.47472159 0)
(0.3591204 0.62471317 0)
(0.17156653 0.68621817 0)
(0.06489015 0.7044248 0)
(-0.025317384 0.68316171 0)
(-0.067466041 0.63906779 0)
(-0.091419866 0.58234168 0)
(-0.096205682 0.5226423 0)
(-0.095686839 0.46207465 0)
(-0.087735941 0.40436907 0)
(-0.079410169 0.34960133 0)
(-0.070126157 0.29855591 0)
(-0.062547383 0.25042127 0)
(-0.056473659 0.20464272 0)
(-0.053591596 0.15976211 0)
(-0.055360299 0.11434081 0)
(-0.063728653 0.068149711 0)
(-0.073366013 0.02428844 0)
(-0.06922363 -0.018478733 0)
(-0.047596571 -0.049539449 0)
(-0.039561438 -0.065493818 0)
(-0.04009939 -0.073708724 0)
(-0.038995321 -0.07572885 0)
(0.14818718 -0.45643002 0)
(0.14629743 -0.4488015 0)
(0.14438788 -0.44127537 0)
(0.14244189 -0.4338449 0)
(0.14044795 -0.42650417 0)
(0.13840504 -0.41924524 0)
(0.13632062 -0.41205882 0)
(0.13420647 -0.4049308 0)
(0.13207969 -0.39784478 0)
(0.12996006 -0.39077715 0)
(0.12787424 -0.38370173 0)
(0.12585309 -0.37658154 0)
(0.12393997 -0.3693762 0)
(0.12218865 -0.36202895 0)
(0.12067854 -0.35447691 0)
(0.11951628 -0.34663343 0)
(0.11886336 -0.33839891 0)
(0.11895486 -0.32964717 0)
(0.12014393 -0.32022779 0)
(0.12297874 -0.30998963 0)
(0.12825053 -0.29877559 0)
(0.13720524 -0.28656745 0)
(0.15157356 -0.27357514 0)
(0.1737977 -0.2607115 0)
(0.2068288 -0.25017571 0)
(0.25289546 -0.24674992 0)
(0.31175116 -0.25849791 0)
(0.3712666 -0.30304282 0)
(0.3688317 -0.38932715 0)
(0.30013899 -0.42694111 0)
(0.22096669 -0.40730622 0)
(0.14942065 -0.37089097 0)
(0.086288811 -0.3168123 0)
(0.041698938 -0.26165411 0)
(0.011893062 -0.20864619 0)
(-0.0073519638 -0.16340782 0)
(-0.018766319 -0.12483649 0)
(-0.02652011 -0.094388622 0)
(-0.031425665 -0.070802494 0)
(-0.034923234 -0.053796831 0)
(-0.037769265 -0.042268195 0)
(-0.04118036 -0.035797133 0)
(-0.045789266 -0.033611671 0)
(-0.052904772 -0.034920655 0)
(-0.063055115 -0.037709688 0)
(-0.073280158 -0.038861187 0)
(-0.077148606 -0.040923054 0)
(-0.075926695 -0.052406617 0)
(-0.076625603 -0.068353429 0)
(-0.074754845 -0.081898925 0)
(-0.0680307 -0.089857157 0)
(0.15118823 -0.37896623 0)
(0.14874212 -0.37346508 0)
(0.14630761 -0.36804872 0)
(0.14387114 -0.36271418 0)
(0.1414243 -0.35745585 0)
(0.13896895 -0.35226564 0)
(0.13651574 -0.34713316 0)
(0.13408005 -0.34204544 0)
(0.13168358 -0.33698661 0)
(0.12935157 -0.3319378 0)
(0.12711739 -0.32687662 0)
(0.12502003 -0.32177736 0)
(0.12311206 -0.31661007 0)
(0.12145859 -0.31134199 0)
(0.12014851 -0.30593562 0)
(0.11929978 -0.30035468 0)
(0.11907242 -0.29456062 0)
(0.11969019 -0.28853142 0)
(0.12144844 -0.28226071 0)
(0.12476772 -0.27580494 0)
(0.13017354 -0.26931165 0)
(0.13836907 -0.26311151 0)
(0.15015936 -0.25785885 0)
(0.16637594 -0.25468076 0)
(0.18757106 -0.25548818 0)
(0.21325117 -0.26310059 0)
(0.24058346 -0.28101077 0)
(0.26199399 -0.31268508 0)
(0.26557869 -0.35590472 0)
(0.24714094 -0.38456122 0)
(0.21334896 -0.38952986 0)
(0.17197967 -0.38161611 0)
(0.12966822 -0.3592863 0)
(0.092082585 -0.33067033 0)
(0.060770482 -0.29964386 0)
(0.036327251 -0.26947221 0)
(0.017723103 -0.24175346 0)
(0.0037517239 -0.21704137 0)
(-0.0069383275 -0.19523848 0)
(-0.015303711 -0.17629548 0)
(-0.02256759 -0.16013883 0)
(-0.029624456 -0.14657855 0)
(-0.037510682 -0.13555276 0)
(-0.047103123 -0.12678446 0)
(-0.058896456 -0.11967553 0)
(-0.072041696 -0.11343053 0)
(-0.084648493 -0.10889332 0)
(-0.09561627 -0.10930242 0)
(-0.10393724 -0.11304063 0)
(-0.10540853 -0.11763629 0)
(-0.099121863 -0.12078348 0)
(0.15690046 -0.31476813 0)
(0.15373735 -0.31085154 0)
(0.15061585 -0.3070184 0)
(0.14752653 -0.30326675 0)
(0.1444646 -0.29959117 0)
(0.14143471 -0.29598379 0)
(0.13844955 -0.29243447 0)
(0.13552677 -0.28893165 0)
(0.13269008 -0.2854616 0)
(0.12996736 -0.28200976 0)
(0.12739403 -0.27855938 0)
(0.12501162 -0.27509409 0)
(0.12287333 -0.27159573 0)
(0.12104398 -0.26804952 0)
(0.11960696 -0.26444119 0)
(0.11866846 -0.26076666 0)
(0.11836273 -0.25703071 0)
(0.11886564 -0.25326387 0)
(0.1203902 -0.24953011 0)
(0.12321092 -0.24595299 0)
(0.12763402 -0.24275064 0)
(0.1340077 -0.2402654 0)
(0.14264743 -0.23904625 0)
(0.15374385 -0.23986687 0)
(0.16716378 -0.24379795 0)
(0.18208786 -0.25210516 0)
(0.19658444 -0.26594768 0)
(0.20716519 -0.28556158 0)
(0.20946077 -0.30852631 0)
(0.20136009 -0.32891112 0)
(0.18392036 -0.34273594 0)
(0.15967252 -0.34840315 0)
(0.13212248 -0.34582686 0)
(0.10454316 -0.33670299 0)
(0.079119656 -0.32308213 0)
(0.057096334 -0.30678021 0)
(0.038766103 -0.2893281 0)
(0.023852966 -0.27169085 0)
(0.01174055 -0.25443372 0)
(0.0016145246 -0.23796044 0)
(-0.0074216596 -0.22248215 0)
(-0.016342364 -0.2081726 0)
(-0.026131147 -0.19513958 0)
(-0.037705992 -0.18343762 0)
(-0.051610859 -0.17299861 0)
(-0.067659887 -0.16379154 0)
(-0.084828723 -0.15618788 0)
(-0.10146731 -0.15089481 0)
(-0.11516189 -0.14794131 0)
(-0.12169764 -0.14663327 0)
(-0.11964862 -0.1464076 0)
(0.16440829 -0.2639114 0)
(0.16042879 -0.26103699 0)
(0.1565184 -0.25825924 0)
(0.15267185 -0.25557608 0)
(0.14888799 -0.25298196 0)
(0.14517391 -0.25046914 0)
(0.14154358 -0.24802805 0)
(0.13801559 -0.24564845 0)
(0.1346139 -0.24331891 0)
(0.13136656 -0.24102834 0)
(0.12830792 -0.23876504 0)
(0.12547786 -0.23651945 0)
(0.12292514 -0.23428273 0)
(0.12070772 -0.23205166 0)
(0.11889614 -0.22982728 0)
(0.1175764 -0.227623 0)
(0.11685064 -0.22546517 0)
(0.11684366 -0.22340504 0)
(0.11769566 -0.2215262 0)
(0.119569 -0.21995847 0)
(0.12262364 -0.21889991 0)
(0.12700713 -0.21862438 0)
(0.1328007 -0.2195163 0)
(0.13995535 -0.2220546 0)
(0.14818439 -0.22681267 0)
(0.15681244 -0.23435232 0)
(0.16465301 -0.24503555 0)
(0.16998132 -0.25866892 0)
(0.17091485 -0.27402356 0)
(0.16622111 -0.28878565 0)
(0.15580211 -0.30085655 0)
(0.14056123 -0.30877685 0)
(0.12215169 -0.31181611 0)
(0.10244928 -0.31026263 0)
(0.083041591 -0.30477704 0)
(0.065074989 -0.29636994 0)
(0.049157809 -0.28595341 0)
(0.035429791 -0.27434696 0)
(0.023660179 -0.26214736 0)
(0.013339154 -0.24980744 0)
(0.0037485779 -0.2376387 0)
(-0.0059768007 -0.22586743 0)
(-0.016773 -0.21465158 0)
(-0.029506602 -0.2040825 0)
(-0.04474044 -0.19421162 0)
(-0.06243899 -0.18512751 0)
(-0.081765274 -0.17707485 0)
(-0.1010325 -0.17042253 0)
(-0.11773164 -0.16544722 0)
(-0.12826962 -0.16217966 0)
(-0.13086987 -0.16077789 0)
(0.17289743 -0.22632044 0)
(0.16805215 -0.22399365 0)
(0.16330024 -0.22178624 0)
(0.15864027 -0.21969559 0)
(0.15407443 -0.21771596 0)
(0.14961177 -0.21583975 0)
(0.14526692 -0.21405809 0)
(0.14105849 -0.21236191 0)
(0.13700959 -0.21074175 0)
(0.13314686 -0.2091892 0)
(0.12950192 -0.20769637 0)
(0.12611073 -0.20625826 0)
(0.12301554 -0.2048721 0)
(0.1202649 -0.20354124 0)
(0.1179151 -0.2022748 0)
(0.11603138 -0.2010935 0)
(0.1146868 -0.20003096 0)
(0.11396433 -0.1991411 0)
(0.11394969 -0.19850348 0)
(0.11473097 -0.19822999 0)
(0.1163802 -0.19847584 0)
(0.11894086 -0.19943922 0)
(0.12239324 -0.20137151 0)
(0.12661636 -0.20455682 0)
(0.13133531 -0.20929404 0)
(0.13606307 -0.21582441 0)
(0.14007526 -0.22423088 0)
(0.14244157 -0.23428725 0)
(0.14220501 -0.24532382 0)
(0.13865628 -0.25626312 0)
(0.13155416 -0.265929 0)
(0.12120458 -0.27331451 0)
(0.10839483 -0.27777113 0)
(0.094149249 -0.27911528 0)
(0.079496597 -0.27753835 0)
(0.06529782 -0.27346808 0)
(0.052125531 -0.26745228 0)
(0.040237033 -0.26002748 0)
(0.029576917 -0.25167883 0)
(0.019811299 -0.24279836 0)
(0.010365813 -0.23369547 0)
(0.00048417433 -0.22459548 0)
(-0.010682583 -0.21565392 0)
(-0.023925018 -0.20696524 0)
(-0.039752849 -0.19859347 0)
(-0.058130761 -0.19063015 0)
(-0.078267534 -0.1832671 0)
(-0.098536211 -0.17680992 0)
(-0.11661641 -0.1716161 0)
(-0.12961351 -0.16800492 0)
(-0.13562369 -0.16634591 0)
(0.18171499 -0.20032809 0)
(0.17599207 -0.19816054 0)
(0.17038349 -0.19613869 0)
(0.16489117 -0.19425948 0)
(0.15952017 -0.19251708 0)
(0.154281 -0.19090425 0)
(0.14918844 -0.18941286 0)
(0.14426056 -0.18803497 0)
(0.13951897 -0.18676277 0)
(0.13498819 -0.18558983 0)
(0.13069635 -0.18451092 0)
(0.12667475 -0.18352387 0)
(0.12295872 -0.18262938 0)
(0.11958745 -0.18183386 0)
(0.11660418 -0.1811496 0)
(0.11405643 -0.18059867 0)
(0.11199415 -0.18021405 0)
(0.1104696 -0.18004412 0)
(0.10953143 -0.18015557 0)
(0.1092218 -0.18063641 0)
(0.10956361 -0.18160032 0)
(0.11055052 -0.1831835 0)
(0.11212565 -0.18554501 0)
(0.11416116 -0.18884953 0)
(0.11643326 -0.19324957 0)
(0.11860176 -0.19884141 0)
(0.12021104 -0.20561372 0)
(0.1207194 -0.21338288 0)
(0.11958622 -0.2217497 0)
(0.11638634 -0.2301217 0)
(0.11092528 -0.2378133 0)
(0.10330022 -0.24417108 0)
(0.093890786 -0.24870037 0)
(0.083268267 -0.25114355 0)
(0.072072171 -0.25146852 0)
(0.060894273 -0.24983815 0)
(0.050176796 -0.24653346 0)
(0.040155125 -0.24189451 0)
(0.030823347 -0.23626328 0)
(0.02192868 -0.22995359 0)
(0.01298793 -0.22322859 0)
(0.0033331756 -0.21629265 0)
(-0.0077961927 -0.20928814 0)
(-0.021103146 -0.20230392 0)
(-0.037019443 -0.19540145 0)
(-0.055464708 -0.18866305 0)
(-0.075649501 -0.18224875 0)
(-0.096019332 -0.17642925 0)
(-0.11445654 -0.17157701 0)
(-0.12859187 -0.16811419 0)
(-0.13656522 -0.16645869 0)
(0.19040741 -0.18373758 0)
(0.18381918 -0.18145967 0)
(0.17736349 -0.17935247 0)
(0.17104504 -0.17741267 0)
(0.16487118 -0.1756347 0)
(0.15885339 -0.17401188 0)
(0.15300628 -0.172537 0)
(0.14734701 -0.1712032 0)
(0.14189546 -0.17000412 0)
(0.1366737 -0.16893485 0)
(0.13170631 -0.16799197 0)
(0.12701998 -0.16717497 0)
(0.12264369 -0.16648626 0)
(0.11860835 -0.16593323 0)
(0.11494647 -0.16552847 0)
(0.11169166 -0.16529233 0)
(0.10887682 -0.16525371 0)
(0.10653309 -0.16545252 0)
(0.10468516 -0.16594111 0)
(0.10334828 -0.1667852 0)
(0.1025196 -0.16806486 0)
(0.10217121 -0.16987093 0)
(0.10223772 -0.17230204 0)
(0.10260558 -0.17545183 0)
(0.10310189 -0.17939566 0)
(0.10348836 -0.18416446 0)
(0.10346783 -0.18971843 0)
(0.10270518 -0.19591715 0)
(0.10087339 -0.20250394 0)
(0.097709871 -0.20911672 0)
(0.0930776 -0.21532886 0)
(0.087003411 -0.220714 0)
(0.079683238 -0.2249126 0)
(0.071445309 -0.22768548 0)
(0.062686278 -0.22893038 0)
(0.053796022 -0.22867656 0)
(0.045082795 -0.22705618 0)
(0.036713716 -0.22426752 0)
(0.028669741 -0.22054127 0)
(0.020723229 -0.21610827 0)
(0.01243975 -0.21117816 0)
(0.0032166255 -0.20592063 0)
(-0.0076300568 -0.20045866 0)
(-0.020718137 -0.19487069 0)
(-0.036399415 -0.18921411 0)
(-0.05453726 -0.18356297 0)
(-0.074333634 -0.1780554 0)
(-0.094296494 -0.17292973 0)
(-0.11246885 -0.16853685 0)
(-0.12683415 -0.16532117 0)
(-0.13565647 -0.1637207 0)
(0.19870676 -0.17429327 0)
(0.19127898 -0.1717438 0)
(0.1839999 -0.16938537 0)
(0.17687642 -0.16721477 0)
(0.16991759 -0.16522693 0)
(0.16313543 -0.16341597 0)
(0.15654413 -0.16177575 0)
(0.15015978 -0.16030056 0)
(0.14400042 -0.15898531 0)
(0.13808573 -0.15782636 0)
(0.13243697 -0.15682157 0)
(0.12707664 -0.15597138 0)
(0.1220283 -0.15527893 0)
(0.11731609 -0.15475144 0)
(0.11296408 -0.15440045 0)
(0.1089956 -0.15424339 0)
(0.10543152 -0.15430403 0)
(0.10228899 -0.15461376 0)
(0.099577949 -0.15521204 0)
(0.097298569 -0.15614633 0)
(0.095435525 -0.15747165 0)
(0.093953567 -0.15924723 0)
(0.092790321 -0.16153306 0)
(0.091851078 -0.1643809 0)
(0.091004064 -0.16782508 0)
(0.090079882 -0.17186706 0)
(0.08887822 -0.17646125 0)
(0.087182122 -0.18150028 0)
(0.084784561 -0.1868086 0)
(0.081519224 -0.19214824 0)
(0.077294684 -0.19723892 0)
(0.072116953 -0.20179199 0)
(0.066096254 -0.2055477 0)
(0.059430136 -0.20830932 0)
(0.052367686 -0.20996159 0)
(0.045160556 -0.21047639 0)
(0.038007653 -0.20990295 0)
(0.031003422 -0.20835046 0)
(0.024093381 -0.20596594 0)
(0.017046606 -0.20291133 0)
(0.0094521009 -0.19934243 0)
(0.0007523079 -0.19539122 0)
(-0.0096725427 -0.19115633 0)
(-0.022365631 -0.18670203 0)
(-0.037605226 -0.18208029 0)
(-0.055202426 -0.17735894 0)
(-0.074350589 -0.17265923 0)
(-0.093613186 -0.1681876 0)
(-0.11115877 -0.16425702 0)
(-0.12520255 -0.16129628 0)
(-0.13416114 -0.1597586 0)
(0.20648335 -0.16991486 0)
(0.19824827 -0.16701999 0)
(0.19017676 -0.16433024 0)
(0.18227728 -0.1618427 0)
(0.17456005 -0.15955305 0)
(0.16703729 -0.1574564 0)
(0.15972257 -0.15554773 0)
(0.15263083 -0.15382252 0)
(0.14577837 -0.15227691 0)
(0.13918259 -0.15090831 0)
(0.13286182 -0.14971558 0)
(0.12683496 -0.14869975 0)
(0.12112112 -0.14786418 0)
(0.11573907 -0.14721545 0)
(0.11070654 -0.14676357 0)
(0.10603948 -0.1465229 0)
(0.10175053 -0.14651228 0)
(0.097847927 -0.14675569 0)
(0.094332839 -0.14728212 0)
(0.0911975 -0.14812507 0)
(0.088421449 -0.1493216 0)
(0.085968799 -0.1509095 0)
(0.083784232 -0.1529243 0)
(0.081790601 -0.15539299 0)
(0.079887371 -0.15832791 0)
(0.077951974 -0.16171734 0)
(0.075845531 -0.16551766 0)
(0.073422818 -0.16964543 0)
(0.070548579 -0.17397477 0)
(0.067115798 -0.17834063 0)
(0.06306559 -0.18254999 0)
(0.058400585 -0.18640064 0)
(0.053189679 -0.18970281 0)
(0.047558519 -0.19230093 0)
(0.04166697 -0.19408838 0)
(0.035674857 -0.19501569 0)
(0.029700157 -0.19508914 0)
(0.023775483 -0.19436303 0)
(0.017808354 -0.19292662 0)
(0.011554473 -0.19088776 0)
(0.0046131647 -0.18835591 0)
(-0.0035409518 -0.1854265 0)
(-0.0134741 -0.18217189 0)
(-0.025665196 -0.17864277 0)
(-0.040331264 -0.1748837 0)
(-0.057239194 -0.17095766 0)
(-0.075580303 -0.1669725 0)
(-0.09397224 -0.16310525 0)
(-0.11069066 -0.15962422 0)
(-0.12411398 -0.15692202 0)
(-0.13280816 -0.15545906 0)
(0.21369247 -0.16884568 0)
(0.20468525 -0.16559401 0)
(0.19585566 -0.16255511 0)
(0.18721319 -0.15972655 0)
(0.17876878 -0.15710484 0)
(0.17053451 -0.15468613 0)
(0.16252327 -0.15246659 0)
(0.15474879 -0.15044283 0)
(0.14722576 -0.14861213 0)
(0.13996951 -0.14697285 0)
(0.13299585 -0.14552467 0)
(0.12632065 -0.14426902 0)
(0.11995945 -0.14320927 0)
(0.11392689 -0.14235129 0)
(0.10823603 -0.14170354 0)
(0.1028976 -0.1412776 0)
(0.097918808 -0.14108819 0)
(0.093302325 -0.14115328 0)
(0.08904442 -0.14149385 0)
(0.085133557 -0.14213315 0)
(0.081548011 -0.14309571 0)
(0.078254247 -0.14440501 0)
(0.075204761 -0.14608116 0)
(0.072337217 -0.14813653 0)
(0.069574336 -0.15057165 0)
(0.066825886 -0.15336944 0)
(0.063993308 -0.15649057 0)
(0.06097689 -0.15986914 0)
(0.057686392 -0.16341149 0)
(0.05405251 -0.1669984 0)
(0.050038992 -0.17049168 0)
(0.045650556 -0.17374524 0)
(0.040935443 -0.17661818 0)
(0.035978486 -0.17898878 0)
(0.030884855 -0.18076537 0)
(0.025754045 -0.1818939 0)
(0.020646703 -0.18235963 0)
(0.015547993 -0.18218425 0)
(0.010333159 -0.18141807 0)
(0.0047438205 -0.18012874 0)
(-0.0016144226 -0.17838803 0)
(-0.0092398932 -0.17625925 0)
(-0.018656033 -0.17379031 0)
(-0.030287452 -0.17101902 0)
(-0.044297439 -0.16798283 0)
(-0.060421644 -0.16474079 0)
(-0.077858504 -0.16139108 0)
(-0.095283727 -0.15808428 0)
(-0.11107408 -0.15504317 0)
(-0.12373727 -0.15261129 0)
(-0.13197293 -0.15124233 0)
(0.22033125 -0.16970941 0)
(0.2105884 -0.1661286 0)
(0.20103679 -0.16276262 0)
(0.19168645 -0.15960953 0)
(0.18254862 -0.1566667 0)
(0.17363508 -0.15393128 0)
(0.16495788 -0.15140053 0)
(0.15652965 -0.14907213 0)
(0.14836353 -0.14694436 0)
(0.14047304 -0.14501646 0)
(0.13287184 -0.14328877 0)
(0.12557329 -0.14176304 0)
(0.11859009 -0.1404426 0)
(0.11193374 -0.13933264 0)
(0.10561389 -0.13844031 0)
(0.099637667 -0.13777492 0)
(0.094008737 -0.13734788 0)
(0.088726454 -0.1371726 0)
(0.083784541 -0.13726412 0)
(0.079170094 -0.13763842 0)
(0.07486208 -0.13831141 0)
(0.070830424 -0.13929719 0)
(0.06703495 -0.14060623 0)
(0.063425288 -0.14224234 0)
(0.059941469 -0.14419995 0)
(0.056515975 -0.14646037 0)
(0.053077478 -0.14898912 0)
(0.049556183 -0.15173337 0)
(0.045891066 -0.15462152 0)
(0.04203748 -0.15756467 0)
(0.037974752 -0.16046081 0)
(0.033710856 -0.16320162 0)
(0.029283171 -0.16568077 0)
(0.024752459 -0.167803 0)
(0.020189614 -0.16949195 0)
(0.015654413 -0.17069622 0)
(0.011167892 -0.17139185 0)
(0.0066810041 -0.17158146 0)
(0.0020450049 -0.17128951 0)
(-0.0030085059 -0.17055423 0)
(-0.0088671684 -0.16941769 0)
(-0.016005021 -0.16791678 0)
(-0.024907369 -0.16607932 0)
(-0.035951712 -0.16392975 0)
(-0.049258321 -0.16150055 0)
(-0.064542157 -0.15884894 0)
(-0.081019133 -0.15606596 0)
(-0.097429035 -0.15327996 0)
(-0.11225082 -0.15066936 0)
(-0.1241084 -0.1485215 0)
(-0.13181503 -0.1472669 0)
(0.22641113 -0.17149877 0)
(0.21597007 -0.16763677 0)
(0.20573348 -0.16398729 0)
(0.19571165 -0.16054892 0)
(0.18591577 -0.15731976 0)
(0.17635712 -0.15429786 0)
(0.16704694 -0.15148143 0)
(0.15799672 -0.14886907 0)
(0.14921824 -0.14645995 0)
(0.14072341 -0.14425403 0)
(0.13252404 -0.14225218 0)
(0.12463144 -0.14045644 0)
(0.11705607 -0.13887006 0)
(0.10980701 -0.1374977 0)
(0.10289145 -0.13634543 0)
(0.096314053 -0.13542081 0)
(0.090076227 -0.13473271 0)
(0.084175444 -0.1342912 0)
(0.078604313 -0.13410705 0)
(0.073349874 -0.13419114 0)
(0.068392688 -0.13455361 0)
(0.063706359 -0.13520251 0)
(0.059257112 -0.13614236 0)
(0.055004101 -0.13737213 0)
(0.0509003 -0.13888333 0)
(0.046894424 -0.14065764 0)
(0.04293399 -0.14266522 0)
(0.038969397 -0.1448633 0)
(0.034959105 -0.14719601 0)
(0.030874885 -0.14959547 0)
(0.026706737 -0.15198461 0)
(0.02246551 -0.15428144 0)
(0.018182454 -0.15640462 0)
(0.013903448 -0.15827934 0)
(0.0096773382 -0.15984293 0)
(0.005537561 -0.16104942 0)
(0.0014782859 -0.16187166 0)
(-0.0025728802 -0.16230132 0)
(-0.0067804013 -0.16234558 0)
(-0.011417135 -0.16202128 0)
(-0.016861309 -0.16134759 0)
(-0.023562936 -0.16034013 0)
(-0.031971246 -0.15901004 0)
(-0.042422647 -0.15737103 0)
(-0.055003362 -0.15545226 0)
(-0.069417671 -0.1533106 0)
(-0.08490834 -0.1510329 0)
(-0.10028616 -0.1487288 0)
(-0.11413578 -0.14653573 0)
(-0.12519461 -0.14468092 0)
(-0.13237104 -0.14355722 0)
(0.23194453 -0.1735254 0)
(0.2208432 -0.16943695 0)
(0.2099594 -0.16555586 0)
(0.19930321 -0.16188104 0)
(0.18888564 -0.15841122 0)
(0.17871734 -0.15514518 0)
(0.16880869 -0.15208189 0)
(0.1591701 -0.14922072 0)
(0.14981212 -0.14656152 0)
(0.14074523 -0.14410485 0)
(0.13197966 -0.14185201 0)
(0.12352502 -0.13980524 0)
(0.11538997 -0.13796771 0)
(0.10758177 -0.13634365 0)
(0.1001058 -0.13493831 0)
(0.09296505 -0.13375789 0)
(0.086159514 -0.13280943 0)
(0.07968569 -0.13210052 0)
(0.073535896 -0.13163898 0)
(0.067697804 -0.13143217 0)
(0.062153893 -0.13148647 0)
(0.056881249 -0.13180601 0)
(0.051851511 -0.13239186 0)
(0.047031365 -0.13324037 0)
(0.042383536 -0.134342 0)
(0.037868524 -0.13567971 0)
(0.033447137 -0.13722799 0)
(0.029083705 -0.1389519 0)
(0.024749915 -0.14080729 0)
(0.020428593 -0.14274145 0)
(0.016116981 -0.14469517 0)
(0.011827965 -0.14660547 0)
(0.0075889273 -0.14840954 0)
(0.003436086 -0.15004844 0)
(-0.00059638239 -0.15147118 0)
(-0.0044925612 -0.15263785 0)
(-0.0082760853 -0.15352126 0)
(-0.012034252 -0.15410683 0)
(-0.015940012 -0.15439004 0)
(-0.020265127 -0.154372 0)
(-0.025374806 -0.15405422 0)
(-0.031693802 -0.15343539 0)
(-0.039636772 -0.15251326 0)
(-0.049503534 -0.15129377 0)
(-0.061353652 -0.1498042 0)
(-0.074889371 -0.1481027 0)
(-0.089388884 -0.14627391 0)
(-0.10373987 -0.14441251 0)
(-0.11663646 -0.14261838 0)
(-0.12693151 -0.14105834 0)
(-0.13361302 -0.14007596 0)
(0.2369408 -0.17535369 0)
(0.22521757 -0.17109224 0)
(0.21372447 -0.16703117 0)
(0.20247148 -0.1631697 0)
(0.19146908 -0.15950708 0)
(0.18072726 -0.15604256 0)
(0.17025552 -0.15277576 0)
(0.16006329 -0.14970656 0)
(0.15015993 -0.14683537 0)
(0.14055468 -0.14416317 0)
(0.1312564 -0.14169157 0)
(0.12227328 -0.13942294 0)
(0.11361254 -0.13736035 0)
(0.10528001 -0.13550772 0)
(0.097279752 -0.13386958 0)
(0.089613587 -0.1324512 0)
(0.082280679 -0.13125818 0)
(0.075277073 -0.13029646 0)
(0.06859527 -0.12957166 0)
(0.06222387 -0.12908895 0)
(0.056147305 -0.12885207 0)
(0.050345771 -0.12886298 0)
(0.044795406 -0.12912057 0)
(0.039468841 -0.12962016 0)
(0.034336207 -0.13035205 0)
(0.02936667 -0.13130108 0)
(0.024530558 -0.13244543 0)
(0.019801953 -0.13375668 0)
(0.015161618 -0.13519942 0)
(0.01059984 -0.13673246 0)
(0.0061186491 -0.1383097 0)
(0.0017321021 -0.13988253 0)
(-0.0025352022 -0.14140195 0)
(-0.0066536956 -0.14282171 0)
(-0.010599205 -0.14410052 0)
(-0.01436757 -0.14520444 0)
(-0.017993852 -0.14610761 0)
(-0.021573722 -0.14679198 0)
(-0.025282636 -0.14724492 0)
(-0.029386198 -0.14745581 0)
(-0.034233041 -0.14741243 0)
(-0.040221083 -0.14710011 0)
(-0.047731322 -0.14650629 0)
(-0.057030636 -0.14563137 0)
(-0.068158037 -0.14450241 0)
(-0.080821219 -0.1431799 0)
(-0.09434075 -0.14174807 0)
(-0.10768596 -0.14028933 0)
(-0.11966322 -0.13887035 0)
(-0.12924395 -0.13759892 0)
(-0.13548394 -0.13676211 0)
(0.24140766 -0.17673481 0)
(0.22910041 -0.17234789 0)
(0.21703595 -0.16815359 0)
(0.20522348 -0.16415148 0)
(0.19367308 -0.16034091 0)
(0.18239397 -0.1567217 0)
(0.17139478 -0.15329372 0)
(0.16068399 -0.15005734 0)
(0.15026989 -0.14701331 0)
(0.1401606 -0.14416284 0)
(0.13036374 -0.14150783 0)
(0.12088637 -0.13905056 0)
(0.11173446 -0.13679418 0)
(0.10291277 -0.13474208 0)
(0.094424299 -0.13289852 0)
(0.086270128 -0.13126771 0)
(0.07844887 -0.12985458 0)
(0.070956485 -0.12866346 0)
(0.063785842 -0.12769895 0)
(0.056926602 -0.12696422 0)
(0.050364987 -0.12646192 0)
(0.044083916 -0.12619211 0)
(0.038063202 -0.12615318 0)
(0.032280189 -0.12633957 0)
(0.026710656 -0.12674266 0)
(0.021330208 -0.12734864 0)
(0.016116068 -0.1281396 0)
(0.011049212 -0.12909181 0)
(0.0061166588 -0.13017734 0)
(0.0013136155 -0.1313633 0)
(-0.0033548752 -0.13261407 0)
(-0.0078741641 -0.13389166 0)
(-0.012221972 -0.13515817 0)
(-0.016373855 -0.13637714 0)
(-0.020312565 -0.13751569 0)
(-0.024041766 -0.13854512 0)
(-0.02760329 -0.13944168 0)
(-0.03109633 -0.14018538 0)
(-0.034693988 -0.14075787 0)
(-0.038651518 -0.14113962 0)
(-0.043297784 -0.14130763 0)
(-0.04900244 -0.14123688 0)
(-0.056113487 -0.1409068 0)
(-0.064868033 -0.14031439 0)
(-0.075289661 -0.13948751 0)
(-0.087097734 -0.13849005 0)
(-0.099660771 -0.13740664 0)
(-0.11203307 -0.13631024 0)
(-0.12313434 -0.13523791 0)
(-0.13205748 -0.13424224 0)
(-0.13791748 -0.13354967 0)
(0.24535317 -0.17754875 0)
(0.23249952 -0.17307629 0)
(0.21990063 -0.16878897 0)
(0.20756544 -0.16468592 0)
(0.19550328 -0.16076705 0)
(0.18372259 -0.15703217 0)
(0.17223125 -0.15348153 0)
(0.16103669 -0.15011572 0)
(0.15014633 -0.14693561 0)
(0.13956714 -0.14394278 0)
(0.12930583 -0.14113889 0)
(0.11936827 -0.13852663 0)
(0.10975958 -0.13610847 0)
(0.10048345 -0.13388814 0)
(0.091542256 -0.13186876 0)
(0.082936381 -0.13005475 0)
(0.074664247 -0.12844938 0)
(0.066721765 -0.12705706 0)
(0.059102377 -0.12588039 0)
(0.051796679 -0.12492256 0)
(0.044792573 -0.12418417 0)
(0.038075227 -0.12366563 0)
(0.031627491 -0.12336375 0)
(0.025430411 -0.12327421 0)
(0.019464107 -0.12338816 0)
(0.013709022 -0.12369467 0)
(0.0081473557 -0.12417778 0)
(0.0027649787 -0.124819 0)
(-0.0024468253 -0.12559517 0)
(-0.0074895092 -0.126481 0)
(-0.012356448 -0.12744807 0)
(-0.017033027 -0.12846749 0)
(-0.021499192 -0.12950958 0)
(-0.025734355 -0.13054635 0)
(-0.02972642 -0.13155141 0)
(-0.033484023 -0.13250117 0)
(-0.037052571 -0.13337395 0)
(-0.040530933 -0.13414886 0)
(-0.044086262 -0.1348035 0)
(-0.047959911 -0.13531133 0)
(-0.052458577 -0.13564116 0)
(-0.05792239 -0.13575951 0)
(-0.064667218 -0.13564029 0)
(-0.072903047 -0.1352781 0)
(-0.082642573 -0.13470297 0)
(-0.093621826 -0.13398207 0)
(-0.10526154 -0.13320168 0)
(-0.11670275 -0.13242666 0)
(-0.12697812 -0.1316692 0)
(-0.13530369 -0.13093076 0)
(-0.14084753 -0.1303768 0)
(0.24878892 -0.17775812 0)
(0.23542487 -0.17323324 0)
(0.22232755 -0.16888566 0)
(0.20950522 -0.16471514 0)
(0.19696638 -0.16072134 0)
(0.18471894 -0.1569043 0)
(0.17276966 -0.15326447 0)
(0.16112539 -0.14980235 0)
(0.14979234 -0.14651926 0)
(0.13877682 -0.14341633 0)
(0.12808431 -0.14049586 0)
(0.11772004 -0.13775967 0)
(0.10768798 -0.13521097 0)
(0.097991356 -0.1328522 0)
(0.088631648 -0.13068722 0)
(0.079609049 -0.12871873 0)
(0.070921585 -0.12695077 0)
(0.062565481 -0.12538567 0)
(0.054534516 -0.12402678 0)
(0.046820331 -0.12287517 0)
(0.039412142 -0.1219323 0)
(0.032297084 -0.12119675 0)
(0.025460435 -0.12066666 0)
(0.018886149 -0.12033671 0)
(0.012557755 -0.12020029 0)
(0.0064592212 -0.120247 0)
(0.00057649943 -0.12046452 0)
(-0.0051012365 -0.12083693 0)
(-0.010579608 -0.12134643 0)
(-0.015858282 -0.12197253 0)
(-0.020929678 -0.12269363 0)
(-0.025780043 -0.12348715 0)
(-0.030391183 -0.12433069 0)
(-0.034745993 -0.12520266 0)
(-0.038835899 -0.12608251 0)
(-0.042672952 -0.12695093 0)
(-0.046303362 -0.12778832 0)
(-0.049823289 -0.1285737 0)
(-0.053390738 -0.12928142 0)
(-0.05723092 -0.12988003 0)
(-0.061626192 -0.13033133 0)
(-0.066886741 -0.13059598 0)
(-0.073296988 -0.13064314 0)
(-0.081042533 -0.13046685 0)
(-0.090128833 -0.13009902 0)
(-0.10031271 -0.12961092 0)
(-0.11106999 -0.12909001 0)
(-0.12162896 -0.12859552 0)
(-0.13113317 -0.12811812 0)
(-0.13892166 -0.1276144 0)
(-0.14421225 -0.12718995 0)
(0.25173027 -0.17737553 0)
(0.23789067 -0.17282429 0)
(0.22432934 -0.16844341 0)
(0.21105373 -0.16423265 0)
(0.19807204 -0.16019157 0)
(0.18539096 -0.1563205 0)
(0.1730169 -0.15261958 0)
(0.1609554 -0.14908978 0)
(0.14921225 -0.14573193 0)
(0.13779244 -0.14254773 0)
(0.12670104 -0.13953874 0)
(0.11594202 -0.13670736 0)
(0.10551901 -0.13405585 0)
(0.09543418 -0.13158718 0)
(0.085688861 -0.12930403 0)
(0.076282567 -0.12720956 0)
(0.067213495 -0.12530645 0)
(0.058477774 -0.12359743 0)
(0.050069824 -0.12208449 0)
(0.041981969 -0.12076906 0)
(0.034204672 -0.11965152 0)
(0.026726653 -0.11873092 0)
(0.019535096 -0.11800495 0)
(0.012616395 -0.11746923 0)
(0.0059564764 -0.11711776 0)
(-0.00045777586 -0.11694186 0)
(-0.0066379795 -0.11693136 0)
(-0.01259226 -0.1170732 0)
(-0.018324708 -0.11735341 0)
(-0.023833568 -0.11775565 0)
(-0.029111515 -0.11826364 0)
(-0.034145483 -0.11885985 0)
(-0.038919711 -0.11952791 0)
(-0.04341956 -0.12025118 0)
(-0.047639661 -0.12101444 0)
(-0.051593546 -0.12180156 0)
(-0.055327074 -0.12259558 0)
(-0.058931143 -0.12337513 0)
(-0.062553086 -0.12411295 0)
(-0.066399691 -0.12477322 0)
(-0.070728176 -0.12531297 0)
(-0.075818299 -0.12568783 0)
(-0.081924358 -0.12586396 0)
(-0.089209821 -0.12583506 0)
(-0.097676175 -0.12563528 0)
(-0.10710408 -0.12533945 0)
(-0.11702614 -0.12503647 0)
(-0.12675707 -0.12478126 0)
(-0.13554767 -0.1245474 0)
(-0.14285832 -0.12425273 0)
(-0.14795426 -0.12394647 0)
(0.25419766 -0.1764399 0)
(0.23991523 -0.17188308 0)
(0.22592238 -0.16749069 0)
(0.21222597 -0.1632617 0)
(0.19883312 -0.1591962 0)
(0.18575022 -0.15529405 0)
(0.17298243 -0.15155581 0)
(0.16053493 -0.14798208 0)
(0.14841226 -0.14457391 0)
(0.13661903 -0.14133272 0)
(0.12515909 -0.1382601 0)
(0.11403607 -0.13535822 0)
(0.10325253 -0.13262912 0)
(0.092810414 -0.13007558 0)
(0.08271028 -0.12769983 0)
(0.072951626 -0.12550489 0)
(0.063532328 -0.12349274 0)
(0.054448812 -0.12166614 0)
(0.0456958 -0.1200262 0)
(0.037266319 -0.11857464 0)
(0.029151874 -0.11731092 0)
(0.021342353 -0.11623487 0)
(0.013826716 -0.11534349 0)
(0.0065929238 -0.11463384 0)
(-0.0003708144 -0.11409978 0)
(-0.0070759257 -0.11373507 0)
(-0.013531724 -0.11353021 0)
(-0.019745086 -0.11347577 0)
(-0.025718599 -0.11355955 0)
(-0.031450433 -0.1137699 0)
(-0.036933317 -0.11409342 0)
(-0.042155833 -0.11451798 0)
(-0.047103993 -0.11503078 0)
(-0.051765961 -0.11562048 0)
(-0.056138315 -0.11627509 0)
(-0.060235717 -0.11698236 0)
(-0.064101908 -0.11772678 0)
(-0.067821638 -0.11848778 0)
(-0.071529804 -0.11923655 0)
(-0.075413981 -0.11993444 0)
(-0.079705513 -0.12053488 0)
(-0.084654125 -0.12098952 0)
(-0.090485337 -0.1212628 0)
(-0.097342648 -0.12134772 0)
(-0.10522628 -0.12128112 0)
(-0.11394273 -0.12113988 0)
(-0.12308191 -0.12101502 0)
(-0.13204294 -0.12095796 0)
(-0.1401788 -0.12092996 0)
(-0.14706717 -0.12081679 0)
(-0.15202098 -0.12061591 0)
(0.25621483 -0.17500105 0)
(0.24152094 -0.17045632 0)
(0.22712718 -0.16606958 0)
(0.21304015 -0.16184066 0)
(0.19926636 -0.15776917 0)
(0.18581117 -0.15385519 0)
(0.17267926 -0.15009913 0)
(0.15987476 -0.14650153 0)
(0.14740174 -0.14306353 0)
(0.13526377 -0.13978612 0)
(0.12346421 -0.1366712 0)
(0.11200576 -0.1337202 0)
(0.10089059 -0.13093563 0)
(0.090119914 -0.1283192 0)
(0.079694046 -0.12587378 0)
(0.069612085 -0.12360106 0)
(0.059871903 -0.1215038 0)
(0.050469999 -0.11958324 0)
(0.041401396 -0.11784148 0)
(0.032659773 -0.11627867 0)
(0.024237295 -0.11489554 0)
(0.016125105 -0.11369055 0)
(0.0083131714 -0.1126623 0)
(0.00079117756 -0.11180698 0)
(-0.0064514695 -0.11112053 0)
(-0.013424344 -0.11059657 0)
(-0.020135727 -0.11022837 0)
(-0.026591104 -0.11000731 0)
(-0.032792761 -0.10992463 0)
(-0.038738614 -0.10997057 0)
(-0.044422386 -0.11013573 0)
(-0.049833944 -0.11041075 0)