/*--------------------------------*- C++ -*----------------------------------*\
| =========                 |                                                 |
| \\      /  F ield         | OpenFOAM: The Open Source CFD Toolbox           |
|  \\    /   O peration     | Version:  2312                                  |
|   \\  /    A nd           | Website:  www.openfoam.com                      |
|    \\/     M anipulation  |                                                 |
\*---------------------------------------------------------------------------*/
FoamFile
{
    version     2.0;
    format      ascii;
    arch        "LSB;label=32;scalar=64";
    class       volScalarField;
    location    "0.01";
    object      CO2;
}
// * * * * * * * * * * * * * * * * * * * * * * * * * * * * * * * * * * * * * //

dimensions      [0 0 0 0 0 0 0];

internalField   nonuniform List<scalar> 
3224
(
5.3645503e-11
3.885274e-11
2.8063763e-11
2.0259049e-11
1.4568794e-11
1.0437083e-11
7.4573457e-12
5.313488e-12
3.7752364e-12
2.6746254e-12
1.8894084e-12
1.3308443e-12
9.3468827e-13
6.5456048e-13
4.5707523e-13
3.1827212e-13
2.2100775e-13
1.5305466e-13
1.057195e-13
7.2841613e-14
5.006949e-14
3.4339631e-14
2.3502416e-14
1.6054416e-14
1.094755e-14
7.4534804e-15
5.0675916e-15
3.4413158e-15
2.3345664e-15
1.5824057e-15
1.0718016e-15
7.2546627e-16
4.9065724e-16
3.3144106e-16
2.2336461e-16
1.4979414e-16
9.9405004e-17
6.4462575e-17
3.9644426e-17
2.1230583e-17
6.5373365e-18
5.3646041e-11
3.8854019e-11
2.8067393e-11
2.0263609e-11
1.4566681e-11
1.0437441e-11
7.4579074e-12
5.3140098e-12
3.7756727e-12
2.6749736e-12
1.889679e-12
1.3310509e-12
9.3484399e-13
6.5467671e-13
4.571613e-13
3.1833544e-13
2.2105408e-13
1.5308839e-13
1.0574395e-13
7.285927e-14
5.0082196e-14
3.4348747e-14
2.3508937e-14
1.605907e-14
1.0950863e-14
7.4558351e-15
5.0692621e-15
3.4424991e-15
2.3354036e-15
1.5829974e-15
1.0722193e-15
7.2576087e-16
4.9086473e-16
3.3158685e-16
2.2346659e-16
1.498648e-16
9.9452983e-17
6.4493704e-17
3.9662498e-17
2.1238349e-17
6.5390396e-18
5.3644323e-11
3.8853118e-11
2.8073187e-11
2.0266163e-11
1.4565054e-11
1.0437083e-11
7.4580043e-12
5.3142431e-12
3.7759271e-12
2.6752063e-12
1.8898764e-12
1.3312114e-12
9.3497113e-13
6.5477551e-13
4.5723701e-13
3.183928e-13
2.2109713e-13
1.5312046e-13
1.0576767e-13
7.2876704e-14
5.009494e-14
3.4358016e-14
2.3515647e-14
1.6063907e-14
1.0954337e-14
7.4583215e-15
5.071036e-15
3.4437613e-15
2.3362994e-15
1.5836318e-15
1.0726678e-15
7.2607729e-16
4.9108756e-16
3.3174337e-16
2.2357608e-16
1.499408e-16
9.9504886e-17
6.4527901e-17
3.9683144e-17
2.1248066e-17
6.541658e-18
5.363684e-11
3.8848672e-11
2.8079729e-11
2.0265686e-11
1.4562556e-11
1.0435683e-11
7.4573354e-12
5.3139497e-12
3.7758225e-12
2.6751948e-12
1.8899078e-12
1.3312595e-12
9.3502235e-13
6.5482329e-13
4.5727858e-13
3.1842744e-13
2.2112515e-13
1.5314262e-13
1.0578489e-13
7.28899e-14
5.010493e-14
3.43655e-14
2.3521205e-14
1.6068001e-14
1.0957332e-14
7.4604982e-15
5.0726096e-15
3.4448933e-15
2.3371102e-15
1.5842104e-15
1.0730792e-15
7.2636901e-16
4.9129378e-16
3.3188868e-16
2.2367802e-16
1.5001176e-16
9.9553564e-17
6.4560255e-17
3.970309e-17
2.1257926e-17
6.54449e-18
7.3862253e-11
5.3627734e-11
3.8842414e-11
2.8086098e-11
2.0260904e-11
1.4558501e-11
1.0433136e-11
7.4558245e-12
5.3130621e-12
3.7753048e-12
2.6748979e-12
1.889743e-12
1.3311732e-12
9.3498192e-13
6.5480883e-13
4.5727807e-13
3.1843376e-13
2.2113418e-13
1.531521e-13
1.0579368e-13
7.2897504e-14
5.0111222e-14
3.4370545e-14
2.3525154e-14
1.6071036e-14
1.0959629e-14
7.4622147e-15
5.0738789e-15
3.4458234e-15
2.3377865e-15
1.5846988e-15
1.07343e-15
7.266197e-16
4.914721e-16
3.3201495e-16
2.2376693e-16
1.5007387e-16
9.9596323e-17
6.4588827e-17
3.9720929e-17
2.1267044e-17
6.5472097e-18
7.3847879e-11
5.3614076e-11
3.8839971e-11
2.8089005e-11
2.0250289e-11
1.4552986e-11
1.0429647e-11
7.4536091e-12
5.3116598e-12
3.7744192e-12
2.6743413e-12
1.8893964e-12
1.3309604e-12
9.3485385e-13
6.5473393e-13
4.5723606e-13
3.1841168e-13
2.2112385e-13
1.5314843e-13
1.0579355e-13
7.2899077e-14
5.0113442e-14
3.4372844e-14
2.3527253e-14
1.6072823e-14
1.0961084e-14
7.4633626e-15
5.0747633e-15
3.4464923e-15
2.3382851e-15
1.585066e-15
1.0736978e-15
7.268133e-16
4.9161107e-16
3.3211404e-16
2.238371e-16
1.501231e-16
9.9630341e-17
6.4611661e-17
3.9735319e-17
2.1274587e-17
6.5495332e-18
7.3817353e-11
5.3596544e-11
3.8839145e-11
2.8083144e-11
2.0240243e-11
1.4546511e-11
1.0425383e-11
7.4508056e-12
5.3098242e-12
3.7732216e-12
2.6735632e-12
1.888894e-12
1.3306387e-12
9.346501e-13
6.5460669e-13
4.57158e-13
3.1836487e-13
2.2109662e-13
1.5313323e-13
1.0578559e-13
7.2895339e-14
5.0112067e-14
3.4372712e-14
2.352771e-14
1.6073502e-14
1.0961789e-14
7.4640033e-15
5.075304e-15
3.4469279e-15
2.3386248e-15
1.5853248e-15
1.0738913e-15
7.2695591e-16
4.9171496e-16
3.3218896e-16
2.238906e-16
1.5016089e-16
9.9656611e-17
6.4629399e-17
3.9746598e-17
2.1280654e-17
6.5514418e-18
7.3775158e-11
5.3577471e-11
3.8837312e-11
2.8067713e-11
2.0228727e-11
1.453863e-11
1.042004e-11
7.4472097e-12
5.3074202e-12
3.7716225e-12
2.6725049e-12
1.8881975e-12
1.3301835e-12
9.3435505e-13
6.5441734e-13
4.570379e-13
3.1828973e-13
2.2105038e-13
1.5310535e-13
1.057692e-13
7.2886009e-14
5.0106997e-14
3.4370144e-14
2.3526563e-14
1.6073125e-14
1.0961801e-14
7.4641872e-15
5.0755433e-15
3.4471641e-15
2.3388322e-15
1.5854952e-15
1.0740256e-15
7.2705865e-16
4.9179183e-16
3.3224549e-16
2.2393157e-16
1.5019016e-16
9.9677144e-17
6.4643379e-17
3.9755574e-17
2.128559e-17
6.5530364e-18
1.0127767e-10
7.373266e-11
5.3561519e-11
3.882198e-11
2.8050179e-11
2.0215359e-11
1.4529199e-11
1.0413518e-11
7.4427506e-12
5.3043964e-12
3.7695849e-12
2.6711395e-12
1.8872879e-12
1.3295813e-12
9.3395933e-13
6.5415938e-13
4.5687127e-13
3.181832e-13
2.2098305e-13
1.5306335e-13
1.0574339e-13
7.287043e-14
5.0097787e-14
3.436484e-14
2.3523611e-14
1.6071559e-14
1.0961029e-14
7.4638534e-15
5.0754405e-15
3.4471735e-15
2.3388886e-15
1.5855649e-15
1.0740922e-15
7.2711575e-16
4.9183778e-16
3.3228099e-16
2.2395822e-16
1.502097e-16
9.9691132e-17
6.465308e-17
3.9761926e-17
2.1289196e-17
6.5542497e-18
1.0122128e-10
7.3688545e-11
5.3544669e-11
3.8792019e-11
2.8028978e-11
2.0199686e-11
1.4518021e-11
1.0405698e-11
7.4373458e-12
5.3006943e-12
3.767067e-12
2.6694375e-12
1.8861442e-12
1.3288176e-12
9.3345268e-13
6.5382569e-13
4.566532e-13
3.1804189e-13
2.2089232e-13
1.5300566e-13
1.0570711e-13
7.2847877e-14
5.0083948e-14
3.4356471e-14
2.3518632e-14
1.6068652e-14
1.095937e-14
7.462934e-15
5.0749497e-15
3.4469252e-15
2.3387734e-15
1.5855197e-15
1.0740818e-15
7.2712082e-16
4.9184848e-16
3.3229252e-16
2.2396855e-16
1.5021815e-16
9.9697684e-17
6.4657925e-17
3.9765298e-17
2.1291263e-17
6.5550142e-18
1.3865964e-10
1.0114752e-10
7.3646756e-11
5.3507675e-11
3.8757597e-11
2.8003783e-11
2.0181296e-11
1.4504867e-11
1.0396436e-11
7.4308999e-12
5.2962482e-12
3.7640227e-12
2.6673663e-12
1.8847436e-12
1.3278762e-12
9.3282393e-13
6.5340852e-13
4.5637834e-13
3.1786213e-13
2.2077566e-13
1.5293057e-13
1.0565918e-13
7.2817554e-14
5.0064941e-14
3.434467e-14
2.3511378e-14
1.606424e-14
1.0956715e-14
7.4613534e-15
5.07402e-15
3.446385e-15
2.3384634e-15
1.5853442e-15
1.0739837e-15
7.2706676e-16
4.9181911e-16
3.3227684e-16
2.2396036e-16
1.5021405e-16
9.9695815e-17
6.4657273e-17
3.9765295e-17
2.1291566e-17
6.5552592e-18
1.3852106e-10
1.0106796e-10
7.3593201e-11
5.3448323e-11
3.8716405e-11
2.7974044e-11
2.0159779e-11
1.4489482e-11
1.038557e-11
7.4233039e-12
5.2909834e-12
3.7604e-12
2.6648896e-12
1.8830606e-12
1.3267395e-12
9.3206075e-13
6.5289934e-13
4.5604081e-13
3.1763986e-13
2.206303e-13
1.5283617e-13
1.0559831e-13
7.2778582e-14
5.0040169e-14
3.4329035e-14
2.3501577e-14
1.6058137e-14
1.0952937e-14
7.4590277e-15
5.0725948e-15
3.4455146e-15
2.3379329e-15
1.5850208e-15
1.0737862e-15
7.2694559e-16
4.9174429e-16
3.3223029e-16
2.239312e-16
1.5019575e-16
9.9684428e-17
6.4650411e-17
3.9761478e-17
2.1289861e-17
6.5549075e-18
1.8922562e-10
1.383664e-10
1.0097446e-10
7.3503895e-11
5.3380556e-11
3.8668014e-11
2.7939215e-11
2.0134712e-11
1.4471585e-11
1.0372914e-11
7.4144336e-12
5.284815e-12
3.7561404e-12
2.6619667e-12
1.881067e-12
1.3253876e-12
9.3114947e-13
6.5228868e-13
4.5563407e-13
3.173706e-13
2.2045315e-13
1.5272035e-13
1.0552305e-13
7.2729982e-14
5.0008966e-14
3.4309113e-14
2.3488923e-14
1.6050136e-14
1.0947897e-14
7.4558624e-15
5.0706104e-15
3.4442711e-15
2.3371528e-15
1.58453e-15
1.073476e-15
7.2674836e-16
4.9161797e-16
3.3214878e-16
2.238783e-16
1.5016138e-16
9.9662282e-17
6.4636532e-17
3.9753347e-17
2.1285876e-17
6.5538742e-18
1.8895396e-10
1.3817726e-10
1.0082831e-10
7.3398059e-11
5.3302312e-11
3.8611655e-11
2.7898694e-11
2.0105648e-11
1.4450868e-11
1.0358262e-11
7.4041489e-12
5.2776475e-12
3.751178e-12
2.658552e-12
1.878731e-12
1.3237987e-12
9.3007484e-13
6.5156599e-13
4.5515084e-13
3.1704934e-13
2.2024079e-13
1.5258076e-13
1.0543181e-13
7.2670658e-14
4.9970587e-14
3.4284398e-14
2.3473073e-14
1.6040005e-14
1.0941438e-14
7.4517512e-15
5.0679949e-15
3.4426058e-15
2.3360903e-15
1.5838496e-15
1.0730382e-15
7.2646495e-16
4.9143329e-16
3.3202767e-16
2.2379854e-16
1.5010884e-16
9.9627982e-17
6.4614726e-17
3.9740342e-17
2.1279304e-17
6.5520643e-18
2.573715e-10
1.8862993e-10
1.37947e-10
1.0065731e-10
7.3273923e-11
5.321174e-11
3.8546357e-11
2.7851809e-11
2.0072101e-11
1.4426995e-11
1.0341381e-11
7.3922922e-12
5.2693727e-12
3.7454384e-12
2.6545941e-12
1.8760171e-12
1.3219481e-12
9.2881977e-13
6.5071948e-13
4.5458298e-13
3.1667047e-13
2.1998936e-13
1.5241478e-13
1.0532279e-13
7.2599384e-14
4.9924198e-14
3.4254324e-14
2.3453641e-14
1.6027483e-14
1.0933384e-14
7.4465744e-15
5.0646673e-15
3.4404641e-15
2.3347083e-15
1.5829546e-15
1.0724558e-15
7.2608389e-16
4.911825e-16
3.3186174e-16
2.2368837e-16
1.5003576e-16
9.9579949e-17
6.4583968e-17
3.9721828e-17
2.1269805e-17
6.5493715e-18
2.5682071e-10
1.8824576e-10
1.3767239e-10
1.0045735e-10
7.3129291e-11
5.310704e-11
3.8471013e-11
2.7797807e-11
2.0033542e-11
1.4399594e-11
1.0322017e-11
7.3786872e-12
5.2598693e-12
3.7388379e-12
2.6500351e-12
1.8728852e-12
1.319808e-12
9.2736514e-13
6.4973592e-13
4.539214e-13
3.1622775e-13
2.1969458e-13
1.5221946e-13
1.0519396e-13
7.2514787e-14
4.9868862e-14
3.4218253e-14
2.3430195e-14
1.6012277e-14
1.0923534e-14
7.4401972e-15
5.0605364e-15
3.4377841e-15
2.3329652e-15
1.5818168e-15
1.0717097e-15
7.2559227e-16
4.9085686e-16
3.3164507e-16
2.2354382e-16
1.4993945e-16
9.9516399e-17
6.4543097e-17
3.9697089e-17
2.1256991e-17
6.5456766e-18
3.4872912e-10
2.5617233e-10
1.8779278e-10
1.3734956e-10
1.0022472e-10
7.2961755e-11
5.2986388e-11
3.8384411e-11
2.7735855e-11
1.9989384e-11
1.4368255e-11
1.0299885e-11
7.3631372e-12
5.2490016e-12
3.7312827e-12
2.6448101e-12
1.8692905e-12
1.3173475e-12
9.2568951e-13
6.4860054e-13
4.531559e-13
3.1571415e-13
2.1935163e-13
1.5199149e-13
1.0504309e-13
7.2415328e-14
4.9803532e-14
3.4175472e-14
2.3402251e-14
1.5994056e-14
1.0911666e-14
7.4324684e-15
5.0554998e-15
3.4344966e-15
2.3308139e-15
1.5804043e-15
1.0707785e-15
7.2497552e-16
4.9044653e-16
3.31371e-16
2.2336038e-16
1.4981691e-16
9.9435329e-17
6.449081e-17
3.9665322e-17
2.1240431e-17
6.5408459e-18
3.4766299e-10
2.5543198e-10
1.8726688e-10
1.3697464e-10
9.9955864e-11
7.2768774e-11
5.2847897e-11
3.8285238e-11
2.766504e-11
1.9938987e-11
1.433253e-11
1.027467e-11
7.3454238e-12
5.2366182e-12
3.722668e-12
2.6388468e-12
1.8651827e-12
1.3145318e-12
9.2376891e-13
6.4729679e-13
4.522751e-13
3.1512185e-13
2.1895512e-13
1.517272e-13
1.0486764e-13
7.2299285e-14
4.9727033e-14
3.4125182e-14
2.3369264e-14
1.5972453e-14
1.089753e-14
7.4232182e-15
5.0494423e-15
3.4305235e-15
2.3282017e-15
1.5786814e-15
1.0696379e-15
7.2421733e-16
4.8994046e-16
3.3103207e-16
2.2313304e-16
1.4966475e-16
9.9334488e-17
6.4425646e-17
3.9625626e-17
2.1219641e-17
6.5347298e-18
3.4644946e-10
2.5458782e-10
1.8666334e-10
1.3654355e-10
9.9647241e-11
7.2547687e-11
5.2689595e-11
3.8172091e-11
2.758437e-11
1.988165e-11
1.4291923e-11
1.0246027e-11
7.3253052e-12
5.2225509e-12
3.7128771e-12
2.632064e-12
1.8605059e-12
1.3113222e-12
9.2157654e-13
6.4580619e-13
4.5126624e-13
3.1444208e-13
2.1849906e-13
1.5142247e-13
1.0466479e-13
7.2164732e-14
4.9638052e-14
3.4066489e-14
2.3330627e-14
1.5947054e-14
1.0880844e-14
7.4122567e-15
5.0422354e-15
3.4257779e-15
2.3250697e-15
1.5766083e-15
1.068261e-15
7.232994e-16
4.8932628e-16
3.3061992e-16
2.2285613e-16
1.4947918e-16
9.9211359e-17
6.4345968e-17
3.9576992e-17
2.119408e-17
6.5271614e-18
3.4508437e-10
2.5362655e-10
1.8597572e-10
1.3605164e-10
9.929514e-11
7.2295686e-11
5.2509396e-11
3.8043459e-11
2.7492768e-11
1.9816607e-11
1.4245894e-11
1.0213573e-11
7.3025148e-12
5.2066136e-12
3.7017804e-12
2.6243718e-12
1.8551976e-12
1.3076755e-12
9.1908252e-13
6.441081e-13
4.5011512e-13
3.1366507e-13
2.1797672e-13
1.510727e-13
1.0443141e-13
7.2009523e-14
4.9535124e-14
3.3998395e-14
2.3285661e-14
1.5917398e-14
1.0861298e-14
7.3993719e-15
5.0337353e-15
3.4201624e-15
2.321352e-15
1.5741405e-15
1.0666176e-15
7.2220134e-16
4.885902e-16
3.3012522e-16
2.2252338e-16
1.4925598e-16
9.9063136e-17
6.4249955e-17
3.9518298e-17
2.1163145e-17
6.5179552e-18
4.6637909e-10
3.4357954e-10
2.5254293e-10
1.8519751e-10
1.3549381e-10
9.889559e-11
7.2009771e-11
5.2305076e-11
3.7897726e-11
2.7389069e-11
1.9743027e-11
1.4193851e-11
1.0176892e-11
7.2767591e-12
5.1886007e-12
3.6892345e-12
2.6156705e-12
1.8491886e-12
1.3035436e-12
9.1625364e-13
6.4217958e-13
4.4880594e-13
3.1277994e-13
2.1738064e-13
1.5067276e-13
1.0416399e-13
7.1831263e-14
4.9416618e-14
3.391979e-14
2.3233611e-14
1.5882973e-14
1.0838542e-14
7.3843276e-15
5.0237821e-15
3.4135687e-15
2.3169753e-15
1.5712281e-15
1.0646742e-15
7.2090044e-16
4.8771686e-16
3.2953761e-16
2.2212779e-16
1.4899046e-16
9.8886702e-17
6.4135583e-17
3.9448297e-17
2.1126168e-17
6.506905e-18
4.6402766e-10
3.4189422e-10
2.5132561e-10
1.8432101e-10
1.3486431e-10
9.8444265e-11
7.1686712e-11
5.2074248e-11
3.7733146e-11
2.7272014e-11
1.9660005e-11
1.4135151e-11
1.0135529e-11
7.2477164e-12
5.1682866e-12
3.6750814e-12
2.6058498e-12
1.8424021e-12
1.2988734e-12
9.1305303e-13
6.3999518e-13
4.4732111e-13
3.1177461e-13
2.1670252e-13
1.5021696e-13
1.0385864e-13
7.1627292e-14
4.9280719e-14
3.3829436e-14
2.3173637e-14
1.5843207e-14
1.0812189e-14
7.3668614e-15
5.012198e-15
3.4058764e-15
2.3118582e-15
1.5678163e-15
1.0623934e-15
7.193715e-16
4.8668923e-16
3.2884557e-16
2.2166161e-16
1.4867741e-16
9.8678604e-17
6.4000609e-17
3.936561e-17
2.108241e-17
6.4937831e-18
8.4470093e-10
6.2489542e-10
4.6145712e-10
3.4001472e-10
2.499628e-10
1.8333749e-10
1.3415673e-10
9.7936423e-11
7.1323004e-11
5.1814333e-11
3.754784e-11
2.714024e-11
1.9566563e-11
1.4069094e-11
1.0088985e-11
7.2150356e-12
5.1454238e-12
3.6591478e-12
2.5947885e-12
1.8347537e-12
1.293606e-12
9.0943997e-13
6.3752672e-13
4.4564122e-13
3.1063569e-13
2.1593315e-13
1.49699e-13
1.0351102e-13
7.139466e-14
4.9125415e-14
3.3725965e-14
2.3104806e-14
1.5797468e-14
1.078181e-14
7.3466823e-15
4.9987859e-15
3.3969522e-15
2.3059103e-15
1.5638439e-15
1.059734e-15
7.1758666e-16
4.8548848e-16
3.280364e-16
2.2111628e-16
1.483111e-16
9.8435029e-17
6.3842562e-17
3.9268716e-17
2.1031057e-17
6.4783387e-18
1.1318284e-09
8.3918612e-10
6.2099674e-10
4.5858883e-10
3.3791799e-10
2.4844033e-10
1.8223701e-10
1.3336395e-10
9.7366859e-11
7.0914833e-11
5.1522542e-11
3.7339776e-11
2.6992277e-11
1.9461643e-11
1.3994923e-11
1.0036721e-11
7.1783338e-12
5.1197423e-12
3.6412437e-12
2.5823536e-12
1.8261505e-12
1.2876769e-12
9.0536962e-13
6.3474314e-13
4.4374479e-13
3.0934839e-13
2.1506237e-13
1.491119e-13
1.0311638e-13
7.1130104e-14
4.894848e-14
3.360786e-14
2.3026089e-14
1.5745055e-14
1.074693e-14
7.3234689e-15
4.9833284e-15
3.3866489e-15
2.2990323e-15
1.5592438e-15
1.0566507e-15
7.155152e-16
4.8409387e-16
3.270961e-16
2.2048237e-16
1.478852e-16
9.8151785e-17
6.3658723e-17
3.9155942e-17
2.0971213e-17
6.4602963e-18
1.1234173e-09
8.3308709e-10
6.1660105e-10
4.5538132e-10
3.3557958e-10
2.4674224e-10
1.8100853e-10
1.3247807e-10
9.6729883e-11
7.0458059e-11
5.1195859e-11
3.7106763e-11
2.6826539e-11
1.9344102e-11
1.3911818e-11
9.9781522e-12
7.137196e-12
5.0909486e-12
3.6211625e-12
2.5684001e-12
1.8164911e-12
1.2810153e-12
9.0079278e-13
6.3161035e-13
4.4160826e-13
3.0789645e-13
2.1407899e-13
1.4844799e-13
1.0266945e-13
7.0830029e-14
4.8747462e-14
3.3473453e-14
2.293635e-14
1.5685199e-14
1.0707027e-14
7.296867e-15
4.9655856e-15
3.3748043e-15
2.2911145e-15
1.5539418e-15
1.0530933e-15
7.1312334e-16
4.824826e-16
3.260093e-16
2.1974953e-16
1.4739278e-16
9.7824278e-17
6.3446115e-17
3.902546e-17
2.0901899e-17
6.4393544e-18
1.1141464e-09
8.2632735e-10
6.1168936e-10
4.5180385e-10
3.3297545e-10
2.4485157e-10
1.7964005e-10
1.3149055e-10
9.6019317e-11
6.9948205e-11
5.0831033e-11
3.6846441e-11
2.664132e-11
1.9212709e-11
1.3818897e-11
9.9126486e-12
7.0911736e-12
5.0587249e-12
3.5986797e-12
2.5527702e-12
1.805665e-12
1.2735441e-12
8.9565574e-13
6.2809105e-13
4.3920582e-13
3.0626206e-13
2.1297076e-13
1.4769883e-13
1.0216446e-13
7.0490489e-14
4.8519668e-14
3.3320908e-14
2.2834342e-14
1.5617053e-14
1.0661526e-14
7.2664878e-15
4.9452946e-15
3.3612407e-15
2.2820368e-15
1.5478568e-15
1.049007e-15
7.1037411e-16
4.8062972e-16
3.2475918e-16
2.1890645e-16
1.4682628e-16
9.7447491e-17
6.3201489e-17
3.8875273e-17
2.0822048e-17
6.415185e-18
1.1039151e-09
8.1884334e-10
6.0623055e-10
4.4782673e-10
3.3008158e-10
2.4275057e-10
1.781188e-10
1.3039218e-10
9.522852e-11
6.9380456e-11
5.0424573e-11
3.6556283e-11
2.6434791e-11
1.9066147e-11
1.3715213e-11
9.8395328e-12
7.0397842e-12
5.0227286e-12
3.5735534e-12
2.5352935e-12
1.7935525e-12
1.2651795e-12
8.8990015e-13
6.241447e-13
4.3650936e-13
3.044258e-13
2.1172427e-13
1.4685523e-13
1.015951e-13
7.0107168e-14
4.8262153e-14
3.3148219e-14
2.2718699e-14
1.5539689e-14
1.0609799e-14
7.2319059e-15
4.9221676e-15
3.3457636e-15
2.2716678e-15
1.5409002e-15
1.0443322e-15
7.0722717e-16
4.7850805e-16
3.2332744e-16
2.1794084e-16
1.4617746e-16
9.7015973e-17
6.2921315e-17
3.8703215e-17
2.0730501e-17
6.3874318e-18
1.0926283e-09
8.1057224e-10
6.0018514e-10
4.434186e-10
3.2687338e-10
2.4042086e-10
1.7643132e-10
1.291732e-10
9.4350412e-11
6.8749682e-11
4.9972758e-11
3.6233591e-11
2.6205002e-11
1.890301e-11
1.3599756e-11
9.7580814e-12
6.9825115e-12
4.9825931e-12
3.5455238e-12
2.5157866e-12
1.7800247e-12
1.2558314e-12
8.8346295e-13
6.1972741e-13
4.3348844e-13
3.0236661e-13
2.1032502e-13
1.459072e-13
1.0095452e-13
6.9675371e-14
4.7971708e-14
3.2953199e-14
2.2587936e-14
1.5452099e-14
1.0551163e-14
7.1926583e-15
4.8958914e-15
3.3281613e-15
2.2598646e-15
1.5329756e-15
1.0390037e-15
7.0363871e-16
4.7608806e-16
3.216942e-16
2.1683934e-16
1.4543739e-16
9.6523818e-17
6.2601776e-17
3.8506943e-17
2.0626007e-17
6.3557101e-18
1.0801914e-09
8.0144894e-10
5.9350848e-10
4.38546e-10
3.2332538e-10
2.3784339e-10
1.7456359e-10
1.2782336e-10
9.3377533e-11
6.8050458e-11
4.9471651e-11
3.5875512e-11
2.594989e-11
1.872181e-11
1.3471455e-11
9.6675265e-12
6.918807e-12
4.9379276e-12
3.5143138e-12
2.4940538e-12
1.7649438e-12
1.2454028e-12
8.7627648e-13
6.1479201e-13
4.3011028e-13
3.0006177e-13
2.087573e-13
1.4484393e-13
1.0023528e-13
6.9190017e-14
4.7644863e-14
3.2733483e-14
2.2440442e-14
1.5353188e-14
1.0484875e-14
7.1482426e-15
4.8661265e-15
3.3082046e-15
2.2464727e-15
1.5239787e-15
1.0329512e-15
6.9956136e-16
4.7333787e-16
3.1983801e-16
2.1558755e-16
1.4459647e-16
9.5964668e-17
6.2238761e-17
3.8283936e-17
2.0507218e-17
6.3196065e-18
1.0665103e-09
7.9140621e-10
5.861527e-10
4.3317363e-10
3.1941115e-10
2.3499845e-10
1.7250106e-10
1.2633199e-10
9.2302093e-11
6.7277112e-11
4.8917128e-11
3.5479056e-11
2.5667288e-11
1.8520981e-11
1.3329184e-11
9.5670592e-12
6.8480919e-12
4.8883195e-12
3.4796301e-12
2.4698873e-12
1.7481633e-12
1.2337909e-12
8.6826858e-13
6.0928811e-13
4.263398e-13
2.9748696e-13
2.0700431e-13
1.4365382e-13
9.9429432e-14
6.8645639e-14
4.7277879e-14
3.2486519e-14
2.227448e-14
1.5241777e-14
1.0410136e-14
7.0981177e-15
4.832507e-15
3.2856464e-15
2.2313252e-15
1.513797e-15
1.0260991e-15
6.9494414e-16
4.7022317e-16
3.1773583e-16
2.1417002e-16
1.4364436e-16
9.5331709e-17
6.1827868e-17
3.8031497e-17
2.0372697e-17
6.2786789e-18
1.0514916e-09
7.8037566e-10
5.780681e-10
4.272649e-10
3.1510352e-10
2.3186588e-10
1.7022881e-10
1.2468813e-10
9.1116058e-11
6.6423778e-11
4.8304916e-11
3.5041116e-11
2.5354946e-11
1.8298896e-11
1.3171767e-11
9.4558353e-12
6.7697612e-12
4.8333367e-12
3.4411652e-12
2.4430691e-12
1.7295289e-12
1.2208869e-12
8.5936299e-13
6.0316236e-13
4.2213983e-13
2.9461635e-13
2.0504814e-13
1.4232453e-13
9.8528458e-14
6.8036401e-14
4.6866761e-14
3.220958e-14
2.2088194e-14
1.5116605e-14
1.0326088e-14
7.0417036e-15
4.7946407e-15
3.2602219e-15
2.2142435e-15
1.5023102e-15
1.0183663e-15
6.8973254e-16
4.6670732e-16
3.1536304e-16
2.1257027e-16
1.4257009e-16
9.4617678e-17
6.1364413e-17
3.7746758e-17
2.022091e-17
6.2324574e-18
1.035043e-09
7.6828882e-10
5.6920427e-10
4.2078262e-10
3.1037493e-10
2.2842523e-10
1.6773174e-10
1.2288063e-10
8.9811251e-11
6.5484468e-11
4.7630646e-11
3.4558509e-11
2.5010552e-11
1.8053881e-11
1.2997995e-11
9.3329834e-12
6.6831891e-12
4.7725312e-12
3.3985996e-12
2.413372e-12
1.7088797e-12
1.2065774e-12
8.4947984e-13
5.963588e-13
4.1747127e-13
2.9142272e-13
2.0286992e-13
1.4084299e-13
9.7523362e-14
6.7356118e-14
4.6407271e-14
3.189977e-14
2.1879608e-14
1.4976327e-14
1.0231822e-14
6.9783832e-15
4.7521105e-15
3.2316494e-15
2.1950378e-15
1.4893905e-15
1.0096667e-15
6.8386865e-16
4.627514e-16
3.1269352e-16
2.1077079e-16
1.4136199e-16
9.3814894e-17
6.084344e-17
3.7426685e-17
2.0050243e-17
6.1804459e-18
1.0170744e-09
7.5507841e-10
5.5951133e-10
4.1368982e-10
3.0519796e-10
2.2465617e-10
1.6499477e-10
1.2089838e-10
8.8379481e-11
6.4453173e-11
4.6889917e-11
3.4028025e-11
2.4631767e-11
1.7784236e-11
1.280664e-11
9.197616e-12
6.5877369e-12
4.7054448e-12
3.3516056e-12
2.3805626e-12
1.6860501e-12
1.190745e-12
8.3853646e-13
5.8881934e-13
4.1229346e-13
2.8787772e-13
2.0044993e-13
1.3919555e-13
9.6404714e-14
6.65983e-14
4.5894955e-14
3.1554041e-14
2.1646643e-14
1.4819529e-14
1.0126376e-14
6.9075052e-15
4.7044758e-15
3.1996315e-15
2.1735074e-15
1.4749026e-15
9.9990949e-16
6.7729137e-16
4.583144e-16
3.0969978e-16
2.0875321e-16
1.4000782e-16
9.2915283e-17
6.0259749e-17
3.7068101e-17
1.9859e-17
6.1221244e-18
9.9750005e-10
7.4067996e-10
5.4894114e-10
4.0595066e-10
2.9954593e-10
2.2053886e-10
1.620032e-10
1.1873048e-10
8.6812713e-11
6.3323975e-11
4.6078387e-11
3.3446484e-11
2.421627e-11
1.7488272e-11
1.2596473e-11
9.0488443e-12
6.4827632e-12
4.6316162e-12
3.2998523e-12
2.3444043e-12
1.6608716e-12
1.1732704e-12
8.2644838e-13
5.8048449e-13
4.0656465e-13
2.8395214e-13
1.9776783e-13
1.3736809e-13
9.5162747e-14
6.5756211e-14
4.5325183e-14
3.1169222e-14
2.1387132e-14
1.4644734e-14
1.0008747e-14
6.828389e-15
4.6512761e-15
3.1638569e-15
2.1494425e-15
1.4587053e-15
9.889995e-16
6.6993686e-16
4.5335346e-16
3.063531e-16
2.0649831e-16
1.3849481e-16
9.1910442e-17
5.960793e-17
3.6667697e-17
1.964542e-17
6.0569529e-18
9.7624062e-10
7.2503363e-10
5.3744876e-10
3.9753151e-10
2.9339373e-10
2.1605459e-10
1.5874309e-10
1.1636658e-10
8.5103269e-11
6.2091203e-11
4.5191873e-11
3.2810812e-11
2.3761808e-11
1.7164343e-11
1.2366294e-11
8.8857966e-12
6.3676365e-12
4.5505893e-12
3.2430118e-12
2.3046621e-12
1.6331762e-12
1.1540338e-12
8.1313076e-13
5.7129431e-13
4.0024264e-13
2.796164e-13
1.9480295e-13
1.3534621e-13
9.3787476e-14
6.4822951e-14
4.4693204e-14
3.0742049e-14
2.1098843e-14
1.4450418e-14
9.877896e-15
6.7403311e-15
4.592035e-15
3.1240037e-15
2.1226259e-15
1.4406523e-15
9.7683843e-16
6.6173905e-16
4.4782427e-16
3.0262381e-16
2.0398629e-16
1.3680979e-16
9.0791708e-17
5.8882412e-17
3.6222073e-17
1.9407691e-17
5.9843756e-18
9.5322614e-10
7.0808638e-10
5.2499415e-10
3.884022e-10
2.867187e-10
2.1118636e-10
1.5520171e-10
1.1379718e-10
8.3244074e-11
6.0749599e-11
4.4226483e-11
3.2118133e-11
2.3266262e-11
1.6810891e-11
1.2114965e-11
8.7076409e-12
6.2417515e-12
4.4619252e-12
3.1807668e-12
2.2611074e-12
1.6027999e-12
1.132918e-12
7.9850012e-13
5.6118956e-13
3.9328558e-13
2.7484103e-13
1.9153464e-13
1.331155e-13
9.2268868e-14
6.3791566e-14
4.3994216e-14
3.0269219e-14
2.0779509e-14
1.4235032e-14
9.7327694e-15
6.6426141e-15
4.5262661e-15
3.079743e-15
2.0928357e-15
1.4205942e-15
9.6332569e-16
6.526304e-16
4.4168155e-16
2.9848159e-16
2.0119693e-16
1.3493933e-16
8.9550259e-17
5.8077526e-17
3.572777e-17
1.9143972e-17
5.9038281e-18
9.2839922e-10
6.8979445e-10
5.1154397e-10
3.7853742e-10
2.7950163e-10
2.0591964e-10
1.5136811e-10
1.1101404e-10
8.1228942e-11
5.9294533e-11
4.3178761e-11
3.1365876e-11
2.2727725e-11
1.6426507e-11
1.1841443e-11
8.5136127e-12
6.1045482e-12
4.3652152e-12
3.1128199e-12
2.2135248e-12
1.5695873e-12
1.1098113e-12
7.8247647e-13
5.5011321e-13
3.8565298e-13
2.6959741e-13
1.8794273e-13
1.3066181e-13
9.0597048e-14
6.2655189e-14
4.322346e-14
2.9747448e-14
2.0426872e-14
1.399703e-14
9.5723099e-15
6.5345185e-15
4.453481e-15
3.030744e-15
2.0598484e-15
1.3983802e-15
9.4836002e-16
6.4254291e-16
4.3487972e-16
2.9389599e-16
1.981099e-16
1.3286996e-16
8.8177244e-17
5.7187589e-17
3.5181322e-17
1.885242e-17
5.8147447e-18
9.01719e-10
6.7012624e-10
4.9707376e-10
3.6791828e-10
2.7172799e-10
2.0024326e-10
1.4723373e-10
1.0801061e-10
7.9052903e-11
5.7722236e-11
4.2045857e-11
3.0551894e-11
2.2144586e-11
1.6009985e-11
1.1544833e-11
8.303046e-12
5.9555341e-12
4.2600966e-12
3.0389051e-12
2.1617199e-12
1.5333969e-12
1.0846113e-12
7.6498591e-13
5.3801221e-13
3.773069e-13
2.6385854e-13
1.840081e-13
1.2797167e-13
8.8762556e-14
6.1407206e-14
4.2376335e-14
2.9173547e-14
2.0038732e-14
1.3734899e-14
9.3954822e-15
6.4153375e-15
4.3731989e-15
2.9766809e-15
2.0234436e-15
1.3738618e-15
9.3184134e-16
6.3140938e-16
4.2737375e-16
2.8883687e-16
1.9470512e-16
1.3058837e-16
8.6663939e-17
5.6207007e-17
3.457932e-17
1.8531221e-17
5.716569e-18
8.7316613e-10
6.4906551e-10
4.8157024e-10
3.5653398e-10
2.6338908e-10
1.9415029e-10
1.4279309e-10
1.0478258e-10
7.6712559e-11
5.6030061e-11
4.0825721e-11
2.9674606e-11
2.1515632e-11
1.55604e-11
1.1224432e-11
8.0754104e-12
5.7943106e-12
4.1462711e-12
2.9588006e-12
2.1055285e-12
1.4941077e-12
1.0572292e-12
7.459637e-13
5.2483958e-13
3.6821345e-13
2.5760008e-13
1.7971338e-13
1.2503271e-13
8.6756655e-14
6.0041474e-14
4.1448539e-14
2.854452e-14
1.9613012e-14
1.3447204e-14
9.2012999e-15
6.2843957e-15
4.284959e-15
2.9172405e-15
1.9834092e-15
1.3468955e-15
9.1367309e-16
6.1916492e-16
4.1912015e-16
2.8327519e-16
1.9096326e-16
1.2808175e-16
8.500195e-17
5.5130399e-17
3.3918489e-17
1.8178632e-17
5.6087658e-18
8.4274658e-10
6.2661469e-10
4.6503374e-10
3.4438371e-10
2.5448349e-10
1.8763905e-10
1.3804446e-10
1.0132834e-10
7.4206481e-11
5.421677e-11
3.9517305e-11
2.8733147e-11
2.0840158e-11
1.5077186e-11
1.0879789e-11
7.8303507e-12
5.620601e-12
4.0235251e-12
2.8723427e-12
2.0448262e-12
1.451626e-12
1.0275949e-12
7.2535773e-13
5.1055685e-13
3.5834441e-13
2.5080149e-13
1.7504367e-13
1.2183425e-13
8.4571699e-14
5.8552559e-14
4.0436237e-14
2.7857673e-14
1.9147829e-14
1.3132639e-14
8.9888589e-15
6.141071e-15
4.1883355e-15
2.8521322e-15
1.9395476e-15
1.3173478e-15
8.9376507e-16
6.0574889e-16
4.1007826e-16
2.7718376e-16
1.8686622e-16
1.2533814e-16
8.3183443e-17
5.3952751e-17
3.3195777e-17
1.7793031e-17
5.4908361e-18
8.1049582e-10
6.0279805e-10
4.4748066e-10
3.3147837e-10
2.4501833e-10
1.8071411e-10
1.329907e-10
9.7649572e-11
7.1535609e-11
5.2282828e-11
3.8120787e-11
2.7727521e-11
2.0118078e-11
1.4560213e-11
1.0510763e-11
7.5677307e-12
5.434282e-12
3.8917522e-12
2.7794422e-12
1.9795402e-12
1.4058935e-12
9.9566241e-13
7.0313239e-13
4.9513674e-13
3.4767914e-13
2.4344729e-13
1.6998752e-13
1.1836784e-13
8.220155e-14
5.6936028e-14
3.9336248e-14
2.7110742e-14
1.8641584e-14
1.2790079e-14
8.7573766e-15
5.9848207e-15
4.082954e-15
2.7810995e-15
1.8916839e-15
1.2850997e-15
8.7203684e-16
5.9110707e-16
4.002117e-16
2.7053827e-16
1.8239783e-16
1.2234683e-16
8.1201428e-17
5.2669593e-17
3.2408466e-17
1.737297e-17
5.3623339e-18
7.7648269e-10
5.776647e-10
4.2894574e-10
3.1784239e-10
2.3501068e-10
1.7338729e-10
1.2763992e-10
9.3751812e-11
6.8703663e-11
5.023071e-11
3.6637787e-11
2.6658772e-11
1.9350047e-11
1.4009882e-11
1.0117588e-11
7.2876787e-12
5.2354165e-12
3.7509762e-12
2.680101e-12
1.909661e-12
1.3568957e-12
9.6141612e-13
6.792728e-13
4.7856617e-13
3.3620663e-13
2.3552856e-13
1.6453786e-13
1.1462804e-13
7.9642046e-14
5.5188761e-14
3.8146269e-14
2.6302046e-14
1.8093063e-14
1.2418657e-14
8.5062367e-15
5.8152118e-15
3.9685127e-15
2.7039331e-15
1.8396741e-15
1.2500528e-15
8.4842156e-16
5.7519428e-16
3.8949009e-16
2.633184e-16
1.7754456e-16
1.1909889e-16
7.9050072e-17
5.12772e-17
3.1554291e-17
1.6917244e-17
5.2228861e-18
7.4081349e-10
5.5129165e-10
4.0948431e-10
3.0351536e-10
2.2448873e-10
1.6567856e-10
1.2200619e-10
8.9644927e-11
6.571752e-11
4.8065178e-11
3.5071577e-11
2.5529133e-11
1.8537575e-11
1.3427203e-11
9.7009327e-12
6.9906318e-12
5.0242861e-12
3.601375e-12
2.5744292e-12
1.8352546e-12
1.3046707e-12
9.2487682e-13
6.5378927e-13
4.6084932e-13
3.239277e-13
2.2704441e-13
1.586931e-13
1.1061305e-13
7.6891512e-14
5.3309309e-14
3.6865109e-14
2.5430644e-14
1.7501542e-14
1.201783e-14
8.2350396e-15
5.6319543e-15
3.8448039e-15
2.6204865e-15
1.7834156e-15
1.212136e-15
8.2287043e-16
5.5797731e-16
3.7789098e-16
2.5550908e-16
1.722964e-16
1.1558773e-16
7.6725072e-17
4.9772828e-17
3.0631584e-17
1.6424961e-17
5.0722147e-18
7.0363464e-10
5.2378619e-10
3.8917398e-10
2.8855332e-10
2.1349278e-10
1.5761682e-10
1.1611015e-10
8.5343575e-11
6.2587554e-11
4.5793534e-11
3.3427275e-11
2.4342167e-11
1.7683131e-11
1.2813876e-11
9.2619604e-12
6.6773795e-12
4.8014222e-12
3.4433037e-12
2.4626615e-12
1.7564748e-12
1.249318e-12
8.8610798e-13
6.2672172e-13
4.4201083e-13
3.1085726e-13
2.1800362e-13
1.5245819e-13
1.0632556e-13
7.3951296e-14
5.1298261e-14
3.5492949e-14
2.4496514e-14
1.6866913e-14
1.1587464e-14
7.9436569e-15
5.434938e-15
3.7117395e-15
2.5306918e-15
1.7228582e-15
1.171313e-15
7.9535763e-16
5.3943816e-16
3.6540204e-16
2.4710199e-16
1.6664778e-16
1.1180967e-16
7.4224047e-17
4.8154966e-17
2.9639428e-17
1.5895627e-17
4.9101616e-18
6.6513199e-10
4.952877e-10
3.6811597e-10