/*--------------------------------*- C++ -*----------------------------------*\
| =========                 |                                                 |
| \\      /  F ield         | OpenFOAM: The Open Source CFD Toolbox           |
|  \\    /   O peration     | Version:  2312                                  |
|   \\  /    A nd           | Website:  www.openfoam.com                      |
|    \\/     M anipulation  |                                                 |
\*---------------------------------------------------------------------------*/
FoamFile
{
    version     2.0;
    format      ascii;
    arch        "LSB;label=32;scalar=64";
    class       volScalarField;
    location    "0.01";
    object      Ma;
}
// * * * * * * * * * * * * * * * * * * * * * * * * * * * * * * * * * * * * * //

dimensions      [0 0 0 0 0 0 0];

internalField   nonuniform List<scalar> 
3224
(
0.00062200684
0.0006906065
0.00076177749
0.0008346449
0.0009105027
0.00098922961
0.0010693421
0.0011512426
0.0012346469
0.0013192996
0.0014049026
0.0014911374
0.0015776656
0.0016641324
0.0017501702
0.0018354022
0.0019194466
0.002001921
0.0020824471
0.0021606557
0.0022361916
0.0023087185
0.0023779238
0.0024435228
0.0025052624
0.0025629243
0.0026163294
0.0026653379
0.0027098506
0.0027498102
0.0027852007
0.0028160468
0.0028424116
0.0028643974
0.0028821334
0.0028958094
0.0029055339
0.0029118553
0.0029137792
0.0029165479
0.0028989364
0.00062206383
0.00069063416
0.00076174934
0.00083472333
0.0009105613
0.00098912556
0.0010692546
0.0011511447
0.0012345309
0.001319163
0.0014047443
0.0014909568
0.0015774621
0.0016639057
0.0017499201
0.0018351287
0.0019191497
0.0020016011
0.0020821046
0.0021602912
0.0022358059
0.0023083127
0.0023774989
0.0024430801
0.0025048033
0.0025624502
0.0026158419
0.0026648385
0.0027093408
0.0027492916
0.0027846748
0.0028155149
0.0028418749
0.0028638568
0.0028815894
0.0028952625
0.0029049833
0.0029113022
0.002913216
0.002915993
0.002898388
0.00062220117
0.00069074387
0.00076180363
0.00083485112
0.00091067529
0.000989107
0.001069224
0.0011510918
0.0012344506
0.0013190515
0.0014045989
0.0014907752
0.0015772426
0.0016636468
0.0017496205
0.0018347874
0.0019187663
0.0020011753
0.0020816366
0.0021597817
0.0022352558
0.0023077235
0.0023768724
0.0024424185
0.0025041091
0.0025617262
0.0026150909
0.0026640637
0.0027085453
0.0027484784
0.002783847
0.0028146752
0.0028410259
0.0028630006
0.0028807274
0.0028943955
0.0029041101
0.0029104255
0.0029123192
0.002915116
0.0028975215
0.00062242153
0.0006909294
0.00076193448
0.00083503932
0.00091084754
0.00098916367
0.0010692501
0.001151084
0.001234405
0.0013189634
0.0014044643
0.0014905906
0.0015770047
0.001663353
0.0017492684
0.0018343754
0.001918293
0.0020006401
0.0020810394
0.0021591232
0.0022345373
0.0023069468
0.0023760403
0.0024415339
0.0025031757
0.0025607479
0.0026140722
0.0026630092
0.0027074596
0.0027473664
0.0027827131
0.0028135238
0.0028398608
0.0028618251
0.0028795438
0.0028932054
0.0029029117
0.0029092233
0.0029110841
0.0029139184
0.0028963245
0.00055695828
0.00062272478
0.00069118354
0.00076213483
0.00083529164
0.00091107632
0.00098928757
0.0010693294
0.0011511179
0.0012343905
0.0013188949
0.0014043365
0.0014903986
0.0015767441
0.0016630199
0.0017488596
0.0018338881
0.0019177254
0.0019999911
0.0020803089
0.0021583116
0.0022336463
0.002305979
0.0023749987
0.0024404227
0.0025019996
0.0025595123
0.0026127829
0.0026616721
0.0027060813
0.0027459529
0.0027812707
0.0028120584
0.0028383775
0.0028603283
0.0028780369
0.0028916908
0.0029013872
0.0029076958
0.0029095074
0.0029124065
0.0028947839
0.00055738489
0.00062310769
0.00069150241
0.000762407
0.00083560895
0.00091135922
0.00098947712
0.0010694644
0.0011511974
0.0012344115
0.0013188511
0.0014042217
0.0014902068
0.0015764699
0.0016626582
0.0017484064
0.0018333401
0.0019170802
0.0019992472
0.0020794661
0.0021573707
0.0022326091
0.0023048484
0.0023737789
0.0024391187
0.0025006171
0.002558058
0.0026112638
0.002660096
0.0027044558
0.0027442859
0.0027795699
0.0028103309
0.00283663
0.0028585666
0.0028762652
0.0028899125
0.0028996015
0.0029059089
0.0029076735
0.0029106416
0.0028929862
0.0005579349
0.00062360754
0.00069193253
0.00076279865
0.00083602172
0.00091173101
0.00098975874
0.0010696802
0.0011513437
0.0012344841
0.0013188424
0.0014041239
0.0014900125
0.0015761723
0.0016622513
0.0017478849
0.0018327001
0.0019163187
0.0019983627
0.0020784582
0.0021562406
0.0022313595
0.0023034831
0.002372303
0.002437539
0.0024989411
0.0025562942
0.0026094215
0.0026581849
0.0027024862
0.0027422679
0.0027775135
0.0028082458
0.002834525
0.0028564494
0.0028741426
0.0028877888
0.0028974806
0.0029037882
0.0029055537
0.0029085212
0.0028909167
0.00055865005
0.00062425827
0.00069251097
0.00076334257
0.00083656133
0.00091221825
0.00099014938
0.0010699891
0.0011515638
0.0012346091
0.0013188624
0.0014040293
0.0014897939
0.001575821
0.0016617596
0.0017472465
0.0018319098
0.0019153729
0.0019972595
0.0020771975
0.002154824
0.0022297905
0.0023017669
0.0023704467
0.002435551
0.0024968316
0.0025540743
0.0026071033
0.0026557814
0.0027000105
0.0027397336
0.0027749337
0.0028056332
0.0028318914
0.0028538054
0.0028714975
0.0028851485
0.0028948543
0.0029011645
0.0029029806
0.00290588
0.0028884063
0.00049667273
0.00055951011
0.00062504124
0.00069322922
0.00076401664
0.00083721133
0.00091280387
0.00099063126
0.001070374
0.0011518417
0.0012347714
0.0013188976
0.0014039256
0.0014895401
0.0015754067
0.0016611758
0.0017464854
0.0018309652
0.0019142408
0.0019959377
0.0020756858
0.0021531247
0.0022279079
0.0022997075
0.0023682191
0.0024331657
0.0024943007
0.0025514116
0.0026043237
0.0026529004
0.0026970444
0.0027366988
0.0027718464
0.0028025088
0.0028287446
0.0028506491
0.0028683436
0.0028820047
0.0028917337
0.0028980495
0.002899953
0.002902737
0.0028854408
0.00049773569
0.00056049513
0.00062594324
0.00069407414
0.00076480433
0.00083795557
0.00091347115
0.00099118705
0.001070818
0.0011521614
0.0012349559
0.0013189335
0.0014037994
0.0014892389
0.0015749186
0.0016604902
0.0017455935
0.0018298601
0.0019129177
0.0019943941
0.0020739219
0.0021511431
0.0022257138
0.0022973086
0.0023656255
0.0024303897
0.0024913566
0.0025483153
0.0026010926
0.0026495529
0.0026935994
0.0027331754
0.0027682634
0.0027988844
0.002825096
0.0028469918
0.0028646915
0.0028783671
0.0028881269
0.002894452
0.0028964681
0.0028991045
0.0028820113
0.00043905107
0.0004989174
0.0005615855
0.000626956
0.00069502299
0.00076568559
0.00083877525
0.00091420119
0.00099179686
0.0010713017
0.0011525043
0.0012351449
0.0013189534
0.0014036353
0.0014888762
0.001574344
0.001659692
0.0017445617
0.0018285871
0.0019113982
0.0019926256
0.0020719046
0.0021488801
0.002223211
0.0022945749
0.0023626724
0.0024272311
0.0024880088
0.0025447965
0.0025974223
0.0026457519
0.0026896892
0.0027291776
0.0027641994
0.0027947747
0.0028209601
0.0028428471
0.0028605542
0.0028742481
0.0028840446
0.0028903827
0.0028925277
0.0028949924
0.0028781196
0.00044044127
0.00050019443
0.00056276592
0.00062806449
0.00069605585
0.0007666392
0.00083965015
0.00091497351
0.00099243921
0.001071804
0.0011528499
0.0012353188
0.0013189388
0.0014034156
0.0014884358
0.0015736683
0.001658768
0.0017433788
0.001827137
0.0019096752
0.001990627
0.0020696309
0.0021463347
0.0022204008
0.0022915096
0.0023593649
0.0024236969
0.0024842659
0.002540865
0.002593324
0.0026415097
0.0026853268
0.0027247189
0.002759668
0.0027901935
0.0028163504
0.0028382285
0.0028559444
0.0028696594
0.0028794968
0.0028858517
0.0028881348
0.00289041
0.0028737712
0.00038520536
0.00044192492
0.00050155146
0.00056402743
0.00062924414
0.00069715006
0.00076764186
0.000840558
0.00091576567
0.00099309078
0.0010723017
0.0011531757
0.0012354556
0.0013188688
0.001403121
0.0014878995
0.0015728748
0.0016577037
0.001742032
0.0018254989
0.0019077399
0.0019883918
0.0020670963
0.0021435048
0.002217283
0.0022881148
0.0023557071
0.002419793
0.0024801356
0.0025365301
0.0025888081
0.0026368377
0.0026805245
0.0027198124
0.0027546828
0.0027851543
0.0028112806
0.002833149
0.0028508745
0.0028646129
0.0028744935
0.0028808687
0.0028832937
0.0028853669
0.0028689744
0.00038692511
0.00044348374
0.00050298159
0.00056534908
0.000630472
0.00069828132
0.00076866884
0.0008414747
0.00091655331
0.0009937264
0.0010727697
0.0011534569
0.0012355317
0.0013187206
0.0014027297
0.0014872472
0.001571945
0.0016564818
0.0017405062
0.0018236598
0.0019055815
0.0019859113
0.0020642946
0.0021403863
0.0022138559
0.0022843909
0.0023517014
0.0024155238
0.0024756239
0.0025317995
0.0025838838
0.0026317465
0.0026752939
0.00271447
0.0027492562
0.0027796698
0.002805763
0.0028276209
0.0028453563
0.0028591195
0.0028690445
0.0028754431
0.0028780096
0.0028798731
0.0028637383
0.00033551793
0.00038872927
0.00044510731
0.00050446394
0.00056670894
0.00063172407
0.00069942404
0.00076969383
0.00084237425
0.00091731015
0.00099431908
0.0010731811
0.0011536671
0.001235521
0.001318469
0.0014022177
0.0014864561
0.0015708577
0.0016550834
0.0017387841
0.0018216046
0.001903187
0.0019831749
0.0020612173
0.0021369733
0.0022101158
0.0022803364
0.0023473486
0.0024108921
0.0024707357
0.0025266796
0.002578559
0.002626245
0.0026696448
0.0027087027
0.0027433995
0.0027737516
0.0027998094
0.0028216556
0.0028394006
0.0028531893
0.0028631587
0.0028695836
0.0028722885
0.0028739385
0.0028580725
0.00033764142
0.00039060497
0.00044678116
0.00050597795
0.00056808419
0.00063297549
0.00070055147
0.00077068919
0.00084322888
0.00091800794
0.00099483986
0.0010735068
0.0011537772
0.0012353953
0.0013180868
0.0014015588
0.0014855013
0.0015695897
0.0016534867
0.0017368461
0.0018193157
0.0019005411
0.0019801695
0.002057854
0.0021332574
0.0022060569
0.0022759478
0.0023426473
0.0024058987
0.0024654735
0.0025211748
0.0025728397
0.0026203406
0.0026635858
0.0027025197
0.0027371226
0.0027674098
0.00279343
0.0028152632
0.0028330171
0.0028468315
0.0028568445
0.0028632984
0.0028661368
0.0028675733
0.0028519868
0.00029068905
0.00033985461
0.00039253889
0.00044848838
0.00050750304
0.00056945128
0.0006342004
0.00070163574
0.00077162578
0.00084400898
0.00091861648
0.00099525783
0.0010737156
0.0011537564
0.001235124
0.0013175441
0.0014007243
0.0014843556
0.001568115
0.0016516676
0.00173467
0.0018167731
0.001897626
0.0019768798
0.0020541915
0.0021292282
0.002201671
0.0022712192
0.0023375941
0.0024005421
0.0024598381
0.0025152876
0.0025667298
0.0026140388
0.0026571235
0.0026959285
0.0027304337
0.0027606531
0.0027866335
0.0028084523
0.0028262144
0.0028400542
0.0028501094
0.0028565951
0.002859561
0.0028607869
0.0028454906
0.00029338226
0.0003421477
0.00039451722
0.00045021151
0.00050901817
0.000570786
0.00063537198
0.00070264783
0.00077247308
0.00084468315
0.00091910355
0.00099553996
0.0010737744
0.0011535713
0.0012346743
0.0013168088
0.0013996828
0.0014829887
0.0015664051
0.0016495994
0.001732231
0.001813954
0.0018944212
0.0019732875
0.002050214
0.0021248721
0.0021969471
0.0022661423
0.0023321827
0.0023948184
0.0024538274
0.002509018
0.0025602312
0.0026073426
0.0026502621
0.0026889344
0.0027233387
0.002753488
0.0027794268
0.00280123
0.0028189992
0.002832864
0.0028429601
0.0028494802
0.0028525676
0.0028535885
0.0028385927
0.00029619501
0.00034451197
0.00039652666
0.00045193278
0.00051050185
0.00057206337
0.00063646247
0.00070355762
0.00077319911
0.00084521818
0.00091943493
0.00099565113
0.0010736473
0.0011531862
0.0012340106
0.0013158458
0.0013984005
0.001481368
0.0015644287
0.0016472524
0.0017295012
0.0018108326
0.0018909031
0.0019693714
0.0020459029
0.002120173
0.0021918714
0.0022607054
0.002326404
0.0023887207
0.0024474368
0.0025023631
0.0025533426
0.0026002525
0.0026430035
0.0026815403
0.0027158415
0.0027459188
0.0027718146
0.0027936012
0.0028113768
0.0028252661
0.0028354017
0.0028419593
0.0028451621
0.0028459859
0.0028313006
0.00029912545
0.00034694001
0.00039855453
0.00045363449
0.00051193221
0.00057325781
0.00063744323
0.00070433388
0.00077377049
0.00084557909
0.00091957436
0.00099555405
0.0010732966
0.0011525629
0.0012330949
0.0013146178
0.0013968406
0.0014794577
0.0015621514
0.0016445938
0.0017264498
0.0018073802
0.001887045
0.0019651072
0.002041236
0.0021151113
0.0021864268
0.002254894
0.0023202458
0.002382239
0.0024406582
0.0024953169
0.0025460599
0.0025927659
0.0026353463
0.002673746
0.0027079429
0.0027379471
0.0027637992
0.0027855684
0.0028033499
0.0028172634
0.0028274376
0.002834036
0.0028373491
0.0028379855
0.0028236206
0.00025934682
0.00030217377
0.00034942595
0.00040058907
0.00045529934
0.00051328729
0.00057434326
0.00063828481
0.00070494424
0.00077415237
0.00084572913
0.00091948354
0.00099520918
0.001072682
0.0011516607
0.0012318865
0.0013130842
0.0013949632
0.0014772191
0.0015595357
0.0016415876
0.0017230424
0.0018035642
0.0018828167
0.0019604667
0.0020361878
0.0021096637
0.0021805924
0.0022486896
0.0023136917
0.0023753594
0.00243348
0.0024878697
0.0025383752
0.0025848765
0.0026272859
0.0026655481
0.0026996404
0.0027295713
0.0027553796
0.0027771314
0.0027949186
0.0028088566
0.002819069
0.0028257121
0.002829131
0.0028295916
0.0028155566
0.00026330401
0.00030534314
0.00035196594
0.00040261991
0.0004569108
0.00051454535
0.00057529342
0.00063895712
0.0007053553
0.00077430855
0.00084562979
0.00091912216
0.00099457475
0.0010717606
0.0011504363
0.0012303418
0.0013112016
0.0013927255
0.0014746099
0.0015565406
0.0016381941
0.001719241
0.0017993486
0.0018781841
0.0019554182
0.0020307284
0.0021038027
0.0021743433
0.0022420695
0.0023067217
0.0023680638
0.0024258862
0.0024800075
0.0025302764
0.002576574
0.0026188133
0.002656939
0.0026909275
0.0027207862
0.0027465512
0.0027682863
0.0027860798
0.002800043
0.0028102944
0.0028169867
0.002820508
0.0028208058
0.00280711
0.00020295031
0.00023187256
0.00026746926
0.00030863981
0.00035455881
0.00040463851
0.00045845351
0.00051568514
0.00057608195
0.00063942949
0.00070553272
0.00077420145
0.00084524089
0.00091844784
0.00099360668
0.0010704871
0.0011488434
0.0012284142
0.0013089234
0.001390081
0.0014715846
0.0015531213
0.0016343699
0.0017150037
0.001794693
0.0018731087
0.0019499251
0.0020248237
0.0020974966
0.0021676497
0.0022350064
0.0022993105
0.0023603294
0.0024178562
0.0024717118
0.0025217467
0.0025678434
0.0026099152
0.0026479067
0.0026817936
0.0027115818
0.0027373054
0.0027590252
0.0027768266
0.0027908165
0.0028011085
0.0028078553
0.0028114767
0.0028116261
0.0027982788
0.00019015622
0.00020978585
0.00023740783
0.00027186069
0.00031207393
0.00035720654
0.00040663868
0.00045991372
0.00051668634
0.0005766828
0.00063967098
0.00070544133
0.00077379227
0.00084452056
0.00091741624
0.00099225858
0.0010688136
0.0011468331
0.001226054
0.0013061996
0.0013869801
0.0014680937
0.0015492292
0.0016300674
0.0017102841
0.0017895528
0.0018675475
0.0019439464
0.0020184347
0.0020907083
0.0021604769
0.0022274677
0.002291428
0.002352128
0.0024093638
0.0024629584
0.002512764
0.002558664
0.0026005725
0.0026384337
0.0026722226
0.0027019435
0.0027276284
0.0027493356
0.0027671473
0.0027811664
0.0027915018
0.0027983092
0.0028020299
0.0028020464
0.0027890568
0.00019878584
0.00021703775
0.00024328512
0.00027650099
0.00031566015
0.00035991483
0.00040861716
0.00046127982
0.00051752996
0.00057707053
0.00063965061
0.00070504534
0.00077304108
0.00084342539
0.00091598103
0.00099048172
0.0010666895
0.0011443532
0.0012232081
0.0013029767
0.0013833689
0.0014640838
0.0015448114
0.0016252345
0.0017050314
0.0017838783
0.0018614526
0.0019374359
0.002011517
0.0020833954
0.0021527847
0.0022194153
0.0022830378
0.0023434255
0.0024003769
0.0024537171
0.0025032999
0.0025490096
0.0025907605
0.0026284969
0.0026621926
0.0026918506
0.002717501
0.0027391993
0.0027570249
0.002771077
0.0027814599
0.0027883347
0.0027921552
0.0027920555
0.002779433
0.00020791056
0.0002247417
0.000249538
0.00028141815
0.00031941815
0.00036269373
0.00041057422
0.0004625429
0.00051819885
0.00057722072
0.00063933766
0.00070430862
0.00077190705
0.00084191052
0.00091409396
0.00098822509
0.0010640615
0.0011413488
0.0012198204
0.0012991975
0.0013791899
0.0014594972
0.0015398105
0.0016198144
0.0016991895
0.0017776147
0.0018547705
0.0019303415
0.0020040202
0.0020755095
0.0021445262
0.0022108043
0.0022740973
0.0023341811
0.0023908568
0.0024439512
0.0024933194
0.0025388467
0.0025804476
0.0026180661
0.0026516751
0.0026812761
0.0027068973
0.0027285918
0.0027464362
0.0027605261
0.0027709621
0.0027779122
0.0027818342
0.0027816362
0.0027693902
0.00021757091
0.00023293828
0.00025620497
0.00028664576
0.00032337309
0.0003655583
0.00041251439
0.00046369737
0.00051867823
0.00057711045
0.00063870213
0.00070319495
0.0007703486
0.00083992982
0.00091170501
0.00098543537
0.0010608736
0.0011377618
0.001215831
0.001294801
0.0013743813
0.0014542716
0.0015341642
0.0016137452
0.0016926971
0.0017707016
0.0018474416
0.0019226052
0.0019958877
0.0020669954
0.0021356483
0.0022015832
0.0022645566
0.002324347
0.0023807573
0.0024336162
0.00248278
0.0025281345
0.0025695946
0.0026071037
0.002640634
0.0026701854
0.0026957842
0.0027174814
0.0027353509
0.002749485
0.0027599809
0.0027670152
0.0027710418
0.0027707644
0.0027589047
0.00022781042
0.00024167116
0.00026332964
0.00029222299
0.00032755612
0.00036852929
0.00041444714
0.00046474169
0.00051895637
0.00057671886
0.00063771511
0.00070166846
0.00076832378
0.00083743607
0.00090876249
0.0009820571
0.0010570672
0.0011335309
0.0012111765
0.0012897223
0.0013688769
0.0014483403
0.0015278054
0.0016069595
0.0016854873
0.0017630723
0.0018394004
0.0019141621
0.0019870559
0.0020577908
0.0021260899
0.0021916928
0.0022543583
0.0023138671
0.0023700242
0.0024226597
0.0024716308
0.002516824
0.002558154
0.002595564
0.002629025
0.0026585357
0.0026841206
0.0027058283
0.0027237307
0.0027379166
0.0027484807
0.002755609
0.0027597448
0.0027594078
0.0027479446
0.0002386748
0.00025098806
0.00027095991
0.00029819486
0.00033200478
0.00037163375
0.00041638764
0.00046567908
0.00051902526
0.00057602778
0.00063634942
0.00069969403
0.00076579057
0.00083438128
0.00090521326
0.00097803271
0.0010525809
0.0011285916
0.00120579
0.0012838924
0.0013626063
0.0014416315
0.0015206614
0.0015993844
0.0016774867
0.001754654
0.0018305742
0.0019049404
0.0019774537
0.0020478259
0.0021157825
0.0021810655
0.002243436
0.0023026769
0.0023585944
0.00241102
0.0024598119
0.0025048566
0.0025460691
0.0025833916
0.0026167945
0.002646275
0.0026718557
0.0026935836
0.002711528
0.0027257748
0.002736417
0.0027436501
0.002747901
0.0027475254
0.0027364691
0.00025021148
0.00026093855
0.00027914793
0.00030461181
0.00033676319
0.00037490555
0.00041835748
0.00046651833
0.0005188814
0.00057502239
0.00063458013
0.00069723782
0.00076270731
0.00083071701
0.00090100298
0.00097330279
0.0010473511
0.0011228766
0.001199601
0.0012772381
0.0013554941
0.0014340683
0.001512654
0.0015909409
0.001668616
0.0017453667
0.0018208832
0.0018948606
0.0019670023
0.0020370223
0.0021046485
0.0021696249
0.0022317147
0.0022907022
0.0023463952
0.0023986261
0.0024472534
0.0024921642
0.0025332729
0.0025705214
0.0026038788
0.002633341
0.0026589292
0.0026806881
0.0026986853
0.0027130037
0.0027237351
0.0027310847
0.0027354582
0.0027350658
0.0027244274
0.00026246808
0.0002715743
0.00028794861
0.00031152933
0.00034188194
0.00037838576
0.00042038528
0.00046727454
0.00051852658
0.00057369205
0.00063238533
0.00069426788
0.00075903322
0.00082639474
0.00089607642
0.00096780628
0.0010413115
0.0011163153
0.0011925352
0.0012696821
0.0013474604
0.0014255684
0.0015036996
0.0015815436
0.0016587888
0.0017351238
0.0018102402
0.0018838353
0.0019556142
0.002025293
0.0020926014
0.0021572853
0.0022191093
0.0022778592
0.0023333437
0.0023853959
0.0024338749
0.0024786675
0.0025196878
0.0025568769
0.002590203
0.0026196606
0.002645269
0.0026670716
0.0026851338
0.0026995359
0.002710369
0.0027178481
0.0027223527
0.0027219663
0.0027117575
0.00027549102
0.00028294613
0.00029741875
0.0003190067
0.00034741756
0.00038212259
0.00042250713
0.00046796986
0.00051796866
0.00057203102
0.00062974679
0.0006907548
0.00075472898
0.00082136643
0.00089037789
0.0009614808
0.0010343941
0.0011088346
0.001184515
0.0012611429
0.0013384205
0.0014160447
0.0014937082
0.001571101
0.0016479119
0.0017238306
0.00179855
0.0018717686
0.0019431932
0.0020125416
0.002079545
0.0021439506
0.0022055243
0.0022640529
0.0023193458
0.0023712366
0.0024195843
0.0024642756
0.0025052241
0.0025423699
0.0025756802
0.0026051481
0.0026307913
0.0026526517
0.0026707925
0.0026852918
0.0026962406
0.0027038628
0.0027085086
0.002708152
0.0026983847
0.00028932339
0.00029510346
0.00030761461
0.00032710557
0.00035343149
0.00038617108
0.00042476677
0.00046863395
0.00051722232
0.00057003928
0.0006266508
0.00068667243
0.00074975734
0.00081558502
0.00088385168
0.00095426305
0.0010265288
0.0011003585
0.0011754594
0.0012515352
0.0013282851
0.0014054042
0.0014825843
0.001559515
0.0016358853
0.0017113853
0.001785709
0.0018585559
0.001929634
0.0019986622
0.0020653729
0.0021295144
0.0021908534
0.0022491773
0.0023042959
0.002356043
0.0024042775
0.0024488854
0.0024897795
0.0025268993
0.0025602106
0.0025897051
0.002615399
0.0026373324
0.0026555671
0.0026701783
0.002681258
0.002689038
0.0026938362
0.0026935341
0.0026842211
0.00030400303
0.0003080905
0.00031858992
0.00033588749
0.0003599883
0.00039059202
0.00042721524
0.0004693042
0.00051630957
0.00056772324
0.00062308889
0.00068199862
0.00074408384
0.00080900506
0.00087644261
0.00094608927
0.0010176443
0.0010908091
0.0011652846
0.0012407698
0.0013169604
0.0013935493
0.0014702266
0.001546681
0.0016226014
0.0016976781
0.0017716055
0.0018440837
0.0019148216
0.0019835387
0.0020499683
0.0021138592
0.0021749788
0.0022331144
0.0022880761
0.0023396976
0.0023878372
0.0024323802
0.0024732385
0.0025103505
0.0025436807
0.0025732192
0.0025989808
0.002621004
0.0026393488
0.0026540882
0.002665315
0.0026732683
0.0026782315
0.0026780095
0.0026691641
0.00031955915
0.00032194453
0.00033039221
0.00034541096
0.00036715308
0.00039545013
0.0004299099
0.0004700255
0.00051525996
0.00056509621
0.00061905847
0.00067671591
0.00073767743
0.00080158334
0.00086809667
0.00093689581
0.0010076684
0.0010801065
0.001153904
0.0012287542
0.0013043486
0.0013803771
0.0014565278
0.0015324881
0.001607946
0.0016825918
0.0017561195
0.0018282297
0.0018986316
0.0019670451
0.0020332036
0.0020968564
0.0021577708
0.0022157342
0.0022705561
0.0023220698
0.0023701331
0.00241463
0.0024554714
0.0024925945
0.0025259621
0.0025555631
0.0025814106
0.0026035415
0.0026220138
0.0026368986
0.0026482899
0.0026564328
0.0026615746
0.0026614592
0.0026530954
0.00033600925
0.00033669087
0.00034305934
0.00035572733
0.00037498779
0.0004008112
0.00043291256
0.00047084919
0.0005141103
0.0005621786
0.00061456328
0.00067081208
0.00073051119
0.00079327958
0.00085876156
0.00092661971
0.00099652859
0.0010681699
0.001141229
0.0012153928
0.0012903479
0.0013657803
0.0014413757
0.0015168194
0.0015917982
0.0016660014
0.0017391228
0.0018108628
0.0018809303
0.0019490451
0.0020149408
0.0020783662
0.0021390883
0.0021968941
0.0022515924
0.0023030158
0.0023510209
0.0023954905
0.0024363341
0.0024734874
0.0025069119
0.0025365945
0.0025625468
0.002584804
0.0026034224
0.0026184708
0.0026300448
0.0026383944
0.0026437296
0.0026437481
0.0026358803
0.00035335427
0.00035233959
0.00035661431
0.00036687593
0.00038354646
0.00040673795
0.00043628634
0.00047183112
0.00051290358
0.00055899748
0.00060961342
0.0006642805
0.00072256269
0.0007840569
0.00084838736
0.00091519927
0.0009841527
0.0010549174
0.0011271694
0.0012005877
0.0012748534
0.0013496479
0.0014246533
0.0014995526
0.0015740306
0.0016477754
0.0017204798
0.0017918435
0.0018615747
0.001929393
0.0019950311
0.0020582374
0.0021187782
0.0021764394
0.0022310291
0.0022823784
0.0023303427
0.0023748032
0.0024156678
0.0024528707
0.0024863714
0.0025161551
0.0025422317
0.0025646346
0.0025834182
0.0025986493
0.0026104251
0.0026189988
0.0026245432
0.0026247238
0.0026173674
0.00037157397
0.00036887904
0.00037106
0.00037887792
0.0003928691
0.00041328447
0.00044009119
0.00047302828
0.00051168682
0.00055558537
0.00060422475
0.00065711994
0.00071381423
0.00077388223
0.00083692696
0.00090257472
0.00097046947
0.0010402676
0.0011116342
0.0011842397
0.0012577581
0.0013318655
0.0014062397
0.0014805607
0.0015545107
0.001627776
0.0017000479
0.0017710247
0.0018404139
0.0019079339
0.0019733164
0.0020363089
0.0020966765
0.0021542039
0.0022086976
0.0022599874
0.0023079269
0.0023523955
0.0023932993
0.0024305704
0.0024641665
0.0024940709
0.0025202915
0.0025428599
0.0025618283
0.0025772617
0.0025892588
0.0025980749
0.0026038451
0.0026042169
0.0025973877
0.00039061963
0.00038627048
0.00038637215
0.0003917294
0.00040297431
0.000420489
0.00044437751
0.00047449384
0.00051050742
0.00055197782
0.00059841745
0.00064933381
0.00070425246
0.00076272629
0.00082433631
0.00088868853
0.00095540917
0.0010241397
0.0010945326
0.0011662486
0.0012389533
0.0013123167
0.0013860114
0.0014597133
0.0015331018
0.0016058605
0.0016776787
0.001748253
0.0018172894
0.0018845048
0.0019496297
0.0020124099
0.002072609
0.0021300101
0.002184418
0.0022356605
0.0022835893
0.0023280815
0.0023690412
0.0024063983
0.0024401084
0.0024701525
0.0024965366
0.0025192902
0.0025384634
0.0025541189
0.0025663572
0.0025754341
0.0025814478
0.0025820404
0.0025757554
0.00041040809
0.00040444008
0.00040249231
0.00040539315
0.00041385057
0.00042836511
0.00044917792
0.00047627011
0.00050940771
0.00054820935
0.00059221319
0.00064092828
0.00069386728
0.00075056299
0.00081057427
0.00087348567
0.00093890405
0.0010064542
0.0010757747
0.0011465146
0.0012183304
0.0012908843
0.0013638432
0.0014368781
0.0015096644
0.0015818828
0.0016532198
0.0017233701
0.0017920373
0.0018589368
0.0019237969
0.0019863617
0.0020463929
0.0021036716
0.0021580004
0.0022092047
0.0022571341
0.0023016632
0.0023426936
0.0023801529
0.0024139941
0.0024441962
0.0024707625
0.0024937207
0.0025131182
0.0025290159
0.0025415154
0.0025508718
0.002557147
0.0025579913
0.0025522678
0.00043081346
0.0004232718
0.00041931896
0.00041978964
0.00042544626
0.00043689115
0.00045449692
0.00047837925
0.00050841714
0.00054430745
0.00058563059
0.00063190908
0.00068264956
0.000737368
0.0007956018
0.00085691324
0.00092088843
0.00098713375
0.0010552721
0.0011249395
0.0011957816
0.0012674519
0.0013396104
0.0014119222
0.0014840584
0.0015556955
0.0016265172
0.0016962151
0.0017644907
0.0018310566
0.0018956393
0.0019579804
0.0020178393
0.0020749947
0.0021292467
0.0021804181
0.002228356
0.0022729322
0.0023140455
0.0023516208
0.0023856086
0.0024159851
0.0024427514
0.0024659325
0.0024855733
0.0025017328
0.0025145135
0.0025241679
0.0025307237
0.0025318509
0.0025267075
0.00045165855
0.00044259713
0.00043669832
0.00043478667
0.00043765856
0.00044599817
0.00046029851
0.0004808114
0.00050754194
0.00054028389
0.00057867853
0.00062227631
0.00067058743
0.00072311612
0.00077938017
0.00083891957
0.00090129844
0.00096610311
0.0010329391
0.0011014275
0.0011712019
0.0012419058
0.0013131907
0.0013847155
0.0014561455
0.0015271529
0.0015974176
0.0016666278
0.0017344821
0.0018006905
0.0018649766
0.0019270795
0.0019867559
0.0020437817
0.0020979542
0.0021490935
0.0021970435
0.002241673
0.0022828779
0.0023205801
0.0023547271
0.0023852924
0.0024122744
0.0024356953
0.0024555976
0.0024720375
0.0024851188
0.0024950897
0.0025019455
0.0025033879
0.0024988443
0.00047270304
0.00046218537
0.00045441322
0.00045018831
0.00045032113
0.00045555653
0.00046649182
0.00048351049
0.00050675182
0.00053612334
0.00057134658
0.00061201698
0.0006576605
0.00070777697
0.00076186805
0.00081945223
0.00088007092
0.00094328899
0.0010086927
0.0010758867
0.0011444908
0.0012141368
0.001284467
0.0013551326
0.0014257926
0.0014961141
0.0015657724
0.0016344522
0.0017018483
0.0017676678
0.0018316311
0.0018934746
0.0019529517
0.0020098355
0.00206392
0.002115022
0.0021629825
0.002207667
0.0022489678
0.0022868038
0.0023211193
0.0023518847
0.0023790956
0.0024027713
0.0024229511
0.0024396893
0.0024530896
0.002463395
0.0024705705
0.0024723612
0.0024684382
0.00049363331
0.00048173138
0.00047217191
0.00046572278
0.00046319131
0.00046536149
0.00047291542
0.00048635774
0.00050596397
0.00053176869
0.00056359249
0.00060109458
0.00064383154
0.00069130864
0.00074301671
0.0007984548
0.00085714157
0.00091861925
0.00098245326
0.00104823
0.0011155535
0.0011840431
0.0012533302
0.0013230571
0.001392876
0.0014624477
0.0015314428
0.0015995415
0.0016664349
0.0017318265
0.0017954335
0.0018569887
0.0019162426
0.0019729647
0.0020269458
0.0020779993
0.0021259626
0.0021706978
0.0022120936
0.0022500654
0.0022845543
0.0023155273
0.0023429769
0.0023669193
0.0023873907
0.0024044429
0.0024181794
0.0024288367
0.0024363517
0.0024385248
0.0024352446
0.00051404889
0.00050084385
0.00048959543
0.00048102984
0.00047593658
0.00047511825
0.00047932059
0.0004891535
0.0005050246
0.00052710336
0.00055532628
0.00058943547
0.00062903529
0.00067364872
0.00072276328
0.00077586201
0.00083244173
0.00089202129
0.00095414381
0.0010183757
0.0010843038
0.001151533
0.0012196828
0.0012883858
0.0013572858
0.0014260374
0.0014943053
0.001561765
0.0016281036
0.0016930205
0.0017562294
0.0018174598
0.0018764585
0.0019329917
0.0019868465
0.0020378326
0.002085784
0.002130559
0.0021720426
0.0022101464
0.0022448081
0.0022759913
0.0023036851
0.0023279025
0.0023486763
0.0023660559
0.0023801441
0.0023911693
0.0023990437
0.0024016338
0.0023990204
0.00053345032
0.00051903196
0.0005062047
0.00049564771
0.00048812068
0.00048442706
0.00048535421
0.00049159836
0.00050368848
0.00052193109
0.00054639105
0.00057691193
0.000613164
0.00065470264
0.00070102156
0.00075159305
0.00080589389
0.00086341954
0.00092368963
0.00098624899
0.0010506658
0.0011165287
0.0011834442
0.001251034
0.0013189331
0.0013867886
0.0014542593
0.0015210156
0.0015867399
0.0016511279
0.0017138894
0.0017747501
0.0018334534
0.0018897619
0.001943459
0.0019943508
0.0020422675
0.0020870636
0.0021286202
0.0021668451
0.0022016726
0.0022330627
0.0022610008
0.0022854967
0.0023065799
0.002324297
0.0023387496
0.0023501572
0.0023584105
0.0023614533
0.0023595323
0.00055122584
0.00053569248
0.00052140759
0.0005089997
0.0004991903
0.00049276822
0.00049054238
0.00049327396
0.00050159809
0.00051595367
0.00053654145
0.00056332201
0.00059604992
0.00063432892
0.00067767045