/*--------------------------------*- C++ -*----------------------------------*\
| =========                 |                                                 |
| \\      /  F ield         | OpenFOAM: The Open Source CFD Toolbox           |
|  \\    /   O peration     | Version:  2312                                  |
|   \\  /    A nd           | Website:  www.openfoam.com                      |
|    \\/     M anipulation  |                                                 |
\*---------------------------------------------------------------------------*/
FoamFile
{
    version     2.0;
    format      ascii;
    arch        "LSB;label=32;scalar=64";
    class       volScalarField;
    location    "0.01";
    object      nut;
}
// * * * * * * * * * * * * * * * * * * * * * * * * * * * * * * * * * * * * * //

dimensions      [0 2 -1 0 0 0 0];

internalField   nonuniform List<scalar> 
3224
(
0.027379614
0.027411042
0.027435494
0.027452756
0.027462829
0.027465487
0.027460876
0.027449528
0.027431967
0.027408835
0.027380998
0.027349491
0.027315499
0.027280343
0.027245456
0.027212361
0.027182639
0.027157906
0.027139778
0.027129844
0.027129638
0.027140616
0.027164134
0.02720143
0.027253699
0.02732202
0.027406763
0.027508891
0.027628962
0.027767407
0.027924538
0.028100557
0.028295572
0.028509605
0.028742605
0.028994458
0.029264997
0.029554015
0.029861264
0.030186489
0.030529457
0.027379821
0.027411231
0.027435661
0.027452911
0.02746294
0.027465586
0.02746096
0.027449598
0.027432024
0.027408879
0.027381033
0.027349517
0.027315517
0.027280354
0.02724546
0.027212358
0.02718263
0.02715789
0.027139754
0.02712981
0.027129594
0.027140561
0.027164065
0.027201347
0.027253599
0.027321902
0.027406626
0.027508733
0.027628783
0.027767205
0.027924312
0.028100307
0.028295298
0.028509307
0.028742282
0.02899411
0.029264626
0.029553619
0.029860845
0.030186042
0.030528926
0.027380364
0.027411731
0.027436115
0.027453326
0.027463293
0.027465899
0.027461235
0.027449837
0.027432228
0.027409051
0.027381175
0.027349631
0.027315604
0.027280416
0.027245498
0.027212373
0.027182621
0.027157856
0.027139695
0.027129725
0.02712948
0.027140416
0.027163889
0.027201135
0.027253349
0.027321615
0.027406298
0.027508363
0.027628368
0.027766746
0.027923806
0.028099755
0.028294699
0.028508661
0.028741589
0.028993371
0.02926384
0.029552788
0.02985997
0.030185122
0.03052791
0.027381236
0.027412535
0.027436851
0.027453999
0.027463882
0.027466422
0.027461697
0.027450242
0.027432578
0.027409348
0.027381421
0.02734983
0.027315759
0.027280528
0.027245568
0.027212401
0.027182608
0.027157802
0.027139598
0.027129583
0.027129292
0.02714018
0.0271636
0.027200792
0.027252948
0.027321155
0.027405776
0.027507776
0.027627715
0.027766024
0.027923016
0.028098895
0.028293769
0.028507661
0.02874052
0.028992233
0.029262634
0.029551514
0.029858628
0.030183719
0.030526402
0.027344644
0.027382442
0.02741364
0.027437867
0.027454925
0.027464703
0.027467154
0.027462344
0.027450811
0.02743307
0.027409767
0.027381771
0.027350114
0.02731598
0.027280688
0.027245669
0.027212444
0.027182593
0.027157728
0.027139464
0.027129387
0.027129031
0.027139851
0.027163201
0.027200318
0.027252394
0.027320522
0.027405058
0.027506972
0.027626822
0.02776504
0.02792194
0.028097727
0.028292508
0.028506307
0.028739074
0.028990695
0.029261006
0.029549797
0.029856821
0.030181829
0.030524398
0.027346212
0.027383881
0.02741496
0.027439084
0.027456033
0.027465694
0.027468037
0.027463126
0.0274515
0.027433668
0.027410278
0.027382198
0.027350461
0.027316251
0.027280885
0.027245794
0.027212498
0.027182576
0.027157639
0.027139302
0.02712915
0.027128716
0.027139454
0.027162719
0.027199748
0.027251728
0.027319762
0.027404199
0.027506009
0.027625754
0.027763866
0.027920657
0.028096334
0.028291006
0.028504696
0.028737355
0.028988869
0.029259074
0.029547759
0.029854679
0.030179587
0.030522038
0.02734796
0.0273855
0.027416451
0.027440456
0.027457283
0.027466815
0.027469038
0.027464013
0.027452282
0.027434346
0.027410857
0.027382683
0.027350856
0.027316559
0.027281108
0.027245936
0.027212558
0.027182556
0.027157538
0.027139117
0.027128879
0.027128357
0.027139002
0.027162171
0.027199099
0.027250972
0.027318899
0.027403224
0.027504919
0.027624546
0.027762537
0.027919207
0.028094762
0.028289311
0.028502879
0.028735417
0.028986811
0.029256897
0.029545465
0.029852267
0.030177062
0.030519391
0.027350029
0.02738742
0.027418224
0.027442087
0.027458768
0.027468151
0.027470233
0.027465072
0.027453216
0.027435157
0.027411551
0.027383264
0.027351329
0.027316927
0.027281376
0.027246105
0.02721263
0.02718253
0.027157414
0.027138893
0.027128553
0.027127924
0.027138459
0.027161512
0.02719832
0.027250065
0.027317866
0.027402056
0.027503614
0.0276231
0.027760949
0.027917474
0.028092884
0.028287288
0.028500711
0.028733105
0.028984358
0.029254303
0.029542733
0.029849397
0.030174056
0.030516246
0.02730909
0.027352452
0.027389661
0.027420293
0.027443989
0.0274605
0.027469712
0.027471631
0.027466312
0.027454309
0.027436107
0.027412363
0.027383944
0.027351882
0.027317359
0.027281689
0.027246302
0.027212712
0.027182498
0.027157266
0.027138627
0.027128165
0.027127411
0.027137815
0.027160733
0.0271974
0.027248994
0.027316646
0.02740068
0.027502076
0.027621398
0.027759079
0.027915435
0.028090675
0.028284909
0.028498164
0.02873039
0.028981477
0.029251259
0.029539527
0.029846031
0.030170532
0.030512563
0.027312099
0.027355236
0.02739224
0.027422674
0.027446175
0.027462492
0.027471509
0.027473241
0.02746774
0.027455569
0.027437202
0.0274133
0.027384729
0.027352521
0.027317856
0.027282048
0.027246526
0.027212804
0.027182456
0.027157089
0.027138313
0.02712771
0.027126809
0.027137062
0.027159822
0.027196325
0.027247744
0.027315223
0.027399075
0.027500285
0.027619416
0.027756904
0.027913065
0.028088109
0.028282147
0.028495206
0.028727239
0.028978135
0.029247728
0.02953581
0.02984213
0.030166449
0.030508299
0.027267038
0.027315507
0.027358398
0.027395171
0.027425379
0.027448657
0.027464753
0.027473552
0.027475073
0.027469366
0.027457003
0.027438449
0.027414366
0.027385622
0.027353246
0.027318419
0.027282455
0.027246778
0.027212902
0.027182401
0.027156879
0.027137945
0.027127179
0.02712611
0.027136188
0.027158766
0.027195081
0.027246299
0.02731358
0.027397223
0.027498219
0.027617132
0.027754398
0.027910335
0.028085154
0.028278968
0.028491804
0.028723616
0.028974293
0.029243671
0.029531541
0.029837652
0.030161763
0.030503409
0.02727112
0.027319328
0.027361953
0.027398467
0.02742842
0.027451446
0.027467294
0.027475849
0.027477133
0.027471195
0.027458617
0.027439851
0.027415565
0.027386625
0.027354061
0.027319051
0.027282908
0.027247056
0.027213005
0.027182329
0.027156631
0.027137516
0.027126564
0.027125303
0.027135182
0.027157553
0.027193652
0.027244642
0.027311697
0.027395102
0.027495854
0.027614519
0.027751533
0.027907216
0.02808178
0.028275339
0.028487922
0.028719483
0.028969913
0.029239046
0.029526675
0.029832551
0.030156428
0.030497844
0.027222753
0.027275662
0.027323578
0.027365912
0.027402138
0.027431806
0.027454551
0.027470124
0.027478408
0.02747943
0.027473233
0.027460416
0.027441414
0.027416901
0.027387742
0.027354966
0.027319751
0.027283407
0.027247357
0.02721311
0.027182236
0.027156338
0.027137018
0.027125856
0.027124378
0.027134031
0.027156167
0.027192022
0.027242753
0.027309552
0.027392688
0.027493165
0.027611549
0.027748279
0.027903675
0.028077952
0.028271223
0.028483521
0.028714799
0.028964949
0.029233808
0.029521167
0.029826778
0.030150392
0.030491552
0.027228082
0.027280675
0.027328271
0.027370285
0.027406193
0.027435546
0.02745798
0.027473248
0.027481234
0.027481966
0.027475485
0.027462402
0.027443139
0.027418374
0.027388973
0.027355962
0.027320518
0.02728395
0.027247679
0.027213211
0.027182116
0.027155993
0.027136443
0.027125044
0.02712332
0.027132719
0.02715459
0.027190171
0.02724061
0.027307122
0.027389955
0.027490123
0.027608192
0.027744602
0.027899677
0.028073631
0.02826658
0.028478558
0.028709519
0.028959357
0.029227909
0.029514966
0.02982028
0.030143602
0.030484476
0.027177312
0.027233927
0.027286169
0.027333414
0.027375078
0.027410638
0.027439644
0.027461737
0.027476671
0.027484331
0.027484745
0.027477952
0.027464577
0.027445027
0.027419986
0.027390317
0.027357046
0.027321349
0.027284533
0.027248016
0.027213303
0.027181961
0.027155586
0.027135779
0.027124115
0.027122116
0.02713123
0.027152805
0.027188078
0.027238191
0.027304381
0.027386876
0.027486697
0.027604414
0.027740468
0.027895183
0.028068776
0.028261367
0.028472987
0.028703596
0.028953085
0.029221295
0.029508015
0.029813001
0.030135997
0.030476555
0.027184054
0.027240289
0.027292149
0.027339012
0.027380294
0.027415474
0.027444103
0.027465825
0.027480394
0.027487699
0.027487766
0.027480633
0.02746694
0.027447077
0.027421733
0.027391771
0.027358215
0.02732224
0.027285151
0.027248362
0.027213378
0.027181762
0.027155108
0.027135015
0.027123055
0.027120749
0.027129545
0.027150789
0.02718572
0.02723547
0.027301299
0.027383417
0.027482854
0.027600178
0.027735836
0.027890152
0.028063345
0.028255536
0.02846676
0.028696976
0.02894608
0.029213909
0.029500257
0.029804878
0.030127516
0.030467724
0.027131825
0.02719135
0.027247172
0.027298618
0.027345065
0.027385933
0.0274207
0.02744892
0.027470239
0.027484414
0.027491334
0.027491024
0.027483526
0.027469486
0.027449283
0.02742361
0.027393329
0.027359464
0.027323185
0.027285795
0.027248709
0.027213426
0.027181507
0.027154544
0.027134134
0.027121846
0.027119201
0.027127643
0.02714852
0.02718307
0.027232417
0.027297846
0.027379546
0.027478556
0.027595446
0.027730664
0.027884537
0.028057287
0.028249036
0.028459822
0.028689605
0.028938281
0.029205691
0.029491628
0.029795846
0.030118088
0.030457912
0.027140108
0.027199199
0.027254573
0.02730557
0.027351568
0.027391988
0.027426309
0.027454088
0.027474973
0.027488723
0.027495228
0.02749451
0.027486623
0.027472207
0.027451638
0.027425609
0.027394983
0.027360781
0.027324172
0.027286456
0.027249044
0.027213433
0.027181182
0.02715388
0.027133119
0.02712047
0.027117449
0.0271255
0.027145971
0.027180099
0.027229003
0.027293986
0.027375225
0.027473763
0.027590174
0.027724906
0.027878291
0.028050551
0.028241813
0.028452115
0.02868142
0.028929626
0.029196573
0.029482057
0.029785833
0.03010764
0.030447042
0.027148965
0.02720759
0.027262482
0.027312995
0.027358508
0.027398445
0.027432288
0.027459594
0.027480013
0.027493307
0.027499368
0.027498212
0.027489911
0.02747509
0.027454127
0.027427718
0.02739672
0.027362155
0.027325189
0.027287119
0.027249353
0.027213385
0.027180771
0.027153096
0.027131951
0.027118903
0.027115468
0.027123089
0.027143112
0.027176775
0.027225192
0.027289681
0.027370413
0.027468431
0.027584314
0.027718511
0.027871358
0.028043081
0.028233807
0.028443577
0.028672357
0.028920045
0.029186485
0.029471472
0.029774762
0.030096093
0.030435033
0.027158384
0.027216505
0.027270879
0.027320872
0.027365866
0.027405286
0.027438616
0.027465415
0.027485338
0.027498147
0.027503734
0.027502111
0.02749337
0.027478116
0.027456734
0.027429917
0.027398522
0.027363568
0.027326217
0.027287765
0.027249616
0.027213261
0.027180251
0.027152169
0.027130604
0.02711712
0.027113231
0.027120379
0.02713991
0.027173061
0.027220946
0.027284886
0.027365064
0.027462512
0.027577814
0.027711425
0.027863682
0.028034814
0.028224952
0.028434139
0.028662343
0.028909464
0.029175348
0.02945979
0.029762548
0.03008336
0.030421796
0.027107685
0.027168352
0.027225918
0.027279738
0.027329173
0.027373611
0.027412479
0.027445263
0.027471524
0.027490919
0.027503212
0.027508298
0.027506179
0.027496973
0.02748126
0.027459433
0.027432183
0.027400366
0.027364996
0.027327234
0.027288372
0.02724981
0.027213036
0.027179597
0.027151074
0.027129051
0.02711509
0.027110705
0.027117335
0.027136326
0.027168918
0.027216223
0.027279553
0.02735913
0.027455952
0.027570618
0.027703586
0.027855197
0.028025683
0.028215177
0.028423727
0.028651301
0.028897802
0.029163078
0.029446926
0.029749103
0.030069347
0.030407233
0.027118738
0.027178819
0.027235792
0.027289017
0.027337858
0.027381704
0.027419985
0.027452189
0.027477881
0.027496718
0.027508467
0.027513022
0.027510382
0.027500685
0.027484489
0.027462192
0.027434485
0.02740222
0.027366409
0.02732821
0.02728891
0.027249905
0.027212681
0.027178779
0.027149777
0.027127257
0.027112778
0.027107852
0.027113917
0.02713232
0.0271643
0.027210971
0.027273633
0.027352555
0.027448693
0.027562663
0.02769493
0.027845835
0.028015615
0.028204407
0.02841226
0.028639147
0.028884972
0.029149585
0.029432784
0.029734329
0.030053954
0.030391242
0.027004712
0.027068382
0.027130288
0.027189734
0.027246073
0.027298664
0.027346873
0.027390091
0.027427751
0.027459343
0.027484435
0.027502684
0.027513861
0.027517861
0.027514673
0.027504463
0.027487759
0.027464971
0.027436783
0.027404046
0.02736777
0.027329107
0.027289342
0.027249865
0.027212158
0.027177759
0.027148241
0.027125184
0.027110143
0.027104629
0.02711008
0.027127843
0.027159156
0.027205137
0.02726707
0.027345278
0.027440669
0.027553883
0.027685384
0.02783552
0.028004532
0.028192558
0.028399653
0.02862579
0.028870879
0.02913477
0.029417262
0.029718119
0.030037072
0.030373711
0.026953715
0.027017986
0.027081027
0.027142257
0.027201028
0.027256693
0.027308611
0.02735615
0.027398705
0.02743571
0.027466658
0.02749112
0.027508754
0.027519333
0.027522752
0.027518995
0.02750825
0.027491018
0.027467715
0.027439026
0.027405797
0.027369032
0.027329881
0.027289623
0.027249646
0.027211424
0.027176493
0.027146421
0.027122784
0.027107137
0.027100987
0.027105773
0.02712284
0.027153429
0.027198659
0.0272598
0.027337232
0.027431812
0.027544201
0.02767487
0.02782417
0.027992345
0.028179539
0.028385809
0.028611133
0.028855421
0.029118526
0.029400251
0.02970036
0.030018584
0.030354517
0.026968096
0.027031684
0.027094039
0.027154559
0.027212614
0.027267565
0.027318771
0.027365604
0.02740746
0.027443777
0.027474052
0.027497855
0.027514849
0.027524806
0.027527623
0.027523275
0.027511976
0.027494197
0.027470363
0.027441153
0.027407411
0.027370137
0.027330475
0.0272897
0.027249193
0.027210426
0.027174927
0.027144263
0.027120005
0.027103705
0.02709687
0.027100936
0.02711725
0.027147055
0.027191472
0.027251753
0.027328343
0.027422042
0.027533537
0.027663302
0.027811695
0.027978962
0.028165253
0.028370627
0.028595067
0.028838486
0.029100739
0.029381632
0.029680929
0.029998362
0.030333531
0.026982842
0.027045701
0.027107318
0.027167086
0.027224386
0.027278583
0.027329038
0.027375128
0.027416252
0.027451851
0.027481424
0.027504542
0.027520872
0.027530186
0.027532382
0.027527426
0.027515557
0.027497216
0.027472834
0.027443088
0.027408816
0.027371014
0.027330821
0.027289505
0.027248443
0.027209099
0.027173
0.027141705
0.027116783
0.027099783
0.027092211
0.027095502
0.027111005
0.027139963
0.027183501
0.027242851
0.027318529
0.027411274
0.027521801
0.027650588
0.027797997
0.02796428
0.028149592
0.028353996
0.028577478
0.028819956
0.029081286
0.029361276
0.029659694
0.029976271
0.030310611
0.026997826
0.027059907
0.027120737
0.027179711
0.027236214
0.027289616
0.027339284
0.027384596
0.027424955
0.027459806
0.02748865
0.027511061
0.027526706
0.027535359
0.027536918
0.027531341
0.027518889
0.027499974
0.027475033
0.027444739
0.027409924
0.027371579
0.027330837
0.027288959
0.027247318
0.02720737
0.027170636
0.027138673
0.027113044
0.027095298
0.027086936
0.027089396
0.027104026
0.027132072
0.027174661
0.027233008
0.027307701
0.027399416
0.027508895
0.027636624
0.027782969
0.027948189
0.028132442
0.028335796
0.028558242
0.0287997
0.029060031
0.029339045
0.029636511
0.029952162
0.030285607
0.027012894
0.027074146
0.027134142
0.027192277
0.027247941
0.027300509
0.027349352
0.027393853
0.027433418
0.027467494
0.027495585
0.027517269
0.027532212
0.02754019
0.0275411
0.027534893
0.027521849
0.027502353
0.027476847
0.027445996
0.02741063
0.02737173
0.027330425
0.027287969
0.027245726
0.027205147
0.027167749
0.02713508
0.027108704
0.027090163
0.02708096
0.02708253
0.027096224
0.027123291
0.02716486
0.027222127
0.027295758
0.027386362
0.027494712
0.0276213
0.027766497
0.027930568
0.028113677
0.028315897
0.028537223
0.02877758
0.029036831
0.029314791
0.029611228
0.029925878
0.030258355
0.027027859
0.027088234
0.027147347
0.027204598
0.027259382
0.027311078
0.027359061
0.027402718
0.02744146
0.027474737
0.027502056
0.027522995
0.027537224
0.027544517
0.027544771
0.027537929
0.027524292
0.027504213
0.027478138
0.027446729
0.027410806
0.027371347
0.027329469
0.027286421
0.027243558
0.027202327
0.027164234
0.027130827
0.027103662
0.02708428
0.027074183
0.027074805
0.0270875
0.027113518
0.027153995
0.027210103
0.027282592
0.027372001
0.027479136
0.027604493
0.027748453
0.027911286
0.028093162
0.028294159
0.028514277
0.028753446
0.029011532
0.029288352
0.02958368
0.02989725
0.030228683
0.027042503
0.027101951
0.027160134
0.027216457
0.02727032
0.027321105
0.027368195
0.027410979
0.027448873
0.027481329
0.027507858
0.027528041
0.027541546
0.02754815
0.027547747
0.027540272
0.027526042
0.027505384
0.027478746
0.027446782
0.027410306
0.027370286
0.027327832
0.027284183
0.027240688
0.027198785
0.027159974
0.027125796
0.027097805
0.027077537
0.027066493
0.02706611
0.027077741
0.027102641
0.027141948
0.027196816
0.02726808
0.027356207
0.027462036
0.027586073
0.027728702
0.027890203
0.028070751
0.028270431
0.028489248
0.028727136
0.028983967
0.02925956
0.029553692
0.029866097
0.030196403
0.02705657
0.027115041
0.027172247
0.027227599
0.0272805
0.027330339
0.027376503
0.027418387
0.02745541
0.027487029
0.027512756
0.027532173
0.027544952
0.027550867
0.027549811
0.027541711
0.027526898
0.027505672
0.027478482
0.027445974
0.027408954
0.027368379
0.027325351
0.0272811
0.027236966
0.027194377
0.027154827
0.027119852
0.027090998
0.027069802
0.027057763
0.027056316
0.027066819
0.02709053
0.027128592
0.027182136
0.02725209
0.027338845
0.027443275
0.027565894
0.027707096
0.027867165
0.028046286
0.028244551
0.028461969
0.028698479
0.028953959
0.029228231
0.029521074
0.029832225
0.030161318
0.027069767
0.027127211
0.027183393
0.027237729
0.02728963
0.027338488
0.027383697
0.027424656
0.027460789
0.027491557
0.027516473
0.027535123
0.027547178
0.027552411
0.027550714
0.027542005
0.027526623
0.027504849
0.027477127
0.027444093
0.027406545
0.02736543
0.027321839
0.027276991
0.027232217
0.027188935
0.027148632
0.027112836
0.02708309
0.027060927
0.027047844
0.027045279
0.027054591
0.027077042
0.027113782
0.027165919
0.027234473
0.027319763
0.027422698
0.0275438
0.027683472
0.027842009
0.028019599
0.028216344
0.02843226
0.028667291
0.028921318
0.02919417
0.029485628
0.029795431
0.030123219
0.027081756
0.027138123
0.027193234
0.027246513
0.027297375
0.02734522
0.027389446
0.027429459
0.027464687
0.027494594
0.027518697
0.027536583
0.027547922
0.027552487
0.027550166
0.027540872
0.027524946
0.027502651
0.027474424
0.027440893
0.027402844
0.027361212
0.027317077
0.027271646
0.027226238
0.027182264
0.0271412
0.027104568
0.027073905
0.02705074
0.027036571
0.027032834
0.027040894
0.027062016
0.027097358
0.027148003
0.027215067
0.027298797
0.027400138
0.027519621
0.02765766
0.027814555
0.027990508
0.028185625
0.02839993
0.028633375
0.028885844
0.029157172
0.029447143
0.029755499
0.030081885
0.027092154
0.027147395
0.02720139
0.02725357
0.027303356
0.027350157
0.027393376
0.027432424
0.027466735
0.027495777
0.027519069
0.027536199
0.027546839
0.027550757
0.027547839
0.027537992
0.027521555
0.027498775
0.027470082
0.027436091
0.027397576
0.027355461
0.027310811
0.027264821
0.027218798
0.02717414
0.027132317
0.027094839
0.027063241
0.027039047
0.027023752
0.027018797
0.027025546
0.027045272
0.027079141
0.027128214
0.027193693
0.027275768
0.027375415
0.027493175
0.027629471
0.027784615
0.027958818
0.028152195
0.028364777
0.028596523
0.028847325
0.02911702
0.029405398
0.029712203
0.030037085
0.027100534
0.027154599
0.027207431
0.027258471
0.027307147
0.027352875
0.027395065
0.027433134
0.02746652
0.027494697
0.027517186
0.027533576
0.027543537
0.027546837
0.027543357
0.027532999
0.027516093
0.027492874
0.027463763
0.027429362
0.02739043
0.027347875
0.027302751
0.027256237
0.027209626
0.027164306
0.027121733
0.027083412
0.027050869
0.027025625
0.027009173
0.027002956
0.027008342
0.027026609
0.027058929
0.027106361
0.027170148
0.027250481
0.027348332
0.027464261
0.027598704
0.027751984
0.027924322
0.028115843
0.028326586
0.028556518
0.028805538
0.029073487
0.029360161
0.029665305
0.029988579
0.027106418
0.027159257
0.027210882
0.027260742
0.027308275
0.027352902
0.027394043
0.027431121
0.027463579
0.027490895
0.027512594
0.027528265
0.027537577
0.027540296
0.027536298
0.027525479
0.027508156
0.027484555
0.027455088
0.027420337
0.027381047
0.027338111
0.027292566
0.027245575
0.027198417
0.027152466
0.027109167
0.027070014
0.027036526
0.027010221
0.026992591
0.026985077
0.026989053
0.027005802
0.027036506
0.02708223
0.027144209
0.027222724
0.027318676
0.027432666
0.027565144
0.027716445
0.027886801
0.028076346
0.028285132
0.02851313
0.028760249
0.029026336
0.029311191
0.029614563
0.029936119
0.027109285
0.027160847
0.027211219
0.02725986
0.027306216
0.027349719
0.027389793
0.027425871
0.027457401
0.027483865
0.027504792
0.027519771
0.027528471
0.027530653
0.027526188
0.02751497
0.027497293
0.027473379
0.027443626
0.027408598
0.027369023
0.027325777
0.027279878
0.027232472
0.027184822
0.027138286
0.027094296
0.027054336
0.027019917
0.026992552
0.026973729
0.026964894
0.026967421
0.026982603
0.027011628
0.027055574
0.027115653
0.027192263
0.027286215
0.02739816
0.027528561
0.027677767
0.027846021
0.028033471
0.028240177
0.028466121
0.028711218
0.028975323
0.029258242
0.029559727
0.029879453
0.027108566
0.0271588
0.027207874
0.027255256
0.027300403
0.027342756
0.027381748
0.027416819
0.027447424
0.02747305
0.027493227
0.027507547
0.027515677
0.027517375
0.027512504
0.027500957
0.027482998
0.027458853
0.027428896
0.027393678
0.027353906
0.027310435
0.027264263
0.027216519
0.027168447
0.027121387
0.027076757
0.02703603
0.027000707
0.026972295
0.02695228
0.026942109
0.02694316
0.026956733
0.026984025
0.027026127
0.027084226
0.027158843
0.027250699
0.027360496
0.02748871
0.027635706
0.02780174
0.027986973
0.028191476
0.028415243
0.028658196
0.028920199
0.029201063
0.029500546
0.029818328
0.027103653
0.027152507
0.027200235
0.027246319
0.027290225
0.027331403
0.027369298
0.027403356
0.027433041
0.027457844
0.027477299
0.027490998
0.027498607
0.027499879
0.02749467
0.027482874
0.027464716
0.027440429
0.027410366
0.027375058
0.027335188
0.027291592
0.027245247
0.027197258
0.027148849
0.027101343
0.027056141
0.027014703
0.026978519
0.026949089
0.026927898
0.026916391
0.026915951
0.026927885
0.026953401
0.0269936
0.02704965
0.027122193
0.027211862
0.027319411
0.027445332
0.027590005
0.027753703
0.027936599
0.028138779
0.028360246
0.028600934
0.028860714
0.029139404
0.029436769
0.029752494
0.027093905
0.027141324
0.027187658
0.027232401
0.027275031
0.02731501
0.027351792
0.027384833
0.027413603
0.027437601
0.027456362
0.027469481
0.027476621
0.027477531
0.027472061
0.027460104
0.027441838
0.027417512
0.027387449
0.027352163
0.027312312
0.027268707
0.027222301
0.027174177
0.027125536
0.02707768
0.027031993
0.026989918
0.026952934
0.026922535
0.026900199
0.026887371
0.026885441
0.02689572
0.026919429
0.026957681
0.027011622
0.027082017
0.027169418
0.027274626
0.027398153
0.027540396
0.027701645
0.027882089
0.028081827
0.028300876
0.028539179
0.028796619
0.029073019
0.029368152
0.029681711
0.027078649
0.027124569
0.027169452
0.027212807
0.027254122
0.027292873
0.027328524
0.027360542
0.027388405
0.027411616
0.027429716
0.027442301
0.027449031
0.027449651
0.027444001
0.027431979
0.027413708
0.027389455
0.027359511
0.02732437
0.027284666
0.027241182
0.027194846
0.027146714
0.027097963
0.027049873
0.027003806
0.026961189
0.026923487
0.026892185
0.026868755
0.026854643
0.02685124
0.026859867
0.026881753
0.026918028
0.026969816
0.027038002
0.027123061
0.027225846
0.027346887
0.027486602
0.027645297
0.02782318
0.028020363
0.02823688
0.028472685
0.028727671
0.029001671
0.029294464
0.029605752
0.02705719
0.027101563
0.027144952
0.027186878
0.027226845
0.02726434
0.027298842
0.027329826
0.027356781
0.027379218
0.027396682
0.02740877
0.027415141
0.027415536
0.027409786
0.027397795
0.027379623
0.027355562
0.027325867
0.027291007
0.02725159
0.027208372
0.027162251
0.027114257
0.027065537
0.027017347
0.026971027
0.026927983
0.026889667
0.02685755
0.0268331
0.02681776
0.026812924
0.026819919
0.026839988
0.026874271
0.026923881
0.02698981
0.027072471
0.027172763
0.02729124
0.027428338
0.027584384
0.027759605
0.027954132
0.028168011
0.028401214
0.028653642
0.028925141
0.029215495
0.029524418
0.027028929
0.027071679
0.027113503
0.027153938
0.027192504
0.027228701
0.027262022
0.027291954
0.027317997
0.027339668
0.027356519
0.027368148
0.027374214
0.027374452
0.027368685
0.027356824
0.027338861
0.027315112
0.027285797
0.02725136
0.027212382
0.027169587
0.027123842
0.027076145
0.027027616
0.026979481
0.026933054
0.026889722
0.026850917
0.026818098
0.026792724
0.026776236
0.02677003
0.026775438
0.026793715
0.026826017
0.026873443
0.026937085
0.027017309
0.027115058
0.027230906
0.027365314
0.027518632
0.027691105
0.027882886
0.028094037
0.028324544
0.028574325
0.028843233
0.029131064
0.029437541
0.026993201
0.027034252
0.02707444
0.02711332
0.027150427
0.027185278
0.027217379
0.027246233
0.027271348
0.027292253
0.027308505
0.027319705
0.027325511
0.027325654
0.027319948
0.027308306
0.027290671
0.027267352
0.027238555
0.027204689
0.027166308
0.027124102
0.027078904
0.02703168
0.026983517
0.026935609
0.026889244
0.026845783
0.026806639
0.026773254
0.02674708
0.02672955
0.026722061
0.026725954
0.026742491
0.026772845
0.026818107
0.026879456
0.026957226
0.0270524
0.027165577
0.027297243
0.027447771
0.02761743
0.027806392
0.028014741
0.028242479
0.028489539
0.028755787
0.029041029
0.029344999
0.026949434
0.0269887
0.027027171
0.02706442
0.0271
0.027133444
0.027164275
0.027192009
0.02721617
0.027236295
0.027251949
0.027262736
0.027268316
0.027268414
0.027262838
0.027251489
0.02723431
0.027211526
0.027183383
0.027150238
0.027112615
0.027071169
0.027026698
0.026980133
0.026932525
0.026885034
0.026838918
0.02679551
0.026756199
0.026722412
0.026695585
0.026677147
0.026668493
0.026670968
0.026685846
0.026714314
0.026757463
0.026816537
0.026891863
0.026984458
0.027094947
0.027223842
0.027371543
0.027538343
0.02772444
0.027929936
0.028154856
0.028399146
0.028662688
0.0289453
0.029246729
0.026897148
0.026934532
0.026971193
0.027006721
0.027040689
0.02707265
0.027102143
0.027128702
0.027151863
0.027171176
0.027186214
0.027196589
0.027201958
0.027202047
0.027196653
0.027185666
0.027169041
0.027146898
0.027119536
0.027087257
0.027050551
0.02701004
0.026966484
0.02692077
0.026873913
0.026827042
0.026781378
0.026738223
0.026698941
0.026664937
0.026637633
0.026618448
0.026608776
0.026609963
0.026623293
0.026649967
0.026691092
0.026747933
0.026820859
0.026910903
0.027018717
0.027144843
0.027289709
0.027453638
0.02763685
0.027839474
0.028061554
0.028303057
0.02856388
0.028843855
0.029142741
0.026835989
0.026871384
0.026906125
0.026939827
0.026972082
0.027002465
0.027030532
0.027055837
0.027077931
0.027096378
0.027110761
0.027120698
0.027125851
0.027125942
0.027120761
0.027110187
0.027094188
0.027072786
0.027046314
0.027015032
0.026979393
0.026939984
0.026897523
0.02685286
0.026806966
0.026760925
0.026715925
0.026673237
0.026634199
0.026600187
0.026572607
0.026552866
0.026542351
0.026542412
0.026554339
0.026579348
0.026618563
0.026673255
0.026743865
0.026831418
0.026936605
0.02706
0.02720206
0.027363139
0.027543485
0.027743254
0.027962512
0.028201248
0.028459378
0.028736749
0.029033134
0.026732242
0.026765772
0.026799052
0.026831749
0.0268635
0.026893922
0.026922609
0.026949141
0.026973089
0.026994023
0.027011522
0.027025182
0.027034629
0.02703953
0.027039605
0.027034642
0.027024507
0.027009157
0.026988605
0.026963092
0.026932922
0.026898485
0.026860331
0.026819138
0.026775712
0.026730982
0.026685993
0.026641889
0.026599899
0.026561327
0.026527532
0.026499899
0.026479817
0.026468666
0.026467795
0.0264785
0.026502008
0.026539462
0.026592139
0.026660546
0.02674571
0.026848361
0.026969104
0.02710843
0.027266723
0.027444265
0.027641239
0.027857738
0.028093776
0.028349287
0.028624136
0.028918116
0.026624104
0.026655288
0.026686518
0.026717539
0.026748048
0.026777706
0.026806152
0.026833003
0.026857863
0.026880323
0.026899974
0.026916413
0.026929249
0.02693812
0.026942698
0.026942706
0.026937928
0.02692822
0.026913526
0.02689387
0.026869377
0.026840401
0.026807275
0.026770509
0.026730738
0.026688724
0.026645352
0.026601621
0.026558632
0.026517579
0.026479728
0.026446397
0.026418946
0.026398756
0.026387201
0.026385622
0.026395318
0.026417526
0.026453408
0.02650425
0.026570605
0.02665353
0.026753781
0.026871997
0.027008708
0.027164331
0.02733918
0.027533472
0.027747329
0.02798079
0.028233814
0.028506285
0.028798015
0.026512585
0.026540987
0.026569699
0.026598481
0.026627088
0.02665525
0.026682652
0.026708956
0.026733807
0.026756831
0.026777643
0.026795857
0.026811088
0.026822963
0.026831132
0.026835277
0.026835125
0.026830458
0.026821125
0.026807058
0.026788275
0.02676486
0.026737106
0.026705368
0.026670091
0.026631869
0.02659142
0.02654958
0.026507302
0.026465643
0.026425751
0.026388856
0.026356246
0.026329251
0.026309223
0.026297514
0.026295471
0.026304398
0.026325543
0.026360079
0.026409305
0.026473811
0.02655469
0.026652726
0.026768595
0.026902863
0.027055985
0.027228311
0.027420093
0.027631486
0.027862556
0.028113291
0.028383596
0.028673305
0.026424144
0.026449926
0.026476014
0.02650219
0.026528217
0.026553857
0.026578822
0.0266028
0.026625462
0.026646459
0.026665433
0.026682022
0.026695862
0.0267066
0.026713901
0.02671746
0.02671701
0.026712333
0.026703275
0.026689757
0.026671782
0.026649441
0.026622907
0.026592584
0.026558856
0.026522274
0.026483507
0.026443345
0.026402692
0.026362556
0.026324043
0.026288338
0.026256693
0.026230406
0.026210809
0.026199239
0.026197024
0.026205462
0.026225807
0.026259261
0.026307108
0.02637002
0.026449096