/*--------------------------------*- C++ -*----------------------------------*\
| =========                 |                                                 |
| \\      /  F ield         | OpenFOAM: The Open Source CFD Toolbox           |
|  \\    /   O peration     | Version:  2312                                  |
|   \\  /    A nd           | Website:  www.openfoam.com                      |
|    \\/     M anipulation  |                                                 |
\*---------------------------------------------------------------------------*/
FoamFile
{
    version     2.0;
    format      ascii;
    arch        "LSB;label=32;scalar=64";
    class       volScalarField;
    location    "0.01";
    object      omega;
}
// * * * * * * * * * * * * * * * * * * * * * * * * * * * * * * * * * * * * * //

dimensions      [0 0 -1 0 0 0 0];

internalField   nonuniform List<scalar> 
3224
(
376.19368
377.13483
377.97663
378.70989
379.32772
379.81935
380.17994
380.40547
380.49331
380.44261
380.25439
379.93157
379.47896
378.90321
378.21271
377.4175
376.52907
375.56013
374.52439
373.43629
372.31065
371.1624
370.00626
368.8564
367.72623
366.62812
365.57319
364.57116
363.63026
362.75721
361.95718
361.23387
360.58955
360.02519
359.54059
359.13451
358.80482
358.54866
358.36251
358.24255
358.18218
376.20489
377.14549
377.98692
378.71992
379.33709
379.82849
380.18883
380.41412
380.50175
380.45087
380.2625
379.93956
379.48685
378.91102
378.22047
377.42523
376.53676
375.5678
374.53204
373.44391
372.31824
371.16995
370.01375
368.86383
367.73358
366.63538
365.58035
364.5782
363.63718
362.764
361.96384
361.2404
360.59594
360.03145
359.54673
359.14053
358.81073
358.55447
358.36823
358.24826
358.18853
376.22819
377.1679
378.00859
378.74099
379.35723
379.84802
380.2078
380.43257
380.51971
380.4684
380.27965
379.95637
379.50338
378.9273
378.23653
377.4411
376.55247
375.58335
374.54746
373.45919
372.33338
371.18495
370.02859
368.8785
367.74807
366.64968
365.59443
364.59206
363.65081
362.77739
361.97699
361.25332
360.60863
360.04393
359.55901
359.15263
358.82267
358.56627
358.37992
358.25985
358.20067
376.26357
377.20205
378.04169
378.77312
379.38814
379.87797
380.2369
380.46087
380.54727
380.49528
380.30592
379.9821
379.52862
378.95212
378.26098
377.46521
376.57629
375.6069
374.57075
373.48224
372.35618
371.2075
370.05089
368.90052
367.7698
366.6711
365.61554
364.61283
363.67124
362.79748
361.99674
361.27273
360.62773
360.06272
359.57752
359.1709
358.84073
358.58416
358.39767
358.27745
358.21866
375.2855
376.3107
377.24787
378.08616
378.81628
379.42978
379.91834
380.27611
380.499
380.5844
380.53149
380.3413
380.01673
379.56259
378.98549
378.29382
377.49758
376.60822
375.63844
374.60192
373.51306
372.38666
371.23762
370.08065
368.9299
367.79879
366.69967
365.64368
364.64053
363.69848
362.82427
362.02309
361.29865
360.65323
360.08784
359.60229
359.19536
358.86493
358.60815
358.4215
358.30111
358.24258
375.34252
376.36638
377.30198
378.13875
378.86729
379.4791
379.96615
380.32257
380.54418
380.6284
380.5744
380.38322
380.05776
379.60281
379.02499
378.33268
377.53586
376.64598
375.67572
374.63875
373.54945
372.42262
371.27316
370.11574
368.96455
367.83296
366.73335
365.67685
364.67318
363.73061
362.85587
362.05417
361.32922
360.68333
360.1175
359.63155
359.22426
358.89352
358.63651
358.4497
358.32914
358.27073
375.4069
376.42886
377.36268
378.19775
378.92452
379.5345
380.01989
380.37478
380.59497
380.67786
380.62265
380.43036
380.1039
379.64804
379.06941
378.37637
377.5789
376.68842
375.71761
374.68012
373.59032
372.463
371.31305
370.15513
369.00342
367.8713
366.77114
365.71406
364.70981
363.76665
362.89132
362.08904
361.36353
360.71712
360.15079
359.6644
359.25672
358.92566
358.66838
358.48138
358.36068
358.30231
375.48338
376.503
377.43471
378.26772
378.99242
379.6003
380.08374
380.43682
380.65533
380.73667
380.68002
380.48642
380.15876
379.70183
379.12224
378.42832
377.63006
376.73887
375.76739
374.72928
373.63889
372.51098
371.36044
370.20192
369.04959
367.91683
366.81601
365.75826
364.75331
363.80945
362.93342
362.13046
361.4043
360.75726
360.19036
359.70344
359.2953
358.96386
358.70627
358.51906
358.39821
358.33982
374.47866
375.57238
376.58956
377.51882
378.34943
379.07172
379.67721
380.1584
380.50941
380.72597
380.8055
380.74718
380.55206
380.22302
379.76484
379.18411
378.48918
377.69
376.79796
375.82571
374.78686
373.69576
372.56716
371.41592
370.2567
369.10364
367.97013
366.86853
365.80998
364.80422
363.85954
362.98271
362.17895
361.45202
360.80426
360.23669
359.74917
359.3405
359.00861
358.75067
358.56321
358.4422
358.38374
374.5838
375.67496
376.68936
377.61581
378.44364
379.16319
379.76599
380.24465
380.59327
380.80761
380.88508
380.82486
380.628
380.29737
379.83776
379.25574
378.55963
377.75939
376.86638
375.89322
374.85352
373.7616
372.63219
371.48014
370.32009
369.16619
368.0318
366.9293
365.86983
364.86313
363.91751
363.03973
362.23506
361.50725
360.85865
360.29032
359.8021
359.39283
359.06043
358.80208
358.61432
358.49313
358.43458
373.54947
374.70384
375.79201
376.80324
377.7265
378.55119
379.26765
379.86744
380.34325
380.6892
380.90103
380.97618
380.91382
380.71499
380.38258
379.92134
379.33785
378.64041
377.83896
376.94484
375.97064
374.92996
373.8371
372.70676
371.55377
370.39277
369.23789
368.1025
366.99897
365.93844
364.93066
363.98395
363.10511
362.29938
361.57057
360.92102
360.35181
359.86281
359.45285
359.11987
358.86106
358.67296
358.55156
358.49289
373.68918
374.83975
375.92442
376.93207
377.85174
378.67289
379.38592
379.98238
380.45502
380.79799
381.00704
381.0796
381.01485
380.81383
380.47942
380.01637
379.43123
378.7323
377.92948
377.03411
376.05874
375.01695
373.92301
372.79161
371.63756
370.47547
369.31948
368.18294
367.07822
366.01648
365.00748
364.05954
363.17948
362.37256
361.64261
360.99199
360.42179
359.93189
359.52116
359.18752
358.92819
358.7397
358.61806
358.55926
372.64556
373.84591
374.99239
376.07306
377.07671
377.99239
378.80963
379.51886
380.11166
380.58082
380.92051
381.12649
381.19618
381.1288
380.92536
380.58874
380.12368
379.53672
378.83614
378.0318
377.13502
376.15834
375.1153
374.02014
372.88754
371.73228
370.56896
369.4117
368.27386
367.16781
366.1047
365.09431
364.14498
363.26354
362.45528
361.72404
361.07221
360.5009
360.01001
359.5984
359.26403
359.00411
358.81519
358.69328
358.63431
372.82507
374.02072
375.16262
376.23883
377.23804
378.14933
378.96228
379.66735
380.25616
380.72151
381.05761
381.26024
381.32682
381.25655
381.05047
380.71143
380.24417
379.65521
378.95279
378.14678
377.24845
376.27031
375.22587
374.12935
372.9954
371.83878
370.67408
369.5154
368.37608
367.26852
366.20387
365.19192
364.24103
363.35804
362.54829
361.8156
361.16242
360.58986
360.09785
359.68527
359.35008
359.0895
358.90009
358.77787
358.71874
371.79137
373.02384
374.21445
375.35131
376.4226
377.41696
378.32346
379.13173
379.8323
380.41677
380.878
381.21022
381.40921
381.47241
381.39903
381.19007
380.84842
380.37877
379.78763
379.08322
378.27537
377.37533
376.39558
375.3496
374.25157
373.11611
371.95797
370.79172
369.63144
368.49048
367.38123
366.31485
365.30115
364.34851
363.4638
362.65236
361.91808
361.26339
360.68944
360.19619
359.78252
359.44642
359.18511
358.99516
358.87259
358.81326
372.01608
373.24289
374.42796
375.55934
376.62526
377.61434
378.51566
379.31889
380.0146
380.59441
381.05122
381.37926
381.57435
381.63392
381.55718
381.34515
381.00068
380.52846
379.93496
379.2284
378.41856
377.51666
376.53516
375.48747
374.38778
373.25065
372.09082
370.92284
369.76077
368.61798
367.50685
366.43854
365.4229
364.46832
363.58168
362.76838
362.03231
361.37595
360.80046
360.30583
359.89096
359.55385
359.29173
359.10118
358.97822
358.91868
371.01161
372.2623
373.48305
374.66211
375.78757
376.84769
377.83107
378.72682
379.52466
380.21516
380.79
381.24209
381.56569
381.75661
381.81232
381.73202
381.51671
381.16924
380.69427
380.09826
379.38939
378.57741
377.67351
376.69009
375.64055
374.53902
373.40006
372.23837
371.06847
369.90443
368.7596
367.64637
366.57594
365.55814
364.60139
363.71263
362.89727
362.15922
361.50101
360.92383
360.42767
360.01147
359.67325
359.41023
359.21902
359.09563
359.03586
371.28686
372.53091
373.74512
374.91771
376.03681
377.0907
378.06801
378.95782
379.74991
380.43489
381.00447
381.45155
381.77045
381.95699
382.00862
381.92456
381.70579
381.35515
380.87728
380.27862
379.5673
378.75303
377.84698
376.8615
375.80996
374.70644
373.56547
372.40173
371.22972
370.06351
368.91643
367.80089
366.72809
365.7079
364.74878
363.85767
363.04002
362.2998
361.63955
361.0605
360.56267
360.14501
359.80556
359.54156
359.34961
359.22575
359.16572
371.58582
372.82263
374.02983
375.19552
376.30785
377.35512
378.32596
379.2095
379.99552
380.67469
381.23872
381.68056
381.99453
382.17647
382.22385
382.13585
381.91348
381.55953
381.07862
380.47717
379.76327
378.9466
378.03826
377.05058
375.99688
374.89121
373.74807
372.58209
371.40777
370.23917
369.08962
367.97153
366.89614
365.87333
364.91158
364.01789
363.19774
362.45513
361.79264
361.21153
360.71186
360.2926
359.9518
359.68672
359.49397
359.36958
359.30928
371.909
373.13814
374.33788
375.49624
376.6014
377.64167
378.6057
379.48265
380.26231
380.9354
381.49365
381.93004
382.23889
382.41607
382.45903
382.36697
382.14086
381.78349
381.29945
380.6951
379.97852
379.15933
378.24859
377.25859
376.20259
375.09462
373.94912
372.78073
371.6039
370.43269
369.28043
368.15956
367.08132
366.05563
365.09101
364.19448
363.37159
362.62636
361.96141
361.37806
360.87637
360.45535
360.11308
359.84682
359.65319
359.52823
359.46763
371.01763
372.25664
373.47792
374.66982
375.82048
376.9181
377.95103
378.90794
379.77801
380.55107
381.21786
381.77013
382.20089
382.50449
382.67677
382.71521
382.619
382.38907
382.0282
381.54095
380.93365
380.2143
379.39251
378.47928
377.48685
376.42843
375.31801
374.16999
372.99899
371.81944
370.6454
369.49021
368.3663
367.28495
366.25611
365.28835
364.38874
363.56284
362.81475
362.14712
361.56131
361.05742
360.63449
360.2906
360.02305
359.82846
359.70287
359.64195
371.3987
372.62941
373.84242
375.02611
376.16872
377.25848
378.28377
379.23329
380.09625
380.8625
381.52282
382.06898
382.49399
382.79223
382.95955
382.99342
382.893
382.65924
382.29485
381.80436
381.19407
380.47193
379.64749
378.7317
377.73674
376.6758
375.56279
374.41211
373.23832
372.05586
370.87876
369.72038
368.59317
367.50845
366.4762
365.50502
364.60204
363.77287
363.02166
362.35112
361.76263
361.25634
360.83132
360.48568
360.21672
360.02108
359.8948
359.83353
369.34956
370.57632
371.80534
373.02751
374.2319
375.40707
376.54132
377.62294
378.64035
379.58226
380.43792
381.19723
381.85096
382.39092
382.81014
383.103
383.26535
383.29466
383.19006
382.95248
382.5846
382.09091
381.47765
380.75273
379.92563
379.00725
378.00973
376.94618
375.83048
374.67699
373.50025
372.31467
371.1343
369.9725
368.84173
367.75336
366.7174
365.74252
364.83588
364.00316
363.24856
362.57485
361.98345
361.47455
361.04726
360.69971
360.42923
360.23245
360.10542
360.04377
368.59627
369.80035
371.01759
372.23778
373.45101
374.64648
375.81283
376.93848
378.01173
379.02106
379.95522
380.80348
381.55576
382.20287
382.73663
383.15007
383.4376
383.59505
383.61988
383.51121
383.26992
382.89865
382.40185
381.78571
381.05807
380.22836
379.30742
378.30731
377.24111
376.12264
374.96623
373.78639
372.59752
371.41366
370.2482
369.11362
368.02131
366.98136
366.00247
365.09188
364.25532
363.49705
362.8199
362.22535
361.71362
361.28387
360.93425
360.6621
360.46408
360.33624
360.27418
369.0828
370.27742
371.48498
372.69582
373.89976
375.08602
376.24334
377.36018
378.42491
379.42605
380.35238
381.1932
381.93847
382.579
383.10664
383.51442
383.79675
383.94947
383.97
383.85743
383.61261
383.23815
382.73842
382.11955
381.38933
380.55712
379.63369
378.63104
377.56219
376.44093
375.28152
374.09845
372.90613
371.71859
370.54923
369.41058
368.31406
367.26983
366.28663
365.37178
364.53108
363.76885
363.08799
362.49002
361.97523
361.54281
361.19095
360.91699
360.71763
360.5889
360.5264
369.59537
370.78017
371.97785
373.17898
374.37334
375.55018
376.69829
377.80619
378.86232
379.85523
380.77374
381.60719
382.34554
382.97964
383.50135
383.90369
384.18107
384.32931
384.34582
384.22965
383.98159
383.60421
383.10182
382.48048
381.7479
380.91338
379.98761
378.98253
377.9111
376.78704
375.62459
374.43823
373.24232
372.05093
370.87747
369.73449
368.6335
367.58468
366.59687
365.67745
364.8323
364.06581
363.38094
362.77929
362.2612
361.8259
361.47161
361.19571
360.99489
360.8652
360.80223
370.13299
371.30769
372.49526
373.68643
374.87101
376.03827
377.17708
378.276
379.32354
380.30828
381.21909
382.04532
382.77697
383.4049
383.92097
384.31821
384.591
384.73515
384.74804
384.62867
384.37779
383.99789
383.49322
382.86976
382.13515
381.2986
380.37073
379.3634
378.28952
377.16275
375.99729
374.80758
373.60801
372.41262
371.23487
370.08735
368.98162
367.92794
366.93521
366.01091
365.16099
364.38992
363.70076
363.09515
362.5735
362.13509
361.77818
361.50018
361.29779
361.16706
361.10358
370.6943
371.85868
373.03596
374.21701
375.39168
376.5493
377.67879
378.76879
379.80784
380.78458
381.68791
382.5072
383.2325
383.85465
384.36551
384.75812
385.02682
385.16741
385.17721
385.0552
384.80204
384.42015
383.9137
383.2886
382.5524
381.71422
380.78459
379.7753
378.69919
377.56986
376.40149
375.20847
374.00519
372.80571
371.62352
370.47126
369.36055
368.30173
367.3038
366.3743
365.5193
364.74335
364.04957
363.43972
362.91425
362.4725
362.11277
361.8325
361.62842
361.49657
361.43253
371.27753
372.43142
373.5983
374.76914
375.93386
377.08187
378.20214
379.28337
380.31415
381.28317
382.17938
382.99217
383.71158
384.32848
384.83472
385.22332
385.48859
385.62629
385.63372
385.50975
385.255
384.87181
384.36425
383.73813
383.00092
382.16163
381.23071
380.21987
379.14185
378.01023
376.83911
375.64288
374.43593
373.23233
372.0456
370.88844
369.77255
368.70835
367.70493
366.76993
365.90953
365.12838
364.4297
363.8153
363.28575
362.84041
362.47765
362.19494
361.98903
361.85598
361.79134
371.88041
373.02371
374.18015
375.34078
376.49562
377.63414
378.74539
379.81812
380.841
381.80273
382.69231
383.49915
384.21332
384.82567
385.32804
385.71342
385.97609
386.11178
386.11769
385.99265
385.73719
385.35355
384.8457
384.21936
383.48187
382.64215
381.71055
380.69869
379.61923
378.48568
377.31211
376.11288
374.90237
373.69468
372.50337
371.34122
370.21997
369.15017
368.14101
367.20025
366.33414
365.54748
364.84358
364.22435
363.69043
363.24126
362.87525
362.58993
362.38206
362.24771
362.18244
372.50013
373.63281
374.77885
375.92938
377.0745
378.20379
379.30634
380.371
381.38645
382.34147
383.22508
384.02672
384.73644
385.34511
385.84455
386.22771
386.48881
386.62352
386.62899
386.50396
386.24886
385.86582
385.35872
384.73312
383.99628
383.15699
382.2255
381.21332
380.13303
378.99807
377.82246
376.62054
375.4067
374.19505
372.99921
371.83201
370.70531
369.62974
368.61462
367.66783
366.79574
366.00328
365.29386
364.6695
364.13093
363.67768
363.30821
363.02008
362.81011
362.67436
362.60841
373.13326
374.25541
375.39117
376.53181
377.66752
378.78794
379.88227
380.93939
381.94807
382.89712
383.77559
384.57294
385.27922
385.88529
386.38293
386.76506
387.02584
387.16084
387.16716
387.04344
386.79
386.40884
385.90371
385.28006
384.545
383.70721
382.7768
381.76518
380.68484
379.54915
378.37207
377.16793
375.9511
374.73574
373.53551
372.36332
371.23113
370.14969
369.12845
368.1754
367.29709
366.49854
365.78331
365.15354
364.61006
364.15246
363.7793
363.48819
363.27597
363.13873
363.07204
373.77575
374.88752
376.01326
377.14433
378.27104
379.38311
380.46982
381.52013
382.52285
383.46685
384.3412
385.13537
385.83942
386.44417
386.94137
387.3239
387.58583
387.72264
387.73135
387.61049
387.36024
386.98248
386.48082
385.86055
385.12865
384.29364
383.36551
382.35556
381.27616
380.14061
378.96283
377.75709
376.53778
375.31909
374.11473
372.93771
371.80009
370.71275
369.68528
368.72582
367.84106
367.03619
366.31489
365.67944
365.13077
364.66859
364.29151
363.99723
363.78261
363.64377
363.5763
374.42281
375.52447
376.64054
377.76251
378.88077
379.98515
381.06502
382.10939
383.10716
384.04721
384.91866
385.71098
386.41421
387.01916
387.51754
387.90213
388.16694
388.30734
388.32024
388.20405
387.95881
387.58625
387.08981
386.47464
385.74753
384.91686
383.99248
382.98554
381.90832
380.77401
379.59647
378.38996
377.16886
375.94738
374.73932
373.55776
372.41489
371.32173
370.288
369.32204
368.43069
367.61929
366.89169
366.25031
365.6962
365.22919
364.84799
364.55034
364.33318
364.19264
364.12433
375.06891
376.16085
377.26774
378.38118
379.4917
380.58921
381.66317
382.70267
383.69666
384.63409
385.50406
386.29607
387.00016
387.60708
388.10848
388.49707
388.76677
388.91282
388.932
388.82259
388.58447
388.2192
387.73005
387.12197
386.4016
385.57712
384.65823
383.65593
382.58238
381.45067
380.2746
379.06837
377.84638
376.62287
375.4117
374.22605
373.07825
371.97946
370.93958
369.96711
369.06908
368.25101
367.51693
366.8694
366.30964
365.83759
365.45205
365.15086
364.931
364.78866
364.71947
375.70773
376.79045
377.88877
378.99442
380.09804
381.18966
382.25882
383.2947
384.2863
385.22261
386.09277
386.88626
387.59311
388.20401
388.71056
389.10537
389.38226
389.53634
389.56419
389.46398
389.23542
388.87986
388.40038
387.80174
387.09036
386.27425
385.36292
384.36721
383.29913
382.17168
380.99856
379.79394
378.57221
377.34764
376.13417
374.94509
373.79285
372.68878
371.64297
370.6641
369.75941
368.93461
368.19393
367.5401
366.9745
366.4972
366.10714
365.80224
365.57955
365.43531
365.36518
376.33211
377.40624
378.49673
379.59546
380.6932
381.78007
382.84571
383.8794
384.8702
385.80713
386.67936
387.47636
388.18812
388.80531
389.31941
389.72296
390.00963
390.1744
390.21367
390.12543
389.90919
389.56612
389.09906
388.51255
387.81279
387.00759
386.10624
385.11941
384.05896
382.93774
381.76938
380.56801
379.34798
378.12361
376.9089
375.71727
374.56128
373.45248
372.40111
371.4161
370.50489
369.6734
368.92608
368.26585
367.69427
367.21158
366.81684
366.50807
366.28243
366.1362
366.06507
376.9341
378.00038
379.08392
380.17674
381.26974
382.35317
383.41677
384.4499
385.44168
386.38118
387.25759
388.06037
388.77947
389.40549
389.92985
390.34495
390.64433
390.82279
390.87655
390.8034
390.60263
390.27519
389.82367
389.25237
388.56725
387.77588
386.88733
385.91205
384.86175
383.74913
382.58771
381.39155
380.17499
378.95239
377.7378
376.54475
375.38598
374.27319
373.21686
372.22613
371.30868
370.47068
369.71678
369.05015
368.47253
367.98434
367.58479
367.27205
367.04333
366.89503
366.82288
377.50488
378.56418
379.64177
380.72983
381.8194
382.90086
383.96405
384.99843
385.99318
386.93742
387.82034
388.63141
389.36053
389.99823
390.53583
390.9656
391.28092
391.47642
391.54811
391.49352
391.31174
391.00346
390.57101
390.01842
389.35137
388.57717
387.70464
386.74403
385.70683
384.60557
383.45366
382.26508
381.05414
379.83522
378.62243
377.42943
376.2691
375.15335
374.09289
373.09708
372.17386
371.32966
370.56939
369.89646
369.31282
368.81911
368.41469
368.09788
367.86602
367.71557
367.64235
378.03487
379.08816
380.16093
381.24551
382.33309
383.41419
384.47877
385.51638
386.51627
387.46761
388.35961
389.18172
389.92379
390.57627
391.13038
391.57824
391.91307
392.12929
392.22269
392.19052
392.03164
391.74646
391.33702
390.80705
390.16194
389.4087
388.55589
387.6135
386.59278
385.50611
384.36672
383.18852
381.98576
380.77283
379.56392
378.37279
377.21247
376.09509
375.03158
374.03157
373.10328
372.25341
371.48714
370.80815
370.21864
369.71945
369.31018
368.98927
368.75421
368.60158
368.52726
378.51379
379.56214
380.63131
381.71379
382.80095
383.88344
384.95135
385.99433
387.00171
387.9627
388.86653
389.70263
390.46081
391.13143
391.70559
392.17525
392.53346
392.77441
392.89365
392.88813
392.75647
392.49873
392.11667
391.61368
390.99482
390.2668
389.43787
388.51772
387.51738
386.44899
385.32563
384.16107
382.96952
381.76535
380.56281
379.37576
378.21741
377.10008
376.03495
375.03193
374.09951
373.24471
372.47302
371.78838
371.19328
370.68881
370.27476
369.94979
369.71154
369.55671
369.48128
378.93072
379.97529
381.04216
382.12403
383.21243
384.29817
385.37146
386.42208
387.43943
388.41278
389.33136
390.18461
390.96227
391.65461
392.2526
392.74806
393.1338
393.40381
393.55335
393.57909
393.47931
393.25377
392.90388
392.43266
391.84485
391.14678
390.34637
389.45301
388.47743
387.43153
386.3282
385.18107
384.00425
382.8121
381.6189
380.43862
379.28461
378.16941
377.10446
376.09995
375.16468
374.30598
373.52967
372.84
372.23977
371.73033
371.31173
370.98283
370.74145
370.58443
370.50789
379.27434
380.31631
381.38226
382.46506
383.55642
384.64734
385.72816
386.78878
387.81869
388.80722
389.74363
390.61733
391.418
392.13584
392.76167
393.28712
393.70482
394.00849
394.19311
394.25506
394.19219
394.00398
393.69145
393.25726
392.70573
392.04282
391.27608
390.41455
389.46864
388.44999
387.37124
386.24585
385.08783
383.91148
382.73111
381.56077
380.41397
379.30345
378.2409
377.23681
376.30031
375.43906
374.65922
373.96541
373.36071
372.8468
372.42399
372.09139
371.84702
371.6879
371.61029
379.53308
380.57368
381.64008
382.72538
383.82147
384.91952
386.01006
387.08309
388.12822
389.13482
390.0922
390.98975
391.8171
392.56435
393.22217
393.78203
394.23631
394.57847
394.80322
394.90657
394.886
394.74062
394.47104
394.07952
393.56994
392.94787
392.22044
391.3963
390.48552
389.4994
388.45034
387.35158
386.21699
385.0608
383.89731
382.74063
381.60443
380.50162
379.44417
378.44286
377.50716
376.64508
375.86315
375.16634
374.5581
374.04043
373.61394
373.27801
373.03089
372.86979
372.79116
379.69549
380.73588
381.8041
382.89343
383.99599
385.10313
386.20554
387.29339
388.35638
389.38397
390.36549
391.29033
392.14808
392.92872
393.62279
394.22157
394.71721
395.1029
395.37301
395.52321
395.55059
395.45383
395.23313
394.89028
394.42875
393.85363
393.1716
392.39091
391.52121
390.57347
389.55977
388.49311
387.38717
386.25607
385.11409
383.97539
382.85373
381.76223
380.71311
379.71743
378.78502
377.92426
377.14204
376.44374
375.83317
375.31269
374.88325
374.54451
374.295
374.13214
374.05258
379.7506
380.79178
381.86311
382.95793
384.06861
385.1867
386.30309
387.40807
388.49151
389.54293
390.55171
391.50725
392.39908
393.21709
393.95169
394.59396
395.13579
395.57011
395.89096
396.09362
396.17479
396.13268
395.96705
395.67921
395.27215
394.75047
394.12038
393.38964
392.56749
391.66448
390.69236
389.66382
388.59234
387.49188
386.37666
385.26084
384.15828
383.08227
382.04525
381.0586
380.13247
379.27563
378.49537
377.79746
377.18612
376.66408
376.23265
375.89183
375.64041
375.4761
375.39576
379.6884
380.73111
381.80662
382.90826
384.02857
385.15934
386.29163
387.41593
388.52223
389.60018
390.6392
391.6287
392.55818
393.41745
394.19677
394.88702
395.47986
395.96792
396.3449
396.6057
396.74659
396.7653
396.6611
396.43483
396.08894
395.62751
395.05622
394.38235
393.61464
392.7632
391.83938
390.85555
389.82491
388.76122
387.6786
386.59119
385.51289
384.45715
383.43663
382.46297
381.54668
380.69689
379.9213
379.22608
378.6159
378.09388
377.6617
377.31973
377.06707
376.90171
376.82078
378.49347
379.49876
380.54448
381.6253
382.73493
383.86619
385.01112
386.16103
387.30658
388.43793
389.54484
390.61683
391.64332
392.6138
393.51799
394.34601
395.08856
395.73707
396.28385
396.72226
397.04681
397.25333
397.33905
397.30274
397.14469
396.86683
396.47266
395.96732
395.35753
394.65151
393.85889
392.99055
392.05849
391.07558
390.05536
389.01178
387.9589
386.91066
385.8806
384.88156
383.92546
383.02312
382.18405
381.41634
380.72662
380.11994
379.59987
379.1685
378.82656
378.57351
378.40764
378.32638
377.20958
378.16895
379.17551
380.22481
381.3117
382.43019
383.57342
384.73371
385.90259
387.07098
388.22921
389.36719
390.47452
391.54067
392.55513
393.50755
394.38793
395.1868
395.89533
396.50555
397.01045
397.40416
397.68205
397.84084
397.87878
397.7956
397.59264
397.27283
396.84071
396.30241
395.66558
394.93931
394.13399
393.26117
392.33337
391.3638
390.36622
389.35456
388.34275
387.34436
386.37241
385.43904
384.55536
383.73125
382.97519
382.29421
381.69384
381.17806
380.74938
380.40894
380.15655
379.99085
379.90958
375.84079
376.74771
377.70635
378.71427
379.76741
380.86074
381.9886
383.14444
384.32086
385.5097
386.70208
387.88857
389.05922
390.20379
391.31179
392.37272
393.37621
394.31214
395.17086
395.94332
396.62126
397.19732
397.66522
398.01988
398.25753
398.37583
398.37396
398.25266
398.01422
397.66257
397.2032
396.64315
395.99093
395.25639
394.45058
393.58557
392.67425
391.73007
390.76683
389.79832
388.83818
387.89948
386.99458
386.13485
385.33049
384.59037
383.92193
383.33113
382.82238
382.39864
382.06144
381.811
381.64631
381.56543
375.24251
376.14673
377.10453
378.11367
379.17055
380.27034
381.40767
382.57631
383.76918
384.97841
386.19542
387.41098
388.61536
389.79844
390.94986
392.05915
393.1159
394.10992
395.0314
395.87108
396.62042
397.27172
397.8183
398.25462
398.57639
398.78074
398.86624
398.83299
398.68266
398.41851
398.04537
397.56962
396.99915
396.34319
395.61226
394.81794
393.97271
393.08968
392.18239
391.26453
390.34964
389.45087
388.5807
387.75073
386.97145
386.25208
385.60046
385.02294
384.5244
384.10821
383.77631
383.52933
383.36663
383.28663
374.5082
375.4095
376.3661
377.37605
378.43617
379.54201
380.68844
381.86958
383.07868
384.30819
385.54982
386.79462
388.03308
389.25527
390.45094
391.60969
392.72112
393.77498
394.76134
395.67073
396.49437
397.22421
397.85319
398.37532
398.78581
399.08122
399.25953
399.3202
399.26423
399.09417
398.81417
398.42994
397.94866
397.37895
396.7307
396.01496
395.24373
394.42972
393.58617
392.72653
391.86425
391.01246
390.18371
389.38976
388.64134
387.948
387.31792
386.75785
386.27307
385.86738
385.54315
385.30137
385.14182
385.06326
373.64537
374.54319
375.49795
376.50796
377.57043
378.68148
379.83617
381.02896
382.25347
383.50251
384.76809
386.04158
387.31371
388.57476
389.81466
391.0231
392.18972
393.30424
394.35663
395.33727
396.23711
397.04783
397.76198
398.37312
398.876
399.26663
399.54236
399.702
399.74586
399.6758
399.49524
399.20917
398.82406
398.34783
397.78974
397.16023
396.47074
395.73355
394.9615
394.16777
393.3656
392.56804
391.78764
391.03628
390.32487
389.66319
389.05974
388.52163
388.05452
387.66261
387.34866
387.11406
386.95896
386.8825
372.66621
373.5597
374.51162
375.52063
376.58424
377.69914
378.86075
380.06381
381.30233
382.56948
383.85764
385.15847
386.46304
387.76185
389.04502
390.3024
391.52368
392.69862
393.8171
394.86939
395.84621
396.73898
397.53988
398.24211
398.83994
399.32881
399.70548
399.96808
400.11625
400.15112
400.07538
399.89327
399.61051
399.23432
398.77324
398.23705
397.63662
396.98368
396.29064
395.57029
394.83564
394.09955
393.37451
392.67242
392.0043
391.38012
390.80864
390.29725
389.85198
389.47736
389.17653
388.95125
388.80204
388.72838
371.5877
372.47574
373.42359
374.43021
375.49346
376.6104
377.77713
378.98857
380.23912
381.52233
382.83097
384.15706
385.49198
386.82653
388.15105
389.45556
390.7299
391.96384
393.14727
394.27034
395.32363
396.29829
397.18624
397.98034
398.67433
399.26314
399.7429
400.11114
400.36679
400.51026
400.54351
400.46998
400.29468
400.02402
399.66584
399.22922
398.72437
398.16243
397.55529
396.91533
396.25519
395.5875
394.9246
394.27832
393.65973
393.07889
392.54474
392.06494
391.64576
391.29206
391.00732
390.79361
390.65181
390.58172
370.43162
371.31287
372.25522
373.25784
374.31895
375.43596
376.60544
377.82294
379.08304
380.3797
381.7061
383.05463
384.41702
385.7844
387.14737
388.49619
389.82083
391.11117
392.35713
393.54879
394.67663
395.73165
396.70559
397.59082
398.38066
399.06953
399.653
400.12796
400.49268
400.74687
400.89172
400.92993
400.86571
400.70471
400.454
400.12194
399.71802
399.25276
398.73746
398.184
397.60461
397.01159
396.41704
395.83265
395.26943
394.73748
394.24585
393.80234
393.41344
393.08427
392.81856
392.6187
392.48584
392.42011
369.2244
370.09726
371.03252
372.02941
373.08644
374.20137
375.37115
376.59191
377.8587
379.16576
380.50666
381.8742
383.2605
384.65701
386.05466
387.44395
388.81507
390.15803
391.46282
392.71953
393.91874
395.0513
396.10855
397.08254
397.96623
398.75353
399.43952
400.02048
400.49404
400.85919
401.11643
401.26769
401.31639
401.26741
401.12703
400.90286
400.60366
400.23927
399.82034
399.3582
398.8646
398.35142
397.83047
397.31319
396.81047
396.33234
395.88786
395.48492
395.13016
394.82886
394.58498
394.40112
394.27869
394.21806
367.19368
367.99499
368.85887
369.78575
370.77526
371.82628
372.93693
374.10456
375.32567
376.59597
377.91009
379.26189
380.64459
382.05069
383.47201
384.89983
386.32494
387.73772
389.12843
390.48733
391.8047
393.07084
394.27644
395.41265
396.47129
397.44497
398.32719
399.11255
399.79678
400.37688
400.85117
401.21943
401.4829
401.64425
401.70749
401.67817
401.56316
401.37048
401.1092
400.78931
400.42153
400.01708
399.58738
399.14383
398.6976
398.25932
397.8389
397.44534
397.08651
396.76911
396.49854
396.27887
396.1129
396.00221
395.94736
365.98659
366.77729
367.63091
368.54818
369.52888
370.57219
371.67658
372.83976
374.05861
375.32924
376.64693
378.00594
379.39979
380.82134
382.26275
383.71573
385.17149
386.62084
388.05425
389.46195
390.83419
392.1613
393.43392
394.64308
395.78041
396.83829
397.80981
398.68915
399.47168
400.15373
400.73298
401.20852
401.58096
401.85245
402.02571
402.10545
402.09835
402.01149
401.85318
401.63269
401.36009
401.04602
400.70142
400.33726
399.96425
399.59276
399.2325
398.89232
398.57999
398.30221
398.06441
397.87074
397.72407
397.6261
397.57754
364.82532
365.60513
366.44802
367.35488
368.32578
369.36018
370.45682
371.61371
372.82807
374.09639
375.41441
376.77704
378.17824
379.6112
381.06862
382.54246
384.02415
385.50471
386.97482
388.42494
389.84544
391.22673
392.55942
393.83449
395.04335
396.17806
397.23158
398.19765
399.07098
399.84766
400.52492
401.10125
401.57639
401.95138
402.22949
402.41463
402.51154
402.52694
402.46859
402.34512
402.16592
401.94091
401.68044
401.39496
401.09493
400.79029
400.49049
400.20413
399.93895
399.7015
399.49717
399.33014