/*--------------------------------*- C++ -*----------------------------------*\
| =========                 |                                                 |
| \\      /  F ield         | OpenFOAM: The Open Source CFD Toolbox           |
|  \\    /   O peration     | Version:  2312                                  |
|   \\  /    A nd           | Website:  www.openfoam.com                      |
|    \\/     M anipulation  |                                                 |
\*---------------------------------------------------------------------------*/
FoamFile
{
    version     2.0;
    format      ascii;
    arch        "LSB;label=32;scalar=64";
    class       surfaceScalarField;
    location    "0.01";
    object      phi;
}
// * * * * * * * * * * * * * * * * * * * * * * * * * * * * * * * * * * * * * //

dimensions      [1 0 -1 0 0 0 0];

oriented        oriented;

internalField   nonuniform List<scalar> 
6327
(
-1.2678924e-08
-6.0311566e-10
-1.4140993e-08
-5.7208248e-10
-1.5677303e-08
-5.392262e-10
-1.7283219e-08
-4.9779511e-10
-1.8999204e-08
-4.8850504e-10
-2.0788657e-08
-4.412635e-10
-2.2658676e-08
-3.9818766e-10
-2.4610531e-08
-3.5529388e-10
-2.6643447e-08
-3.1147036e-10
-2.875573e-08
-2.6653865e-10
-3.0944859e-08
-2.2057072e-10
-3.3207507e-08
-1.7372628e-10
-3.5539514e-08
-1.2621469e-10
-3.7935849e-08
-7.8270971e-11
-4.0390586e-08
-3.0138737e-11
-4.2896894e-08
1.7920159e-11
-4.5447042e-08
6.5644526e-11
-4.8032422e-08
1.1277315e-10
-5.0643599e-08
1.5904826e-10
-5.3270385e-08
2.0421184e-10
-5.5901938e-08
2.4801232e-10
-5.8526879e-08
2.9020748e-10
-6.1133431e-08
3.3055766e-10
-6.3709586e-08
3.6884744e-10
-6.6243252e-08
4.0487393e-10
-6.8722478e-08
4.3845486e-10
-7.1135646e-08
4.6943881e-10
-7.3471614e-08
4.977128e-10
-7.5719924e-08
5.2321306e-10
-7.7870968e-08
5.459393e-10
-7.9916147e-08
5.659648e-10
-8.1847998e-08
5.8345284e-10
-8.3660307e-08
5.9867512e-10
-8.5348195e-08
6.120164e-10
-8.6908171e-08
6.2397699e-10
-8.8338182e-08
6.3519249e-10
-8.9637536e-08
6.4632815e-10
-9.0807153e-08
6.5840202e-10
-9.1848005e-08
6.7099075e-10
-9.2765318e-08
6.8792034e-10
6.9681798e-10
-1.2679907e-08
-6.7837947e-10
-1.4141786e-08
-6.2207483e-10
-1.5677336e-08
-5.6342633e-10
-1.7287397e-08
-4.9458493e-10
-1.8998815e-08
-4.532215e-10
-2.0788214e-08
-3.8047569e-10
-2.2658189e-08
-3.0827252e-10
-2.4609776e-08
-2.351371e-10
-2.6642308e-08
-1.6080819e-10
-2.8754136e-08
-8.5291629e-11
-3.0942757e-08
-8.8361224e-12
-3.3204854e-08
6.8217348e-11
-3.5536269e-08
1.4546995e-10
-3.7931975e-08
2.2249502e-10
-4.0386052e-08
2.9885742e-10
-4.2891671e-08
3.7411532e-10
-4.5441107e-08
4.4783913e-10
-4.8025755e-08
5.196173e-10
-5.0636187e-08
5.8906417e-10
-5.3262221e-08
6.5582141e-10
-5.5893021e-08
7.1957009e-10
-5.8517215e-08
7.8003598e-10
-6.1123031e-08
8.3698135e-10
-6.3698467e-08
8.9023997e-10
-6.6231436e-08
9.3969512e-10
-6.8709993e-08
9.8529184e-10
-7.1122524e-08
1.0270469e-09
-7.3457891e-08
1.0650532e-09
-7.5705636e-08
1.0994856e-09
-7.7856157e-08
1.1306103e-09
-7.990085e-08
1.158791e-09
-8.1832253e-08
1.1844955e-09
-8.3644147e-08
1.2083121e-09
-8.5331648e-08
1.2309447e-09
-8.6891254e-08
1.2532066e-09
-8.8320899e-08
1.2760519e-09
-8.9619875e-08
1.3003727e-09
-9.0789089e-08
1.3276509e-09
-9.1829552e-08
1.3564427e-09
-9.2746955e-08
1.3941198e-09
1.4138816e-09
-1.268294e-08
-7.543858e-10
-1.41447e-08
-6.731826e-10
-1.5679809e-08
-5.8742901e-10
-1.7292492e-08
-4.926693e-10
-1.9001108e-08
-4.1875994e-10
-2.0789865e-08
-3.1978435e-10
-2.26595e-08
-2.1868136e-10
-2.4610621e-08
-1.1553576e-10
-2.6642557e-08
-1.0819015e-11
-2.8753678e-08
9.5211393e-11
-3.0941496e-08
2.0210688e-10
-3.3202703e-08
3.0933039e-10
-3.5533146e-08
4.1629035e-10
-3.7927807e-08
5.2236719e-10
-4.038077e-08
6.2693494e-10
-4.2885215e-08
7.293721e-10
-4.5433423e-08
8.2908128e-10
-4.80168e-08
9.2550119e-10
-5.062593e-08
1.0181188e-09
-5.3250641e-08
1.1064764e-09
-5.5880108e-08
1.1901871e-09
-5.8502974e-08
1.2689453e-09
-6.1107477e-08
1.3425155e-09
-6.3681627e-08
1.4107796e-09
-6.6213349e-08
1.4737064e-09
-6.869071e-08
1.5313672e-09
-7.1102104e-08
1.5839458e-09
-7.3436399e-08
1.6317399e-09
-7.5683146e-08
1.6751609e-09
-7.7832742e-08
1.7147397e-09
-7.9876588e-08
1.7511279e-09
-8.1807216e-08
1.7850949e-09
-8.36184e-08
1.8175419e-09
-8.5305245e-08
1.8494875e-09
-8.686423e-08
1.8820521e-09
-8.829326e-08
1.9164987e-09
-8.9591603e-08
1.9539478e-09
-9.0760112e-08
1.9963234e-09
-9.1799929e-08
2.0413399e-09
-9.2717528e-08
2.1005693e-09
2.1306586e-09
-1.2688042e-08
-8.3129254e-10
-1.4149588e-08
-7.2559309e-10
-1.5684538e-08
-6.1175156e-10
-1.7299136e-08
-4.9146007e-10
-1.9005681e-08
-3.8571575e-10
-2.0793572e-08
-2.5970021e-10
-2.2662618e-08
-1.2980608e-10
-2.4613061e-08
3.1607601e-12
-2.6644175e-08
1.3813979e-10
-2.8754327e-08
2.7459491e-10
-3.0941039e-08
4.1185457e-10
-3.3201011e-08
5.4918468e-10
-3.5530099e-08
6.8579575e-10
-3.7923291e-08
8.2087423e-10
-4.0374681e-08
9.5360417e-10
-4.287746e-08
1.0831856e-09
-4.5423921e-08
1.2088541e-09
-4.8005485e-08
1.3298998e-09
-5.0612749e-08
1.4456832e-09
-5.323556e-08
1.5556481e-09
-5.5863111e-08
1.6593397e-09
-5.8484063e-08
1.7564203e-09
-6.1086672e-08
1.846661e-09
-6.3658966e-08
1.9299871e-09
-6.618889e-08
2.0064522e-09
-6.8664524e-08
2.0762531e-09
-7.1074277e-08
2.1397386e-09
-7.340703e-08
2.1974094e-09
-7.5652341e-08
2.2499103e-09
-7.7800614e-08
2.2980339e-09
-7.9843249e-08
2.3427162e-09
-8.1772775e-08
2.3850235e-09
-8.3582957e-08
2.4261647e-09
-8.5268881e-08
2.4674661e-09
-8.6827001e-08
2.5103465e-09
-8.8255182e-08
2.5563655e-09
-8.9552644e-08
2.6068641e-09
-9.0720164e-08
2.6641801e-09
-9.1758958e-08
2.7253381e-09
-9.2677099e-08
2.8076346e-09
2.8464129e-09
-1.1311453e-08
-1.032151e-09
-1.2695208e-08
-9.0934294e-10
-1.4156228e-08
-7.7922917e-10
-1.5691462e-08
-6.3673262e-10
-1.7307459e-08
-4.9109645e-10
-1.9012372e-08
-3.5438625e-10
-2.0799231e-08
-2.0072118e-10
-2.2667467e-08
-4.205239e-11
-2.4617018e-08
1.2058591e-10
-2.6647078e-08
2.8569923e-10
-2.8755994e-08
4.5246793e-10
-3.0941294e-08
6.1999656e-10
-3.3199684e-08
7.8734638e-10
-3.5527028e-08
9.535297e-10
-3.7918326e-08
1.1175395e-09
-4.0367683e-08
1.27837e-09
-4.2868304e-08
1.4350455e-09
-4.5412498e-08
1.586636e-09
-4.7991704e-08
1.7322839e-09
-5.059654e-08
1.8712244e-09
-5.3216876e-08
2.0028047e-09
-5.5841927e-08
2.1265011e-09
-5.8460383e-08
2.2419399e-09
-6.1060518e-08
2.3489168e-09
-6.3630391e-08
2.4473818e-09
-6.6157966e-08
2.5374759e-09
-6.8631346e-08
2.6195207e-09
-7.1038959e-08
2.6940275e-09
-7.3369701e-08
2.7616971e-09
-7.5613142e-08
2.8234044e-09
-7.7759694e-08
2.8801989e-09
-7.980076e-08
2.9332957e-09
-8.172886e-08
2.984054e-09
-8.3537751e-08
3.033982e-09
-8.5222495e-08
3.0847046e-09
-8.6779516e-08
3.1379309e-09
-8.8206622e-08
3.1954922e-09
-8.9502999e-08
3.2589734e-09
-9.0669209e-08
3.3309442e-09
-9.1706855e-08
3.4083448e-09
-9.2623034e-08
3.512832e-09
3.5654252e-09
-1.0023586e-08
-1.1231103e-09
-1.1248777e-08
-9.7963467e-10
-1.2541602e-08
-8.262779e-10
-1.3901706e-08
-6.607449e-10
-1.5333343e-08
-4.9190241e-10
-1.6841699e-08
-3.2839761e-10
-1.8422883e-08
-1.4981176e-10
-2.0076198e-08
3.4328307e-11
-2.180144e-08
2.2314966e-10
-2.3597799e-08
4.1482512e-10
-2.5463797e-08
6.083247e-10
-2.7397242e-08
8.0255111e-10
-2.9395224e-08
9.963847e-10
-3.145409e-08
1.1886627e-09
-3.356942e-08
1.3782083e-09
-3.5736009e-08
1.5638523e-09
-3.7947854e-08
1.744461e-09
-4.0198165e-08
1.9189604e-09
-4.247938e-08
2.086365e-09
-4.4783215e-08
2.2457983e-09
-4.7100725e-08
2.3965259e-09
-4.9422385e-08
2.5379622e-09
-5.1738207e-08
2.6696821e-09
-5.4037838e-08
2.7915634e-09
-5.6310729e-08
2.9035179e-09
-5.8546249e-08
3.0057805e-09
-6.0733889e-08
3.0987829e-09
-6.286342e-08
3.1831771e-09
-6.492503e-08
3.2598382e-09
-6.6909497e-08
3.3298404e-09
-6.8808339e-08
3.3944565e-09
-7.0613945e-08
3.4551429e-09
-7.2319691e-08
3.5135137e-09
-7.3920035e-08
3.5713349e-09
-7.5410581e-08
3.6304802e-09
-7.6788153e-08
3.6929352e-09
-7.8050676e-08
3.7606445e-09
-7.9197717e-08
3.8358343e-09
-8.0228355e-08
3.9195733e-09
-8.1149324e-08
4.015462e-09
-8.1942253e-08
4.1190428e-09
4.233939e-09
-1.0311398e-08
-1.2176257e-09
-1.157025e-08
-1.0528513e-09
-1.289831e-08
-8.7510722e-10
-1.4296613e-08
-6.8700287e-10
-1.5768201e-08
-4.9417146e-10
-1.7317244e-08
-3.0352401e-10
-1.8941017e-08
-9.9213117e-11
-2.0638946e-08
1.1112982e-10
-2.2410646e-08
3.2673736e-10
-2.425523e-08
5.4557417e-10
-2.6171153e-08
7.6640298e-10
-2.815616e-08
9.8792902e-10
-3.0207264e-08
1.2088492e-09
-3.2320721e-08
1.427823e-09
-3.4492004e-08
1.6435011e-09
-3.6715776e-08
1.8545478e-09
-3.8985891e-08
2.0596706e-09
-4.1295391e-08
2.2576506e-09
-4.3636533e-08
2.4473727e-09
-4.6000832e-08
2.6278537e-09
-4.8379126e-08
2.798268e-09
-5.0761664e-08
2.9579756e-09
-5.3138203e-08
3.1065414e-09
-5.5498158e-08
3.2437737e-09
-5.783071e-08
3.3696989e-09
-6.0124972e-08
3.4846031e-09
-6.2370171e-08
3.589025e-09
-6.4555825e-08
3.683757e-09
-6.6671874e-08
3.7698489e-09
-6.8708857e-08
3.8485755e-09
-7.0658071e-08
3.9214328e-09
-7.2511699e-08
3.9901176e-09
-7.426293e-08
4.0565026e-09
-7.5906058e-08
4.1226067e-09
-7.7436543e-08
4.1905518e-09
-7.8851085e-08
4.2625918e-09
-8.0147519e-08
4.3407951e-09
-8.1325287e-08
4.4279642e-09
-8.2383562e-08
4.5238593e-09
-8.3328463e-08
4.6380072e-09
-8.4145125e-08
4.7439296e-09
4.9168015e-09
-1.0610714e-08
-1.3160598e-09
-1.1903905e-08
-1.1282183e-09
-1.3268563e-08
-9.2705436e-10
-1.4705911e-08
-7.1577463e-10
-1.6218239e-08
-4.9831056e-10
-1.780902e-08
-2.8016153e-10
-1.9476342e-08
-4.9414824e-11
-2.1219784e-08
1.8783299e-10
-2.3038822e-08
4.3081251e-10
-2.4932493e-08
6.773851e-10
-2.6899187e-08
9.2611369e-10
-2.8936582e-08
1.1755122e-09
-3.1041615e-08
1.4240934e-09
-3.3210451e-08
1.6703376e-09
-3.5438452e-08
1.912722e-09
-3.7720157e-08
2.1497427e-09
-4.0049272e-08
2.3799489e-09
-4.2418679e-08
2.6019757e-09
-4.4820453e-08
2.8145778e-09
-4.7245914e-08
3.016662e-09
-4.9685688e-08
3.2073168e-09
-5.2129797e-08
3.3858448e-09
-5.4567762e-08
3.55179e-09
-5.698875e-08
3.7049401e-09
-5.9381693e-08
3.8453791e-09
-6.173544e-08
3.9734599e-09
-6.4038965e-08
4.0898344e-09
-6.6281531e-08
4.1954335e-09
-6.8452831e-08
4.2914791e-09
-7.0543167e-08
4.3794484e-09
-7.254361e-08
4.4610577e-09
-7.4446139e-08
4.5382414e-09
-7.6243749e-08
4.6131344e-09
-7.7930563e-08
4.6879997e-09
-7.9501893e-08
4.7652059e-09
-8.0954303e-08
4.8472631e-09
-8.2285547e-08
4.9363899e-09
-8.3494893e-08
5.0358449e-09
-8.458181e-08
5.144523e-09
-8.5551212e-08
5.2763478e-09
-8.639417e-08
5.3899374e-09
5.610422e-09
-9.6636908e-09
-1.6152951e-09
-1.0921574e-08
-1.4185991e-09
-1.2250226e-08
-1.2065853e-09
-1.3652601e-08
-9.8232749e-10
-1.5129841e-08
-7.4737896e-10
-1.6683799e-08
-5.0468721e-10
-1.8317349e-08
-2.5874153e-10
-2.0029207e-08
-9.1904174e-13
-2.1819084e-08
2.6388459e-10
-2.368636e-08
5.3480465e-10
-2.5630003e-08
8.0966223e-10
-2.7648332e-08
1.0868333e-09
-2.973896e-08
1.364648e-09
-3.1898745e-08
1.6414362e-09
-3.412376e-08
1.9154996e-09
-3.6409259e-08
2.1851415e-09
-3.8749655e-08
2.4486903e-09
-4.1138512e-08
2.7045371e-09
-4.3568552e-08
2.9511712e-09
-4.6031674e-08
3.1872179e-09
-4.8519005e-08
3.4114745e-09
-5.1020963e-08
3.6229442e-09
-5.3527349e-08
3.8208712e-09
-5.6027451e-08
4.0047706e-09
-5.8510193e-08
4.1744322e-09
-6.0964258e-08
4.3299803e-09
-6.3378242e-08
4.4718486e-09
-6.5740863e-08
4.6007833e-09
-6.8041135e-08
4.7178595e-09
-7.0268502e-08
4.8244656e-09
-7.2413029e-08
4.9222851e-09
-7.4465563e-08
5.0132503e-09
-7.6417867e-08
5.0995266e-09
-7.8262745e-08
5.1835115e-09
-7.9994144e-08
5.2677034e-09
-8.1607218e-08
5.3547157e-09
-8.309839e-08
5.4473008e-09
-8.4465324e-08
5.5478516e-09
-8.5707117e-08
5.6599747e-09
-8.6823529e-08
5.782132e-09
-8.7818363e-08
5.931213e-09
-8.8687178e-08
6.0565055e-09
6.3164566e-09
-9.9516356e-09
-1.7443986e-09
-1.1244099e-08
-1.5245744e-09
-1.2609598e-08
-1.2892672e-09
-1.4050727e-08
-1.0414111e-09
-1.5568725e-08
-7.8222713e-10
-1.7165212e-08
-5.137339e-10
-1.8842566e-08
-2.3972448e-10
-2.0599967e-08
4.5747252e-11
-2.2437224e-08
3.3869846e-10
-2.4353659e-08
6.3810235e-10
-2.634817e-08
9.4176675e-10
-2.8419012e-08
1.2478946e-09
-3.0563728e-08
1.5546404e-09
-3.2779098e-08
1.8601542e-09
-3.5061101e-08
2.1625607e-09
-3.7404884e-08
2.4599902e-09
-3.9804737e-08
2.7506048e-09
-4.2254085e-08
3.0326388e-09
-4.474549e-08
3.304437e-09
-4.727068e-08
3.5644967e-09
-4.9820592e-08
3.8115069e-09
-5.2385442e-08
4.0443864e-09
-5.4954812e-08
4.2623217e-09
-5.7517766e-08
4.4647985e-09
-6.0062985e-08
4.6516136e-09
-6.2578908e-08
4.8229259e-09
-6.5053881e-08
4.9792425e-09
-6.7476372e-08
5.1214141e-09
-6.9835143e-08
5.2506542e-09
-7.2119392e-08
5.3685276e-09
-7.431895e-08
5.476898e-09
-7.6424434e-08
5.5779187e-09
-7.8427389e-08
5.6739899e-09
-8.0320426e-08
5.767727e-09
-8.2097304e-08
5.8618973e-09
-8.3753016e-08
5.9593438e-09
-8.5283836e-08
6.0630452e-09
-8.6687328e-08
6.1755901e-09
-8.7962418e-08
6.3008315e-09
-8.9109131e-08
6.4372036e-09
-9.0130166e-08
6.6031696e-09
-9.1024679e-08
6.7433559e-09
7.0357941e-09
-8.9935038e-09
-2.105935e-09
-1.0250485e-08
-1.8791184e-09
-1.1578722e-08
-1.6347812e-09
-1.298222e-08
-1.3765963e-09
-1.4463111e-08
-1.1047935e-09
-1.6022814e-08
-8.2075755e-10
-1.7662764e-08
-5.2593748e-10
-1.9384959e-08
-2.236159e-10
-2.1188923e-08
9.0019252e-11
-2.3074527e-08
4.11651e-10
-2.5041059e-08
7.4005164e-10
-2.7087356e-08
1.0730164e-09
-2.9211605e-08
1.4085879e-09
-3.141128e-08
1.7447526e-09
-3.3683082e-08
2.0794848e-09
-3.6022897e-08
2.4107351e-09
-3.8425766e-08
2.7364632e-09
-4.0885857e-08
3.0546672e-09
-4.3396455e-08
3.3634266e-09
-4.5949971e-08
3.6609441e-09
-4.8537961e-08
3.9455912e-09
-5.1151179e-08
4.2159504e-09
-5.377964e-08
4.4708578e-09
-5.6412716e-08
4.709443e-09
-5.9039244e-08
4.9311634e-09
-6.1647673e-08
5.1358229e-09
-6.42262e-08
5.3236141e-09
-6.6762925e-08
5.4951155e-09
-6.9246067e-08
5.6512799e-09
-7.1664138e-08
5.7934551e-09
-7.4006092e-08
5.9233707e-09
-7.6261523e-08
6.0430791e-09
-7.8420816e-08
6.1549429e-09
-8.0475299e-08
6.2615904e-09
-8.241738e-08
6.365858e-09
-8.4240628e-08
6.4707501e-09
-8.5939866e-08
6.5793412e-09
-8.751121e-08
6.6948228e-09
-8.8952111e-08
6.8199942e-09
-9.0261326e-08
6.9588685e-09
-9.1439063e-08
7.1101805e-09
-9.248703e-08
7.2927451e-09
-9.3407031e-08
7.4501593e-09
7.7693133e-09
-9.2681458e-09
-2.2681168e-09
-1.0560192e-08
-2.0183386e-09
-1.1925765e-08
-1.7511307e-09
-1.3368289e-08
-1.4693062e-09
-1.488995e-08
-1.1730362e-09
-1.649232e-08
-8.6350176e-10
-1.8176696e-08
-5.4185561e-10
-1.9944774e-08
-2.1097825e-10
-2.1796333e-08
1.3128496e-10
-2.3731272e-08
4.8207655e-10
-2.5748861e-08
8.399536e-10
-2.7847877e-08
1.2026838e-09
-3.0026445e-08
1.568159e-09
-3.2281968e-08
1.9342048e-09
-3.4611065e-08
2.2986247e-09
-3.7009533e-08
2.6591991e-09
-3.9472305e-08
3.0137201e-09
-4.199343e-08
3.3600252e-09
-4.4566056e-08
3.6960423e-09
-4.7182442e-08
4.0198353e-09
-4.9833981e-08
4.3296526e-09
-5.2511242e-08
4.623973e-09
-5.5204049e-08
4.9015518e-09
-5.7901563e-08
5.1614634e-09
-6.0592404e-08
5.4031377e-09
-6.3264788e-08
5.6263851e-09
-6.5906676e-08
5.8314312e-09
-6.8505926e-08
6.0189235e-09
-7.1050508e-08
6.1899133e-09
-7.3528688e-08
6.3458786e-09
-7.5929177e-08
6.4887078e-09
-7.8241328e-08
6.6206351e-09
-8.0455294e-08
6.744224e-09
-8.2562184e-08
6.8623167e-09
-8.4554193e-08
6.9779702e-09
-8.6424696e-08
7.0944129e-09
-8.8168337e-08
7.2149383e-09
-8.9781068e-08
7.3429365e-09
-9.1260207e-08
7.4814222e-09
-9.2604341e-08
7.6344986e-09
-9.3813764e-08
7.8014259e-09
-9.4889337e-08
8.0004096e-09
-9.5834647e-08
8.1766175e-09
8.5178824e-09
-8.298303e-09
-2.6894932e-09
-9.5527472e-09
-2.4358011e-09
-1.0881248e-08
-2.1642087e-09
-1.2285269e-08
-1.8740075e-09
-1.3767871e-08
-1.5680345e-09
-1.5331369e-08
-1.2467165e-09
-1.6977401e-08
-9.1107123e-10
-1.8707194e-08
-5.621237e-10
-2.0522206e-08
-2.0244183e-10
-2.2422403e-08
1.6887335e-10
-2.4407685e-08
5.4925957e-10
-2.6477309e-08
9.3706002e-10
-2.8629998e-08
1.3299934e-09
-3.0863815e-08
1.7258079e-09
-3.3176092e-08
2.1221741e-09
-3.5563368e-08
2.5167303e-09
-3.8021348e-08
2.907091e-09
-4.054486e-08
3.2908857e-09
-4.3127832e-08
3.6657949e-09
-4.5763282e-08
4.0295994e-09
-4.8443319e-08
4.3802282e-09
-5.1159172e-08
4.71581e-09
-5.3901235e-08
5.0347235e-09
-5.665914e-08
5.3356455e-09
-5.9421843e-08
5.617597e-09
-6.2177751e-08
5.8799816e-09
-6.4914853e-08
6.122615e-09
-6.7620875e-08
6.3457554e-09
-7.0283436e-08
6.5501159e-09
-7.2890261e-08
6.7368419e-09
-7.542937e-08
6.9075361e-09
-7.7889231e-08
7.064239e-09
-8.0258955e-08
7.2093574e-09
-8.2528463e-08
7.3456459e-09
-8.4688637e-08
7.4761499e-09
-8.6731456e-08
7.6041356e-09
-8.8650093e-08
7.733042e-09
-9.0439005e-08
7.8663677e-09
-9.2093966e-08
8.0076857e-09
-9.3612147e-08
8.1602207e-09
-9.4991961e-08
8.3281109e-09
-9.6233682e-08
8.5112653e-09
-9.733747e-08
8.7265708e-09
-9.8308012e-08
8.922532e-09
9.2823178e-09
-8.5572643e-09
-2.8870365e-09
-9.8476856e-09
-2.6116875e-09
-1.1213737e-08
-2.317565e-09
-1.2657231e-08
-2.0040006e-09
-1.4181022e-08
-1.6733998e-09
-1.5787435e-08
-1.3264806e-09
-1.7478157e-08
-9.6415911e-10
-1.9254383e-08
-5.8745857e-10
-2.1117394e-08
-1.9871174e-10
-2.3067279e-08
2.0204867e-10
-2.5103931e-08
6.1242911e-10
-2.7226587e-08
1.0305698e-09
-2.9433923e-08
1.4541191e-09
-3.1723939e-08
1.8806864e-09
-3.4093895e-08
2.3077924e-09
-3.6540253e-08
2.7329159e-09
-3.9058624e-08
3.1535113e-09
-4.1643732e-08
3.5670502e-09
-4.4289389e-08
3.9710617e-09
-4.698848e-08
4.3631842e-09
-4.9732969e-08
4.7412165e-09
-5.2513925e-08
5.1031724e-09
-5.532157e-08
5.4473336e-09
-5.8145346e-08
5.7723019e-09
-6.0974012e-08
6.0770468e-09
-6.3795762e-08
6.3609466e-09
-6.6598362e-08
6.6238214e-09
-6.9369309e-08
6.8659602e-09
-7.2095985e-08
7.0881387e-09
-7.476587e-08
7.2915909e-09
-7.7366741e-08
7.4780372e-09
-7.988682e-08
7.6496623e-09
-8.2314979e-08
7.8090352e-09
-8.4640899e-08
7.9590894e-09
-8.6855234e-08
8.1030607e-09
-8.8949741e-08
8.2444119e-09
-9.0917384e-08
8.3867755e-09
-9.2752419e-08
8.53384e-09
-9.4450438e-08
8.689343e-09
-9.6008439e-08
8.8567034e-09
-9.7424653e-08
9.0400529e-09
-9.8699244e-08
9.2399856e-09
-9.9831811e-08
9.4715912e-09
-1.0082761e-07
9.6878167e-09
1.0063387e-08
-7.5718247e-09
-3.3668308e-09
-8.8253257e-09
-3.0930281e-09
-1.0152858e-08
-2.7961119e-09
-1.1557595e-08
-2.479105e-09
-1.304165e-08
-2.1417613e-09
-1.4607738e-08
-1.7860915e-09
-1.6258157e-08
-1.4130542e-09
-1.7994621e-08
-1.0235432e-09
-1.9818323e-08
-6.1865979e-10
-2.1730406e-08
-2.0057298e-10
-2.3731044e-08
2.3000345e-10
-2.5820105e-08
6.7075161e-10
-2.799681e-08
1.119624e-09
-3.0259785e-08
1.5741806e-09
-3.2606968e-08
2.0318955e-09
-3.5035552e-08
2.4901447e-09
-3.7541915e-08
2.9462533e-09
-4.0121579e-08
3.3975217e-09
-4.2769164e-08
3.8412697e-09
-4.5478365e-08
4.274881e-09
-4.8241939e-08
4.6958573e-09
-5.1051707e-08
5.1018727e-09
-5.3898581e-08
5.4908309e-09
-5.6772611e-08
5.8609213e-09
-5.9663058e-08
6.2106737e-09
-6.2558484e-08
6.5390084e-09
-6.5446875e-08
6.8452795e-09
-6.8315777e-08
7.1293101e-09
-7.1152461e-08
7.3914187e-09
-7.3944074e-08
7.6324387e-09
-7.6677854e-08
7.8536865e-09
-7.9341332e-08
8.056993e-09
-8.1922489e-08
8.2446768e-09
-8.440995e-08
8.419457e-09
-8.6793159e-08
8.5844331e-09
-8.9062533e-08
8.743016e-09
-9.1209602e-08
8.8988494e-09
-9.3227111e-08
9.0557412e-09
-9.5109109e-08
9.2175511e-09
-9.685099e-08
9.3881609e-09
-9.844956e-08
9.5711589e-09
-9.9902862e-08
9.7706391e-09
-1.0121087e-07
9.9878467e-09
-1.0237274e-07
1.02358e-08
-1.0339394e-07
1.0472489e-08
1.0861822e-08
-7.8127643e-09
-3.6031876e-09
-9.1024955e-09
-3.3084957e-09
-1.0468181e-08
-2.9897846e-09
-1.191274e-08
-2.6495793e-09
-1.343846e-08
-2.2880381e-09
-1.5047951e-08
-1.9068833e-09
-1.6743476e-08
-1.5072507e-09
-1.8526756e-08
-1.0900856e-09
-2.0398997e-08
-6.5660988e-10
-2.2361236e-08
-2.0889329e-10
-2.44137e-08
2.5185469e-10
-2.6556227e-08
7.2332598e-10
-2.8788014e-08
1.2033014e-09
-3.1107638e-08
1.6892401e-09
-3.3512979e-08
2.1784834e-09
-3.6001157e-08
2.6682675e-09
-3.8568473e-08
3.1557704e-09
-4.1210354e-08
3.6381451e-09
-4.3921321e-08
4.1125663e-09
-4.6694952e-08
4.5762791e-09
-4.9523878e-08
5.026655e-09
-5.2399778e-08
5.4612495e-09
-5.5313411e-08
5.8778617e-09
-5.8254661e-08
6.2745934e-09
-6.1212606e-08
6.6499061e-09
-6.4175617e-08
7.0026734e-09
-6.7131474e-08
7.3322258e-09
-7.0067509e-08
7.6383885e-09
-7.2970766e-08
7.9215065e-09
-7.582816e-08
8.1824663e-09
-7.8626688e-08
8.4226596e-09
-8.1353637e-08
8.6440188e-09
-8.3996743e-08
8.8489851e-09
-8.6544384e-08
9.040414e-09
-8.8985761e-08
9.2215559e-09
-9.1311052e-08
9.3959803e-09
-9.351155e-08
9.5674931e-09
-9.5579777e-08
9.7400576e-09
-9.7509562e-08
9.917683e-09
-9.9296087e-08
1.0104373e-08
-1.0093595e-07
1.0303853e-08
-1.02427e-07
1.0520155e-08
-1.0376894e-07
1.0755093e-08
-1.0496063e-07
1.1019507e-08
-1.0600745e-07
1.127666e-08
1.1678328e-08
-6.8103154e-09
-4.1435644e-09
-8.0615356e-09
-3.8504419e-09
-9.3886341e-09
-3.5344564e-09
-1.0793534e-08
-3.1935951e-09
-1.2279036e-08
-2.8298504e-09
-1.3847523e-08
-2.4436922e-09
-1.5501522e-08
-2.036649e-09
-1.7243256e-08
-1.6099803e-09
-1.9074445e-08
-1.1647359e-09
-2.0996303e-08
-7.0227576e-10
-2.3009792e-08
-2.2462637e-10
-2.5115165e-08
2.6663933e-10
-2.7312226e-08
7.6917818e-10
-2.9600144e-08
1.2806146e-09
-3.1977446e-08
1.7982985e-09
-3.4441954e-08
2.3194422e-09
-3.6990716e-08
2.8411468e-09
-3.9619952e-08
3.3604501e-09
-4.2325002e-08
3.8743649e-09
-4.5100281e-08
4.3799283e-09
-4.7939257e-08
4.8742541e-09
-5.0834432e-08
5.3545909e-09
-5.3777349e-08
5.818382e-09
-5.6758614e-08
6.2633282e-09
-5.9767947e-08
6.6874487e-09
-6.279425e-08
7.0891406e-09
-6.5825701e-08
7.4672329e-09
-6.8849881e-08
7.8210339e-09
-7.1853907e-08
8.1503688e-09
-7.48246e-08
8.4556065e-09
-7.7748643e-08
8.7376801e-09
-8.0612795e-08
8.9980492e-09
-8.3404095e-08
9.2387381e-09
-8.6110034e-08
9.4622967e-09
-8.8718743e-08
9.6717022e-09
-9.1219173e-08
9.8703392e-09
-9.3601258e-08
1.0061917e-08
-9.585605e-08
1.0250383e-08
-9.7975835e-08
1.0439835e-08
-9.9954213e-08
1.0634406e-08
-1.0178615e-07
1.0838195e-08
-1.03468e-07
1.1055031e-08
-1.0499742e-07
1.1288865e-08
-1.0637382e-07
1.1541964e-08
-1.0759582e-07
1.1823019e-08
-1.0866857e-07
1.2100527e-08
1.2513589e-08
-7.0297246e-09
-4.4227585e-09
-8.3179404e-09
-4.1096479e-09
-9.6835242e-09
-3.7719958e-09
-1.1128718e-08
-3.4085645e-09
-1.265627e-08
-3.0209059e-09
-1.4268621e-08
-2.6097062e-09
-1.5968231e-08
-2.1763743e-09
-1.7757281e-08
-1.7222565e-09
-1.9637478e-08
-1.2485353e-09
-2.1610046e-08
-7.5671164e-10
-2.3675886e-08
-2.4881443e-10
-2.5835258e-08
2.7331089e-10
-2.8087933e-08
8.0725715e-10
-3.0433044e-08
1.3505055e-09
-3.286907e-08
1.9002926e-09
-3.5393772e-08
2.4537055e-09
-3.8004128e-08
3.0077161e-09
-4.0696278e-08
3.5592291e-09
-4.346547e-08
4.1051246e-09
-4.6306021e-08
4.6423104e-09
-4.9211284e-08
5.1677769e-09
-5.2173637e-08
5.6786571e-09
-5.5184487e-08
6.1722898e-09
-5.8234291e-08
6.6462837e-09
-6.1312606e-08
7.0985808e-09
-6.4408159e-08
7.5275177e-09
-6.7508941e-08
7.9318815e-09
-7.0602332e-08
8.3109583e-09
-7.3675238e-08
8.6645722e-09
-7.6714258e-08
8.993112e-09
-7.9705847e-08
9.2975501e-09
-8.263652e-08
9.5794061e-09
-8.5493071e-08
9.8407855e-09
-8.8262744e-08
1.0084331e-08
-9.0933418e-08
1.0313125e-08
-9.3493793e-08
1.053067e-08
-9.5933549e-08
1.0740793e-08
-9.8243493e-08
1.094756e-08
-1.0041567e-07
1.1155178e-08
-1.0244343e-07
1.1367879e-08
-1.0432151e-07
1.1589832e-08
-1.0604605e-07
1.1824925e-08
-1.0761444e-07
1.2077018e-08
-1.0902581e-07
1.2348704e-08
-1.1027862e-07
1.2646646e-08
-1.1137768e-07
1.2944359e-08
1.336827e-08
-7.2554752e-09
-4.7155882e-09
-8.5817093e-09
-4.3819973e-09
-9.9868776e-09
-4.0223e-09
-1.1473449e-08
-3.6358438e-09
-1.3044148e-08
-3.2238657e-09
-1.4701452e-08
-2.7871926e-09
-1.644777e-08
-2.3271678e-09
-1.8285238e-08
-1.8452035e-09
-2.0215547e-08
-1.3426233e-09
-2.2239924e-08
-8.2106444e-10
-2.4359219e-08
-2.8259262e-10
-2.6573688e-08
2.7073533e-10
-2.8883063e-08
8.3643037e-10
-3.1286442e-08
1.4118414e-09
-3.3782252e-08
1.994091e-09
-3.6368193e-08
2.5801459e-09
-3.9041174e-08
3.1668549e-09
-4.1797254e-08
3.7509967e-09
-4.463159e-08
4.3293275e-09
-4.7538399e-08
4.898634e-09
-5.0510922e-08
5.4557915e-09
-5.3541415e-08
5.9978259e-09
-5.6621149e-08
6.5219789e-09
-5.9740433e-08
7.0257738e-09
-6.2888663e-08
7.5070809e-09
-6.6054395e-08
7.9641805e-09
-6.9225433e-08
8.3958201e-09
-7.2388959e-08
8.8012639e-09
-7.5531669e-08
9.1803327e-09
-7.8639938e-08
9.5334308e-09
-8.1699996e-08
9.8615616e-09
-8.4698114e-08
1.0166297e-08
-8.7620836e-08
1.0449811e-08
-9.0455161e-08
1.071482e-08
-9.318871e-08
1.0964499e-08
-9.5809925e-08
1.1202443e-08
-9.8308232e-08
1.1432577e-08
-1.0067418e-07
1.1659062e-08
-1.0289957e-07
1.1886187e-08
-1.049775e-07
1.2118256e-08
-1.0690245e-07
1.2359477e-08
-1.0867033e-07
1.261376e-08
-1.102783e-07
1.2884859e-08
-1.1172516e-07
1.3175568e-08
-1.1300929e-07
1.3490708e-08
-1.1413509e-07
1.3808487e-08
1.4243019e-08
-7.4872203e-09
-5.0233954e-09
-8.8524932e-09
-4.6688216e-09
-1.0298326e-08
-4.2866734e-09
-1.1827347e-08
-3.8767177e-09
-1.3442276e-08
-3.4399869e-09
-1.5145614e-08
-2.9773979e-09
-1.6939726e-08
-2.4902675e-09
-1.8826708e-08
-1.9800628e-09
-2.0808231e-08
-1.4482455e-09
-2.2885515e-08
-8.9658007e-10
-2.5059369e-08
-3.2719341e-10
-2.7330034e-08
2.5768688e-10
-2.9697204e-08
8.5547981e-10
-3.2159933e-08
1.4634111e-09
-3.47166e-08
2.0784914e-09
-3.7364843e-08
2.6975725e-09
-4.0101498e-08
3.3173861e-09
-4.2922545e-08
3.9345938e-09
-4.5823052e-08
4.5458359e-09
-4.8797133e-08
5.147787e-09
-5.1837921e-08
5.7372163e-09
-5.4937547e-08
6.3110511e-09
-5.8087149e-08
6.8664436e-09
-6.1276891e-08
7.4008387e-09
-6.4496009e-08
7.9120408e-09
-6.7732886e-08
8.3982778e-09
-7.0975143e-08
8.8582599e-09
-7.4209763e-08
9.2912293e-09
-7.7423234e-08
9.6970009e-09
-8.0601709e-08
1.0075989e-08
-8.3731189e-08
1.042922e-08
-8.6797701e-08
1.075831e-08
-8.9787538e-08
1.1065483e-08
-9.2687448e-08
1.1353515e-08
-9.5484793e-08
1.1625653e-08
-9.8167754e-08
1.1885565e-08
-1.0072549e-07
1.213725e-08
-1.031483e-07
1.2384935e-08
-1.0542771e-07
1.2632967e-08
-1.0755657e-07
1.288569e-08
-1.0952912e-07
1.3147321e-08
-1.1134098e-07
1.3421756e-08
-1.1298911e-07
1.3712633e-08
-1.14472e-07
1.4022828e-08
-1.1578796e-07
1.4355548e-08
-1.16941e-07
1.4693298e-08
1.5138475e-08
-6.3982443e-09
-5.6944191e-09
-7.7245288e-09
-5.3476642e-09
-9.1298526e-09
-4.9715856e-09
-1.0617407e-08
-4.5665539e-09
-1.2189934e-08
-4.1326107e-09
-1.3850159e-08
-3.6706695e-09
-1.5600594e-08
-3.1817091e-09
-1.7443573e-08
-2.6670467e-09
-1.9381153e-08
-2.1282011e-09
-2.1414981e-08
-1.5667616e-09
-2.3546267e-08
-9.8461081e-10
-2.5775779e-08
-3.8395208e-10
-2.8103738e-08
2.3284334e-10
-3.0529796e-08
8.6309776e-10
-3.3052966e-08
1.5039217e-09
-3.5671572e-08
2.1522176e-09
-3.8383191e-08
2.804728e-09
-4.1184588e-08
3.4580753e-09
-4.407166e-08
4.1088117e-09
-4.7039387e-08
4.7534707e-09
-5.0081782e-08
5.3886244e-09
-5.3191868e-08
6.0109445e-09
-5.6361655e-08
6.6172687e-09
-5.9582145e-08
7.2046677e-09
-6.2843359e-08
7.7705152e-09
-6.6134373e-08
8.312555e-09
-6.94434e-08
8.8289668e-09
-7.2757877e-08
9.3184251e-09
-7.6064589e-08
9.7801499e-09
-7.9349814e-08
1.0213947e-08
-8.2599485e-08
1.0620235e-08
-8.579937e-08
1.1000054e-08
-8.8935251e-08
1.1355052e-08
-9.1993169e-08
1.1687491e-08
-9.4959617e-08
1.2000186e-08
-9.7821693e-08
1.2296435e-08
-1.0056731e-07
1.2579958e-08
-1.0318536e-07
1.2854801e-08
-1.0566588e-07
1.3125232e-08
-1.0800011e-07
1.3395625e-08
-1.1018067e-07
1.3670334e-08
-1.1220151e-07
1.3953557e-08
-1.14058e-07
1.4249141e-08
-1.1574688e-07
1.4560594e-08
-1.1726634e-07
1.4890779e-08
-1.1861467e-07
1.5241527e-08
-1.1979547e-07
1.5599221e-08
1.6055266e-08
-6.6013059e-09
-6.0575123e-09
-7.9668913e-09
-5.6900039e-09
-9.4132545e-09
-5.2919054e-09
-1.0943557e-08
-4.8635262e-09
-1.2560623e-08
-4.4050929e-09
-1.4267183e-08
-3.9174609e-09
-1.6065757e-08
-3.4016572e-09
-1.7958655e-08
-2.8590184e-09
-1.9947896e-08
-2.291115e-09
-2.2035107e-08
-1.6996524e-09
-2.4221475e-08
-1.0866218e-09
-2.6507736e-08
-4.5431164e-10
-2.8894079e-08
1.9478181e-10
-3.1380118e-08
8.5788316e-10
-3.3964819e-08
1.531995e-09
-3.6646453e-08
2.2139165e-09
-3.9422531e-08
2.9002875e-09
-4.2289749e-08
3.5876285e-09
-4.5243923e-08
4.2723913e-09
-4.8279941e-08
4.9510116e-09
-5.1391717e-08
5.6199682e-09
-5.4572163e-08
6.2758452e-09
-5.7813167e-08
6.9153989e-09
-6.1105601e-08
7.5356272e-09
-6.4439335e-08
8.133839e-09
-6.7803292e-08
8.7077235e-09
-7.1185511e-08
9.2554158e-09
-7.4573246e-08
9.7755561e-09
-7.7953084e-08
1.0267341e-08
-8.1311093e-08
1.0730564e-08
-8.4632981e-08
1.1165641e-08
-8.7904284e-08
1.1573618e-08
-9.1110537e-08
1.1956161e-08
-9.4237525e-08
1.2315551e-08
-9.7271481e-08
1.2654626e-08
-1.0019923e-07
1.2976715e-08
-1.0300843e-07
1.3285563e-08
-1.0568768e-07
1.3585236e-08
-1.0822675e-07
1.3880017e-08
-1.1061661e-07
1.4174278e-08
-1.1284961e-07
1.4472352e-08
-1.1491944e-07
1.4778386e-08
-1.1682121e-07
1.5096149e-08
-1.1855143e-07
1.5429013e-08
-1.2010802e-07
1.5779742e-08
-1.2148926e-07
1.6149035e-08
-1.2269839e-07
1.6526726e-08
1.6994015e-08
-4.2307448e-09
-7.1235508e-09
-5.4813298e-09
-6.7979992e-09
-6.8078685e-09
-6.4409937e-09
-8.2137005e-09
-6.0522013e-09
-9.7020605e-09
-5.6315544e-09
-1.12761e-08
-5.1793318e-09
-1.2938701e-08
-4.695888e-09
-1.4692603e-08
-4.1820611e-09
-1.6540332e-08
-3.6389219e-09
-1.8484172e-08
-3.067839e-09
-2.0526115e-08
-2.470437e-09
-2.266776e-08
-1.8485257e-09
-2.4910274e-08
-1.204197e-09
-2.7254354e-08
-5.3982748e-10
-2.970016e-08
1.4197479e-10
-3.2247264e-08
8.3833843e-10
-3.4894581e-08
1.546165e-09
-3.764033e-08
2.2621562e-09
-4.0481957e-08
2.9828561e-09
-4.3416085e-08
3.7046915e-09
-4.6438449e-08
4.4240223e-09
-4.9543847e-08
5.1371962e-09
-5.2726092e-08
5.8406081e-09
-5.5977985e-08
6.5307636e-09
-5.9291294e-08
7.204347e-09
-6.2656754e-08
7.8582908e-09
-6.6064093e-08
8.4898466e-09
-6.9502073e-08
9.0966539e-09
-7.2958563e-08
9.6768065e-09
-7.642063e-08
1.0228912e-08
-7.9874663e-08
1.0752142e-08
-8.3306518e-08
1.1246273e-08
-8.6701678e-08
1.171171e-08
-9.0045441e-08
1.2149497e-08
-9.3323093e-08
1.2561301e-08
-9.652016e-08
1.2949407e-08
-9.962261e-08
1.3316658e-08
-1.02617e-07
1.3666386e-08
-1.054907e-07
1.400234e-08
-1.0823204e-07
1.4328581e-08
-1.108305e-07
1.4649372e-08
-1.132768e-07
1.4969057e-08