/*--------------------------------*- C++ -*----------------------------------*\
| =========                 |                                                 |
| \\      /  F ield         | OpenFOAM: The Open Source CFD Toolbox           |
|  \\    /   O peration     | Version:  2312                                  |
|   \\  /    A nd           | Website:  www.openfoam.com                      |
|    \\/     M anipulation  |                                                 |
\*---------------------------------------------------------------------------*/
FoamFile
{
    version     2.0;
    format      ascii;
    arch        "LSB;label=32;scalar=64";
    class       volScalarField;
    location    "0.01";
    object      Qdot;
}
// * * * * * * * * * * * * * * * * * * * * * * * * * * * * * * * * * * * * * //

dimensions      [1 -1 -3 0 0 0 0];

internalField   nonuniform List<scalar> 
3224
(
-1.8987166e-10
5.6566996e-11
5.3343992e-11
4.9990605e-11
-2.3905841e-10
7.313517e-12
5.0041782e-12
-2.4595384e-10
3.8636884e-11
1.1746835e-12
3.728592e-11
-2.4885808e-10
1.7476593e-13
-1.7585662e-10
-4.9837068e-10
1.6779332e-14
7.0465737e-15
2.7856125e-15
1.0775455e-15
3.790857e-16
1.3916546e-16
4.7640791e-17
1.5920412e-17
7.3263974e-11
7.3263972e-11
-4.9840911e-10
-4.2514515e-10
-2.9922622e-21
-4.2514515e-10
2.9788407e-19
-4.9840912e-10
-1.4431612e-23
6.0632092e-20
-9.3265874e-25
-4.9840912e-10
7.3263969e-11
1.5158928e-20
7.3263969e-11
-4.9840912e-10
-4.9840912e-10
1.1644483e-21
2.4062684e-11
-1.9152845e-10
-2.3164179e-10
-2.3521264e-10
-2.3861581e-10
-2.0496233e-10
-2.4400942e-10
-2.4583783e-10
-2.4713281e-10
3.7843646e-11
6.7372225e-13
-2.4884834e-10
-2.4902532e-10
8.6059685e-14
3.9388304e-14
-4.9839192e-10
7.136076e-15
2.8493532e-15
1.092847e-15
3.9568416e-16
-4.9840898e-10
4.7563881e-17
7.3263989e-11
6.2715941e-18
7.3263973e-11
7.3263969e-11
-4.2514515e-10
-4.9840911e-10
-4.9840912e-10
2.9788102e-19
-4.9840912e-10
-4.2514515e-10
-4.9840912e-10
-4.2514515e-10
-4.9840912e-10
7.3263969e-11
-1.4938083e-26
-4.2514515e-10
-4.9840912e-10
-4.9840912e-10
-2.1743447e-29
-2.2226502e-10
6.0004189e-11
-2.2983423e-10
-2.3388085e-10
-2.0104457e-10
-2.4096313e-10
-2.0697534e-10
3.6121859e-12
3.8845783e-11
3.7922169e-11
7.1485699e-13
-2.121957e-10
3.6821253e-11
-2.4911401e-10
-4.251038e-10
1.798196e-14
7.4862259e-15
-4.2514217e-10
1.1500286e-15
7.326439e-11
1.4707425e-16
-4.9840907e-10
1.778548e-17
7.3263977e-11
-4.2514514e-10
7.3263969e-11
7.326397e-11
7.3263969e-11
-8.4621799e-22
-4.9840912e-10
-4.9840912e-10
-1.5037292e-23
-3.8319956e-24
-9.6996381e-25
-4.9840912e-10
-4.9840912e-10
-4.2514515e-10
1.6895055e-20
1.4652794e-10
-1.8331399e-28
9.4743393e-22
-1.8106156e-10
2.7049545e-11
-1.9036151e-10
-1.9515263e-10
-2.3620667e-10
4.5859235e-11
-2.4297762e-10
-2.0857954e-10
-2.4676985e-10
1.4117424e-12
-2.1179403e-10
4.0892536e-13
3.6836578e-11
9.7509502e-14
4.4320067e-14
1.9248093e-14
7.3271946e-11
3.200381e-15
1.2108862e-15
-4.251447e-10
-4.9840895e-10
5.5798285e-17
7.3263987e-11
-4.2514514e-10
7.3263973e-11
-4.1901909e-20
-4.2514515e-10
7.3263969e-11
7.3263969e-11
-4.2514515e-10
-4.9840912e-10
-4.9840912e-10
7.3263969e-11
-4.9840912e-10
-4.9840912e-10
-4.2514515e-10
7.3263969e-11
-4.9840912e-10
-9.1656993e-28
-4.9840912e-10
9.4743393e-22
4.3020362e-11
3.803549e-11
-1.8031422e-10
6.2846483e-11
5.6986763e-11
5.1686518e-11
4.7229784e-11
7.0992541e-12
-2.4468214e-10
-2.0983245e-10
1.5796977e-12
8.6642377e-13
3.7084833e-11
3.6857449e-11
1.0713906e-13
-4.9836055e-10
2.1024555e-14
7.3272662e-11
7.3267387e-11
1.3152745e-15
4.7524532e-16
1.6641993e-16
7.3264033e-11
1.759949e-17
-4.9840911e-10
7.3263973e-11
-4.4573568e-20
-4.9840912e-10
4.8161115e-19
2.4160673e-19
-4.2514515e-10
-4.2514515e-10
7.3263969e-11
-4.2514515e-10
7.3263969e-11
3.031762e-20
-4.9840912e-10
7.3263969e-11
-4.9840912e-10
-4.9840912e-10
1.4652794e-10
1.1644483e-21
-1.9610733e-10
8.2982502e-11
-2.1033472e-10
-2.1794091e-10
2.4032369e-11
1.7615453e-11
4.8934467e-11
8.1770707e-12
5.1735259e-12
3.1147257e-12
-2.4741974e-10
-2.1159834e-10
3.7138534e-11
-2.1232151e-10
-2.4908583e-10
-4.9835555e-10
7.3287044e-11
9.5154271e-15
-4.2514138e-10
1.417819e-15
5.0606241e-16
7.3264151e-11
5.5042511e-17
7.3263993e-11
7.3263977e-11
7.3263972e-11
-4.9840912e-10
7.326397e-11
-4.2514515e-10
-9.9854328e-22
-2.6346363e-22
-4.9840912e-10
-4.9840912e-10
-4.4528011e-24
-4.9840912e-10
7.3263969e-11
-4.2514515e-10
-4.9840912e-10
-4.9840912e-10
-1.0115721e-27
-4.9840912e-10
9.4743393e-22
-1.4715996e-10
9.3084274e-11
4.6852698e-11
3.7313668e-11
6.5049959e-11
2.0654665e-11
-2.348917e-10
-2.3975812e-10
-2.0663614e-10
-2.0902017e-10
-2.1054842e-10
-2.1147349e-10
-2.1200397e-10
-2.1229202e-10
1.3208088e-13
5.9355533e-14
2.5480502e-14
7.3274448e-11
-4.98405e-10
7.3265537e-11
5.7093595e-16
-4.9840891e-10
6.3221394e-17
2.4033509e-17
-4.9840911e-10
4.1477462e-18
7.3263971e-11
5.8170313e-19
-4.2514515e-10
-4.2514515e-10
-4.9840912e-10
-4.9840912e-10
-4.2514515e-10
7.4519955e-20
-1.1943294e-24
7.3263969e-11
3.3790042e-20
-4.9840912e-10
-4.9840912e-10
-4.9840912e-10
-4.9840912e-10
1.1644483e-21
8.1573392e-11
6.9602397e-11
9.3806219e-11
-2.0413881e-10
-2.1520242e-10
-2.2470012e-10
-2.3236008e-10
1.1036545e-11
4.3520692e-11
4.0953564e-12
2.3204897e-12
-2.4795189e-10
-2.4855946e-10
-2.1225579e-10
1.4854818e-13
6.6483707e-14
2.8428224e-14
1.1632496e-14
4.5936185e-15
7.3265678e-11
6.1758066e-16
2.0994416e-16
7.3264045e-11
-4.9840909e-10
-4.9840911e-10
4.1321221e-18
9.1432271e-19
4.6937744e-19
-4.3071353e-21
-4.2514515e-10
5.4033818e-19
-4.2514515e-10
-4.9840912e-10
-4.9840912e-10
-4.2514515e-10
-4.9840912e-10
1.5158863e-20
1.8631154e-20
-4.2514515e-10
-3.5188118e-10
-4.9840912e-10
2.1118823e-21
1.1764707e-10
-1.4644128e-10
8.6662558e-11
7.0424969e-11
5.4953555e-11
-1.7149819e-10
-1.8322885e-10
5.6642357e-11
1.3012563e-11
-2.0450641e-10
4.1397291e-11
-2.4652115e-10
1.4412738e-12
3.7370011e-11
-2.4884385e-10
7.3432397e-11
7.5165448e-14
3.2042368e-14
1.3043211e-14
5.0976088e-15
1.9337454e-15
6.8823812e-16
7.3264215e-11
-4.9840904e-10
7.3263995e-11
-4.9840911e-10
7.3263973e-11
7.3263971e-11
-4.9840911e-10
-4.9840912e-10
5.393853e-19
-3.2990326e-22
-4.2514515e-10
-2.1754601e-23
-4.2514515e-10
7.3263969e-11
-4.9840912e-10
-8.6229828e-26
7.3263969e-11
7.3263969e-11
-3.5188118e-10
3.7897356e-21
1.1644483e-21
1.5137869e-10
1.6710137e-10
-1.0380865e-10
1.2404848e-10
1.0415571e-10
8.6627435e-11
-1.7716543e-10
2.394859e-11
1.5457099e-11
4.6147079e-11
4.2217403e-11
3.9758588e-11
3.8301544e-11
8.5073377e-13
3.7045825e-11
7.3456332e-11
-4.983237e-10
-4.2510886e-10
7.3278724e-11
5.7459825e-15
2.1466982e-15
7.7678391e-16
2.6497726e-16
9.0986724e-17
2.7715211e-17
7.8636777e-18
4.0914e-18
-4.2514514e-10
4.6621856e-19
-4.2514515e-10
-4.2514515e-10
-4.2514515e-10
1.2117846e-19
-4.9840912e-10
7.3263969e-11
-4.9840912e-10
7.3263969e-11
-4.2514515e-10
-2.3153761e-26
-4.9840912e-10
-1.3246777e-27
-2.7430195e-28
-3.3116943e-29
2.2393936e-10
2.3260243e-10
1.667089e-10
-1.118308e-10
-1.4000257e-10
-1.6571066e-10
9.7866548e-11
4.2984974e-11
-2.2036727e-10
-2.3073359e-10
1.129107e-11
6.5844963e-12
4.0296078e-11
-2.4725867e-10
-2.4821834e-10
-2.4872696e-10
-2.4898357e-10
9.7700118e-14
4.1349304e-14
1.6749846e-14
-4.9840262e-10
2.4153929e-15
8.7173731e-16
2.9273479e-16
7.3264072e-11
3.1743509e-17
1.2099677e-17
-4.9840911e-10
-4.9840911e-10
4.6421221e-19
-4.2514515e-10
-4.9840912e-10
-3.9700947e-22
1.211693e-19
-2.6008856e-23
7.3263969e-11
-1.6420437e-24
-4.2514515e-10
-4.2514515e-10
-2.5219723e-26
1.6895052e-20
-1.4397507e-27
-3.5188118e-10
1.1644483e-21
8.2857864e-11
2.916186e-10
2.1421336e-10
1.7442815e-10
1.3714067e-10
1.0377959e-10
-1.3718725e-10
8.9078161e-11
3.4894458e-11
5.8812875e-11
-1.991092e-10
4.4432192e-11
-2.4489036e-10
2.2784328e-12
1.1490928e-12
3.7185571e-11
-2.4894951e-10
1.1229089e-13
4.7297421e-14
1.9106815e-14
7.3770196e-15
-4.9840638e-10
-4.9840813e-10
3.3639241e-16
1.109834e-16
-4.2514511e-10
-4.2514513e-10
-4.9840911e-10
-4.9840911e-10
-2.3213263e-20
-6.3168863e-21
7.3263969e-11
-4.9840912e-10
-1.1291765e-22
-2.8677693e-23
-4.9840912e-10
-4.9840912e-10
3.7261898e-20
-4.2514515e-10
-4.2514515e-10
7.5794649e-21
-1.5762327e-27
-4.9840912e-10
9.4743391e-22
4.8637502e-10
4.2822261e-10
3.3344049e-10
2.7655752e-10
2.2252887e-10
-3.9550847e-11
1.2957291e-10
1.2983193e-10
1.008874e-10
-2.0680988e-10
2.6741247e-11
-2.3309004e-10
-2.0329735e-10
4.173109e-11
-2.0989474e-10
-2.1122897e-10
6.4426043e-13
2.9544268e-13
1.2961606e-13
5.4391103e-14
2.1897531e-14
8.4409514e-15
3.1194522e-15
7.3265077e-11
7.326434e-11
7.3264096e-11
7.3264008e-11
1.6199455e-17
-4.9840911e-10
2.0694734e-18
-4.9840911e-10
-4.2514515e-10
-4.9840912e-10
7.3263969e-11
1.4892411e-19
-4.2514515e-10
-4.9840912e-10
-4.9840912e-10
-4.2514515e-10
7.3263969e-11
3.3790087e-20
-4.9840912e-10
-1.7287713e-27
-3.5188118e-10
9.4743391e-22
6.4387321e-10
5.2120732e-10
1.8867209e-10
3.9523384e-10
2.8508003e-10
2.1915722e-10
-5.0192519e-11
-9.6925742e-11
7.8999798e-11
5.1681216e-11
-2.1686202e-10
-2.2985446e-10
-2.3814041e-10
4.2677021e-11
-2.4604779e-10
3.8207573e-11
-2.484526e-10
7.360728e-11
1.5000528e-13
6.2753011e-14
2.5124488e-14
9.6578167e-15
3.5629604e-15
-4.9840786e-10
-4.9840868e-10
-4.25145e-10
4.3497908e-17
1.605896e-17
3.9593303e-18
2.0580096e-18
5.6712917e-19
7.3263969e-11
2.9600773e-19
2.419987e-19
-4.9840912e-10
-4.9840912e-10
-4.9840912e-10
-4.2514515e-10
7.3263969e-11
-4.9840912e-10
-4.9840912e-10
7.3263969e-11
-4.9840912e-10
-4.9840912e-10
1.4652794e-10
9.5691127e-10
8.5986733e-10
6.9652745e-10
5.7735036e-10
4.6676883e-10
1.1735927e-10
2.9351158e-11
-4.5041285e-11
1.8057292e-10
-1.5179629e-10
9.9804903e-11
-1.7335276e-10
-2.259116e-10
-1.9934357e-10
-2.4202106e-10
-2.4547438e-10
-2.1072041e-10
8.798728e-13
3.9986084e-13
7.3437972e-11
7.2503359e-14
2.8938355e-14
1.1082393e-14
4.0689379e-15
7.326541e-11
7.3264468e-11
1.5830949e-16
-4.2514509e-10
1.5896574e-17
7.3263976e-11
-4.9840911e-10
-4.9840912e-10
7.3263969e-11
7.3263969e-11
-4.9840912e-10
-4.2514515e-10
-4.9840912e-10
-4.9840912e-10
7.3263969e-11
3.7261736e-20
7.3263969e-11
1.8631136e-20
-4.9840912e-10
-4.9840912e-10
-4.9840912e-10
1.4652794e-10
1.071992e-09
1.1199625e-09
9.7094858e-10
8.0062891e-10
3.6048229e-10
5.0949622e-10
1.0591965e-10
2.5742324e-10
1.7962263e-10
1.2039822e-10
7.7396624e-11
-2.0154331e-10
-1.8447638e-10
-1.967245e-10
-2.4065215e-10
4.1047355e-11
3.8812885e-11
1.0309968e-12
7.3730497e-11
2.0211056e-13
7.3347867e-11
3.3369498e-14
1.2727401e-14
7.3268622e-11
7.3265616e-11
5.5412258e-16
1.8223126e-16
-4.9840906e-10
-4.2514513e-10
6.0206959e-18
-4.2514514e-10
7.3263969e-11
-4.9840912e-10
7.3263969e-11
-6.8388934e-22
-4.9840912e-10
1.4900524e-19
7.3263969e-11
7.3263969e-11
-6.8174605e-25
-4.2514515e-10
-4.9840912e-10
-4.9840912e-10
-4.9840912e-10
-4.9840912e-10
-5.8874565e-29
2.1660088e-09
1.8669944e-09
1.5288154e-09
1.2575117e-09
1.0508929e-09
8.3535834e-10
6.1167966e-10
4.5389749e-10
7.6123083e-11
-2.4573731e-11
-6.3469905e-11
-1.5421433e-10
5.801494e-11
-1.7863065e-10
-2.3019164e-10
-2.3900924e-10
4.1865174e-11
2.5714532e-12
1.2098153e-12
5.4497201e-13
-4.9817395e-10
9.725936e-14
-4.9837055e-10
-4.9839446e-10
5.3585552e-15
1.8846091e-15
7.3264602e-11
2.0972365e-16
6.5172496e-17
7.3263988e-11
5.9584589e-18
7.3263971e-11
-4.9840911e-10
7.3263969e-11
2.3957557e-19
-4.9840912e-10
-4.2514515e-10
1.4899985e-19
6.0623386e-20
-4.2514515e-10
7.3263969e-11
-4.2514515e-10
7.3263969e-11
7.3263969e-11
9.3155843e-21
1.4652794e-10
2.1118822e-21
3.0533044e-09
2.2936362e-09
1.8807552e-09
1.7340939e-09
1.3868223e-09
1.0490454e-09
5.8052114e-10
3.3215851e-10
4.4855567e-10
3.1801906e-10
2.2156325e-10
-1.3246461e-10
-1.7850395e-10
-2.0815822e-10
-1.8974034e-10
-2.00407e-10
4.2839869e-11
3.0341772e-12
-1.7452012e-10
7.3901076e-11
2.7381765e-13
1.1279903e-13
7.3308562e-11
7.3280876e-11
7.327011e-11
-4.9840696e-10
7.2867642e-16
2.3775384e-16
7.5378726e-17
-4.9840909e-10
5.8871133e-18
-4.2514514e-10
1.0341862e-18
-4.2514515e-10
2.9475027e-19
7.3263969e-11
1.4882828e-19
-4.9840912e-10
-4.9840912e-10
-4.9840912e-10
7.3263969e-11
7.3263969e-11
-4.2514515e-10
-4.9840912e-10
-3.5188118e-10
-6.0212623e-28
9.4743388e-22
4.3504283e-09
3.5781238e-09
2.6242981e-09
2.3334889e-09
1.8013575e-09
1.1680329e-09
1.0668055e-09
5.332383e-10
2.7309748e-10
3.5291759e-10
2.6623907e-10
1.4359657e-10
-1.6297802e-10
8.6302156e-11
2.7433136e-11
1.4522503e-11
4.3999247e-11
3.5812239e-12
7.4932521e-11
-2.4845956e-10
3.1886802e-13
1.3087838e-13
5.1557758e-14
1.9470438e-14
7.3271028e-11
2.4699151e-15
-4.9840828e-10
-4.9840885e-10
7.3264054e-11
2.793975e-17
7.3263977e-11
-4.9840911e-10
-4.2514515e-10
-1.4360444e-20
-4.9840912e-10
5.3966325e-19
-4.9840912e-10
7.3263969e-11
1.3514481e-19
7.452081e-20
-4.2514515e-10
7.3263969e-11
-4.9840912e-10
-4.9840912e-10
-3.5188118e-10
-4.9840912e-10
1.4652794e-10
5.8956684e-09
4.692993e-09
3.9886863e-09
2.8642656e-09
2.1580133e-09
1.8195884e-09
1.3764468e-09
9.5782405e-10
6.628547e-10
1.9374535e-10
2.8523407e-10
-3.5867129e-11
-1.4401583e-10
-1.5245654e-10
-1.7960849e-10
-1.9523677e-10
8.7418298e-12
4.0858796e-11
-1.739811e-10
7.4134959e-11
3.7129045e-13
1.5187251e-13
-4.9834953e-10
2.2446097e-14
-4.98401e-10
-4.9840629e-10
9.5009336e-16
-4.9840881e-10
7.3264064e-11
-4.9840908e-10
1.0037538e-17
3.1354944e-18
2.1021003e-18
-4.2514515e-10
-4.9840912e-10
7.3263969e-11
-4.2514515e-10
-7.0779301e-23
-1.7646698e-23
7.4520321e-20
7.3263969e-11
-4.2514515e-10
-4.9840912e-10
-4.2514515e-10
-4.9840912e-10
1.4652794e-10
-9.2326022e-29
1.0531104e-08
8.4541184e-09
6.9070001e-09
5.193095e-09
4.2617148e-09
3.2199491e-09
2.4000979e-09
1.4944553e-09
1.2306962e-09
5.9229564e-10
5.5604163e-10
3.9097809e-10
-3.1780586e-11
1.282967e-10
1.0936713e-10
7.6225107e-11
2.0684511e-11
-2.3883595e-10
4.1617981e-11
-2.4690436e-10
1.0178876e-12
4.3223601e-13
7.3440122e-11
6.8890787e-14
2.5880348e-14
9.3395859e-15
-4.251419e-10
-4.2514406e-10
3.4820941e-16
1.086477e-16
7.3264004e-11
1.2094141e-17
2.8835909e-18
1.4978035e-18
7.3263969e-11
-4.2514515e-10
2.968485e-19
-4.2514515e-10
-7.9907899e-23
1.3514056e-19
-4.9840912e-10
6.7579016e-20
-4.9840912e-10
-4.9840912e-10
-4.2514515e-10
7.5794675e-21
-4.9840912e-10
9.4743385e-22
1.5281189e-08
1.2050963e-08
9.6947739e-09
7.4978347e-09
5.7355236e-09
4.0954532e-09
2.9169041e-09
2.2691551e-09
1.5810405e-09
8.1877363e-10
6.977081e-10
4.7659518e-10
2.6735213e-10
1.9299177e-10
1.2456098e-10
8.4144282e-11
-1.879158e-10
-2.0028695e-10
-2.0669683e-10
2.6973272e-12
-2.4801622e-10
5.02618e-13
2.0407559e-13
-4.9832956e-10
2.9825566e-14
1.0733107e-14
7.3267689e-11
1.2391433e-15
4.0417823e-16
-4.9840899e-10
-4.2514511e-10
1.1003723e-17
-4.9840911e-10
7.326397e-11
-2.0866375e-20
-4.2514515e-10
-1.4143111e-21
-4.9840912e-10
-4.2514515e-10
-4.9840912e-10
-4.9840912e-10
-4.2514515e-10
3.3789779e-20
-4.2514515e-10
-4.2514515e-10
-4.9840912e-10
-4.9840912e-10
1.4652794e-10
3.6046835e-08
2.8295191e-08
2.2155718e-08
1.7450684e-08
1.3250656e-08
1.0361638e-08
7.7818674e-09
5.7969237e-09
3.9245113e-09
2.9873159e-09
1.7801086e-09
1.3540545e-09
9.1115142e-10
2.9641852e-10
3.2832721e-10
-5.8895875e-11
1.0614923e-10
5.6934244e-11
2.9348322e-11
-2.3467009e-10
4.354574e-11
-1.7278237e-10
-2.4781917e-10
-4.2456158e-10
2.3607622e-13
7.3355716e-11
3.4254155e-14
1.230691e-14
7.3268227e-11
7.3265386e-11
4.5476781e-16
1.4263655e-16
4.3660023e-17
-4.2514513e-10
7.3263973e-11
-4.2514514e-10
-2.3636341e-20
-4.2514515e-10
-4.2514515e-10
-4.9840912e-10
-1.0202298e-22
-4.2514515e-10
-4.9840912e-10
7.3263969e-11
-4.2514515e-10
7.3263969e-11
-4.2514515e-10
-5.2773019e-27
-1.0918556e-27
1.4652794e-10
6.901749e-08
5.3620023e-08
4.1344794e-08
3.2196529e-08
2.4721936e-08
1.8842587e-08
1.3984959e-08
1.0579166e-08
7.7270065e-09
5.4933057e-09
3.618078e-09
2.3877108e-09
1.7503895e-09
1.1307777e-09
6.7538821e-10
4.3906172e-10
2.677996e-10
-1.2131877e-10
-1.4448819e-10
-2.1434303e-10
-2.3204403e-10
-2.0445416e-10
-2.4551423e-10
7.4875783e-11
6.7622739e-13
2.7264664e-13
7.3369582e-11
-4.2510579e-10
7.3278074e-11
4.8597842e-15
1.6272321e-15
5.2288136e-16
7.3264131e-11
7.3264016e-11
1.3847202e-17
-4.2514514e-10
7.3263971e-11
-2.6760007e-20
-4.9840911e-10
-4.9840912e-10
-4.9840912e-10
-4.2514515e-10
7.3263969e-11
-4.2514515e-10
-4.9840912e-10
3.3789686e-20
-4.2514515e-10
-4.9840912e-10
-4.9840912e-10
-1.2310136e-27
2.1118822e-21
1.0304697e-07
7.9067285e-08
6.0523466e-08
4.6107556e-08
3.4966949e-08
2.6019027e-08
1.9472347e-08
1.3996962e-08
1.0277626e-08
6.9991137e-09
4.7477613e-09
3.1107398e-09
2.1633874e-09
1.4019725e-09
6.2123042e-10
2.4273864e-10
6.7473317e-11
-9.5544836e-11
-1.3137289e-10
-1.7127397e-10
-1.9236589e-10
-2.0306458e-10
-2.4490349e-10
1.8703972e-12
7.8181919e-13
-4.9809506e-10
1.2131631e-13
7.3309037e-11
-4.2512903e-10
5.54023e-15
1.840894e-15
5.9415772e-16
7.3264153e-11
5.5505997e-17
-4.984091e-10
3.9131618e-18
7.3263971e-11
-4.2514515e-10
-4.2514515e-10
7.3263969e-11
7.3263969e-11
-4.2514515e-10
7.3263969e-11
-4.9840912e-10
-4.9840912e-10
-4.2514515e-10
-4.2514515e-10
-4.2514515e-10
-3.5188118e-10
-3.5188118e-10
1.4652794e-10
1.5294251e-07
1.1574005e-07
8.7625105e-08
6.5872124e-08
4.8910192e-08
3.6413881e-08
2.6393231e-08
1.9215826e-08
1.3624216e-08
9.1841395e-09
6.4001758e-09
4.2323345e-09
2.5087915e-09
1.448579e-09
1.0624221e-09
3.867102e-10
3.7472533e-10
2.2062784e-10
1.3314429e-10
8.5392413e-11
6.034722e-11
4.7731274e-11
4.9972158e-12
2.1638122e-12
-4.9750811e-10
3.6078192e-13
1.3893474e-13
5.1495893e-14
1.837207e-14
6.3170123e-15
2.0897242e-15
6.7332101e-16
7.3264179e-11
6.3489839e-17
-4.2514513e-10
7.3263975e-11
-4.9840911e-10
-4.9840911e-10
-4.2514515e-10
-4.9840912e-10
7.3263969e-11
-4.9840912e-10
7.3263969e-11
7.3263969e-11
-4.9840912e-10
-4.9840912e-10
-1.3487628e-25
-4.2514515e-10
-4.9840912e-10
-4.9840912e-10
9.4743376e-22
2.2642939e-07
1.693002e-07
1.2611996e-07
9.3523907e-08
6.8564062e-08
4.9969839e-08
3.6202924e-08
2.544197e-08
1.7939576e-08
1.2316966e-08
8.0066193e-09
5.1159421e-09
3.1951636e-09
2.101749e-09
1.2564264e-09
7.2687171e-10
4.4305227e-10
6.8173759e-12
1.1423559e-10
9.3966596e-11
2.7720826e-11
1.2905599e-11
-2.434214e-10
2.4937467e-12
1.0346048e-12
-4.9799616e-10
-4.9825047e-10
5.8633109e-14
-4.9838827e-10
7.1552252e-15
7.3266344e-11
7.326472e-11
7.3264206e-11
7.1400869e-17
2.1920451e-17
7.3263975e-11
-4.9840911e-10
1.0427106e-18
7.3263969e-11
7.3263969e-11
-4.9840912e-10
7.3263969e-11
6.0594453e-20
7.3263969e-11
-4.2514515e-10
7.3263969e-11
-1.524316e-25
-4.2514515e-10
7.579463e-21
1.4652794e-10
-2.1676544e-28
3.3221304e-07
2.4518436e-07
1.8028448e-07
1.3184707e-07
9.5444499e-08
6.875892e-08
4.8626268e-08
3.3981307e-08
2.353793e-08
1.5926195e-08
1.0529428e-08
6.761929e-09
3.9939515e-09
2.5874728e-09
1.5305953e-09
6.2774533e-10
2.3681071e-10
1.1053987e-11
-7.8035398e-11
-1.4548713e-10
-1.8032492e-10
-2.3426901e-10
6.6622508e-12
2.8613128e-12
1.1828928e-12
4.707381e-13
1.8029592e-13
6.6498257e-14
2.3617614e-14
-4.9840103e-10
2.671032e-15
8.5518969e-16
2.6737056e-16
7.9236876e-17
7.3263995e-11
6.8663119e-18
-4.9840911e-10
-4.2514515e-10
-4.2514515e-10
-4.9840912e-10
-4.2514515e-10
-4.9840912e-10
7.3263969e-11
7.3263969e-11
-4.9840912e-10
-4.9840912e-10
1.5158771e-20
-4.9840912e-10
-4.9840912e-10
-4.9840912e-10
9.4743371e-22
4.8251434e-07
3.5187581e-07
2.5516293e-07
1.839485e-07
1.3157563e-07
9.3457672e-08
6.5201345e-08
4.4901227e-08
3.0646201e-08
2.0193789e-08
1.333506e-08
8.2498609e-09
5.0346726e-09
2.9516521e-09
1.6399057e-09
1.0879376e-09
5.7759744e-10
3.4350137e-10
-9.1696427e-11
7.8041894e-11
7.3933999e-11
1.7189902e-11
7.6339181e-12
3.2659086e-12
1.3456176e-12
5.339588e-13
2.0402472e-13
7.5061816e-14
7.3290604e-11
9.1022386e-15
2.9996205e-15
9.5788543e-16
7.3264268e-11
7.3264057e-11
-4.9840909e-10
-4.2514514e-10
7.3263972e-11
-4.9840911e-10
2.2974914e-19
-3.2986726e-21
-4.9840912e-10
-2.1057381e-22
-4.2514515e-10
-4.2514515e-10
-4.9840912e-10
-4.9840912e-10
7.3263969e-11
9.3155397e-21
-4.9840912e-10
4.6577911e-21
9.4743367e-22
6.9348617e-07
4.9930293e-07
3.5775519e-07
2.5467429e-07
1.795167e-07
1.2542591e-07
8.6787185e-08
5.8799201e-08
3.9532289e-08
2.5760114e-08
1.6495686e-08
1.0252513e-08
6.4727555e-09
3.589758e-09
2.261466e-09
1.038335e-09
4.6886867e-10
1.1005997e-10
-2.9443687e-11
9.0176547e-11
4.2865693e-11
-2.2954629e-10
8.6930927e-12
7.6969302e-11
7.4785801e-11
-4.2454293e-10
7.349356e-11
8.4340451e-14
2.9871699e-14
1.0194368e-14
3.3690675e-15
1.072344e-15
7.3264297e-11
7.3264068e-11
-4.2514512e-10
7.9076834e-18
-4.9840911e-10
-4.2514515e-10
-4.2514515e-10
-3.698525e-21
-4.2514515e-10
-4.9840912e-10
6.0576798e-20
-4.9840912e-10
-4.9840912e-10
-4.2514515e-10
-4.9840912e-10
7.3263969e-11
7.5794591e-21
-2.6011853e-27
1.164448e-21
9.8251418e-07
6.9897278e-07
4.9434819e-07
3.4726198e-07
2.4188077e-07
1.6692813e-07
1.1373923e-07
7.6351696e-08
5.0188791e-08
3.2459307e-08
2.056578e-08
1.2654737e-08
7.5698621e-09
4.6145499e-09
2.6480983e-09
1.2628972e-09
7.9717023e-10
4.1715379e-10
2.1121774e-10
1.0338908e-10
-1.6368502e-10
-2.268885e-10
-2.393758e-10
7.7438807e-11
7.4973535e-11
6.7484018e-13
7.3520689e-11
9.4119716e-14
-4.9837584e-10
1.1349356e-14
3.7355085e-15
7.3265156e-11
3.6821108e-16
-4.98409e-10
7.3264e-11
7.3263979e-11
-4.9840911e-10
-4.9840911e-10
-1.6008665e-20
-4.1349726e-21
-4.2514515e-10
-4.2514515e-10
-4.2514515e-10
-4.2514515e-10
7.3263969e-11
1.5157938e-20
-4.9840912e-10
7.3263969e-11
-4.9840912e-10
-4.9840912e-10
-9.9681823e-10
1.3695308e-06
9.6281739e-07
6.7326743e-07
4.6691127e-07
3.2132896e-07
2.1845063e-07
1.4703388e-07
9.7462025e-08
6.3534076e-08
4.0473268e-08
2.5321403e-08
1.5425254e-08
9.3943084e-09
5.2750645e-09
3.1559722e-09
1.7595676e-09
9.6013682e-10
4.798129e-10
2.7802169e-10
-9.5086013e-11
5.5275675e-11
2.512206e-11
1.1022667e-11
-4.9374224e-10
1.9059175e-12
-4.9765849e-10
2.850561e-13
1.0437848e-13
3.6874067e-14
7.3276537e-11
4.1444107e-15
1.3222802e-15
-4.9840871e-10
-4.2514502e-10
3.5670721e-17
-4.984091e-10
-4.9840911e-10
1.0135933e-18
-4.2514515e-10
-4.9840912e-10
-4.2514515e-10
-4.2514515e-10
-4.2514515e-10
3.7243934e-20
-4.2514515e-10
7.3263969e-11
7.3263969e-11
-4.9840912e-10
-1.5949655e-26
-3.3397935e-27
-4.1212195e-28
1.8732236e-06
1.3025657e-06
9.0021313e-07
6.1716506e-07
4.1904545e-07
2.8182188e-07
1.8681086e-07
1.222198e-07
7.8611681e-08
4.9932222e-08
3.0951737e-08
1.8541167e-08
1.0931656e-08
6.2336854e-09
3.6677304e-09
1.9889489e-09
1.0580451e-09
5.8260789e-10
2.7300854e-10
1.6879433e-10
1.3515196e-10
1.0127643e-10
-2.3695645e-10
7.8434463e-11
2.1065075e-12
-4.9758118e-10
-4.9809516e-10
7.3378827e-11
7.3304515e-11
7.3277788e-11
4.5513708e-15
7.3265417e-11
7.3264416e-11
1.3468403e-16
7.3264008e-11
7.3263978e-11
7.3263972e-11
1.0063944e-18
-4.2514515e-10
7.3263969e-11
1.1996537e-19
-4.9840912e-10
6.0553148e-20
6.7559649e-20
-4.9840912e-10
-4.2514515e-10
7.3263969e-11
-4.9840912e-10
-1.8004912e-26
-3.5188118e-10
-4.6564428e-28
2.5080476e-06
1.725457e-06
1.1790511e-06
7.9933623e-07
5.3640842e-07
3.5645874e-07
2.3354292e-07
1.5120668e-07
9.604581e-08
5.9997422e-08
3.6727387e-08
2.1978079e-08
1.303053e-08
7.4675755e-09
4.170348e-09
2.3030232e-09
9.4784285e-10
4.0118069e-10
3.4178704e-10
1.8361746e-10
-1.0741083e-10
3.0903178e-11
1.3469639e-11
5.6712017e-12
2.305673e-12
9.0487275e-13
3.4268745e-13
1.2527447e-13
7.3308181e-11
7.3279039e-11
-4.9840415e-10
-4.9840753e-10
4.9106865e-16
-4.25145e-10
-4.9840907e-10
-4.984091e-10
5.10049e-18
9.9885521e-19
7.3263969e-11
-5.6516486e-21
-4.2514515e-10
-4.2514515e-10
7.3263969e-11
-4.2514515e-10
-4.2514515e-10
-1.4191553e-24
1.8630822e-20
-4.2514515e-10
-4.9840912e-10
-4.2603776e-27
1.1644478e-21
3.2775517e-06
2.2321088e-06
1.5096602e-06
1.0122351e-06
6.7191449e-07
4.4148349e-07
2.8632255e-07
1.8315532e-07
1.1508214e-07
7.1133465e-08
4.3320615e-08
2.5554905e-08
1.5026886e-08
8.552724e-09
4.7177521e-09
2.3325019e-09
1.3353217e-09
4.6801345e-10
3.3660786e-10
-8.781303e-11
-1.7425508e-10
-2.1551949e-10
1.4641565e-11
6.1510256e-12
2.4964427e-12
9.7847917e-13
3.7027906e-13
-4.9827381e-10
-4.250974e-10
1.6289871e-14
7.3269335e-11
1.7096159e-15
7.3264499e-11
1.5832112e-16
7.3264016e-11
1.3928546e-17
-4.9840911e-10
9.9108257e-19
-4.9840911e-10
-4.9840911e-10
-4.2514515e-10
-4.2514515e-10
-4.2514515e-10
3.7236861e-20
-4.9840912e-10
-4.2514515e-10
7.3263969e-11
-4.9840912e-10
-2.286474e-26
-4.9840912e-10
9.4743336e-22
4.167596e-06
2.8119433e-06
1.8833767e-06
1.2501772e-06
8.2147246e-07
5.3380619e-07
3.4278406e-07
2.1674724e-07
1.3524619e-07
8.2838785e-08
4.9854032e-08
2.9148769e-08
1.6970568e-08
9.5796944e-09
4.9983158e-09
2.8483844e-09
1.502896e-09
4.9407183e-10
4.0249739e-10
-3.7873911e-11
8.0845951e-11
-1.3971059e-10
1.5710805e-11
6.5883659e-12
-4.9573867e-10
1.0458132e-12
3.9563981e-13
1.4458736e-13
5.1051462e-14
7.3281381e-11
7.3269724e-11
1.8317287e-15
5.7013133e-16
1.7017295e-16
-4.9840907e-10
-4.984091e-10
-4.2514514e-10
2.0645022e-18
7.3263969e-11
2.6352614e-19
7.3263969e-11
-4.4497901e-22
7.3263969e-11
7.3263969e-11
-7.0580969e-24
7.3263969e-11
1.8630735e-20
-4.9840912e-10
-4.9840912e-10
-4.9840912e-10
-6.7438138e-28
5.1423328e-06
3.4398944e-06
2.283081e-06
1.5018295e-06
9.7759289e-07
6.2923763e-07
4.0018205e-07
2.5067386e-07
1.5468063e-07
9.3786587e-08
5.6055925e-08
3.2513475e-08
1.8783862e-08
1.027514e-08
5.5156217e-09
2.8013655e-09
1.332891e-09
5.8554507e-10
1.4200427e-10
1.861309e-10
-1.633254e-10
3.8392843e-11
-4.8179136e-10
-4.1818568e-10
2.8184713e-12
1.1033665e-12
4.1745236e-13
1.5262804e-13
5.3922103e-14
7.3282395e-11
6.0951914e-15
1.9470941e-15
6.0135936e-16
-4.2514496e-10
7.3264022e-11
-4.2514513e-10
-4.2514514e-10
7.326397e-11
5.1245081e-19
-4.2514515e-10
-4.9840912e-10
-4.9840912e-10
1.3503717e-19
-4.2514515e-10
-4.2514515e-10
-1.9555775e-24
-4.2514515e-10
-4.9840912e-10
1.4652794e-10
-6.1015458e-27
2.1118816e-21
6.1387209e-06
4.0747294e-06
2.6827784e-06
1.7496537e-06
1.1297414e-06
7.2079128e-07
4.5419235e-07
2.8225536e-07
1.7292512e-07
1.0387525e-07
6.1618191e-08
3.575956e-08
2.008485e-08
1.1317488e-08
5.8753793e-09
3.2440698e-09
1.4618038e-09
5.9192249e-10
4.1080959e-10
-5.4334613e-11
-8.6246771e-11
4.0023262e-11
1.7300581e-11
7.239489e-12
2.9308911e-12
7.4411531e-11
4.3443644e-13
1.5895662e-13
5.6250699e-14
1.9248714e-14
6.3712355e-15
2.0466607e-15
-4.2514451e-10
1.9412948e-16
5.8463993e-17
1.580949e-17
7.3263972e-11
-4.9840911e-10
-4.9840911e-10
7.3263969e-11
-4.9840912e-10
6.010641e-20
-4.2514515e-10
7.3263969e-11
-4.9840912e-10
-4.2514515e-10
7.3263969e-11
7.5793373e-21
-3.5188118e-10
-4.9840912e-10
9.4743309e-22
7.0693779e-06
4.6598174e-06
3.0462645e-06
1.9724293e-06
1.2638297e-06
8.0031913e-07
5.0045666e-07
3.0891212e-07
1.8768965e-07
1.1195143e-07
6.5935648e-08
3.7976625e-08
2.1482003e-08
1.1638642e-08
6.1884314e-09
3.1622278e-09
1.4855623e-09
8.684171e-10
1.736918e-10
-4.9074818e-11
-8.3992846e-11
4.0977148e-11
-4.8070965e-10
8.0668646e-11
2.9985477e-12
-4.9723426e-10
4.4528165e-13
1.632008e-13
7.3321815e-11
-4.9838926e-10
-4.9840253e-10
7.326609e-11
-4.9840845e-10
-4.2514495e-10
6.059854e-17
7.3263986e-11
-4.2514514e-10
1.5016935e-18
5.083538e-19
-4.2514515e-10
-2.2203523e-21
-4.2514515e-10
-4.2514515e-10
-4.2514515e-10
7.3263969e-11
-4.9840912e-10
-4.9840912e-10
-4.2514515e-10
4.6577576e-21
3.7897281e-21
-9.526975e-28
7.8305558e-06
5.1310906e-06
3.333714e-06
2.1449312e-06
1.3652112e-06
8.5925401e-07
5.3391533e-07
3.2725954e-07
1.9760873e-07
1.1737912e-07
6.8283743e-08
3.9061338e-08
2.2062549e-08
1.1884896e-08
6.3130307e-09
3.2148445e-09
1.5068319e-09
8.7665003e-10
1.7675944e-10
-4.7960182e-11
9.2354382e-11
4.1132782e-11
1.7764884e-11
8.0698723e-11
-4.9539584e-10
-4.9722692e-10
-4.2469632e-10
1.6488026e-13
-4.2508655e-10
7.3284136e-11
7.327068e-11
2.1688111e-15
6.828285e-16
-4.2514494e-10
-4.9840905e-10
-4.2514513e-10
-4.2514514e-10
7.326397e-11
8.0464742e-19
2.6127184e-19
-2.3685363e-21
-4.9840912e-10
7.3263969e-11
7.3263969e-11
7.3263969e-11
7.3263969e-11
-4.9840912e-10
1.6894894e-20
3.7896961e-21
-4.9840912e-10
9.4743287e-22
8.3210444e-06
5.4254941e-06
3.5066137e-06
2.244351e-06
1.4208226e-06
8.893744e-07
5.4940395e-07
3.3502689e-07
2.012521e-07
1.1868445e-07
6.8853715e-08
3.9170565e-08
2.180193e-08
1.2118113e-08
6.4752888e-09
3.1784675e-09
1.5205845e-09
6.1434235e-10
4.1899401e-10
-5.1436962e-11
9.0720819e-11
4.0408175e-11
1.7461783e-11
7.315559e-12
2.9695611e-12
-4.9724183e-10
7.3708185e-11
1.6364454e-13
5.835483e-14
2.0142911e-14
6.7353898e-15
7.3266153e-11
6.8443943e-16
-4.984089e-10
7.3264032e-11
-4.2514513e-10
5.4170896e-18
-4.9840911e-10
-4.2514515e-10
-4.2514515e-10
-4.2514515e-10
1.3450844e-19
7.3263969e-11
-4.2514515e-10
-4.2514515e-10
-4.2514515e-10
-7.1899759e-25
-1.8086266e-25
-4.9840912e-10
4.2237552e-21
-1.2096047e-27
8.4608579e-06
5.494835e-06
3.5366932e-06
2.2537981e-06
1.4210703e-06
8.852976e-07
5.4489153e-07
3.3073961e-07
1.9782737e-07
1.1619235e-07
6.7399136e-08
3.8349528e-08
2.136356e-08
1.1422434e-08
6.2403988e-09
3.0488943e-09
1.4517606e-09
5.7914268e-10
4.0166633e-10
-3.0884628e-10
8.6986855e-11
3.8777111e-11
1.6778715e-11
8.0305807e-11
2.8647966e-12
1.1291567e-12
4.3106639e-13
7.3423324e-11
5.7049927e-14
1.9779033e-14
7.3270609e-11
7.3266133e-11
-4.9840843e-10
2.118583e-16
7.326403e-11
-4.984091e-10
-4.2514514e-10
-4.9840911e-10
5.0380843e-19
-4.2514515e-10
-4.9840912e-10
-4.9840912e-10
-4.2514515e-10
-4.9840912e-10
3.0306001e-20
1.5155889e-20
7.3263969e-11
-4.9840912e-10
-4.9840912e-10
4.2237541e-21
-9.9681823e-10
8.2114159e-06
5.3170055e-06
3.4120761e-06
2.1673883e-06
1.3619591e-06
8.4584048e-07
5.1896422e-07
3.1401107e-07
1.8700205e-07
1.0989741e-07
6.3477322e-08
3.5975003e-08
1.9767777e-08
1.0666942e-08
5.8646476e-09
3.0793579e-09
1.551716e-09
5.2293392e-10
1.2529634e-10
-3.2154369e-10
8.1254092e-11
3.6280187e-11
8.8995036e-11
-4.917902e-10
2.7007662e-12
-4.9734092e-10
-4.9799977e-10
7.3415947e-11
5.4658972e-14
1.9046241e-14
6.4347141e-15
-4.2514304e-10
-4.9840844e-10
7.3264178e-11
-4.9840905e-10
1.884362e-17
6.0003669e-18
7.326397e-11
5.0302977e-19
-4.2514515e-10
-4.9840912e-10
-4.2514515e-10
-1.8773818e-22
7.3263969e-11
7.3263969e-11
1.5155665e-20
7.3263969e-11
-2.1528823e-25
-3.5188118e-10