/*--------------------------------*- C++ -*----------------------------------*\
| =========                 |                                                 |
| \\      /  F ield         | OpenFOAM: The Open Source CFD Toolbox           |
|  \\    /   O peration     | Version:  2312                                  |
|   \\  /    A nd           | Website:  www.openfoam.com                      |
|    \\/     M anipulation  |                                                 |
\*---------------------------------------------------------------------------*/
FoamFile
{
    version     2.0;
    format      ascii;
    arch        "LSB;label=32;scalar=64";
    class       volScalarField;
    location    "0.01";
    object      T;
}
// * * * * * * * * * * * * * * * * * * * * * * * * * * * * * * * * * * * * * //

dimensions      [0 0 0 1 0 0 0];

internalField   nonuniform List<scalar> 
3224
(
810.26825
798.66739
786.53036
773.94899
760.82148
747.17314
733.08958
718.6005
703.74449
688.56495
673.10918
657.4278
641.57417
625.60369
609.57309
593.53967
577.56053
561.69179
545.98779
530.50038
515.27827
500.36641
485.80552
471.63175
457.8764
444.56586
431.72146
419.35956
407.49191
396.12582
385.26452
374.9075
365.05093
355.68808
346.80975
338.40465
330.45978
322.96083
315.89245
309.23859
302.98272
810.18493
798.58677
786.45541
773.88077
760.73888
747.10043
733.02096
718.53543
703.68295
688.50694
673.05472
657.3769
641.52681
625.55983
609.53265
593.50258
577.52669
561.66107
545.96005
530.47547
515.25603
500.34666
485.78809
471.61646
457.86307
444.55433
431.71155
419.35111
407.48476
396.11984
385.25956
374.90343
365.04765
355.68548
346.80773
338.40312
330.45867
322.96006
315.89196
309.23832
302.98264
810.03366
798.43931
786.32076
773.74795
760.60131
746.9718
732.89944
718.42045
703.57436
688.4047
672.95881
657.28728
641.4434
625.48254
609.46135
593.43709
577.46682
561.6066
545.91074
530.43105
515.21622
500.31117
485.75662
471.58871
457.83875
444.53314
431.69321
419.33534
407.47132
396.10847
385.25004
374.89555
365.04121
355.6803
346.80366
338.4
330.45636
322.95844
315.89092
309.23776
302.98247
809.81364
798.22507
786.12606
773.55091
760.40674
746.78745
732.72494
718.25538
703.41853
688.25805
672.82126
657.15874
641.32377
625.37164
609.35899
593.34303
577.38076
561.52823
545.83971
530.36699
515.15871
500.25982
485.71101
471.54841
457.80334
444.50222
431.66637
419.31221
407.45152
396.09168
385.23593
374.88382
365.03158
355.67254
346.79752
338.39527
330.45286
322.95598
315.88934
309.23691
302.98223
820.55684
809.52371
797.94624
785.87143
773.28902
760.15451
746.5479
732.49796
718.04064
703.21586
688.06734
672.64241
656.99163
641.16823
625.22745
609.22587
593.22066
577.26878
561.42621
545.7472
530.28349
515.08372
500.1928
485.65142
471.49571
457.75699
444.46169
431.63115
419.28181
407.42548
396.06954
385.21729
374.86831
365.01884
355.66223
346.78935
338.38897
330.44818
322.95269
315.88723
309.23578
302.9819
820.20292
809.18522
797.62838
785.57276
772.97869
759.86235
746.27047
732.2349
717.79174
702.98096
687.84633
672.43517
656.79802
640.98803
625.0604
609.07166
593.0789
577.13902
561.30797
545.63994
530.18665
514.99672
500.11501
485.58222
471.43448
457.70311
444.41454
431.59015
419.2464
407.39511
396.04371
385.19553
374.85017
365.00391
355.65015
346.77977
338.38157
330.44267
322.94882
315.88474
309.23445
302.98151
819.81182
808.80899
797.27804
785.22977
772.63854
759.53878
745.96286
731.94309
717.51558
702.72034
687.60113
672.20526
656.58322
640.78812
624.87508
608.90055
592.92159
576.99503
561.17675
545.52089
530.07916
514.90011
500.02861
485.50534
471.36642
457.64319
444.36209
431.54452
419.20696
407.36128
396.01492
385.17125
374.82992
364.98724
355.63664
346.76905
338.37329
330.43651
322.94447
315.88195
309.23295
302.98108
819.35162
808.36843
796.86619
784.81622
772.24016
759.15866
745.60116
731.59982
717.19067
702.41369
687.31264
671.93478
656.33053
640.55294
624.65706
608.69927
592.73653
576.82561
561.02234
545.3808
529.95263
514.78639
499.92689
485.41481
471.28626
457.5726
444.30028
431.49073
419.16045
407.32135
395.98093
385.14258
374.80599
364.96754
355.62067
346.75636
338.36348
330.42919
322.93932
315.87863
309.23118
302.98056
829.23073
818.81514
807.86129
796.37595
784.33681
771.77873
758.71777
745.18136
731.20126
716.81336
702.05759
686.97762
671.62068
656.03711
640.27986
624.40391
608.46554
592.52162
576.62886
560.843
545.21806
529.80564
514.65424
499.80866
485.30957
471.19307
457.49051
444.22838
431.42813
419.10631
407.27486
395.94133
385.10916
374.77809
364.94454
355.60202
346.74153
338.352
330.42064
322.93328
315.87475
309.22909
302.97996
828.58706
818.19972
807.28054
795.8024
783.78556
771.24917
758.21154
744.69913
730.74331
716.37978
701.64835
686.59261
671.25971
655.6999
639.96603
624.11297
608.19691
592.27462
576.40271
560.63684
545.03096
529.63662
514.50227
499.67267
485.18848
471.0858
457.396
444.14558
431.35603
419.04393
407.22128
395.89567
385.07061
374.74589
364.91799
355.58046
346.72439
338.33873
330.41073
322.92629
315.87023
309.22668
302.97926
837.65098
827.85513
817.50332
806.60807
795.14909
783.15726
770.64619
757.63506
744.14985
730.22158
715.88576
701.18203
686.15389
670.84838
655.31563
639.6084
623.78142
607.89076
591.9931
576.14493
560.40182
544.81765
529.4439
514.32894
499.51754
485.05032
470.96339
457.28811
444.05103
431.27366
418.97264
407.16002
395.84345
385.0265
374.70903
364.88757
355.55577
346.70473
338.32349
330.39935
322.91824
315.86504
309.22388
302.97845
836.79501
827.03314
816.71576
805.83808
794.40929
782.44627
769.96426
756.98311
743.52858
729.63139
715.32685
700.65443
685.6575
670.38297
654.88083
639.20372
623.40623
607.5443
591.67448
575.85315
560.13578
544.57614
529.22565
514.13263
499.3418
484.89377
470.82463
457.16579
443.94379
431.18021
418.89172
407.09046
395.78412
384.97636
374.6671
364.85296
355.52764
346.68233
338.30612
330.38636
322.90904
315.8591
309.22069
302.97752
845.00354
835.83775
826.11291
815.82
804.9729
793.57701
781.64658
769.19752
756.25013
742.83003
728.96773
714.69831
700.06106
685.09921
669.85949
654.39177
638.74851
622.98416
607.15453
591.31599
575.52482
559.83636
544.30429
528.97994
513.91157
499.14386
484.71739
470.66827
457.02789
443.82285
431.07478
418.8004
407.01191
395.7171
384.91969
374.61969
364.81379
355.49579
346.65694
338.2864
330.37161
322.89859
315.85233
309.21704
302.97645
843.903
834.76944
825.07532
814.81767
804.00537
792.64572
780.7518
768.33977
755.4302
742.04859
728.22527
713.99508
699.39715
684.47451
669.27372
653.84448
638.23907
622.51178
606.71824
590.91468
575.15722
559.50108
543.99983
528.70469
513.66388
498.92202
484.51966
470.49292
456.87319
443.68714
430.95642
418.69783
406.92365
395.64175
384.85594
374.56632
364.76968
355.45989
346.6283
338.26414
330.35492
322.88675
315.84465
309.21289
302.97523
851.21792
842.67807
833.57935
823.92067
813.7014
802.92798
791.60839
779.75512
767.38445
754.51702
741.17826
727.3983
713.21177
698.65759
683.77859
668.62113
653.23471
637.67143
621.98538
606.23201
590.46737
574.74743
559.12725
543.66029
528.39767
513.38753
498.67444
484.29893
470.2971
456.70039
443.53547
430.82409
418.58311
406.82488
395.55738
384.78451
374.50649
364.72019
355.41958
346.59611
338.2391
330.33614
322.87339
315.83597
309.20819
302.97385
849.82175
841.31944
832.25925
822.64041
812.46319
801.73285
790.45748
778.6493
766.32455
753.5039
740.21266
726.48076
712.34262
697.83694
683.00631
667.89689
652.55795
637.04137
621.40104
605.69219
589.9707
574.29234
558.71202
543.28307
528.0565
513.08036
498.39917
484.05342
470.07923
456.50805
443.36659
430.67667
418.45525
406.71475
395.46325
384.70478
374.43965
364.66486
355.37447
346.56005
338.21102
330.31504
322.85838
315.8262
309.20288
302.97228
856.19482
848.28022
839.81798
830.80019
821.2255
811.09443
800.41157
789.18494
777.42657
765.15263
752.38371
739.14498
725.46618
711.3815
696.92938
682.1522
667.09584
651.80935
636.34437
620.75454
605.09487
589.42104
573.7886
558.25232
542.86536
527.67861
512.74004
498.09409
483.78125
469.83761
456.29465
443.17915
430.51298
418.31318
406.59231
395.35855
384.61603
374.36521
364.60318
355.32416
346.5198
338.17963
330.29143
322.84155
315.81522
309.19691
302.9705
854.45616
846.58254
838.16385
829.19251
819.66639
809.58591
798.95523
787.78221
776.07869
763.86075
751.14884
737.96798
724.34767
710.32186
695.92874
681.21041
666.2125
650.98377
635.57561
620.04139
604.43588
588.81452
573.23266
557.74487
542.40415
527.26126
512.36407
497.75695
483.48036
469.57039
456.05855
442.97167
430.3317
418.15579
406.45659
395.24241
384.51753
374.28251
364.53462
355.26817
346.47496
338.14464
330.26507
322.82272
315.80292
309.19019
302.9685
852.54601
844.7175
836.34636
827.4258
817.95291
807.9278
797.35433
786.24012
774.59686
762.44045
749.7912
736.67392
723.11786
709.15672
694.82841
680.17472
665.24099
650.0757
634.72993
619.25678
603.71075
588.14701
572.6207
557.18616
541.89622
526.80151
511.94977
497.38532
483.14857
469.27562
455.79799
442.74259
430.13145
417.98182
406.30649
395.1139
384.40845
374.19088
364.45858
355.20603
346.42514
338.1057
330.23571
322.80172
315.78917
309.18267
302.96624
850.45217
842.67285
834.35398
825.48894
816.07422
806.10964
795.59874
784.54894
772.97171
760.88275
748.30218
735.25457
721.76893
707.87865
693.62133
679.03846
664.17505
649.07926
633.80184
618.39559
602.91471
587.4141
571.94863
556.57242
541.33813
526.2962
511.49428
496.9766
482.78353
468.95117
455.51108
442.49022
429.91072
417.78997
406.14086
394.97199
384.28793
374.08956
364.37444
355.13719
346.3699
338.06248
330.20307
322.77834
315.77383
309.17425
302.96371
855.36557
848.16222
840.43608
832.17447
823.37003
814.0188
804.12028
793.67773
782.6983
771.19324
759.17805
746.67259
733.70118
720.29252
706.47971
692.30001
677.79455
663.008
647.98817
632.78546
617.45233
602.04266
586.61104
571.21208
555.89964
540.72618
525.74197
510.99452
496.528
482.38272
468.59478
455.19578
442.21275
429.66792
417.57881
405.95846
394.81562
384.15503
373.97774
364.2815
355.06109
346.30877
338.0146
330.16685
322.75235
315.75675
309.16485
302.96087
852.80786
845.66104
837.99373
829.79478
821.05646
811.77442
801.94789
791.57984
780.67716
769.25085
757.31615
744.89266
732.00439
718.67974
704.95145
690.85642
676.43541
661.73271
646.79573
631.67451
616.42114
601.08915
585.73279
570.40637
555.16351
540.05642
525.13519
510.44721
496.03653
481.94343
468.20401
454.8499
441.90822
429.40131
417.34681
405.75793
394.64359
384.00873
373.85456
364.17904
354.97712
346.24124
337.96164
330.12675
322.72353
315.73777
309.15439
302.9577
862.70498
856.60457
850.02059
842.93442
835.33166
827.20112
818.53479
809.32806
799.57987
789.29291
778.47379
767.13324
755.28621
742.95199
730.15428
716.92111
703.28486
689.28204
674.95298
660.34157
645.4948
630.46231
615.29578
600.04835
584.77394
569.52652
554.35942
539.32461
524.472
509.84879
495.49898
481.46276
467.77624
454.47112
441.57455
429.10903
417.09234
405.53785
394.45467
383.84794
373.71909
364.06625
354.8846
346.16677
337.90317
330.08242
322.69162
315.71672
309.14275
302.95416
865.12293
859.54697
853.50804
846.9868
839.96709
832.43486
824.37883
815.79081
806.66593
797.00286
786.80402
776.07573
764.82841
753.07669
740.83954
728.14028
715.00657
701.47037
687.56777
673.33866
658.82647
644.07776
629.1417
614.06955
598.91404
583.72871
568.56717
553.48245
538.52624
523.74824
509.19551
494.91191
480.9376
467.30869
454.0569
441.2095
428.78908
416.81362
405.29665
394.2475
383.6715
373.57031
363.94229
354.78283
346.08476
337.83872
330.03348
322.65635
315.6934
309.12984
302.95022
861.6328
856.11648
850.14265
843.68998
836.74286
829.28746
821.31243
812.80944
803.7734
794.20271
784.09949
773.46977
762.32363
750.67536
738.54357
725.95116
712.9254
699.49778
685.70394
671.58329
657.17878
642.53647
627.70505
612.73533
597.67958
582.59092
567.5226
552.5273
537.65644
522.95947
508.48329
494.27164
480.36462
466.79833
453.60456
440.81064
428.43934
416.50877
405.03269
394.02063
383.47816
373.40717
363.80625
354.67105
345.99461
337.76778
329.97956
322.61742
315.66763
309.11554
302.94584
857.84561
852.39455
846.49089
840.11278
833.24464
825.8727
817.98558
809.57479
800.63502
791.16442
781.16482
770.6419
759.60541
748.06925
736.05162
723.57501
710.66622
697.35627
683.68027
669.67714
655.3893
640.86227
626.14425
611.28551
596.33787
581.35399
566.38671
551.48836
536.71003
522.10095
507.7078
493.57422
479.74024
466.24196
453.11119
440.37541
428.05749
416.17577
404.74418
393.77251
383.26656
373.22849
363.65715
354.54842
345.89562
337.68982
329.92023
322.57453
315.6392
309.09973
302.94099
853.74233
848.36199
842.5342
836.23689
829.45439
822.17292
814.38102
806.07005
797.23448
787.87219
777.98469
767.57734
756.65948
745.24462
733.35052
720.99921
708.21697
695.03432
681.48584
667.60986
653.44824
639.04596
624.45063
609.712
594.88135
580.01088
565.15298
550.35958
535.68147
521.16758
506.86441
492.81543
479.06064
465.6361
452.57371
439.90102
427.64108
415.81242
404.42921
393.50146
383.03526
373.03305
363.49393
354.41409
345.78708
337.60424
329.85503
322.52735
315.60787
309.08228
302.93562
849.30259
843.99871
838.25292
832.04301
825.35318
818.16958
810.48065
802.27757
793.55461
784.30935
774.54297
764.26046
753.47078
742.18698
730.42634
718.21039
705.56488
692.51978
679.10905
665.37045
651.34523
637.07773
622.61498
608.00615
593.30196
578.55408
563.81444
549.13454
534.56482
520.15392
505.94812
491.99075
478.32171
464.97708
451.98879
439.38451
427.18747
415.41641
404.08572
393.20571
382.78273
372.81951
363.31549
354.2671
345.66822
337.51044
329.78349
322.47552
315.5734
309.06305
302.92968
844.50491
839.28367
833.62642
827.51089
820.92116
813.84325
806.26548
798.17886
789.5774
780.4584
770.82269
760.67487
750.02345
738.88103
727.26438
715.19447
702.69648
689.79976
676.53767
662.9473
649.06924
634.94719
620.62753
606.1588
591.59112
576.9756
562.36366
547.80637
533.35376
519.05417
504.95364
491.09533
477.51907
464.26091
451.35286
438.8227
426.69383
414.98522
403.71152
392.88332
382.50729
372.58646
363.12059
354.10645
345.53821
337.40776
329.7051
322.41865
315.53554
309.0419
302.92314
839.32696
834.19493
828.63319
822.61944
816.13762
809.17364
801.71569
793.75456
785.28401
776.30102
766.80607
756.80333
746.30085
735.31073
723.84919
711.9366
699.59753
686.86069
673.75874
660.32809
646.60862
632.64333
618.4779
604.16019
589.7397
575.26693
560.79276
546.36775
532.04154
517.86212
503.87528
490.124
476.64801
463.48337
450.66212
438.21217
426.15712
414.51617
403.30425
392.53225
382.20716
372.33238
362.90797
353.93107
345.39616
337.29547
329.6193
322.35635
315.49401
309.01867
302.91595
833.74562
828.70978
823.25092
817.34674
810.98108
804.13972
796.81069
788.98456
780.65483
771.81814
762.47458
752.62788
742.2856
731.45929
720.16458
708.42122
696.25312
683.68828
670.75864
657.49986
643.95106
630.1545
616.15511
602.00003
587.73806
573.41906
559.09332
544.81089
530.62096
516.57115
502.70697
489.07122
475.70352
462.6399
449.91247
437.54927
425.57408
414.00638
402.86138
392.15029
381.88045
372.05562
362.67623
353.73979
345.24113
337.17283
329.52551
322.28819
315.44853
308.99319
302.90804
827.73717
822.80486
817.45663
811.67022
805.42937
798.71975
791.52919
783.84805
775.66954
766.98995
757.80896
748.12982
737.95957
727.30918
716.19366
704.63208
692.64764
680.26759
667.52308
654.44899
641.08364
627.46845
613.64758
599.66739
585.57594
571.4224
557.25642
543.12752
529.08437
515.17422
501.44227
487.9311
474.68023
461.72566
449.09956
436.83008
424.94125
413.45278
402.38021
391.73507
381.5251
371.75443
362.4239
353.53138
345.0721
337.03902
329.42311
322.21369
315.39878
308.96529
302.89937
821.27744
816.45632
811.22682
805.56676
799.45978
792.89142
785.84933
778.32365
770.30725
761.79607
752.78935
743.28984
733.30403
722.84227
711.9189
700.55227
688.76481
676.58299
664.03712
651.16123
637.99277
624.57231
610.94314
597.15079
583.24255
569.26685
555.27265
541.30886
527.42365
513.66383
500.07428
486.69735
473.57242
460.73546
448.2187
436.05043
424.25488
412.85206
401.85782
391.28407
381.13893
371.42694
362.14937
353.30451
344.888
336.89318
329.31141
322.13238
315.34443
308.93479
302.88988
814.34199
809.64004
804.53771
799.01293
793.04924
786.63207
779.74887
772.38953
764.5466
756.21563
747.3954
738.08813
728.29972
718.03987
707.3222
696.16431
684.58781
672.61831
660.28525
647.62174
634.66431
621.45261
608.02902
594.43819
580.72656
566.94176
553.13204
539.34565
525.6302
512.03205
498.5957
485.36328
472.37399
459.66378
447.26492
435.20584
423.511
412.20069
401.29112
390.79457
380.71958
371.07114
361.85095
353.05776
344.68764
336.73437
329.1897
322.04372
315.28512
308.90147
302.87951
806.90641
802.33187
797.36545
791.9852
786.17458
779.91887
773.20537
766.02366
758.36598
750.22748
741.60643
732.50451
722.927
712.88289
702.38505
691.45027
680.09931
668.35686
656.25143
643.81514
631.08356
618.09536
604.89194
591.517
578.01608
564.43596
550.82413
537.22812
523.69494
510.27047
496.9988
483.92179
471.07848
458.50474
446.23291
434.29155
422.70534
411.49489
400.67676
390.26365
380.26454
370.68486
361.52681
352.78961
344.4698
336.5616
329.05722
321.94715
315.22047
308.86513
302.86818
798.94668
794.50803
789.68651
784.46031
778.81281
772.72917
766.19648
759.20407
751.74381
743.81042
735.40168
726.51869
717.16603
707.35199
697.08865
686.39193
675.28167
663.7816
651.91923
639.72566
627.23542
614.48611
601.51813
588.37415
575.09876
561.73782
548.33798
534.94604
521.60836
508.37026
495.27542
482.36538
469.67901
457.25209
445.11701
433.30246
421.83336
410.73063
400.0112
389.68821
379.7711
370.26579
361.17499
352.49841
344.23311
336.3738
328.91314
321.84207
315.15009
308.82554
302.85583
790.43959
786.14548
781.47805
776.41563
770.94154
765.04081
758.70033
751.90915
744.6588
736.94353
728.76059
720.11046
710.99706
701.42788
691.41417
680.97094
670.11706
658.87526
647.27197
635.33722
623.10442
610.61007
597.89344
584.99618
571.96181
558.83524
545.66222
532.48874
519.36048
506.32215
493.41698
480.68616
468.16834
455.89923
443.91124
432.23319
420.89022
409.9036
399.29064
389.06492
379.23638
369.81146
360.79338
352.18242
343.97615
336.16981
328.75656
321.72781
315.07352
308.78244
302.84237
781.36328
777.22247
772.71841
767.82963
762.53939
756.83258
750.69591
744.11813
737.09039
729.60649
721.66313
713.26014
704.40071
695.09155
685.34299
675.16912
664.58778
653.62061
642.29294
630.63364
618.67495
606.45221
594.0035
581.36934
568.59215
555.71581
542.78511
529.84518
516.94095
504.11648
491.41451
478.87584
466.53888
454.43922
442.60927
431.07802
419.87081
409.00923
398.51103
388.39024
378.65729
369.3192
360.37974
351.83975
343.69737
335.9484
328.58653
321.60369
314.9903
308.73558
302.82774
771.69785
767.71911
763.38776
758.68253
753.58662
748.08483
742.16363
735.81151
729.01923
721.7801
714.09027
705.94889
697.3584
688.32466
678.85709
668.96877
658.67647
648.0007
636.96562
625.59888
613.93148
601.99751
589.83383
577.47974
564.97649
552.36688
539.69465
527.00403
514.33911
501.74329
489.25872
476.9258
464.78266
452.86475
441.20448
429.83093
418.76969
408.04269
397.66809
387.66039
378.03057
368.7862
359.93166
351.46838
343.39512
335.70825
328.40204
321.46895
314.89993
308.68467
302.81183
761.42616
757.61817
753.46878
748.95693
744.06578
738.78003
733.08594
726.97172
720.42774
713.44681
706.0245
698.15928
689.85279
681.11003
671.93945
662.35307
652.36656
641.99925
631.27404
620.21731
608.85877
597.23118
585.37011
573.31356
561.10157
548.77574
536.37873
523.95379
511.54411
499.19235
486.94005
474.82715
462.89146
451.16825
439.68992
428.48563
417.5812
406.99888
396.75727
386.87137
377.3527
368.20943
359.44657
351.06617
343.06763
335.44794
328.20197
321.32278
314.80185
308.62939
302.79456
750.53464
746.9059
742.94749
738.63864
733.96248
728.90359
723.44807
717.58382
711.30081
704.59138
697.45048
689.87587
681.8684
673.43215
664.57456
655.30658
645.64271
635.60103
625.20315
614.47413
603.44227
592.13899
580.59846
568.85734
556.95434
544.92983
532.82531
520.68295
508.54501
496.45333
484.4488
472.57081
460.85683
449.34193
438.05842
427.03557
416.29939
405.87247
395.77384
386.01899
376.62002
367.58573
358.92175
350.63082
342.713
335.16594
327.98515
321.16431
314.69548
308.56943
302.77581
739.01433
735.57296
731.81422
727.71762
723.26631
718.44476
713.23889
707.63632
701.62664
695.20168
688.35577
681.08596
673.39228
665.27785
656.74909
647.81583
638.49135
628.79244
618.73936
608.35577
597.66855
586.70765
575.50581
564.09825
552.5223
540.81701
529.02265
517.18023
505.33102
493.51597
481.77523
470.14764
458.67023
447.37783
436.30266
425.47404
414.91816
404.65794
394.71283
385.09885
375.82867
366.91172
358.35433
350.15991
342.32924
334.86064
327.75033
320.99261
314.58019
308.50441
302.75548
726.86198
723.61561
720.0647
716.18907
711.9719
707.3976
702.45191
697.12219
691.39763
685.26956
678.73171
671.78041
664.4148
656.63708
648.4526
639.87002
630.90137
621.5621
611.87109
601.85052
591.52578
580.92531
570.08033
559.02456
547.79388
536.42592
524.95964
513.43486
501.89173
490.37028
478.90984
467.54861
456.32316
445.26801
434.41525
423.79421
413.43127
403.34963
393.56917
384.10641
374.97463
366.18392
357.7413
349.6509
341.91422
334.53034
327.49617
320.8067
314.45531
308.43396
302.73345
714.08132
711.0369
707.70125
704.05457
700.08008
695.76216
691.0864
686.03988
680.61145
674.79193
668.57444
661.95457
654.93062
647.50379
639.67837
631.46182
622.86487
613.90162
604.58948
594.94912
585.00438
574.78213
564.312
553.62612
542.75886
531.74637
520.62622
509.43692
498.21747
487.00685
475.84354
464.76504
453.80736
443.00468
432.38889
421.98933
411.83248
401.94183
392.33767
383.03704
374.05382
365.39874
357.07955
349.10114
341.46576
334.17324
327.22126
320.60553
314.32013
308.35767
302.70958
700.6843
697.84799
694.73411
691.32339
687.59913
683.5457
679.14856
674.39457
669.27221
663.77184
657.88596
651.60943
644.93968
637.87696
630.42442
622.58834
614.37812
605.80644
596.88923
587.64559
578.09778
568.271
558.19323
547.895
537.40903
526.76993
516.0138
505.17779
494.29964
483.41722
472.56807
461.78889
451.11511
440.58047
430.21662
420.05284
410.1157
400.42894
391.01324
381.88613
373.06208
364.55252
356.36592
348.50792
340.98157
333.7875
326.92415
320.38802
314.1739
308.27511
302.68375
686.69241
684.06957
681.18284
678.01389
674.54617
670.76405
666.65293
662.19945
657.39177
652.21978
646.67539
640.75274
634.44843
627.7617
620.6946
613.25217
605.44251
597.27682
588.76952
579.93812
570.80321
561.38831
551.71968
541.82615
531.73877
521.49051
511.11593
500.65072
490.13129
479.59433
469.07633
458.61314
448.23951
437.98869
427.89202
417.97865
408.2752
398.80562
389.59094
380.64918
371.9954
363.64169
355.59725
347.86853
340.45938
333.37123
326.60335
320.15303
314.01584
308.18584
302.65581
672.13801
669.73321
667.07777
664.15496
660.94856
657.44303
653.62373
649.47711
644.99104
640.15499
634.96029
629.4004
623.47105
617.17052
610.49977
603.46259
596.06573
588.31896
580.23511
571.83008
563.12277
554.13494
544.89112
535.41834
525.74592
515.90515
505.92894
495.85146
485.7077
475.53308
465.36297
455.23228
445.17498
435.22376
425.4096
415.76142
406.30586
397.06702
388.06625
379.32202
370.84995
362.66281
354.77053
347.18035
339.89694
332.92258
326.25738
319.89946
313.84519
308.0894
302.62562
659.03829
657.07028
654.88368
652.46153
649.78743
646.84536
643.61987
640.09629
636.26095
632.10146
627.60689
622.76805
617.57772
612.03082
606.12467
599.85915
593.2368
586.26305
578.94618
571.29748
563.33118
555.06445
546.5173
537.71242
528.67505
519.43269
510.01488
500.45281
490.77906
481.02712
471.23103
461.42499
451.64284
441.91773
432.28168
422.7652
413.39697
404.20354
395.20911
386.4353
377.901
369.62237
361.61281
353.88298
346.44093
339.29215
332.43979
325.88481
319.62621
313.66117
307.98535
302.59303
644.88797
643.31121
641.5468
639.57855
637.39013
634.96545
632.28872
629.34462
626.1185
622.59663
618.76638
614.6165
610.1373
605.32093
600.16153
594.65551
588.80165
582.60132
576.05859
569.1803
561.97615
554.45873
546.64345
538.54851
530.19478
521.60563
512.80671
503.82572
494.69211
485.43675
476.09158
466.68919
457.26245
447.84413
438.46641
429.16057
419.95657
410.88275
401.9655
393.22906
384.69525
376.38333
368.30995
360.48915
352.93229
345.64819
338.64319
331.92131
325.48439
319.33229
313.46309
307.87327
302.5579
629.8249
628.59302
627.20439
625.64197
623.89055
621.93438
619.75774
617.34514
614.68145
611.75212
608.54338
605.04246
601.23781
597.11932
592.67854
587.90889
582.8059
577.36733
571.59337
565.48676
559.05293
552.30002
545.23894
537.88337
530.2497
522.35691
514.22649
505.8822
497.34985
488.65709
479.83303
470.90795
461.91292
452.87945
443.83905
434.82291
425.86144
416.98399
408.21844
399.59095
391.12571
382.84468
374.76742
366.91105
359.29016
351.91681
344.80059
337.94866
331.3659
325.05506
319.01689
313.25035
307.75279
302.52012
613.07543
612.01513
610.81071
609.44674
607.90857
606.18097
604.2487
602.09659
599.7098
597.07393
594.17525
591.00088
587.53907
583.77931
579.71267
575.33188
570.63165
565.60876
560.26228
554.59368
548.60698
542.3088
535.7084
528.81773
521.65136
514.2264
506.56243
498.68127
490.60685
482.36492
473.98279
465.48902
456.91309
448.28503
439.63506
430.99322
422.38902
413.85104
405.40665
397.08167
388.90016
380.88413
373.05339
365.42543
358.01538
350.83594
343.89742
337.20781
330.77286
324.59618
318.67945
313.02252
307.62364
302.47958
596.15985
595.26551
594.23995
593.06887
591.73815
590.23316
588.53914
586.64135
584.52526
582.1767
579.58203
576.72838
573.60383
570.19758
566.50024
562.50398
558.20271
553.59233
548.67084
543.4385
537.89797
532.05439
525.91542
519.4913
512.79478
505.84114
498.64801
491.23531
483.62501
475.84096
467.9086
459.85474
451.70716
443.49437
435.2452
426.98848
418.75267
410.56552
402.45377
394.44282
386.55649
378.81677
371.24361
363.85482
356.66599
349.69042
342.93912
336.42084
330.14218
324.10765
318.31982
312.77946
307.48572
302.43625
579.20818
578.47278
577.61881
576.63296
575.50171
574.21102
572.74667
571.09439
569.24004
567.16972
564.86999
562.32803
559.53182
556.47039
553.13396
549.51418
545.60431
541.39941
536.89649
532.09468
526.99536
521.60223
515.92142
509.96149
503.73345
497.25071
490.52903
483.58638
476.44279
469.12017
461.64209
454.03353
446.32055
438.53005
430.68939
422.8261
414.96751
407.14045
399.37092
391.68379
384.10257
376.64909
369.34337
362.20347
355.24537
348.48288
341.92765
335.5892
329.4749
323.59015
317.93842
312.52138
307.3391
302.39014
562.3669
561.78183
561.09037
560.28013
559.33824
558.25127
557.00558
555.58743
553.98311
552.17907
550.16212
547.91956
545.43941
542.71055
539.72294
536.46779
532.93779
529.12727
525.03233
520.65108
515.98368
511.0325
505.80219
500.29971
494.53437
488.51779
482.26385
475.78862
469.11018
462.24854
455.22534
448.06371
440.78796
433.42331
425.99561
418.53099
411.05559
403.5952
396.17499
388.81922
381.55094
374.39177
367.3617
360.47891
353.75969
347.21832
340.86702
334.71599
328.77338
323.04541
317.53643
312.24904
307.18419
302.34136
545.79777
545.35289
544.81321
544.16716
543.40254
542.5066
541.4663
540.26844
538.89982
537.34729
535.59798
533.63941
531.45968
529.04762
526.39302
523.48679
520.32111
516.88968
513.18783
509.21272
504.96342
500.44107
495.64893
490.59245
485.2793
479.71937
473.92474
467.90959
461.69013
455.28443
448.71224
441.99484
435.15473
428.21546
421.20127
414.13687
407.0471
399.95666
392.88979
385.87002
378.91987
372.06062
365.31213
358.69263
352.21863
345.90476
339.76376
333.80644
328.04168
322.47648
317.11605
311.96385
307.02175
302.29014
529.67642
529.36004
528.96005
528.46517
527.86407
527.1446
526.29436
525.30076
524.15112
522.83276
521.33318
519.64019
517.74206
515.62767
513.28671
510.70988
507.88899
504.81721
501.48921
497.90133
494.05168
489.94027
485.56908
480.94216
476.06565
470.94779
465.59893
460.03144
454.25967
448.29983
442.1698
435.88901
429.47817
422.95912
416.35448
409.68749
402.98164
396.26045
389.54716
382.86448
376.2343
369.67749
363.21365
356.86098
350.63608
344.55388
338.62754
332.86841
327.28602
321.88812
316.6807
311.6681
306.85307
302.23687
514.19067
513.98975
513.71602
513.35804
512.90536
512.34627
511.66908
510.86182
509.91237
508.80857
507.53836
506.08988
504.45164
502.61265
500.56263
498.29213
495.79269
493.05708
490.07946
486.85546
483.38237
479.65921
475.68681
471.46793
467.00729
462.31158
457.38951
452.25177
446.91092
441.38136
435.67917
429.82194
423.82863
417.71937
411.51519
405.23779
398.90928
392.55197
386.18804
379.8393
373.52691
367.27124
361.09157
355.00592
349.03092
343.1817
337.47175
331.91287
326.51519
321.28711
316.23539
311.36516
306.68003
302.18215
499.58238
499.54049
499.44191
499.2786
499.04215
498.7212
498.30493
497.78224
497.14177
496.37198
495.46127
494.39801
493.17075
491.76824
490.17968
488.39492
486.40447
484.19961
481.77282
479.11803
476.23038
473.10639
469.74416
466.1435
462.30603
458.23517
453.93615
449.4162
444.6845
439.75185
434.63109
429.33649
423.88385
418.29032
412.57462
406.75615
400.85488
394.89164
388.88748
382.86352
376.84065
370.83913
364.87878
358.9785
353.156
347.42788
341.80937
336.31422
330.95457
325.74106
320.68272
315.78697
311.05969
306.50531
302.12681
485.91656
485.95435
485.94384
485.87706
485.74435
485.53604
485.24241
484.85299
484.35694
483.74327
483.00088
482.11867
481.08555
479.89058
478.52295
476.97305
475.23173
473.29069
471.14229
468.77975
466.19752
463.39145
460.35884
457.09856
453.61119
449.89905
445.96583
441.81746
437.46213
432.90819
428.16848
423.25497
418.18142
412.96186
407.6171
402.16485
396.62013
391.00382
385.33596
379.63668
373.92629
368.22313
362.54684
356.91608
351.34789
345.85887
340.46432
335.17819
330.01282
324.9793
320.0872
315.34454
310.7579
306.33244
302.07199
473.49551
473.60266
473.66707
473.68164
473.63775
473.52633
473.33781
473.06237
472.6896
472.20929
471.61102
470.88427
470.01859
469.00377
467.83004
466.48737
464.96649
463.25885
461.35671
459.25319
456.94249
454.42004
451.68253
448.72812
445.55641
442.16857
438.56781
434.75863
430.74674
426.54113
422.14973
417.58451
412.85867
407.98788
402.98371
397.86282
392.64621
387.35049
381.99403
376.59552
371.17352
365.74806
360.33701
354.95801
349.62858