/*--------------------------------*- C++ -*----------------------------------*\
| =========                 |                                                 |
| \\      /  F ield         | OpenFOAM: The Open Source CFD Toolbox           |
|  \\    /   O peration     | Version:  2312                                  |
|   \\  /    A nd           | Website:  www.openfoam.com                      |
|    \\/     M anipulation  |                                                 |
\*---------------------------------------------------------------------------*/
FoamFile
{
    version     2.0;
    format      ascii;
    arch        "LSB;label=32;scalar=64";
    class       volVectorField;
    location    "0.01";
    object      U;
}
// * * * * * * * * * * * * * * * * * * * * * * * * * * * * * * * * * * * * * //

dimensions      [0 1 -1 0 0 0 0];

internalField   nonuniform List<vector> 
3224
(
(-0.34944729 -0.0066068494 0)
(-0.38540146 -0.0063015591 0)
(-0.42210394 -0.0059665266 0)
(-0.45901925 -0.0055913418 0)
(-0.49675213 -0.0055457055 0)
(-0.53515689 -0.0050787045 0)
(-0.57336361 -0.0046824743 0)
(-0.61152226 -0.0043031775 0)
(-0.64941593 -0.0039247668 0)
(-0.68685099 -0.0035460914 0)
(-0.72362096 -0.0031684678 0)
(-0.7595204 -0.0027939165 0)
(-0.79434683 -0.0024247128 0)
(-0.82790457 -0.002063162 0)
(-0.86000775 -0.0017114165 0)
(-0.89048343 -0.0013715946 0)
(-0.91917442 -0.001045584 0)
(-0.94594173 -0.00073506538 0)
(-0.97066666 -0.00044149715 0)
(-0.99325252 -0.00016615767 0)
(-1.0136258 8.987824e-05 0)
(-1.0317367 0.00032575322 0)
(-1.0475593 0.00054076273 0)
(-1.061091 0.00073445315 0)
(-1.0723515 0.00090654086 0)
(-1.0813814 0.0010569299 0)
(-1.088241 0.0011857431 0)
(-1.0930075 0.0012933372 0)
(-1.0957732 0.0013803339 0)
(-1.096643 0.0014476642 0)
(-1.0957327 0.0014965726 0)
(-1.0931659 0.0015286746 0)
(-1.0890725 0.0015459893 0)
(-1.0835869 0.0015509219 0)
(-1.0768432 0.0015462333 0)
(-1.0689868 0.0015350571 0)
(-1.060122 0.0015205878 0)
(-1.0505019 0.0015068003 0)
(-1.0398135 0.0014942265 0)
(-1.029954 0.0014926523 0)
(-1.013487 0.0014773564 0)
(-0.34944491 -0.0074815001 0)
(-0.38538899 -0.006871268 0)
(-0.42206546 -0.0062484076 0)
(-0.45904432 -0.0055203423 0)
(-0.49676287 -0.0051735902 0)
(-0.53508199 -0.0044259462 0)
(-0.57329846 -0.0037316576 0)
(-0.61145171 -0.0030564543 0)
(-0.6493356 -0.0023938369 0)
(-0.68675954 -0.0017443959 0)
(-0.72351788 -0.0011112943 0)
(-0.75940553 -0.00049831668 0)
(-0.79422023 9.0633478e-05 0)
(-0.82776648 0.00065186961 0)
(-0.85985854 0.0011821334 0)
(-0.8903236 0.0016785776 0)
(-0.91900457 0.0021389401 0)
(-0.94576254 0.0025615404 0)
(-0.9704789 0.0029452957 0)
(-0.99305703 0.0032896636 0)
(-1.0134234 0.0035946639 0)
(-1.0315284 0.0038608363 0)
(-1.047346 0.0040891174 0)
(-1.0608737 0.0042809667 0)
(-1.072131 0.0044381618 0)
(-1.0811586 0.0045627922 0)
(-1.0880167 0.0046572463 0)
(-1.0927825 0.0047241702 0)
(-1.0955481 0.0047664473 0)
(-1.0964186 0.0047871956 0)
(-1.0955094 0.0047897498 0)
(-1.0929443 0.0047776618 0)
(-1.0888527 0.004754742 0)
(-1.0833693 0.0047250019 0)
(-1.0766278 0.0046926109 0)
(-1.0687735 0.0046619894 0)
(-1.0599103 0.004637047 0)
(-1.0502921 0.0046234976 0)
(-1.0396025 0.0046164978 0)
(-1.0297483 0.0046402339 0)
(-1.0132857 0.0046098978 0)
(-0.34947165 -0.0083625731 0)
(-0.38540621 -0.0074513123 0)
(-0.42205763 -0.006521836 0)
(-0.45907798 -0.0055020274 0)
(-0.49678697 -0.0047776533 0)
(-0.5350338 -0.0037688201 0)
(-0.57324286 -0.0027820068 0)
(-0.61138259 -0.0018138011 0)
(-0.64925001 -0.00086812517 0)
(-0.68665557 5.1533707e-05 0)
(-0.72339447 0.0009398196 0)
(-0.75926206 0.0017910369 0)
(-0.79405647 0.0025996121 0)
(-0.82758244 0.0033604649 0)
(-0.85965452 0.0040692298 0)
(-0.89010015 0.0047223313 0)
(-0.91876243 0.0053171282 0)
(-0.94550266 0.0058519418 0)
(-0.97020242 0.006326061 0)
(-0.99276525 0.0067396821 0)
(-1.0131178 0.0070939083 0)
(-1.0312104 0.0073906773 0)
(-1.0470173 0.0076325543 0)
(-1.0605359 0.0078229112 0)
(-1.0717858 0.0079655766 0)
(-1.0808075 0.0080648182 0)
(-1.0876614 0.0081252808 0)
(-1.0924245 0.0081518946 0)
(-1.0951888 0.0081497941 0)
(-1.0960593 0.0081242796 0)
(-1.0951512 0.0080807642 0)
(-1.092588 0.0080247296 0)
(-1.0884993 0.0079617626 0)
(-1.0830192 0.0078974728 0)
(-1.0762812 0.0078374123 0)
(-1.0684304 0.0077872767 0)
(-1.0595699 0.0077516612 0)
(-1.0499549 0.0077381246 0)
(-1.0392622 0.0077365013 0)
(-1.0294186 0.0077902562 0)
(-1.0129634 0.0077382379 0)
(-0.34952874 -0.0092518594 0)
(-0.38544952 -0.0080449468 0)
(-0.42207703 -0.0067919983 0)
(-0.45912701 -0.0054836865 0)
(-0.49682488 -0.0044052005 0)
(-0.53500676 -0.0031165617 0)
(-0.57319657 -0.0018377967 0)
(-0.61131484 -0.00057878128 0)
(-0.64915862 0.00064872546 0)
(-0.68653828 0.0018378533 0)
(-0.72324973 0.0029808153 0)
(-0.75908888 0.0040699054 0)
(-0.79385428 0.005097844 0)
(-0.8273511 0.0060581361 0)
(-0.85939426 0.0069453167 0)
(-0.88981154 0.0077550794 0)
(-0.91844639 0.0084844071 0)
(-0.94516042 0.0091316185 0)
(-0.96983549 0.0096963725 0)
(-0.9923754 0.010179602 0)
(-1.012707 0.010583483 0)
(-1.0307809 0.010911344 0)
(-1.0465713 0.011167377 0)
(-1.0600757 0.011356847 0)
(-1.0713139 0.01148562 0)
(-1.0803264 0.011560128 0)
(-1.0871733 0.01158726 0)
(-1.0919317 0.011574216 0)
(-1.0946934 0.011528368 0)
(-1.0955632 0.011457181 0)
(-1.0946562 0.011368134 0)
(-1.0920957 0.01126862 0)
(-1.0880107 0.011165985 0)
(-1.0825351 0.011067409 0)
(-1.0758021 0.010979801 0)
(-1.0679564 0.010910094 0)
(-1.0590997 0.010863524 0)
(-1.0494897 0.01084959 0)
(-1.038791 0.010852941 0)
(-1.0289656 0.010944444 0)
(-1.0125159 0.010859281 0)
(-0.31459253 -0.011603699 0)
(-0.34961569 -0.010152418 0)
(-0.38551529 -0.0086518715 0)
(-0.42211961 -0.0070675079 0)
(-0.45919318 -0.0054717686 0)
(-0.49687552 -0.0040506035 0)
(-0.53499668 -0.0024735687 0)
(-0.57315797 -0.00090350569 0)
(-0.61124683 0.00064452049 0)
(-0.64905965 0.0021525521 0)
(-0.68640581 0.003610239 0)
(-0.72308183 0.0050071966 0)
(-0.75888414 0.006333656 0)
(-0.79361186 0.0075805874 0)
(-0.82707066 0.0087400759 0)
(-0.85907595 0.00980555 0)
(-0.88945601 0.010771983 0)
(-0.91805474 0.011635978 0)
(-0.94473415 0.012395852 0)
(-0.96937651 0.013051624 0)
(-0.99188596 0.013604967 0)
(-1.0121896 0.014059107 0)
(-1.0302384 0.014418718 0)
(-1.0460067 0.014689751 0)
(-1.0594921 0.014879201 0)
(-1.0707144 0.014994991 0)
(-1.0797141 0.015045704 0)
(-1.0865514 0.015040453 0)
(-1.0913032 0.014988692 0)
(-1.0940611 0.014900004 0)
(-1.0949297 0.014784002 0)
(-1.0940238 0.014650207 0)
(-1.0914664 0.0145079 0)
(-1.0873861 0.014366161 0)
(-1.0819164 0.014233707 0)
(-1.07519 0.014118777 0)
(-1.067351 0.014029432 0)
(-1.0584996 0.01397173 0)
(-1.0488966 0.013956161 0)
(-1.0381877 0.013965956 0)
(-1.0283915 0.014091324 0)
(-1.0119382 0.013992893 0)
(-0.3147265 -0.012738532 0)
(-0.34973641 -0.011015173 0)
(-0.3856081 -0.0092277491 0)
(-0.42219068 -0.0073432032 0)
(-0.4592814 -0.0054730892 0)
(-0.49694285 -0.0037355002 0)
(-0.53500839 -0.0018817664 0)
(-0.5731344 -3.717905e-05 0)
(-0.61118717 0.0017820687 0)
(-0.64896243 0.0035533311 0)
(-0.68626832 0.0052631884 0)
(-0.72290183 0.0068988 0)
(-0.75865992 0.0084484133 0)
(-0.79334232 0.0099013395 0)
(-0.8267553 0.01124832 0)
(-0.85871486 0.012481751 0)
(-0.88904986 0.013595913 0)
(-0.91760474 0.014587054 0)
(-0.94424206 0.015453488 0)
(-0.96884456 0.016195568 0)
(-0.99131682 0.016815659 0)
(-1.0115864 0.017317958 0)
(-1.0296043 0.01770833 0)
(-1.0453454 0.017994578 0)
(-1.0588073 0.018185107 0)
(-1.07001 0.018289804 0)
(-1.0789941 0.018319271 0)
(-1.0858195 0.01828469 0)
(-1.090563 0.018197618 0)
(-1.0933162 0.018069695 0)
(-1.0941832 0.017912531 0)
(-1.0932786 0.017737546 0)
(-1.0907251 0.01755578 0)
(-1.0866507 0.017377914 0)
(-1.0811886 0.01721406 0)
(-1.0744705 0.017073753 0)
(-1.0666404 0.016965747 0)
(-1.0577967 0.016898004 0)
(-1.0482027 0.016877364 0)
(-1.0374855 0.016902924 0)
(-1.0277218 0.017011025 0)
(-1.0112624 0.017028676 0)
(-0.31492142 -0.013827964 0)
(-0.34991407 -0.011846 0)
(-0.38575544 -0.0097743843 0)
(-0.42231646 -0.0076229408 0)
(-0.45941356 -0.0054866602 0)
(-0.4970485 -0.0034543598 0)
(-0.53505891 -0.0013338741 0)
(-0.5731423 0.0007723184 0)
(-0.61115024 0.0028488716 0)
(-0.64887874 0.0048696801 0)
(-0.68613465 0.0068186489 0)
(-0.72271541 0.0086806276 0)
(-0.75841862 0.010441984 0)
(-0.7930447 0.01209046 0)
(-0.82640063 0.013615534 0)
(-0.85830317 0.015008639 0)
(-0.88858186 0.016263388 0)
(-0.91708187 0.017375707 0)
(-0.9436664 0.018343908 0)
(-0.96821882 0.01916867 0)
(-0.99064425 0.01985299 0)
(-1.0108708 0.020402 0)
(-1.0288498 0.020822751 0)
(-1.0445564 0.02112449 0)
(-1.0579886 0.021317245 0)
(-1.0691665 0.021412672 0)
(-1.0781306 0.021423264 0)
(-1.0849409 0.021362138 0)
(-1.0896741 0.02124282 0)
(-1.0924214 0.021078886 0)
(-1.0932867 0.020883815 0)
(-1.0923843 0.020670797 0)
(-1.0898362 0.020452548 0)
(-1.0857702 0.020241215 0)
(-1.0803186 0.020048195 0)
(-1.0736127 0.019884281 0)
(-1.0657954 0.019758618 0)
(-1.0569649 0.019681784 0)
(-1.0473822 0.01965383 0)
(-1.036675 0.019701673 0)
(-1.0269213 0.019756577 0)
(-1.0104841 0.019978573 0)
(-0.31519144 -0.014959454 0)
(-0.35016038 -0.012704275 0)
(-0.38597003 -0.010346242 0)
(-0.42250801 -0.0079293018 0)
(-0.45959887 -0.0055185807 0)
(-0.49719939 -0.0031874748 0)
(-0.5351495 -0.00079237695 0)
(-0.57317996 0.0015828548 0)
(-0.61113099 0.0039226055 0)
(-0.64879971 0.0061984692 0)
(-0.68599178 0.0083917963 0)
(-0.72250527 0.010485184 0)
(-0.75813848 0.012463108 0)
(-0.79269269 0.014311721 0)
(-0.82597581 0.016019218 0)
(-0.85780547 0.01757605 0)
(-0.88801215 0.018975167 0)
(-0.91644188 0.020212162 0)
(-0.94295875 0.02128535 0)
(-0.96744691 0.022195748 0)
(-0.98981222 0.02294698 0)
(-1.0099834 0.023545145 0)
(-1.0279124 0.023998582 0)
(-1.0435747 0.024317658 0)
(-1.0569687 0.02451436 0)
(-1.0681147 0.024602045 0)
(-1.0770532 0.024595112 0)
(-1.0838442 0.024508622 0)
(-1.0885641 0.024358081 0)
(-1.0913041 0.024159025 0)
(-1.0921676 0.023926809 0)
(-1.0912684 0.023676396 0)
(-1.088728 0.023422212 0)
(-1.0846735 0.02317785 0)
(-1.0792365 0.022955993 0)
(-1.0725476 0.022768669 0)
(-1.0647484 0.022625473 0)
(-1.0559379 0.022539327 0)
(-1.0463699 0.022504429 0)
(-1.0356927 0.022572716 0)
(-1.0259271 0.02258522 0)
(-1.0095413 0.02299284 0)
(-0.2815006 -0.018563263 0)
(-0.31552319 -0.016135073 0)
(-0.35046408 -0.01359073 0)
(-0.3862428 -0.010953579 0)
(-0.42275404 -0.008265047 0)
(-0.4598268 -0.005572797 0)
(-0.49738483 -0.0029396041 0)
(-0.53526914 -0.00026271329 0)
(-0.57323669 0.0023884758 0)
(-0.61111942 0.0049970287 0)
(-0.64871593 0.007533226 0)
(-0.68583102 0.0099759452 0)
(-0.72226344 0.0123056 0)
(-0.75781233 0.014504765 0)
(-0.79227999 0.016557997 0)
(-0.82547537 0.018452194 0)
(-0.85721721 0.020176818 0)
(-0.88733709 0.021724154 0)
(-0.91568211 0.023089465 0)
(-0.94211739 0.024271065 0)
(-0.96652804 0.025270306 0)
(-0.98882083 0.026091461 0)
(-1.0089252 0.026741585 0)
(-1.0267939 0.027230275 0)
(-1.0424028 0.027569201 0)
(-1.0557508 0.027772127 0)
(-1.0668583 0.027854196 0)
(-1.075766 0.027831686 0)
(-1.0825338 0.027721626 0)
(-1.087238 0.027541492 0)
(-1.0899694 0.027308807 0)
(-1.0908311 0.027040795 0)
(-1.0899361 0.026754187 0)
(-1.0874055 0.026465127 0)
(-1.0833655 0.026188643 0)
(-1.0779469 0.025938711 0)
(-1.0712796 0.025728535 0)
(-1.0635033 0.025568327 0)
(-1.0547189 0.025472748 0)
(-1.0451691 0.025432508 0)
(-1.0345373 0.025516817 0)
(-1.024745 0.02550945 0)
(-1.0084289 0.026052046 0)
(-0.28190058 -0.020059622 0)
(-0.31590451 -0.017351411 0)
(-0.35081557 -0.014516204 0)
(-0.38656488 -0.011600535 0)
(-0.42304364 -0.0086337602 0)
(-0.46008689 -0.0056537032 0)
(-0.4975942 -0.0027154842 0)
(-0.53540697 0.00024957567 0)
(-0.573302 0.0031830558 0)
(-0.61110551 0.0060658809 0)
(-0.64861787 0.0088674898 0)
(-0.68564332 0.011564433 0)
(-0.72198143 0.014135018 0)
(-0.7574323 0.016559939 0)
(-0.79179938 0.018822156 0)
(-0.82489286 0.020907268 0)
(-0.85653274 0.022803752 0)
(-0.88655185 0.02450323 0)
(-0.91479856 0.026000632 0)
(-0.94113917 0.027294278 0)
(-0.96545992 0.028385854 0)
(-0.98766862 0.029280289 0)
(-1.0076956 0.029985586 0)
(-1.0254943 0.03051255 0)
(-1.0410414 0.030874324 0)
(-1.0543362 0.031086296 0)
(-1.0653992 0.031165443 0)
(-1.0742714 0.031129899 0)
(-1.0810126 0.030998672 0)
(-1.0856989 0.030791225 0)
(-1.0884207 0.030527017 0)
(-1.0892805 0.030225158 0)
(-1.088391 0.029904151 0)
(-1.0858721 0.029581766 0)
(-1.0818496 0.029274537 0)
(-1.076453 0.028997717 0)
(-1.0698114 0.028765627 0)
(-1.0620627 0.02858925 0)
(-1.0533099 0.028484447 0)
(-1.0437821 0.028440641 0)
(-1.0332071 0.028537089 0)
(-1.0233782 0.028526532 0)
(-1.0071431 0.029163887 0)
(-0.24936156 -0.024483368 0)
(-0.28234144 -0.021614871 0)
(-0.31632332 -0.018609373 0)
(-0.35120565 -0.01549054 0)
(-0.38692392 -0.012291744 0)
(-0.42336407 -0.009039933 0)
(-0.46036716 -0.0057661372 0)
(-0.4978156 -0.0025203443 0)
(-0.53555065 0.0007385251 0)
(-0.57336387 0.003960027 0)
(-0.61107775 0.0071223468 0)
(-0.64849451 0.010194228 0)
(-0.68541828 0.01315003 0)
(-0.72164951 0.015966034 0)
(-0.75698943 0.018621085 0)
(-0.79124276 0.021096563 0)
(-0.82422106 0.023376776 0)
(-0.85574576 0.025449217 0)
(-0.88565113 0.027304854 0)
(-0.91378691 0.028938289 0)
(-0.94002077 0.030347851 0)
(-0.96424023 0.031535558 0)
(-0.98635422 0.032506998 0)
(-1.0062941 0.033271116 0)
(-1.0240143 0.033839922 0)
(-1.0394919 0.03422803 0)
(-1.0527269 0.034452439 0)
(-1.0637401 0.034531926 0)
(-1.0725726 0.034486504 0)
(-1.0792842 0.034337133 0)
(-1.0839507 0.034105266 0)
(-1.0866621 0.033812253 0)
(-1.0875204 0.033479086 0)
(-1.0866374 0.033126043 0)
(-1.0841324 0.032772431 0)
(-1.0801301 0.032436319 0)
(-1.0747589 0.032134222 0)
(-1.068147 0.031881534 0)
(-1.0604301 0.031690122 0)
(-1.0517139 0.031576623 0)
(-1.0422119 0.031530956 0)
(-1.0317017 0.031636287 0)
(-1.0218295 0.031633348 0)
(-1.0056836 0.032335555 0)
(-0.24984596 -0.026374116 0)
(-0.28280882 -0.023225256 0)
(-0.31676762 -0.019922992 0)
(-0.35162385 -0.016519989 0)
(-0.38730669 -0.013032723 0)
(-0.4237018 -0.009488811 0)
(-0.46065472 -0.0059157408 0)
(-0.49803616 -0.0023599594 0)
(-0.53568689 0.0011978151 0)
(-0.57340931 0.0047124567 0)
(-0.6110236 0.0081591901 0)
(-0.64833388 0.011505958 0)
(-0.68514451 0.014725056 0)
(-0.72125699 0.017790809 0)
(-0.75647378 0.020680249 0)
(-0.79060102 0.0233732 0)
(-0.82345179 0.025852691 0)
(-0.85484907 0.028105247 0)
(-0.8846287 0.030121184 0)
(-0.91264199 0.031894786 0)
(-0.93875806 0.033424392 0)
(-0.96286584 0.034712357 0)
(-0.98487552 0.035764916 0)
(-1.0047196 0.036591956 0)
(-1.0223534 0.037206679 0)
(-1.0377548 0.037625154 0)
(-1.0509243 0.037865978 0)
(-1.0618831 0.037949698 0)
(-1.0706724 0.037898192 0)
(-1.0773518 0.037734343 0)
(-1.0819971 0.037481549 0)
(-1.0846975 0.037163063 0)
(-1.0855547 0.036801713 0)
(-1.0846796 0.036419519 0)
(-1.0821905 0.036037333 0)
(-1.078211 0.03567468 0)
(-1.0728684 0.035349337 0)
(-1.0662899 0.035077727 0)
(-1.0586088 0.034872687 0)
(-1.0499334 0.034751281 0)
(-1.040461 0.034705259 0)
(-1.0300212 0.034816685 0)
(-1.0201013 0.034828138 0)
(-1.0040517 0.035571409 0)
(-0.2184568 -0.031592949 0)
(-0.25034807 -0.028329939 0)
(-0.28329121 -0.024895486 0)
(-0.31722752 -0.021305618 0)
(-0.35205585 -0.017611533 0)
(-0.38769857 -0.013829468 0)
(-0.42404199 -0.0099864683 0)
(-0.46093546 -0.006108927 0)
(-0.49824184 -0.0022407285 0)
(-0.53580131 0.0016204933 0)
(-0.57342415 0.0054328854 0)
(-0.61092932 0.009168637 0)
(-0.64812278 0.012794687 0)
(-0.68480945 0.016281344 0)
(-0.72079204 0.019601042 0)
(-0.75587434 0.022729044 0)
(-0.78986406 0.025643643 0)
(-0.82257589 0.028326613 0)
(-0.85383453 0.030763524 0)
(-0.88347751 0.032944055 0)
(-0.9113578 0.034862179 0)
(-0.93734613 0.036516246 0)
(-0.96133294 0.037908946 0)
(-0.98322977 0.039047158 0)
(-1.0029703 0.039941694 0)
(-1.0205109 0.040606935 0)
(-1.0358302 0.041060378 0)
(-1.0489293 0.041322194 0)
(-1.0598297 0.041414674 0)
(-1.0685729 0.041361522 0)
(-1.0752182 0.041187511 0)
(-1.0798411 0.040917948 0)
(-1.0825305 0.040577951 0)
(-1.0833872 0.040192145 0)
(-1.0825213 0.039784241 0)
(-1.0800501 0.039376633 0)
(-1.0760961 0.038990252 0)
(-1.0707852 0.038644099 0)
(-1.0642436 0.038355591 0)
(-1.056602 0.038138563 0)
(-1.0479709 0.038010252 0)
(-1.0385318 0.037965085 0)
(-1.0281662 0.038080221 0)
(-1.0181959 0.038109824 0)
(-1.0022492 0.038874902 0)
(-0.21897009 -0.033909747 0)
(-0.2508534 -0.030359421 0)
(-0.28377896 -0.026641205 0)
(-0.31768997 -0.022763073 0)
(-0.35248622 -0.018771648 0)
(-0.38808376 -0.014688383 0)
(-0.42436886 -0.010539826 0)
(-0.46119413 -0.0063529425 0)
(-0.49841743 -0.0021698352 0)
(-0.53587846 0.0019990029 0)
(-0.57339317 0.0061133481 0)
(-0.61078008 0.010142427 0)
(-0.64784691 0.014051937 0)
(-0.68439945 0.017810261 0)
(-0.72024172 0.021387991 0)
(-0.75517901 0.024758665 0)
(-0.78902067 0.027899084 0)
(-0.82158316 0.030789789 0)
(-0.85269298 0.033415415 0)
(-0.88218946 0.035765021 0)
(-0.90992738 0.037832271 0)
(-0.93577916 0.039615535 0)
(-0.95963681 0.041117832 0)
(-0.98141333 0.042346672 0)
(-1.0010437 0.043313774 0)
(-1.0184852 0.044034681 0)
(-1.0337175 0.044528277 0)
(-1.0467421 0.044816283 0)
(-1.057581 0.044922689 0)
(-1.0662758 0.044872983 0)
(-1.0728856 0.044693784 0)
(-1.0774856 0.04441226 0)
(-1.0801642 0.044055345 0)
(-1.0810213 0.043649411 0)
(-1.0801661 0.04321981 0)
(-1.0777149 0.042790451 0)
(-1.0737889 0.042383611 0)
(-1.0685127 0.04201948 0)
(-1.0620111 0.041716417 0)
(-1.0544125 0.041489253 0)
(-1.0458288 0.041355201 0)
(-1.0364266 0.041311781 0)
(-1.0261373 0.041428585 0)
(-1.0161159 0.04147779 0)
(-1.0002785 0.042249378 0)
(-0.18874195 -0.039912481 0)
(-0.21947933 -0.03631018 0)
(-0.25135053 -0.032478366 0)
(-0.28425771 -0.028472061 0)
(-0.31813964 -0.024300817 0)
(-0.35289872 -0.020006882 0)
(-0.38844553 -0.015616544 0)
(-0.42466555 -0.011156654 0)
(-0.46141429 -0.0066558532 0)
(-0.49854658 -0.0021552076 0)
(-0.53590177 0.0023251009 0)
(-0.5733 0.0067452818 0)
(-0.61055986 0.011071735 0)
(-0.64749076 0.015268703 0)
(-0.68389963 0.019302678 0)
(-0.71959191 0.023142455 0)
(-0.75437449 0.026759892 0)
(-0.78805849 0.030130333 0)
(-0.82046224 0.03323312 0)
(-0.85141413 0.036051979 0)
(-0.88075542 0.038575357 0)
(-0.90834273 0.040796627 0)
(-0.9340503 0.042714173 0)
(-0.95777178 0.04433134 0)
(-0.97942168 0.045656251 0)
(-0.99893627 0.046701514 0)
(-1.016274 0.0474838 0)
(-1.0314153 0.048023341 0)
(-1.0443622 0.048343364 0)
(-1.0551373 0.048469516 0)
(-1.0637821 0.04842901 0)
(-1.0703556 0.048250255 0)
(-1.0749326 0.047962228 0)
(-1.0776009 0.047593617 0)
(-1.0784596 0.047172482 0)
(-1.0776169 0.046725759 0)
(-1.0751879 0.046278824 0)
(-1.0712925 0.04585524 0)
(-1.0660537 0.045476337 0)
(-1.059595 0.045161368 0)
(-1.0520426 0.044926098 0)
(-1.043509 0.044787606 0)
(-1.0341473 0.044746534 0)
(-1.0239356 0.044863286 0)
(-1.0138637 0.044931866 0)
(-0.99814176 0.045698088 0)
(-0.18923505 -0.042679402 0)
(-0.21997128 -0.038805092 0)
(-0.25182675 -0.034693178 0)
(-0.28471187 -0.030394709 0)
(-0.31856026 -0.025925466 0)
(-0.35327639 -0.02132456 0)
(-0.38876627 -0.016621858 0)
(-0.42491428 -0.011845554 0)
(-0.46157839 -0.0070265579 0)
(-0.49861173 -0.002205609 0)
(-0.53585356 0.0025898125 0)
(-0.5731271 0.0073194855 0)
(-0.61025145 0.011947151 0)
(-0.64703764 0.01643543 0)
(-0.68329391 0.020748954 0)
(-0.71882725 0.024854755 0)
(-0.75344629 0.028723063 0)
(-0.78696398 0.032327807 0)
(-0.8192006 0.03564716 0)
(-0.84998655 0.038663963 0)
(-0.87916507 0.041366074 0)
(-0.90659473 0.043746579 0)
(-0.93215162 0.04580388 0)
(-0.9557311 0.047541633 0)
(-0.97724925 0.04896856 0)
(-0.99664364 0.050098124 0)
(-1.0138738 0.050948091 0)
(-1.0289212 0.051539989 0)
(-1.0417883 0.051898508 0)
(-1.052498 0.052050885 0)
(-1.061092 0.052025999 0)
(-1.067629 0.051853988 0)
(-1.0721835 0.051565564 0)
(-1.0748424 0.0511911 0)
(-1.0757042 0.050760281 0)
(-1.0748759 0.050301561 0)
(-1.0724713 0.049841714 0)
(-1.0686091 0.049405533 0)
(-1.0634105 0.049015427 0)
(-1.0569977 0.048691479 0)
(-1.0494944 0.048450306 0)
(-1.0410133 0.048308775 0)
(-1.0316955 0.048270426 0)
(-1.021562 0.048385712 0)
(-1.0114417 0.048472321 0)
(-0.99584137 0.049224162 0)
(-0.16012492 -0.049479235 0)
(-0.18970099 -0.045556631 0)
(-0.2204318 -0.041405422 0)
(-0.2522674 -0.037010537 0)
(-0.28512533 -0.03241657 0)
(-0.31893476 -0.027644925 0)
(-0.35360136 -0.022732895 0)
(-0.38902745 -0.017713149 0)
(-0.42509623 -0.012615927 0)
(-0.46166768 -0.0074747324 0)
(-0.49859411 -0.0023306022 0)
(-0.53571494 0.0027834168 0)
(-0.57285574 0.0078260849 0)
(-0.60983639 0.012758649 0)
(-0.64646955 0.017541999 0)
(-0.68256491 0.022138925 0)
(-0.71793113 0.026514743 0)
(-0.75237861 0.030638096 0)
(-0.78572228 0.034481542 0)
(-0.81778444 0.038022125 0)
(-0.84839753 0.041241827 0)
(-0.87740688 0.044127936 0)
(-0.90467304 0.046673257 0)
(-0.930074 0.048876206 0)
(-0.95350688 0.050740741 0)
(-0.9748893 0.052276156 0)
(-0.99416023 0.053496735 0)
(-1.0112803 0.054421292 0)
(-1.0262317 0.055072602 0)
(-1.0390178 0.055476753 0)
(-1.0496615 0.055662506 0)
(-1.0582046 0.055660331 0)
(-1.0647057 0.055502026 0)
(-1.0692386 0.055219958 0)
(-1.0718897 0.054846104 0)
(-1.0727564 0.054411696 0)
(-1.0719446 0.053946636 0)
(-1.069567 0.053479023 0)
(-1.0657405 0.053034808 0)
(-1.0605849 0.052637407 0)
(-1.0542207 0.052307672 0)
(-1.0467693 0.052062956 0)
(-1.0383429 0.051919884 0)
(-1.0290726 0.051884482 0)
(-1.0190176 0.051997191 0)
(-1.0088522 0.052099816 0)
(-0.99337941 0.052830618 0)
(-0.16054748 -0.052738676 0)
(-0.19012569 -0.048553374 0)
(-0.22084578 -0.044121339 0)
(-0.25265666 -0.039439399 0)
(-0.28548118 -0.03454648 0)
(-0.31924518 -0.029468233 0)
(-0.35385486 -0.024241153 0)
(-0.38920963 -0.018900153 0)
(-0.42519157 -0.013478004 0)
(-0.46166225 -0.0080108533 0)
(-0.49847374 -0.0025405793 0)
(-0.5354658 0.0028954203 0)
(-0.57246593 0.0082544976 0)
(-0.60929498 0.013495559 0)
(-0.64576724 0.018577694 0)
(-0.68169397 0.023461887 0)
(-0.71688557 0.028111774 0)
(-0.75115434 0.032494464 0)
(-0.78431722 0.036581187 0)
(-0.8161986 0.040347896 0)
(-0.84663305 0.043775745 0)
(-0.87546798 0.046851465 0)
(-0.902566 0.049567591 0)
(-0.92780701 0.051922548 0)
(-0.95108991 0.053920574 0)
(-0.97233389 0.055571507 0)
(-0.99147926 0.056890414 0)
(-1.0084878 0.057897105 0)
(-1.0233425 0.058615535 0)
(-1.0360471 0.059073128 0)
(-1.0466251 0.059300081 0)
(-1.0551181 0.059328386 0)
(-1.0615845 0.059191415 0)
(-1.0660974 0.058923092 0)
(-1.0687426 0.058556918 0)
(-1.0696165 0.058125587 0)
(-1.0688237 0.057660366 0)
(-1.0664756 0.057190594 0)
(-1.0626876 0.056743308 0)
(-1.0575778 0.056342851 0)
(-1.0512649 0.056010767 0)
(-1.0438682 0.055765027 0)
(-1.0354988 0.055622005 0)
(-1.0262794 0.05558971 0)
(-1.0163033 0.055699043 0)
(-1.0060968 0.055815362 0)
(-0.99075764 0.056520383 0)
(-0.16092061 -0.056132905 0)
(-0.19049448 -0.05167993 0)
(-0.22119745 -0.046963639 0)
(-0.2529776 -0.041990149 0)
(-0.2857615 -0.036794577 0)
(-0.31947258 -0.031405601 0)
(-0.35401716 -0.025859659 0)
(-0.3892924 -0.020193593 0)
(-0.42517941 -0.01444285 0)
(-0.461541 -0.0086461907 0)
(-0.49822935 -0.0028467471 0)
(-0.53508476 0.0029145559 0)
(-0.57193637 0.0085934236 0)
(-0.60860616 0.014146551 0)
(-0.64491006 0.019531202 0)
(-0.68066099 0.024706592 0)
(-0.7156712 0.029634719 0)
(-0.74975493 0.034281212 0)
(-0.78273119 0.038616018 0)
(-0.81442651 0.042614038 0)
(-0.84467763 0.046255624 0)
(-0.87333408 0.04952697 0)
(-0.90026053 0.052420345 0)
(-0.92533881 0.054934171 0)
(-0.94846959 0.05707295 0)
(-0.96957362 0.058847025 0)
(-0.98859255 0.060272198 0)
(-1.0054892 0.061369217 0)
(-1.0202474 0.062163149 0)
(-1.0328714 0.062682673 0)
(-1.0433849 0.062959334 0)
(-1.0518294 0.063026563 0)
(-1.058263 0.062919213 0)
(-1.0627582 0.062672659 0)
(-1.0654 0.062321833 0)
(-1.0662837 0.061900802 0)
(-1.0655128 0.061442102 0)
(-1.063197 0.060976229 0)
(-1.0594504 0.060531217 0)
(-1.0543893 0.060132255 0)
(-1.0481306 0.059801501 0)
(-1.0407913 0.059557418 0)
(-1.0324812 0.059416142 0)
(-1.0233165 0.059387144 0)
(-1.0134196 0.059492619 0)
(-1.0031772 0.059620263 0)
(-0.98797736 0.060296308 0)
(-0.16123001 -0.059673642 0)
(-0.19079191 -0.054947955 0)
(-0.22147019 -0.049943834 0)
(-0.25321238 -0.044674292 0)
(-0.28594741 -0.03917217 0)
(-0.31959707 -0.033468399 0)
(-0.35406755 -0.027599882 0)
(-0.38925433 -0.021605182 0)
(-0.42503776 -0.015522416 0)
(-0.46128162 -0.0093928439 0)
(-0.49783842 -0.0032611518 0)
(-0.53454915 0.0028287636 0)
(-0.57124443 0.0088308213 0)
(-0.60774751 0.014699616 0)
(-0.64387597 0.020390589 0)
(-0.67944448 0.025861231 0)
(-0.71426717 0.031071952 0)
(-0.74816032 0.035986948 0)
(-0.78094504 0.040574934 0)
(-0.81245004 0.044809793 0)
(-0.84251423 0.048671108 0)
(-0.87098931 0.052144549 0)
(-0.89774197 0.055222118 0)
(-0.92265598 0.057902226 0)
(-0.94563375 0.060189607 0)
(-0.96659758 0.062095073 0)
(-0.98549039 0.063635105 0)
(-1.002276 0.064831321 0)
(-1.0169391 0.065709824 0)
(-1.0294842 0.066300459 0)
(-1.0399353 0.066636024 0)
(-1.0483339 0.0667513 0)
(-1.0547374 0.066682513 0)
(-1.0592178 0.066466371 0)
(-1.0618593 0.06613915 0)
(-1.062756 0.065736181 0)
(-1.0620101 0.065291177 0)
(-1.05973 0.064835692 0)
(-1.0560279 0.064398671 0)
(-1.0510185 0.064006058 0)
(-1.0448169 0.063680545 0)
(-1.0375379 0.063440974 0)
(-1.0292896 0.063303269 0)
(-1.0201836 0.06327787 0)
(-1.0103666 0.063379328 0)
(-1.0000939 0.063516076 0)
(-0.98503922 0.064161182 0)
(-0.13306035 -0.068062447 0)
(-0.1614607 -0.063373499 0)
(-0.19100181 -0.058370132 0)
(-0.22164661 -0.053074462 0)
(-0.25334224 -0.047504412 0)
(-0.28601908 -0.041691751 0)
(-0.31959777 -0.035669179 0)
(-0.35398431 -0.029474424 0)
(-0.38907295 -0.023147669 0)
(-0.42474352 -0.016729573 0)
(-0.46086058 -0.010263766 0)
(-0.49727711 -0.0037966801 0)
(-0.53383496 0.0026251894 0)
(-0.57036609 0.0089539089 0)
(-0.60669518 0.015142066 0)
(-0.64264145 0.021143309 0)
(-0.67802139 0.026913451 0)
(-0.71265109 0.032411362 0)
(-0.74634887 0.037599861 0)
(-0.77893802 0.042446474 0)
(-0.81024941 0.04692411 0)
(-0.84012417 0.051011603 0)
(-0.8684161 0.054694114 0)
(-0.89499395 0.057963376 0)
(-0.91974338 0.060817771 0)
(-0.9425685 0.063262236 0)
(-0.9633931 0.065307998 0)
(-0.98216133 0.066972162 0)
(-0.99883801 0.068277141 0)
(-1.0134084 0.069249985 0)
(-1.0258775 0.069921612 0)
(-1.0362695 0.07032597 0)
(-1.0446254 0.070499092 0)
(-1.0510024 0.070478451 0)
(-1.0554717 0.070301981 0)
(-1.0581166 0.070007195 0)
(-1.0590299 0.069630581 0)
(-1.0583127 0.069206921 0)
(-1.0560717 0.06876873 0)
(-1.0524176 0.068345772 0)
(-1.0474633 0.067964658 0)
(-1.041322 0.067648532 0)
(-1.0341065 0.067416521 0)
(-1.0259227 0.067284367 0)
(-1.0168794 0.067263051 0)
(-1.0071433 0.067360666 0)
(-0.99684691 0.067504567 0)
(-0.98194308 0.068117751 0)
(-0.13321661 -0.072204696 0)
(-0.16159719 -0.067245943 0)
(-0.19110729 -0.061960144 0)
(-0.22170851 -0.056369094 0)
(-0.25334758 -0.050494176 0)
(-0.28595573 -0.04436695 0)
(-0.31945282 -0.038021629 0)
(-0.35374468 -0.031497001 0)
(-0.38872471 -0.024834823 0)
(-0.42427244 -0.018078129 0)
(-0.4602531 -0.011272783 0)
(-0.4965203 -0.0044670693 0)
(-0.53291679 0.0022901798 0)
(-0.56927592 0.0089491585 0)
(-0.60542381 0.015460532 0)
(-0.64118141 0.021776197 0)
(-0.67636708 0.027850341 0)
(-0.71079888 0.03364035 0)
(-0.74429725 0.039107716 0)
(-0.77668762 0.044218825 0)
(-0.80780307 0.048945644 0)
(-0.83748691 0.053266283 0)
(-0.86559504 0.057165402 0)
(-0.89199823 0.06063446 0)
(-0.91658397 0.063671788 0)
(-0.93925803 0.066282484 0)
(-0.9599456 0.068478143 0)
(-0.978592 0.070276419 0)
(-0.99516294 0.071700441 0)
(-1.0096443 0.072778115 0)
(-1.0220414 0.073541325 0)
(-1.0323782 0.074025064 0)
(-1.0406958 0.074266497 0)
(-1.0470507 0.074304224 0)
(-1.0515133 0.074177294 0)
(-1.0541659 0.073924334 0)
(-1.0551003 0.073582878 0)
(-1.0544159 0.073188672 0)
(-1.0522181 0.072775084 0)
(-1.0486158 0.07237261 0)
(-1.0437202 0.072008435 0)
(-1.0376427 0.071706084 0)
(-1.030494 0.071484887 0)
(-1.022378 0.071360448 0)
(-1.0134019 0.071343947 0)
(-1.0037481 0.071438224 0)
(-0.99343506 0.071587678 0)
(-0.97868772 0.07216872 0)
(-0.080029351 -0.085928698 0)
(-0.10607086 -0.081416335 0)
(-0.13327406 -0.076538448 0)
(-0.16162347 -0.071305438 0)
(-0.19109091 -0.065732736 0)
(-0.22163697 -0.059842387 0)
(-0.253208 -0.053658337 0)
(-0.28573568 -0.047212524 0)
(-0.31913941 -0.04054055 0)
(-0.35332486 -0.033682416 0)
(-0.38818494 -0.026681434 0)
(-0.42359908 -0.019582838 0)
(-0.45943315 -0.012434604 0)
(-0.49554149 -0.0052868982 0)
(-0.53176785 0.0018092943 0)
(-0.56794698 0.0088023127 0)
(-0.60390653 0.015640978 0)
(-0.6394692 0.02227549 0)
(-0.67445524 0.028658464 0)
(-0.70868476 0.034745857 0)
(-0.7419803 0.040497887 0)
(-0.77416947 0.045879841 0)
(-0.80508754 0.050862781 0)
(-0.83457996 0.055424112 0)
(-0.86250472 0.059547998 0)
(-0.88873452 0.06322561 0)
(-0.91315864 0.0664552 0)
(-0.9356844 0.069241985 0)
(-0.95623835 0.071597865 0)
(-0.97476688 0.073540969 0)
(-0.99123647 0.075095052 0)
(-1.0056335 0.076288773 0)
(-1.0179635 0.077154873 0)
(-1.0282505 0.077729278 0)
(-1.0365351 0.078050155 0)
(-1.0428731 0.078157108 0)
(-1.0473342 0.078090177 0)
(-1.0499997 0.077888983 0)
(-1.05096 0.077591987 0)
(-1.0503131 0.077235789 0)
(-1.048163 0.076854509 0)
(-1.0446168 0.076479276 0)
(-1.0397839 0.07613777 0)
(-1.0337741 0.075853829 0)
(-1.026696 0.07564693 0)
(-1.0186515 0.075532587 0)
(-1.0097474 0.075521919 0)
(-1.0001779 0.075613699 0)
(-0.98985583 0.075767498 0)
(-0.97527063 0.076316774 0)
(-0.055163048 -0.095359676 0)
(-0.080027453 -0.090984471 0)
(-0.10604726 -0.08622206 0)
(-0.13321778 -0.081079324 0)
(-0.161523 -0.07556762 0)
(-0.19093459 -0.069703661 0)
(-0.22141234 -0.063510025 0)
(-0.25290231 -0.057012663 0)
(-0.28533641 -0.050244264 0)
(-0.31863379 -0.043241765 0)
(-0.35270004 -0.036046474 0)
(-0.38742788 -0.028703248 0)
(-0.42269682 -0.021259363 0)
(-0.45837343 -0.013764787 0)
(-0.49431284 -0.0062715563 0)
(-0.53035993 0.0011673356 0)
(-0.56635086 0.0084984138 0)
(-0.60211486 0.015668731 0)
(-0.63747644 0.02262685 0)
(-0.6722578 0.029323871 0)
(-0.70628109 0.035714379 0)
(-0.73937097 0.041757368 0)
(-0.77135724 0.047417067 0)