/*--------------------------------*- C++ -*----------------------------------*\
| =========                 |                                                 |
| \\      /  F ield         | OpenFOAM: The Open Source CFD Toolbox           |
|  \\    /   O peration     | Version:  2312                                  |
|   \\  /    A nd           | Website:  www.openfoam.com                      |
|    \\/     M anipulation  |                                                 |
\*---------------------------------------------------------------------------*/
FoamFile
{
    version     2.0;
    format      ascii;
    arch        "LSB;label=32;scalar=64";
    class       volScalarField;
    location    "0.07";
    object      alphat;
}
// * * * * * * * * * * * * * * * * * * * * * * * * * * * * * * * * * * * * * //

dimensions      [1 -1 -1 0 0 0 0];

internalField   nonuniform List<scalar> 
3224
(
0.050858544
0.051592811
0.052330881
0.053072503
0.053817448
0.054565492
0.055316422
0.056070033
0.056826132
0.057584539
0.058345086
0.05910762
0.059872002
0.060638111
0.061405839
0.062175092
0.062945754
0.063717763
0.064491077
0.065265671
0.066041535
0.066818678
0.067597121
0.068376904
0.069158077
0.069940707
0.07072487
0.071510652
0.072298148
0.073087458
0.073878685
0.074671932
0.075467303
0.076264896
0.077064805
0.077867116
0.078671903
0.079479238
0.080289139
0.081101737
0.081916597
0.050859593
0.051593972
0.052332112
0.053073769
0.05381873
0.054566779
0.055317707
0.05607131
0.056827397
0.057585789
0.058346319
0.059108833
0.059873195
0.060639281
0.061406984
0.062176212
0.062946846
0.063718827
0.064492112
0.065266675
0.066042509
0.06681962
0.067598031
0.068377781
0.069158922
0.069941519
0.07072565
0.071511402
0.072298868
0.073088149
0.073879349
0.074672571
0.075467918
0.07626549
0.077065379
0.077867671
0.07867244
0.079479757
0.080289639
0.081102214
0.081917028
0.050861909
0.051596378
0.052334543
0.053076196
0.053821135
0.054569153
0.055320042
0.056073601
0.056829639
0.057587978
0.058348452
0.059110908
0.059875207
0.060641229
0.061408866
0.062178025
0.062948587
0.063720494
0.064493704
0.06526819
0.066043944
0.066820974
0.067599304
0.068378971
0.06916003
0.069942545
0.070726594
0.071512265
0.072299652
0.073088857
0.073879983
0.074673134
0.075468414
0.076265921
0.077065749
0.077867984
0.078672698
0.079479961
0.08028979
0.081102312
0.081917041
0.05086551
0.051600027
0.052338167
0.053079773
0.053824653
0.054572602
0.055323415
0.056076893
0.056832845
0.057591094
0.058351472
0.059113829
0.059878027
0.060643942
0.061411469
0.062180516
0.062950963
0.063722752
0.064495839
0.065270201
0.066045828
0.066822729
0.067600928
0.068380463
0.069161389
0.069943771
0.070727688
0.071513229
0.072300488
0.073089568
0.073880573
0.074673608
0.075468776
0.076266177
0.077065904
0.077868043
0.078672665
0.079479839
0.080289581
0.081102019
0.081916632
0.050139816
0.050870495
0.051604919
0.052342976
0.053084493
0.053829274
0.054577118
0.055327818
0.056081177
0.056837006
0.057595126
0.058355371
0.05911759
0.059881644
0.060647412
0.061414787
0.062183677
0.062953965
0.06372559
0.06449851
0.0652727
0.066048153
0.066824876
0.067602894
0.068382247
0.06916299
0.069945189
0.070728925
0.071514286
0.072301368
0.073090276
0.073881113
0.074673986
0.075469
0.076266252
0.077065838
0.077867841
0.078672334
0.079479385
0.080289005
0.08110133
0.081915796
0.050146123
0.050876425
0.051610696
0.052348627
0.053090019
0.053834671
0.054582379
0.055332939
0.056086151
0.056841828
0.057599791
0.058359873
0.059121925
0.059885806
0.060651396
0.061418587
0.06218729
0.062957386
0.063728814
0.064501533
0.065275517
0.06605076
0.066827269
0.067605071
0.068384206
0.069164729
0.069946709
0.070730226
0.071515371
0.072302241
0.073090941
0.073881576
0.074674255
0.07546908
0.076266153
0.077065568
0.077867407
0.078671743
0.079478644
0.080288115
0.081100307
0.081914601
0.050152993
0.050883084
0.051617178
0.052354952
0.053096191
0.053840689
0.054588239
0.055338636
0.05609168
0.056847182
0.057604965
0.058364862
0.059126722
0.059890408
0.060655795
0.061422778
0.062191267
0.062961146
0.063732351
0.064504841
0.065278592
0.066053597
0.066829865
0.067607422
0.068386309
0.069166584
0.069948315
0.070731584
0.071516484
0.072303113
0.073091577
0.073881983
0.074674439
0.075469052
0.076265921
0.07706514
0.077866793
0.078670951
0.079477678
0.080286983
0.081099011
0.081913135
0.050161064
0.050890984
0.051624865
0.052362442
0.05310349
0.053847798
0.054595153
0.05534535
0.05609819
0.056853481
0.057611047
0.058370721
0.059132352
0.059895801
0.060660946
0.061427679
0.062195912
0.06296553
0.063736468
0.064508685
0.065282157
0.066056877
0.066832855
0.067610119
0.06838871
0.069168687
0.06995012
0.070733093
0.071517699
0.07230404
0.073092221
0.073882352
0.074674543
0.0754689
0.076265525
0.07706451
0.07786594
0.078669884
0.079476405
0.08028551
0.081097338
0.081911273
0.049445063
0.050170565
0.050900218
0.051633842
0.052371179
0.053111996
0.053856074
0.054603197
0.055353156
0.056105752
0.056860793
0.057618102
0.058377513
0.059138872
0.059902042
0.0606669
0.061433339
0.06220127
0.062970581
0.063741204
0.064513099
0.065286242
0.066060627
0.066836264
0.067613183
0.068391426
0.069171052
0.069952135
0.070734759
0.071519019
0.07230502
0.073092868
0.073882676
0.074674554
0.07546861
0.076264946
0.077063657
0.077864824
0.078668517
0.079474796
0.080283668
0.08109526
0.081908977
0.049456544
0.050181557
0.050910878
0.0516442
0.052381254
0.053121799
0.053865605
0.054612453
0.055362134
0.056114444
0.056869193
0.057626201
0.058385304
0.059146347
0.059909192
0.060673716
0.061439813
0.062207392
0.062976345
0.063746602
0.064518123
0.065290883
0.066064879
0.06684012
0.067616638
0.068394475
0.069173695
0.06995437
0.070736588
0.071520448
0.072306053
0.073093515
0.073882947
0.074674462
0.075468168
0.07626417
0.077062561
0.077863424
0.078666826
0.079472825
0.080281427
0.081092745
0.081906211
0.048750043
0.049469566
0.050194119
0.05092306
0.051656036
0.052392764
0.05313299
0.05387648
0.054623011
0.055372367
0.056124347
0.056878758
0.05763542
0.058394167
0.059154846
0.059917317
0.060681457
0.061447159
0.062214333
0.062982875
0.06375271
0.0645238
0.065296121
0.066069668
0.066844454
0.06762051
0.068397882
0.069176633
0.06995684
0.070738592
0.071521989
0.07230714
0.073094158
0.073883158
0.074674255
0.07546756
0.076263177
0.077061201
0.077861714
0.078664782
0.07947046
0.080278754
0.081089758
0.081902937
0.048765125
0.049484251
0.050208344
0.050936866
0.051669453
0.052405808
0.053145671
0.053888799
0.054634964
0.055383949
0.05613555
0.056889574
0.05764584
0.058404181
0.059164442
0.059926486
0.060690187
0.061455439
0.062222151
0.062990223
0.063759578
0.064530176
0.065301995
0.066075031
0.066849298
0.067624827
0.068401668
0.069179886
0.069959558
0.070740779
0.07152365
0.072308283
0.073094794
0.073883301
0.074673921
0.075466769
0.076261948
0.077059554
0.07785967
0.078662358
0.079467671
0.080275613
0.081086263
0.081899114
0.048068682
0.048782024
0.049500722
0.05022434
0.050952407
0.05168456
0.052420497
0.053159947
0.053902663
0.054648412
0.055396976
0.056148147
0.056901731
0.057657547
0.058415427
0.059175216
0.059936774
0.060699978
0.06146472
0.062230909
0.062998448
0.063767258
0.0645373
0.06530855
0.066081007
0.066854686
0.06762962
0.06840586
0.069183473
0.069962541
0.070743159
0.071525435
0.072309481
0.073095418
0.073883368
0.074673449
0.075465779
0.076260462
0.077057596
0.077857262
0.078659522
0.079464422
0.080271968
0.081082218
0.081894698
0.048087931
0.048800871
0.049519107
0.050242226
0.050969801
0.051701476
0.052436945
0.053175931
0.053918183
0.054663464
0.055411551
0.056162237
0.056915325
0.057670634
0.058427994
0.05918725
0.059948263
0.060710907
0.061475074
0.062240673
0.063007613
0.06377581
0.064545224
0.065315835
0.066087641
0.066860657
0.067634921
0.068410484
0.069187416
0.069965804
0.070745745
0.07152735
0.072310736
0.073096028
0.07388335
0.074672825
0.075464571
0.076258698
0.077055301
0.077854461
0.078656239
0.079460677
0.080267778
0.081077583
0.081889645
0.047402463
0.048109317
0.048821807
0.049539542
0.05026213
0.050989175
0.051720326
0.052455276
0.053193746
0.053935478
0.054680233
0.055427786
0.056177928
0.05693046
0.0576852
0.058441978
0.059200637
0.059961038
0.060723054
0.061486577
0.062251516
0.063017784
0.063785294
0.064554006
0.0653239
0.066094976
0.066867252
0.067640765
0.06841557
0.069191741
0.069969366
0.070748549
0.071529403
0.07231205
0.073096619
0.073883238
0.074672035
0.075463129
0.076256632
0.077052641
0.077851235
0.078652475
0.079456397
0.080263002
0.08107231
0.081883905
0.047426575
0.048132983
0.048844977
0.049562173
0.050284196
0.051010667
0.051741246
0.052475624
0.05321352
0.053954674
0.054698843
0.055445801
0.056195335
0.056947247
0.057701352
0.058457479
0.059215473
0.059975191
0.060736508
0.061499313
0.062263516
0.063029034
0.063795777
0.064563707
0.065332802
0.066103065
0.066874514
0.06764719
0.06842115
0.069196472
0.069973248
0.070751585
0.071531602
0.072313426
0.073097189
0.073883025
0.074671064
0.075461431
0.076254239
0.077049586
0.077847551
0.078648192
0.079451541
0.080257594
0.081066352
0.081877428
0.046753262
0.047453182
0.048159091
0.048870543
0.049587158
0.050308573
0.051034425
0.051764379
0.052498129
0.053235392
0.053975906
0.054719425
0.055465721
0.056214581
0.056965803
0.057719203
0.058474609
0.059231863
0.059990823
0.060751362
0.061513371
0.062276756
0.063041441
0.063807333
0.064574393
0.065342602
0.066111961
0.066882492
0.067654238
0.068427261
0.06920164
0.069977472
0.07075487
0.071533957
0.072314866
0.073097734
0.0738827
0.0746699
0.075459459
0.076251495
0.077046107
0.077843373
0.078643349
0.079446062
0.080251505
0.081059657
0.081870159
0.046783028
0.047482437
0.04818781
0.048898675
0.049614664
0.050335426
0.051060608
0.051789882
0.052522944
0.053259511
0.053999318
0.05474212
0.055487684
0.056235797
0.056986257
0.057738877
0.058493483
0.059249919
0.06000804
0.060767719
0.061528846
0.062291327
0.063055088
0.063820039
0.064586136
0.065353363
0.066121723
0.066891238
0.067661956
0.06843394
0.069207276
0.069982064
0.070758423
0.071536481
0.072316377
0.073098255
0.073882258
0.074668526
0.075457192
0.076248373
0.07704217
0.077838662
0.078637903
0.079439914
0.080244683
0.08105217
0.08186204
0.046815561
0.047514523
0.048219327
0.048929559
0.049644872
0.05036493
0.051089386
0.051817921
0.052550232
0.053286035
0.054025066
0.054767078
0.055511836
0.056259126
0.057008745
0.057760504
0.058514229
0.059269761
0.060026957
0.060785688
0.061545842
0.062307327
0.063070068
0.063833979
0.064599015
0.065365158
0.066132415
0.06690081
0.067670393
0.068441231
0.069213415
0.069987052
0.070762264
0.071539187
0.072317965
0.073098749
0.073881689
0.07466693
0.075454608
0.076244844
0.077037741
0.077833378
0.078631805
0.079433042
0.080237069
0.08104383
0.081853011
0.046851168
0.047549665
0.048253847
0.048963391
0.049677975
0.050397272
0.051120943
0.051848675
0.052580167
0.053315135
0.054053316
0.05479446
0.055538334
0.056284719
0.057033413
0.057784225
0.058536981
0.05929152
0.060047698
0.060805386
0.06156447
0.062324859
0.063086477
0.063849245
0.064613113
0.065378064
0.066144107
0.066911269
0.067679603
0.068449181
0.069220099
0.069992467
0.070766417
0.07154209
0.072319639
0.073099219
0.073880988
0.074665097
0.075451686
0.07624088
0.077032784
0.077827475
0.078625004
0.079425386
0.0802286
0.08103457
0.081843005
0.046198227
0.046890239
0.047588105
0.048291591
0.049000386
0.04971418
0.050432653
0.051155475
0.051882335
0.052612935
0.053346993
0.054084245
0.05482444
0.055567345
0.056312739
0.057060418
0.057810193
0.058561885
0.059315335
0.060070397
0.06082694
0.061584851
0.062344037
0.063104422
0.063865936
0.064628522
0.065392165
0.066156875
0.066922684
0.067689647
0.068457842
0.069227369
0.069998346
0.07077091
0.071545211
0.072321408
0.073099666
0.073880149
0.074663013
0.075448404
0.07623645
0.077027256
0.077820902
0.078617436
0.079416875
0.080219195
0.081024312
0.081831951
0.046241693
0.046932951
0.047630081
0.048332792
0.049040769
0.049753707
0.05047129
0.051193192
0.051919107
0.052648738
0.053381805
0.054118044
0.054857203
0.055599049
0.05634336
0.05708993
0.057838568
0.058589098
0.059341356
0.060095196
0.060850486
0.061607113
0.062364983
0.06312402
0.063884159
0.06464534
0.065407551
0.066170803
0.06693513
0.067700592
0.068467271
0.069235274
0.070004727
0.070775773
0.07154857
0.072323287
0.073100095
0.073879166
0.074660664
0.075444737
0.076231518
0.077021113
0.077813599
0.078609028
0.079407418
0.080208756
0.081012956
0.081819768
0.044927942
0.045604952
0.04628911
0.046979534
0.047675837
0.048377695
0.049084783
0.049796793
0.050513412
0.05123432
0.05195921
0.05268779
0.05341978
0.054154917
0.054892948
0.055633639
0.056376768
0.057122129
0.057869528
0.058618787
0.059369744
0.060122249
0.060876172
0.061631397
0.062387829
0.063145393
0.063904029
0.064663676
0.065424322
0.066185979
0.066948686
0.067712508
0.068477531
0.069243869
0.070011655
0.070781041
0.071552195
0.072325292
0.073100513
0.073878038
0.074658037
0.075440663
0.076226048
0.0770143
0.077805494
0.078599682
0.079396895
0.08019714
0.081000365
0.081806355
0.044311678
0.044981057
0.045657459
0.046340708
0.047030235
0.047725634
0.048426563
0.049132684
0.049843689
0.050559267
0.051279098
0.05200288
0.052730321
0.053461144
0.054195083
0.054931888
0.055671323
0.056413166
0.057157209
0.057903258
0.058651134
0.059400672
0.060151724
0.060904156
0.061657853
0.062412718
0.063168676
0.063925672
0.064683646
0.065442585
0.066202503
0.066963444
0.067725475
0.068488692
0.069253213
0.07001918
0.070786755
0.071556113
0.072327441
0.073100929
0.073876763
0.074655118
0.075436152
0.076219997
0.077006754
0.077796495
0.07858927
0.079385129
0.080184135
0.080986325
0.081791578
0.044370116
0.045038761
0.045714411
0.04639675
0.047085327
0.047779751
0.048479671
0.049184746
0.049894666
0.050609118
0.051327787
0.05205037
0.052776579
0.053506136
0.054238777
0.054974252
0.055712323
0.056452769
0.05719538
0.057939961
0.058686332
0.059434328
0.060183798
0.060934609
0.061686643
0.062439804
0.063194015
0.063949225
0.064705377
0.065462457
0.066220482
0.066979499
0.067739581
0.06850083
0.069263372
0.070027359
0.07079296
0.071560361
0.07232976
0.073101355
0.073875339
0.074651894
0.075431176
0.076213312
0.076998393
0.077786476
0.078577605
0.079371855
0.080169387
0.080970461
0.08177521
0.04443345
0.045101337
0.045776149
0.046457539
0.047145109
0.047838485
0.048537318
0.049241263
0.04995001
0.050663248
0.051380662
0.052101951
0.052826828
0.053555016
0.054286252
0.055020285
0.055756878
0.056495808
0.057236865
0.057979853
0.058724591
0.059470913
0.060218666
0.060967715
0.061717944
0.062469253
0.063221568
0.063974834
0.064729008
0.065484067
0.066240034
0.066996959
0.067754922
0.068514031
0.069274422
0.070036253
0.070799706
0.071564978
0.072332276
0.073101807
0.073873771
0.074648351
0.0754257
0.076205931
0.076989111
0.077775267
0.078564413
0.079356643
0.08015228
0.080952048
0.081756791
0.044502062
0.045169127
0.045843025
0.046523408
0.047209906
0.047902158
0.04859982
0.049302548
0.050010031
0.05072196
0.051438019
0.052157912
0.052881351
0.05360806
0.054337777
0.055070251
0.055805244
0.056542533
0.057281906
0.058023169
0.058766137
0.059510643
0.060256534
0.061003674
0.061751944
0.062501247
0.063251503
0.064002662
0.064754687
0.065507553
0.066261286
0.067015941
0.067771604
0.06852839
0.069286443
0.070045934
0.070807054
0.071570011
0.072335022
0.073102304
0.073872061
0.074644473
0.075419683
0.076197775
0.076978771
0.077762629
0.078549287
0.079338806
0.080131713
0.080929598
0.081735193
0.04457634
0.045242503
0.045915409
0.046594717
0.047280068
0.047971116
0.048667519
0.049368936
0.050075059
0.050785577
0.051500178
0.052218565
0.052940453
0.053665567
0.054393643
0.055124432
0.055857696
0.05659321
0.057330764
0.058070158
0.058811211
0.059553752
0.060297627
0.0610427
0.06178885
0.062535979
0.063284007
0.064032884
0.064782579
0.065533068
0.06628438
0.067036574
0.067789743
0.06854401
0.069299529
0.070056481
0.070815069
0.071575513
0.072338039
0.073102871
0.073870215
0.074640244
0.075413074
0.076188744
0.076967189
0.077748234
0.078531631
0.079317255
0.080105725
0.080899961
0.081707258
0.044656692
0.045321865
0.045993697
0.046671849
0.047355973
0.048045727
0.048740778
0.049440787
0.050145446
0.050854447
0.051567478
0.052284244
0.053004461
0.053727855
0.054454162
0.055183133
0.055914531
0.056648129
0.057383716
0.058121093
0.058860075
0.059600492
0.060342189
0.061085027
0.061828884
0.062573661
0.06331928
0.064065688
0.06481286
0.065560779
0.06630947
0.067059
0.067809469
0.068561008
0.069313783
0.070067984
0.070823828
0.071581545
0.072341372
0.073103537
0.073868242
0.074635643
0.075405814
0.076178713
0.07695413
0.077731645
0.078510616
0.079290357
0.080070982
0.080856473
0.081663191
0.044743548
0.04540764
0.046078309
0.046755217
0.047438023
0.048126391
0.04881999
0.049518485
0.050221571
0.05092894
0.051640283
0.052355306
0.053073725
0.053795266
0.054519669
0.055246681
0.055976066
0.056707597
0.057441063
0.058176263
0.058913011
0.059651136
0.06039048
0.061130904
0.061872286
0.062614524
0.06335754
0.064101282
0.064845727
0.065590866
0.066336725
0.067083375
0.067830924
0.068579514
0.069329319
0.070080545
0.070833417
0.07158818
0.072345076
0.073104336
0.073866153
0.074630649
0.075397832
0.076167531
0.076939304
0.077712316
0.078485192
0.079255942
0.080022465
0.080786007
0.081570352
0.044837365
0.045500281
0.046169692
0.046845262
0.047526652
0.048213532
0.048905573
0.049602443
0.05030384
0.051009457
0.051718987
0.052432136
0.053148621
0.05386817
0.054590522
0.055315426
0.056042644
0.05677195
0.05750313
0.058235984
0.058970324
0.059705977
0.060442785
0.061180606
0.061919317
0.062658816
0.063399025
0.06413989
0.064881391
0.065623529
0.06636633
0.067109871
0.067854267
0.068599671
0.069346268
0.070094277
0.070843936
0.071595498
0.072349214
0.073105311
0.073863962
0.074625238
0.075389046
0.076155025
0.076922381
0.077689641
0.078454223
0.079211731
0.07995469
0.080669236
0.081313841
0.044938631
0.045600271
0.046268324
0.046942454
0.047622324
0.048307606
0.048997977
0.049693104
0.050392689
0.051096425
0.051804008
0.052515144
0.053229553
0.053946962
0.05466711
0.055389747
0.056114634
0.056841545
0.057570266
0.058300594
0.059032341
0.059765332
0.060499408
0.061234426
0.06197026
0.062706809
0.063443991
0.064181757
0.064920085
0.065658987
0.06639849
0.067138677
0.067879672
0.068621639
0.069364774
0.070109309
0.070855495
0.071603595
0.072353862
0.073106513
0.073861688
0.074619386
0.07537937
0.076141009
0.076903023
0.07766304
0.078416779
0.079156419
0.079867023
0.08051626
0.081000075
0.045047865
0.045708125
0.046374714
0.047047295
0.047725534
0.048409103
0.049097682
0.049790941
0.050488583
0.051190303
0.051895797
0.052604775
0.053316955
0.054032067
0.054749848
0.05547005
0.056192433
0.05691677
0.057642847
0.058370459
0.059099418
0.059829546
0.060560683
0.061292684
0.062025423
0.062758795
0.063492722
0.064227151
0.064962064
0.065697478
0.066433429
0.067170004
0.067907335
0.068645596
0.069384999
0.070125787
0.070868223
0.071612578
0.072359105
0.073108001
0.073859359
0.074613076
0.075368721
0.07612531
0.076880933
0.077632084
0.078372418
0.079090266
0.079763617
0.080347768
0.080728246
0.04516562
0.045824394
0.046489407
0.047160324
0.047836812
0.048518546
0.049205205
0.049896463
0.050592023
0.051291583
0.05199484
0.052701504
0.053411295
0.054123942
0.054839185
0.055556773
0.056276468
0.056998043
0.05772128
0.058445975
0.059171938
0.05989899
0.060626969
0.061355727
0.062085138
0.062815096
0.063545522
0.064276364
0.065007605
0.065739266
0.066471396
0.067204083
0.06793747
0.068671743
0.069407126
0.070143875
0.070882266
0.071622574
0.072365045
0.073109851
0.073857015
0.074606301
0.075357032
0.07610779
0.076855906
0.077596584
0.078321296
0.079014798
0.079649783
0.080176277
0.080490006
0.045292489
0.045949662
0.046612983
0.047282116
0.047956728
0.048636496
0.0493211
0.050010215
0.050703547
0.051400795
0.052101656
0.052805842
0.053513073
0.05422308
0.054935602
0.055650389
0.056367202
0.057085813
0.057806004
0.05852757
0.059250317
0.059974067
0.060698655
0.061423932
0.06214977
0.062876061
0.063602726
0.064329715
0.065057011
0.06578464
0.066512662
0.06724117
0.067970317
0.0687003
0.069431358
0.070163759
0.070897789
0.071633726
0.072371803
0.073112152
0.07385471
0.074599074
0.075344269
0.076088367
0.07682786
0.077556599
0.078263988
0.078931899
0.079529858
0.080007438
0.080275962
0.045429104
0.046084559
0.046746065
0.047413285
0.048085889
0.048763553
0.049445959
0.050132783
0.050823732
0.051518506
0.052216804
0.052918338
0.053622831
0.054330011
0.05503962
0.055751407
0.056465133
0.057180568
0.057897494
0.058615705
0.059335005
0.060055214
0.060776165
0.061497708
0.062219712
0.06294207
0.0636647
0.064387554
0.065110617
0.065833918
0.066557529
0.06728155
0.068006142
0.068731517
0.069457925
0.070185648
0.070914981
0.0716462
0.072379519
0.073115017
0.073852523
0.074591436
0.075330438
0.07606704
0.076796849
0.077512404
0.078201308
0.078843362
0.079406776
0.079843453
0.080079679
0.045576141
0.046229755
0.046889317
0.047554492
0.048224947
0.048900362
0.049580419
0.050264795
0.050953197
0.051645328
0.052340887
0.053039587
0.05374115
0.054445308
0.055151801
0.055860377
0.056570798
0.057282834
0.057996264
0.058710881
0.059426489
0.060142905
0.060859959
0.0615775
0.062295396
0.063013537
0.063731843
0.064450264
0.065168789
0.065887451
0.066606328
0.067325535
0.068045241
0.068765669
0.069487084
0.070209779
0.070934057
0.071660188
0.072388359
0.073118583
0.073850561
0.074583465
0.075315601
0.076043888
0.076763057
0.077464443
0.078134199
0.078750838
0.079282585
0.079685017
0.079897289
0.045734323
0.046385968
0.047043453
0.047706441
0.048374603
0.049047616
0.049725164
0.050406927
0.051092611
0.051781919
0.052474552
0.053170225
0.053868659
0.054569587
0.055272749
0.055977893
0.05668478
0.057393179
0.058102869
0.058813642
0.059525298
0.060237653
0.060950536
0.061663793
0.062377289
0.063090915
0.063804589
0.064518263
0.065231928
0.06594562
0.066659425
0.067373474
0.068087941
0.068803065
0.069519122
0.07023642
0.070955261
0.071675909
0.072398516
0.073123016
0.073848965
0.074575284
0.075299881
0.07601908
0.076726782
0.077413284
0.078063656
0.07865579
0.079158807
0.079532414
0.079726194
0.045904425
0.046553968
0.047209235
0.04786989
0.048535605
0.049206057
0.04988093
0.050559906
0.051242689
0.051928986
0.052618498
0.05331094
0.054006035
0.054703514
0.055403118
0.056104596
0.056807707
0.05751222
0.058217913
0.058924574
0.059632005
0.060340017
0.061048438
0.061757112
0.062465902
0.063174697
0.063883415
0.06459201
0.065300473
0.066008847
0.066717224
0.067425749
0.068134607
0.068844048
0.069554364
0.070265869
0.070978871
0.071693618
0.072410219
0.073128521
0.073847916
0.074567063
0.075283464
0.075992867
0.076688425
0.077359578
0.077990669
0.07855949
0.079036578
0.079385746
0.079564767
0.046087277
0.04673458
0.047387483
0.048045653
0.04870876
0.049376483
0.050048506
0.050724512
0.051404204
0.052087292
0.052773477
0.053462474
0.054154007
0.054847807
0.055543614
0.056241179
0.056940259
0.057640622
0.058342045
0.059044315
0.05974723
0.060450602
0.061154254
0.061858029
0.062561788
0.06326542
0.06396884
0.064672004
0.065374908
0.066077596
0.066780169
0.067482783
0.068185642
0.068889001
0.069593167
0.070298465
0.0710052
0.071713603
0.072423733
0.073135337
0.073847639
0.074559026
0.075266602
0.075965577
0.076648454
0.077304015
0.07791618
0.078463027
0.078916778
0.079245006
0.079411947
0.046283771
0.046928689
0.047579078
0.048234603
0.048894935
0.049559754
0.050228744
0.050901588
0.05157799
0.05225766
0.052940301
0.053625627
0.054313363
0.055003241
0.055695001
0.056388392
0.057083172
0.057779106
0.058475972
0.059173554
0.059871648
0.060570064
0.061268624
0.061967167
0.062665553
0.063363668
0.064061431
0.064758794
0.065455758
0.066152374
0.066848747
0.067545045
0.06824149
0.068938347
0.069635934
0.070334585
0.071034602
0.071736193
0.072439362
0.073143751
0.073848408
0.074551449
0.075249603
0.075937597
0.07660739
0.077247291
0.077841054
0.078367306
0.078800039
0.079110166
0.079267002
0.046494861
0.047137247
0.047784965
0.04843768
0.049095064
0.049756795
0.050422559
0.05109204
0.051764942
0.052440975
0.053119843
0.053801262
0.054484955
0.055170655
0.055858102
0.056547044
0.057237239
0.057928451
0.058620455
0.059313035
0.060005986
0.060699114
0.061392239
0.062085198
0.062777849
0.063470078
0.064161801
0.064852974
0.0655436
0.066233734
0.066923491
0.067613047
0.068302642
0.068992553
0.06968311
0.070374651
0.071067475
0.071761762
0.072457457
0.073154094
0.073850543
0.074544663
0.075232832
0.075909359
0.076565774
0.077190076
0.077766054
0.078273055
0.078686807
0.07898114
0.079129369
0.046721578
0.047361279
0.048006163
0.048655896
0.049310149
0.049968601
0.050630938
0.051296846
0.051966026
0.052638193
0.053313048
0.053990308
0.054669699
0.055350951
0.056033804
0.056718007
0.057403316
0.058089494
0.058776317
0.059463565
0.060151031
0.060838519
0.061525847
0.062212851
0.062899386
0.063585337
0.06427062
0.064955192
0.065639059
0.066322282
0.067004983
0.067687351
0.068369636
0.069052137
0.069735188
0.070419132
0.071104262
0.071790729
0.072478416
0.073166745
0.073854416
0.074539044
0.075216696
0.075881327
0.076524147
0.077132986
0.077691828
0.078180825
0.078577357
0.078857765
0.078998544
0.046965026
0.047601885
0.048243768
0.04889034
0.049541272
0.050196244
0.050854942
0.051517055
0.052182281
0.052850338
0.053520927
0.054193766
0.054868578
0.055545097
0.056223061
0.056902217
0.057582322
0.058263139
0.05894444
0.059626005
0.060307625
0.060989103
0.061670253
0.062350909
0.063030926
0.063710185
0.064388605
0.065066144
0.065742811
0.066418672
0.067093858
0.067768567
0.068443063
0.069117664
0.069792708
0.070468546
0.071145457
0.071823565
0.072502686
0.073182136
0.073860449
0.074535018
0.075201639
0.075853984
0.076483036
0.077076581
0.077618903
0.078091011
0.078471804
0.078739793
0.078874023
0.047226392
0.04786025
0.048498959
0.049142183
0.049789593
0.050440873
0.05109571
0.051753793
0.05241482
0.05307851
0.053744566
0.054412703
0.055082648
0.055754131
0.056426891
0.057100676
0.057775241
0.058450348
0.059125767
0.059801279
0.060476672
0.061151746
0.061826314
0.062500209
0.063173283
0.063845418
0.064516531
0.065186582
0.065855584
0.06652361
0.067190799
0.067857358
0.068523564
0.06918975
0.069856267
0.070523462
0.071191607
0.071860791
0.072530768
0.073200748
0.073869113
0.074533056
0.075188144
0.075827829
0.076442956
0.07702136
0.077547708
0.07800387
0.078370161
0.078626919
0.078755299
0.047506953
0.048137649
0.048773002
0.049412677
0.050056354
0.050703717
0.051354455
0.052008261
0.052664828
0.05332388
0.053985118
0.054648258
0.055313026
0.055979153
0.056646377
0.057314446
0.057983113
0.05865214
0.059321298
0.059990364
0.060659125
0.061327381
0.061994942
0.062661639
0.063327324
0.063991877
0.064655217
0.065317305
0.065978158
0.066637854
0.067296541
0.067954438
0.068611831
0.069269067
0.069926511
0.070584506
0.071243313
0.071902988
0.07256322
0.073223122
0.073880935
0.074533678
0.07517673
0.075803381
0.076404414
0.07696779
0.077478614
0.077919605
0.078272367
0.078518831
0.078641899
0.047808083
0.048435455
0.049067248
0.049703157
0.05034287
0.050986075
0.051632463
0.052281726
0.052933557
0.053587681
0.054243798
0.054901626
0.055560888
0.056221317
0.056882652
0.057544637
0.058207028
0.058869585
0.059532077
0.060194281
0.060855984
0.061516983
0.062177089
0.06283613
0.063493957
0.064150451
0.06480553
0.065459158
0.066111356
0.066762209
0.067411871
0.068060572
0.068708611
0.069356342
0.070004145
0.070652362
0.071301237
0.071950793
0.07260066
0.073249857
0.073896499
0.074537456
0.075167959
0.075781192
0.076367932
0.076916334
0.077411971
0.077838397
0.078178388
0.078415278
0.078533445
0.047512138
0.048131363
0.048755125
0.049383114
0.050015017
0.050650519
0.051289307
0.051931072
0.052575508
0.053222307
0.053871191
0.054521864
0.055174042
0.055827449
0.056481817
0.057136884
0.057792396
0.058448107
0.059103778
0.059759178
0.060414082
0.061068278
0.06172156
0.06237374
0.063024645
0.063674125
0.064322062
0.064968374
0.065613028
0.066256049
0.066897526
0.067537623
0.06817658
0.068814704
0.069452361
0.070089937
0.070727777
0.071366107
0.072004916
0.072643777
0.073281622
0.073916457
0.074545029
0.075162454
0.075761856
0.076334069
0.076867479
0.07734816
0.077760468
0.078088266
0.078316123
0.0784297
0.047251741
0.047862621
0.048478189
0.049098106
0.049722045
0.050349684
0.050980706
0.051614796
0.052251646
0.052890948
0.053532395
0.054175706
0.054820587
0.055466754
0.056113932
0.05676185
0.057410249
0.058058874
0.058707479
0.059355826
0.060003683
0.060650827
0.061297045
0.061942131
0.062585896
0.063228167
0.063868796
0.064507662
0.065144687
0.06577984
0.066413149
0.067044708
0.06767469
0.068303341
0.06893098
0.06955798
0.07018473
0.070811578
0.071438733
0.072066148
0.072693343
0.073319172
0.073941546
0.074557112
0.075160907
0.07574604
0.076303441
0.076821774
0.077287625
0.077686129
0.078002153
0.07822138
0.078330598
0.047028649
0.047631072
0.04823831
0.048850014
0.049465844
0.050085472
0.05070857
0.051334822
0.05196391
0.052595525
0.053229361
0.053865113
0.054502489
0.055141207
0.055780977
0.056421525
0.057062582
0.057703888
0.058345189
0.058986241
0.059626805
0.060266652
0.060905558
0.061543311
0.062179707
0.062814557
0.063447688
0.064078951
0.064708229
0.065335442
0.065960562
0.06658362
0.067204717
0.06782403
0.068441812
0.069058392
0.069674145
0.070289465
0.070904696
0.071520032
0.072135392
0.072750244
0.073363373
0.073972611
0.074574527
0.075164114
0.075734503
0.076276759
0.076779859
0.07723091
0.077615802
0.077920344
0.078131229
0.078236256
0.0474384
0.048037245
0.048640637
0.049248239
0.049859719
0.050474749
0.051093005
0.051714167
0.052337921
0.052963956
0.053591967
0.05422165
0.054852708
0.055484864
0.056117827
0.056751325
0.057385088
0.058018858
0.058652383
0.059285419
0.059917731
0.06054909
0.061179275
0.061808074
0.062435286
0.063060721
0.063684208
0.0643056
0.064924777
0.065541664
0.066156231
0.066768513
0.067378613
0.067986712
0.068593071
0.069198021
0.069801942
0.070405226
0.071008209
0.071611074
0.072213703
0.072815517
0.073415243
0.074010645