/*--------------------------------*- C++ -*----------------------------------*\
| =========                 |                                                 |
| \\      /  F ield         | OpenFOAM: The Open Source CFD Toolbox           |
|  \\    /   O peration     | Version:  2312                                  |
|   \\  /    A nd           | Website:  www.openfoam.com                      |
|    \\/     M anipulation  |                                                 |
\*---------------------------------------------------------------------------*/
FoamFile
{
    version     2.0;
    format      ascii;
    arch        "LSB;label=32;scalar=64";
    class       volScalarField;
    location    "0.07";
    object      CH4;
}
// * * * * * * * * * * * * * * * * * * * * * * * * * * * * * * * * * * * * * //

dimensions      [0 0 0 0 0 0 0];

internalField   nonuniform List<scalar> 
3224
(
0.0077043057
0.0073628727
0.0070337146
0.0067163907
0.0064104728
0.0061155387
0.0058311724
0.0055569652
0.0052925166
0.0050374347
0.0047913363
0.0045538474
0.0043246033
0.0041032489
0.0038894382
0.0036828351
0.0034831125
0.0032899529
0.0031030477
0.0029220977
0.0027468121
0.0025769091
0.0024121152
0.0022521651
0.0020968015
0.0019457751
0.0017988444
0.0016557752
0.0015163414
0.0013803244
0.0012475129
0.0011177038
0.00099070138
0.00086631767
0.00074437251
0.00062469342
0.00050711563
0.00039148212
0.00027764365
0.00016545896
5.4794878e-05
0.0077039233
0.0073625637
0.0070334636
0.0067161829
0.0064102992
0.0061153937
0.0058310519
0.0055568662
0.0052924367
0.0050373717
0.0047912885
0.0045538133
0.0043245815
0.0041032382
0.0038894375
0.0036828433
0.0034831287
0.0032899763
0.0031030775
0.002922133
0.0027468524
0.0025769536
0.0024121632
0.002252216
0.0020968547
0.0019458299
0.0017989001
0.0016558312
0.0015163971
0.0013803789
0.0012475657
0.0011177541
0.00099074847
0.00086636096
0.00074441139
0.00062472733
0.0005071441
0.00039150476
0.00027766017
0.00016546918
5.4798485e-05
0.0077027435
0.0073615027
0.007032495
0.0067152921
0.0064094771
0.0061146337
0.005830349
0.0055562161
0.0052918358
0.0050368168
0.0047907767
0.0045533419
0.0043241482
0.0041028406
0.0038890737
0.0036825113
0.0034828268
0.0032897026
0.0031028306
0.0029219114
0.0027466545
0.0025767781
0.0024120088
0.0022520813
0.0020967383
0.0019457306
0.0017988165
0.0016557621
0.0015163409
0.0013803344
0.0012475314
0.0011177287
0.00099073052
0.00086634911
0.00074440435
0.00062472388
0.00050714314
0.00039150533
0.00027766148
0.00016547055
5.4799237e-05
0.0077007718
0.0073596875
0.0070308039
0.0067137127
0.0064080005
0.0061132527
0.0058290576
0.005555009
0.0052907082
0.0050357644
0.0047897954
0.004552428
0.0043232983
0.0041020514
0.0038883422
0.0036818347
0.0034822023
0.0032891279
0.0031023031
0.0029214289
0.0027462148
0.0025763792
0.0024116486
0.0022517578
0.0020964496
0.0019454746
0.0017985912
0.0016555654
0.0015161709
0.0013801889
0.0012474084
0.001117626
0.00099064612
0.0008662809
0.00074435033
0.00062468218
0.00050711204
0.00039148329
0.00027764717
0.00016546284
5.4797064e-05
0.008051557
0.0076980424
0.007357116
0.007028386
0.00671144
0.0064058646
0.0061112459
0.0058271729
0.0055532401
0.0052890492
0.0050342098
0.0047883401
0.0045510672
0.0043220275
0.0041008664
0.003887239
0.0036808095
0.0034812517
0.0032882484
0.0031014916
0.0029206823
0.0027455303
0.0025757539
0.0024110798
0.0022512428
0.0020959858
0.0019450593
0.0017982218
0.0016552392
0.0015158851
0.0013799408
0.0012471951
0.0011174447
0.00099049399
0.00086615519
0.00074424836
0.00062460142
0.00050705014
0.00039143813
0.00027761688
0.00016544584
5.4791892e-05
0.0080481446
0.007694728
0.0073539746
0.0070254191
0.0067086416
0.0064032271
0.0061087617
0.0058248345
0.0055510405
0.0052869818
0.0050322684
0.0047865189
0.0045493607
0.0043204305
0.0040993739
0.0038858464
0.0036795124
0.003480046
0.00328713
0.0031004569
0.0029197277
0.0027446524
0.0025749493
0.0024103454
0.0022505754
0.0020953822
0.0019445165
0.0017977366
0.0016548084
0.0015155055
0.0013796091
0.001246908
0.0011171988
0.00099028599
0.00086598182
0.00074410645
0.00062448797
0.00050696234
0.00039137343
0.00027757303
0.0001654209
5.4784129e-05
0.0080441629
0.0076909361
0.0073503764
0.0070220136
0.0067054236
0.0064001895
0.0061058965
0.005822134
0.0055484972
0.0052845885
0.0050300184
0.0047844057
0.0045473783
0.004318573
0.004097636
0.0038842228
0.0036779983
0.0034786366
0.003285821
0.0030992441
0.0029186071
0.0027436201
0.0025740017
0.0024094787
0.0022497862
0.0020946671
0.0019438718
0.0017971589
0.0016542941
0.001515051
0.0013792106
0.0012465618
0.0011169013
0.00099003334
0.00086577036
0.00074393262
0.00062434836
0.00050685379
0.00039129307
0.00027751828
0.00016538955
5.4774253e-05
0.0080393334
0.0076863636
0.0073460345
0.007017899
0.0067015307
0.0063965105
0.0061024228
0.0058188568
0.005545408
0.005281679
0.0050272807
0.0047818324
0.0045449622
0.0043163072
0.0040955141
0.0038822387
0.0036761462
0.003476911
0.0032842168
0.0030977561
0.0029172307
0.0027423507
0.0025728349
0.0024084103
0.002248812
0.0020937828
0.0019430735
0.0017964422
0.0016536548
0.0015144848
0.0013787132
0.0012461287
0.001116528
0.00098971554
0.00086550361
0.00074371269
0.00062417119
0.00050671561
0.00039119043
0.00027744812
0.0001653492
5.4761437e-05
0.0083993851
0.0080336424
0.0076809501
0.00734089
0.0070130196
0.0066969102
0.0063921403
0.0060982933
0.0058149581
0.0055417303
0.005278213
0.0050240173
0.0047787628
0.0045420781
0.0043136009
0.004092978
0.0038798657
0.0036739295
0.0034748442
0.0032822938
0.0030959712
0.0029155782
0.0027408254
0.0025714317
0.0024071241
0.0022476379
0.002092716
0.001942109
0.0017955752
0.0016528804
0.0015137979
0.0013781088
0.0012456016
0.0011160729
0.00098932726
0.00086517704
0.00074344285
0.00062395336
0.00050654533
0.00039106365
0.00027736124
0.00016529909
5.4745434e-05
0.0083924841
0.0080270089
0.007674629
0.0073348797
0.007007316
0.006691506
0.0063870257
0.0060934575
0.00581039
0.0055374189
0.0052741476
0.0050201874
0.0047751586
0.0045386901
0.00431042
0.0040899956
0.0038770735
0.0036713198
0.0034724096
0.0032800273
0.003093866
0.0029136281
0.0027390241
0.0025697733
0.0024056029
0.0022462481
0.0020914521
0.0019409654
0.0017945462
0.0016519603
0.0015129809
0.0013773889
0.0012449729
0.0011155294
0.00098886285
0.00086478585
0.00074311912
0.00062369158
0.00050634037
0.0003909108
0.0002772563
0.00016523843
5.4725995e-05
0.0087633145
0.0083844799
0.0080193493
0.0076673281
0.0073279366
0.007000725
0.0066852581
0.0063811099
0.0060878617
0.0058051016
0.0055324255
0.005269437
0.005015748
0.004770979
0.0045347595
0.0043067281
0.0040865325
0.00387383
0.0036682869
0.0034695789
0.0032773907
0.003091416
0.0029113572
0.0027369255
0.00256784
0.0024038284
0.002244626
0.0020899758
0.0019396286
0.0017933424
0.001650883
0.0015120234
0.0013765445
0.0012442347
0.0011148905
0.00098831636
0.00086432497
0.00074273724
0.00062338241
0.000506098
0.00039072982
0.0002771319
0.00016516641
5.4702867e-05
0.0087536697
0.0083752933
0.0080105779
0.0076589706
0.0073199887
0.0069931789
0.0066781028
0.0063743326
0.0060814485
0.0057990386
0.0055266987
0.0052640327
0.0050106529
0.0047661804
0.0045302452
0.0043024865
0.0040825524
0.0038701009
0.0036647986
0.0034663219
0.003274356
0.0030885948
0.0029087412
0.0027345067
0.0025656108
0.0024017813
0.0022427536
0.0020882709
0.0019380839
0.0017919506
0.0016496365
0.0015109148
0.001375566
0.0012433786
0.0011141489
0.00098768145
0.00086378902
0.00074229274
0.00062302219
0.00050581534
0.00039051857
0.00027698655
0.00016508219
5.4675788e-05
0.0091346825
0.0087426864
0.0083648357
0.0080006066
0.0076494749
0.0073109598
0.0069846056
0.0066699719
0.0063666292
0.006074157
0.0057921432
0.0055201836
0.0052578827
0.0050048532
0.0047607166
0.0045251036
0.004297654
0.0040780165
0.0038658496
0.0036608207
0.0034626066
0.0032708929
0.0030853743
0.0029057539
0.0027317436
0.0025630633
0.0023994409
0.0022406121
0.00208632
0.0019363154
0.0017903562
0.0016482079
0.0015096434
0.0013744432
0.0012423955
0.0011132967
0.00098695135
0.00086317226
0.00074178084
0.00062260704
0.00050548935
0.00039027478
0.00027681871
0.00016498488
5.464448e-05
0.0091216151
0.0087302662
0.0083530127
0.0079893438
0.0076387549
0.0073007687
0.0069749287
0.006660793
0.0063579311
0.0060659222
0.0057843538
0.0055128222
0.005250932
0.0049982966
0.0047545383
0.0045192882
0.0042921867
0.0040728834
0.0038610374
0.0036563167
0.0034583987
0.0032669696
0.0030817247
0.0029023676
0.0027286104
0.0025601736
0.0023967852
0.0022381811
0.0020841046
0.0019343062
0.0017885441
0.0016465834
0.001508197
0.0013731651
0.0012412759
0.0011123257
0.0009861189
0.00086246861
0.00074119647
0.00062213285
0.00050511681
0.00038999604
0.00027662675
0.00016487355
5.4608654e-05
0.0095121075
0.0091069303
0.0087163036
0.0083397241
0.0079766933
0.0076267195
0.0072893293
0.0069640666
0.006650489
0.0063481655
0.0060566749
0.005775605
0.0055045523
0.0052431219
0.0049909278
0.004747593
0.0045127493
0.0042860379
0.0040671092
0.0038556229
0.0036512477
0.0034536618
0.003262552
0.0030776142
0.0028985525
0.0027250797
0.0025569162
0.0023937907
0.0022354391
0.0020816048
0.0019320385
0.001786498
0.0016447485
0.0015065625
0.0013717202
0.0012400096
0.0011112268
0.00098517643
0.00086167157
0.00074053424
0.00062159525
0.00050469431
0.00038967985
0.00027640897
0.00016474725
5.4568012e-05
0.0094948287
0.0090905089
0.0087006865
0.0083248645
0.007962554
0.0076132723
0.0072765503
0.006951933
0.0066389782
0.0063372549
0.0060463419
0.0057658273
0.0054953081
0.0052343901
0.0049826878
0.0047398251
0.0045054345
0.0042791582
0.0040606472
0.0038495621
0.0036455725
0.0034483572
0.0032576039
0.003073009
0.0028942773
0.002721122
0.0025532641
0.0023904325
0.0022323632
0.0020787999
0.0019294931
0.0017842007
0.0016426875
0.001504726
0.0013700962
0.0012385857
0.0011099907
0.00098411581
0.00086077427
0.00073978843
0.00062098965
0.00050421829
0.00038932362
0.00027616365
0.00016460501
5.4522256e-05
0.0098939292
0.0094755988
0.0090722253
0.0086832972
0.0083083223
0.0079468189
0.0075983116
0.007262335
0.0069384362
0.0066261737
0.0063251169
0.0060348451
0.0057549469
0.0054850198
0.0052246703
0.004973514
0.0047311753
0.0044972879
0.0042714946
0.0040534476
0.0038428083
0.0036392471
0.0034424438
0.0032520867
0.0030678731
0.0028895084
0.0027167064
0.0025491885
0.0023866839
0.0022289289
0.0020756673
0.0019266496
0.0017816336
0.0016403839
0.0015026727
0.0013682797
0.0012369926
0.0011086073
0.00098292837
0.00085976937
0.00073895301
0.00062031121
0.00050368506
0.0003889247
0.00027588908
0.00016444593
5.4471113e-05
0.0098714999
0.0094542698
0.0090519469
0.0086640117
0.0082899795
0.0079293754
0.0075817296
0.0072465811
0.006923479
0.0066119833
0.0063116643
0.0060221018
0.0057428853
0.005473613
0.0052138924
0.0049633399
0.0047215809
0.0044882501
0.0042629913
0.0040454578
0.0038353119
0.003632225
0.0034358778
0.0032459596
0.0030621684
0.0028842103
0.0027117997
0.0025446587
0.0023825167
0.0022251103
0.0020721834
0.0019234865
0.0017787771
0.0016378199
0.0015003867
0.001366257
0.0012352181
0.0011070658
0.00098160493
0.00085864915
0.00073802161
0.00061955489
0.00050309085
0.00038848048
0.00027558369
0.00016426924
5.4414375e-05
0.0098466671
0.0094306937
0.0090295357
0.0086426992
0.0082697114
0.007910104
0.0075634127
0.0072291804
0.0069069588
0.0065963097
0.0062968045
0.0060080244
0.0057295594
0.0054610091
0.0052019818
0.0049520949
0.0047109751
0.0044782581
0.0042535889
0.0040366217
0.0038270201
0.0036244566
0.0034286128
0.0032391791
0.0030558541
0.0028783451
0.0027063669
0.0025396422
0.0023779008
0.0022208797
0.0020683228
0.0019199806
0.0017756105
0.0016349769
0.0014978513
0.0013640129
0.0012332489
0.0011053549
0.00098013573
0.00085740541
0.00073698759
0.00061871553
0.00050243193
0.00038798863
0.00027524629
0.00016407451
5.4351985e-05
0.0098193097
0.0094047265
0.0090048486
0.0086192223
0.0082473863
0.0078888788
0.0075432406
0.0072100183
0.0068887666
0.0065790494
0.0062804397
0.0059925198
0.0057148813
0.0054471246
0.0051888594
0.0049397044
0.0046992873
0.0044672451
0.0042432242
0.00402688
0.0038178772
0.0036158895
0.0034205996
0.0032316989
0.0030488873
0.0028718726
0.0027003705
0.0025341043
0.0023728043
0.0022162078
0.0020640587
0.0019161075
0.0017721115
0.0016318348
0.0014950486
0.0013615317
0.0012310711
0.0011034625
0.00097851046
0.00085602958
0.00073584405
0.00061778796
0.00050170487
0.00038744731
0.00027487639
0.00016386206
5.4284203e-05
0.010217479
0.0097893259
0.0093762171
0.008977735
0.0085934356
0.008222865
0.0078655667
0.0075210861
0.0071889738
0.0068687874
0.0065600931
0.0062624659
0.0059754897
0.0056987575
0.0054318711
0.0051744416
0.004926089
0.0046864425
0.0044551405
0.0042318306
0.0040161696
0.0038078237
0.0036064677
0.0034117857
0.0032234702
0.0030412221
0.0028647502
0.002693771
0.0025280085
0.0023671934
0.0022110633
0.0020593624
0.0019118411
0.0017682565
0.0016283724
0.0014919595
0.0013587966
0.0012286701
0.0011013757
0.00097671823
0.00085451267
0.000734584
0.00061676723
0.00050090684
0.00038685584
0.00027447506
0.00016363365
5.4211954e-05
0.010183031
0.0097565179
0.0093449976
0.0089480344
0.0085651852
0.0081960001
0.0078400269
0.0074968151
0.007165919
0.0068468995
0.0065393254
0.0062427736
0.00595683
0.0056810893
0.005415155
0.0051586396
0.0049111648
0.0046723613
0.0044418691
0.0042193371
0.0040044239
0.0037967969
0.0035961324
0.0034021159
0.0032144411
0.00303281
0.0028569326
0.0026865262
0.0025213155
0.0023610319
0.0022054133
0.0020542037
0.0019071539
0.0017640205
0.001624567
0.001488564
0.0013557895
0.00122603
0.001099081
0.0009747476
0.00085284544
0.00073320047
0.00061564892
0.00050003628
0.00038621568
0.00027404627
0.000163394
5.4137584e-05
0.011041759
0.010585557
0.010145421
0.0097206871
0.0093108876
0.0089155764
0.0085343085
0.0081666362
0.0078121109
0.0074702859
0.0071407191
0.0068229747
0.006516624
0.0062212467
0.0059364306
0.0056617724
0.0053968773
0.0051413598
0.0048948432
0.0046569599
0.0044273515
0.004205669
0.0039915722
0.0037847301
0.0035848209
0.0033915313
0.0032045564
0.0030235995
0.0028483718
0.0026785916
0.0025139842
0.0023542817
0.0021992223
0.0020485504
0.0019020163
0.0017593768
0.0016203948
0.0014848405
0.0013524915
0.0012231342
0.001096564
0.00097258663
0.00085101843
0.00073168685
0.00061442978
0.000499094
0.00038553222
0.00027359963
0.00016315389
5.4066541e-05
0.011466823
0.010996566
0.010542556
0.010104422
0.0096816259
0.0092736956
0.0088801801
0.0085006333
0.0081346091
0.007781662
0.007441349
0.0071132316
0.0067968772
0.0064918602
0.0061977628
0.0059141752
0.0056406963
0.0053769334
0.0051225029
0.0048770301
0.0046401492
0.0044115039
0.0041907468
0.0039775395
0.003771553
0.003572467
0.0033799697
0.0031937579
0.0030135362
0.002839017
0.0026699198
0.0025059707
0.0023469023
0.0021924533
0.0020423682
0.0018963973
0.0017542971
0.0016158301
0.0014807661
0.0013488824
0.0012199651
0.0010938098
0.0009702229
0.00084902222
0.00073003728
0.00061310855
0.00049808484
0.00038481803
0.00027315552
0.00016293659
5.4011382e-05
0.01141523
0.010947404
0.010495736
0.010059803
0.0096391188
0.0092332196
0.0088416545
0.0084639779
0.0080997454
0.0077485148
0.0074098467
0.0070833062
0.0067684641
0.0064648979
0.0061721926
0.0058899411
0.0056177445
0.0053552127
0.0051019641
0.0048576262
0.0046218355
0.0043942374
0.0041744866
0.0039622469
0.003757191
0.0035590004
0.0033673652
0.0031819838
0.0030025623
0.0028288144
0.0026604607
0.0024972283
0.0023388506
0.0021850665
0.0020356208
0.0018902637
0.0017487513
0.001610846
0.0014763168
0.0013449408
0.001216504
0.0010908024
0.00096764367
0.00084684769
0.00072824734
0.00061168738
0.00049702052
0.00038409826
0.00027275483
0.00016279178
5.4001831e-05
0.011359181
0.010894003
0.010444862
0.010011328
0.0095929419
0.0091892477
0.0087997986
0.0084241507
0.0080618626
0.0077124953
0.0073756132
0.0070507849
0.0067375848
0.0064355937
0.0061443998
0.0058635986
0.0055927941
0.0053315985
0.0050796329
0.0048365269
0.0046019194
0.0043754581
0.0041567999
0.0039456107
0.0037415652
0.0035443471
0.0033536482
0.0031691688
0.0029906166
0.0028177068
0.0026501612
0.0024877079
0.002330081
0.0021770199
0.0020282696
0.0018835803
0.0017427076
0.0016054134
0.0014714666
0.0013406438
0.0012127311
0.0010875254
0.000964836
0.00084448641
0.00072631488
0.00061017368
0.00049592375
0.0003834196
0.00027247708
0.00016282565
5.4111757e-05
0.011298411
0.010836095
0.010389685
0.0099587565
0.0095428624
0.009141558
0.0087544007
0.0083809502
0.0080207684
0.0076734201
0.0073384734
0.0070155009
0.0067040805
0.0064037967
0.0061142407
0.0058350113
0.0055657154
0.0053059678
0.0050553924
0.0048136215
0.0045802962
0.004355067
0.004137593
0.0039275424
0.0037245924
0.0035284286
0.003338745
0.0031552438
0.0029776345
0.0028056338
0.002638965
0.0024773571
0.0023205452
0.0021682691
0.0020202738
0.0018763096
0.0017361319
0.001599502
0.0014661883
0.0013359674
0.0012086256
0.0010839614
0.00096178694
0.0008419311
0.00072424108
0.00060858258
0.00049483391
0.00038286395
0.00027247273
0.00016326687
5.4536652e-05
0.011232639
0.010773407
0.010329945
0.0099018338
0.0094886369
0.0090899175
0.0087052387
0.0083341645
0.0079762608
0.0076310965
0.0072982437
0.0069772791
0.0066677845
0.006369348
0.0060815643
0.0058040355
0.0055363718
0.005278191
0.0050291198
0.0047887933
0.0045568556
0.0043329596
0.0041167671
0.003907949
0.0037061846
0.0035111621
0.0033225778
0.0031401358
0.0029635476
0.0027925316
0.0026268126
0.0024661208
0.0023101919
0.0021587666
0.00201159
0.0018684121
0.0017289881
0.001593079
0.0014604527
0.0013308859
0.0012041657
0.0010800927
0.00095848375
0.00083917615
0.00072203161
0.00060693943
0.00049381333
0.00038256606
0.00027301545
0.00016460755
5.5832784e-05
0.011161567
0.010705653
0.010265367
0.0098402957
0.009430011
0.0090340828
0.0086520799
0.0082835713
0.0079281277
0.007585322
0.007254731
0.0069359354
0.0066285212
0.0063320803
0.0060462114
0.00577052
0.0055046196
0.0052481315
0.0050006854
0.0047619196
0.0045314811
0.0043090257
0.0040942181
0.0038867319
0.0036862491
0.0034924603
0.0033050643
0.0031237676
0.0029482836
0.0027783326
0.002613641
0.0024539402
0.002298967
0.0021484624
0.002002172
0.0018598455
0.001721238
0.0015861099
0.001454229
0.0013253722
0.0011993282
0.0010759009
0.0009549141
0.00083621803
0.00071969736
0.00060528132
0.00049295132
0.0003827283
0.00027456774
0.00016788204
5.9707503e-05
0.011084879
0.010632531
0.010195662
0.0097738653
0.0093667186
0.0089737987
0.0085946803
0.0082289377
0.0078761465
0.0075358844
0.0072077327
0.0068912766
0.0065861065
0.0062918185
0.006008015
0.0057343058
0.0054703077
0.0052156457
0.004969953
0.0047328711
0.0045040502
0.0042831494
0.0040698363
0.0038637875
0.003664688
0.003472231
0.003286118
0.0031060578
0.0029317662
0.0027629655
0.0025993836
0.0024407535
0.0022868129
0.0021373035
0.001991971
0.0018505652
0.0017128408
0.0015785579
0.0014474844
0.0013193977
0.0011940889
0.001071367
0.00095106609
0.00083305529
0.0007172542
0.00060365571
0.00049235921
0.00038360974
0.0002777964
0.0001750712
7.1809282e-05
0.011002249
0.010553726
0.010120529
0.0097022524
0.0092984815
0.0089087989
0.0085327851
0.00817002
0.0078200844
0.0074825612
0.0071570364
0.0068431001
0.0065403472
0.0062483783
0.0059668
0.0056952261
0.0054332775
0.005180583
0.0049367794
0.0047015119
0.0044744342
0.0042552087
0.0040435063
0.0038390068
0.0036413983
0.0034503771
0.0032656474
0.0030869205
0.0029139149
0.0027463548
0.0025839701
0.0024264952
0.0022736689
0.0021252335
0.0019809352
0.0018405236
0.0017037532
0.001570384
0.0014401839
0.0013129319
0.0011884223
0.0010664716
0.0009469281
0.00082968809
0.00071472115
0.00060211396
0.00049214787
0.00038544644
0.00028330851
0.00018878928
0.00011222555
0.01091333
0.01046891
0.010039652
0.0096251544
0.0092250094
0.008838805
0.0084661278
0.0081065634
0.0077596979
0.0074251198
0.0071024201
0.006791194
0.0064910412
0.006201567
0.0059223826
0.0056531061
0.0053933627
0.0051427852
0.0049010145
0.0046676995
0.0044424978
0.0042250753
0.0040151067
0.0038122751
0.0036162718
0.0034267965
0.0032435562
0.0030662653
0.0028946447
0.0027284211
0.0025673261
0.002411096
0.0022594706
0.002112193
0.0019690097
0.0018296704
0.0016939293
0.0015615466
0.0014322906
0.0013059425
0.0011823015
0.0010611941
0.00094248836
0.0008261169
0.00071211668
0.00060070015
0.0004923903
0.00038829595
0.00029074769
0.00020505581
0.00014510693
0.010817765
0.010377739
0.0099527006
0.0095422553
0.0091459992
0.0087635268
0.0083944305
0.0080383018
0.0076947328
0.0073633171
0.0070436517
0.0067353366
0.006437977
0.0061511829
0.0058745705
0.0056077626
0.0053503889
0.0051020865
0.0048625006
0.0046312842
0.0044080991
0.0041926149
0.0039845102
0.0037834717
0.0035891946
0.0034013816
0.0032197433
0.003043997
0.0028738663
0.0027090805
0.0025493734
0.0023944828
0.00224415
0.0020981188
0.0019561362
0.001817952
0.0016833203
0.0015520015
0.0014237652
0.0012983953
0.0011756979
0.001055513
0.00093773412
0.00082234066
0.00070945425
0.00059944089
0.00049310372
0.00039206279
0.00029953549
0.00022199699
0.00017280689
0.010715179
0.010279854
0.0098593332
0.0094532263
0.0090611358
0.0086826622
0.0083174039
0.0079649584
0.0076249238
0.0072968998
0.0069804888
0.0066752966
0.0063809336
0.0060970153
0.005823163
0.0055590043
0.0053041739
0.0050583135
0.0048210728
0.0045921095
0.0043710893
0.0041576863
0.0039515831
0.0037524705
0.0035600471
0.0033740198
0.0031941023
0.0030200154
0.0028514856
0.0026882448
0.0025300292
0.0023765785
0.0022276352
0.0020829444
0.0019422532
0.0018053118
0.0016718744
0.0015417019
0.0014145655
0.0012902536
0.0011685809
0.0010494048
0.00093265055
0.00081835449
0.0007067381
0.00059833941
0.00049425056
0.00039655063
0.00030907216
0.00023862486
0.00019674395
0.010605186
0.010174885
0.0097591928
0.0093577256
0.0089700915
0.0085958971
0.0082347469
0.007886245
0.0075499954
0.007225604
0.0069126792
0.0066108328
0.0063196809
0.0060388445
0.0057679504
0.0055066314
0.0052545273
0.005011285
0.004776559
0.0045500115
0.004331313
0.0041201422
0.0039161857
0.0037191388
0.0035287042
0.0033445926
0.0031665216
0.0029942153
0.0028274036
0.0026658211
0.0025092066
0.0023573017
0.0022098506
0.0020665992
0.0019272954
0.0017916896
0.0016595365
0.0015305978
0.0014046472
0.0012814786
0.0011609179
0.0010428437
0.00092721946
0.00081414745
0.00070396011
0.00059737471
0.00049575579
0.00040154709
0.00031891489
0.00025448364
0.0002178058
0.010487383
0.010062446
0.0096519101
0.0092553989
0.0088725264
0.0085029055
0.0081461473
0.0078018622
0.0074696608
0.0071491554
0.0068399607
0.0065416946
0.0062539793
0.0059764418
0.0057087144
0.0054504357
0.0052012509
0.0049608122
0.0047287793
0.0045048194
0.0042886079
0.0040798282
0.0038781718
0.0036833382
0.0034950348
0.0033129763
0.0031368842
0.0029664866
0.0028015165
0.002641712
0.0024868141
0.002336567
0.0021907162
0.002049009
0.0019111939
0.0017770219
0.0016462483
0.0015186362
0.0013939626
0.0012720283
0.0011526731
0.0010358006
0.00092141793
0.00080970057
0.00070109755
0.00059650118
0.00049751306
0.00040683232
0.00032872968
0.00026936996
0.00023655778
0.010361357
0.0099421383
0.009537103
0.0091458795
0.0087680887
0.0084033501
0.0080512815
0.0077115
0.0073836231
0.0070672697
0.006762061
0.0064676217
0.00618358
0.0059095693
0.0056452281
0.0053902007
0.0051441382
0.0049066984
0.0046775464
0.0044563549
0.0042428045
0.0040365837
0.0038373888
0.0036449243
0.003458902
0.0032790413
0.0031050679
0.0029367138
0.0027737158
0.0026158151
0.0024627558
0.0023142842
0.0021701479
0.0020300953
0.0018938759
0.0017612414
0.001631948
0.0015057607
0.0013824609
0.0012618579
0.0011438075
0.0010282422
0.00091521725
0.00080498562
0.00069811289
0.00059565256
0.00049939698
0.00041219729
0.00033826504
0.00028319437
0.00025336513
0.010226679
0.0098135525
0.0094143774
0.009028789
0.0086564152
0.0082968823
0.0079498152
0.007614838
0.0072915751
0.0069796525
0.0066786985
0.0063883443
0.0061082252
0.0058379808
0.005577256
0.0053257017
0.0050829749
0.0048487393
0.0046226659
0.004404433
0.0041937269
0.0039902413
0.0037936779
0.0036037463
0.0034201632
0.0032426526
0.003070945
0.0029047764
0.0027438877
0.0025880236
0.0024369311
0.0022903592
0.0021480575
0.0020097758
0.0018752648
0.0017442771
0.0016165702
0.0014919117
0.0013700881
0.001250919
0.0011342785
0.0010201306
0.00090858213
0.0007999646
0.00069495493
0.00059474701
0.00050127445
0.00041745269
0.00034733032
0.00029591572
0.00026846425
0.010082911
0.0096762663
0.0092833279
0.008903738
0.0085371319
0.0081831431
0.0078414037
0.0075115453
0.0071931996
0.006886
0.0065895819
0.0063035839
0.006027648
0.005761421
0.0055045546
0.005256706
0.0050175388
0.004786723
0.0045639358
0.0043488615
0.0041411922
0.0039406273
0.0037468741
0.0035596476
0.0033786698
0.0032036696
0.0030343824
0.0028705488
0.0027119137
0.0025582256
0.0024092348
0.0022646931
0.0021243523
0.0019879638
0.0018552798
0.001726054
0.0016000457
0.0014770256
0.0013567866
0.0012391594
0.0011240389
0.0010114226
0.00090147032
0.00079459016
0.00069156091
0.00059369228
0.00050301188
0.00042243125
0.0003557784
0.00030751113
0.00028200733
0.0099296031
0.0095298472
0.0091435385
0.0087703267
0.0084098546
0.0080617633
0.0077256927
0.0074012818
0.0070881703
0.0067859991
0.0064944114
0.006213053
0.0059415736
0.005679627
0.0054268721
0.0051829732
0.0049476004
0.0047204307
0.0045011475
0.0042894416
0.0040850111
0.0038875617
0.0036968065
0.0035124659
0.0033342679
0.0031619465
0.0029952422
0.0028339004
0.0026776704
0.0025263048
0.0023795574
0.002237183
0.0020989356
0.0019645689
0.0018338364
0.0017064936
0.0015823017
0.0014610355
0.0013424948
0.0012265233
0.0011130376
0.0010020701
0.00089383292
0.00078880671
0.00068785944
0.00059239081
0.0005044808
0.00042698774
0.00036349417
0.00031796447
0.0002940925
0.009766296
0.009373853
0.0089945838
0.0086281458
0.0082741899
0.0079323649
0.0076023188
0.0072836987
0.0069761523
0.0066793286
0.0063928787
0.0061164563
0.0058497189
0.005592328
0.0053439497
0.0051042557
0.0048729235
0.0046496367
0.0044340858
0.0042259682
0.0040249885
0.0038308588
0.0036432983
0.0034620336
0.0032867983
0.0031173324
0.0029533814
0.0027946959
0.0026410301
0.0024921405
0.0023477851
0.0022077215
0.0020717068
0.0019394966
0.0018108463
0.0016855134
0.0015632617
0.0014438706
0.0013271478
0.0012129508
0.0011012188
0.00099201942
0.00088561508
0.00078255228
0.00068377392
0.00059074476
0.00050556244
0.00043099928
0.00037038865
0.00032726489
0.00030478631
0.009592522
0.0092078334
0.0088360303
0.0084767783
0.0081297363
0.0077945617
0.0074709107
0.007158439
0.0068568027
0.0065656593
0.0062846681
0.0060134913
0.0057517941
0.0054992462
0.0052555217
0.0050202997
0.0047932652
0.0045741093
0.0043625296
0.0041582306
0.0039609236
0.0037703275
0.003586168
0.003408178
0.0032360974
0.0030696718
0.0029086528
0.0027527961
0.0026018608
0.0024556082
0.0023138002
0.002176198
0.0020425614
0.0019126488
0.0017862176
0.0016630276
0.0015428459
0.0014254569
0.001310677
0.0011983782
0.0010885228
0.00098121268
0.00087675716
0.00077576068
0.00067922616
0.00058866055
0.00050615183
0.00043436627
0.00037639738
0.00033541046
0.00031414163
0.009407807
0.0090313313
0.0086674378
0.0083158
0.0079760856
0.0076479608
0.0073310905
0.0070251394
0.0067297725
0.0064446559
0.0061694578
0.005903849
0.0056475032
0.0054000983
0.0051613166
0.0049308454
0.0047083775
0.0044936117
0.004286253
0.0040860133
0.0038926112
0.0037057724
0.0035252297
0.0033507226
0.0031819973
0.0030188058
0.0028609055
0.0027080579
0.0025600274
0.00241658
0.0022774819
0.0021424983
0.0020113921
0.0018839244
0.0017598554
0.0016389473
0.0015209712
0.001405717
0.0012930105
0.0011827385
0.0010748863
0.00096958815
0.00086719618
0.00076836387
0.00067413964
0.0005860527
0.0005061606
0.00043701329
0.00038148025
0.00034241265
0.00032221068
0.0092116716
0.0088438849
0.0084883613
0.0081447823
0.0078128247
0.0074921642
0.0071824751
0.0068834313
0.0065947071
0.006315978
0.006046921
0.0057872159
0.0055365455
0.0052945962
0.005061059
0.0048356294
0.0046180086
0.0044079032
0.0042050264
0.0040090975
0.0038198428
0.0036369953
0.0034602949
0.0032894881
0.0031243278
0.0029645727
0.0028099864
0.0026603362
0.0025153923
0.0023749257
0.0022387072
0.0021065061
0.001978089
0.00185322
0.0017316622
0.0016131812
0.0014975521
0.001384571
0.0012740736
0.0011659617
0.0010602427
0.00095708128
0.0008568671
0.00076029382
0.00066844182
0.00058284589
0.00050551827
0.0004388881
0.00038562009
0.00034829811
0.00032905201
0.0090036342
0.0086450302
0.0082983536
0.0079632937
0.0076395377
0.0073267713
0.0070246786
0.0067329434
0.0064512497
0.0061792824
0.0059167282
0.0056632762
0.0054186182
0.00518245
0.0049544712
0.0047343862
0.0045219047
0.0043167418
0.0041186188
0.0039272631
0.0037424087
0.0035637965
0.0033911736
0.003224294
0.0030629177
0.00290681
0.0027557412
0.0026094849
0.002467817
0.0023305141
0.0021973519
0.002068104
0.0019425411
0.0018204307
0.0017015394
0.0015856363
0.0014725012
0.0013619371
0.0012537895
0.0011479755
0.0010445234
0.00094362555
0.00084570395
0.00075148369
0.00066206507
0.00057897479
0.00050416926
0.00043995747
0.00038881769
0.00035310546
0.00033473002
0.0087832144
0.0084343054
0.0080969689
0.0077709039
0.0074558093
0.0071513816
0.0068573154
0.0065733047
0.0062990435
0.0060342266
0.0057785507
0.0055317145
0.0052934193
0.0050633704
0.0048412766
0.0046268515
0.0044198136
0.0042198868
0.0040268008
0.0038402914
0.003660101
0.0034859782
0.003317678
0.003154962
0.0029975974
0.0028453569
0.0026980174
0.0025553593
0.0024171644
0.0022832152
0.0021532928
0.0020271754
0.0019046379
0.001785452
0.001669388
0.0015562192
0.0014457307
0.0013377324
0.0012320804
0.0011287062
0.0010276582
0.00092915332
0.00083364053
0.00074186829
0.00065494629
0.00057438232
0.00050206994
0.00044020069
0.00039108375
0.00035687768
0.0003393086
0.0085499431
0.00821126
0.007883769
0.0075671883
0.0072612294
0.0069655998
0.006680005
0.0064041494
0.0061377372
0.0058804737
0.0056320655
0.0053922214
0.0051606528
0.0049370744
0.004721205
0.0045127673
0.0043114891
0.0041171035
0.003929349
0.0037479701
0.0035727176
0.0034033483
0.0032396256
0.0030813187
0.0029282026
0.0027800574
0.0026366671
0.0024978189
0.0023633013
0.0022329027
0.0021064098
0.0019836061
0.0018642713
0.0017481813
0.0016351107
0.0015248378