/*--------------------------------*- C++ -*----------------------------------*\
| =========                 |                                                 |
| \\      /  F ield         | OpenFOAM: The Open Source CFD Toolbox           |
|  \\    /   O peration     | Version:  2312                                  |
|   \\  /    A nd           | Website:  www.openfoam.com                      |
|    \\/     M anipulation  |                                                 |
\*---------------------------------------------------------------------------*/
FoamFile
{
    version     2.0;
    format      ascii;
    arch        "LSB;label=32;scalar=64";
    class       volScalarField;
    location    "0.07";
    object      f_Bilger;
}
// * * * * * * * * * * * * * * * * * * * * * * * * * * * * * * * * * * * * * //

dimensions      [0 0 0 0 0 0 0];

internalField   nonuniform List<scalar> 
3224
(
0.010586486
0.010142446
0.0097127949
0.0092970615
0.0088947822
0.0085054976
0.0081287536
0.007764102
0.0074111018
0.0070693192
0.0067383285
0.0064177126
0.006107063
0.0058059799
0.0055140732
0.0052309616
0.0049562731
0.0046896452
0.0044307243
0.0041791661
0.0039346353
0.0036968056
0.0034653591
0.0032399869
0.003020388
0.0028062703
0.0025973497
0.0023933505
0.0021940055
0.0019990561
0.0018082523
0.001621353
0.0014381262
0.0012583491
0.0010818082
0.00090829931
0.00073762782
0.00056960871
0.00040406677
0.00024083689
7.9764133e-05
0.010585877
0.01014191
0.0097123202
0.0092966364
0.0088943993
0.008505152
0.0081284417
0.0077638209
0.0074108489
0.0070690924
0.0067381259
0.0064175324
0.0061069036
0.00580584
0.0055139513
0.0052308565
0.0049561838
0.0046895704
0.0044306631
0.0041791175
0.0039345983
0.0036967793
0.0034653427
0.0032399793
0.0030203885
0.0028062778
0.0025973633
0.0023933692
0.0021940284
0.0019990822
0.0018082805
0.0016213823
0.0014381556
0.0012583777
0.001081835
0.00090832351
0.00073764869
0.00056962567
0.00040407937
0.00024084482
7.9767006e-05
0.010584155
0.010140318
0.0097108379
0.0092952514
0.0088931034
0.008503939
0.0081273064
0.0077627589
0.0074098562
0.0070681654
0.0067372612
0.006416727
0.0061061545
0.0058051445
0.005513307
0.0052302609
0.0049556346
0.0046890656
0.0044302005
0.0041786953
0.0039342146
0.0036964322
0.0034650304
0.0032397
0.0030201404
0.0028060591
0.0025971721
0.0023932037
0.0021938867
0.0019989621
0.0018081802
0.0016212997
0.0014380888
0.0012583245
0.0010817937
0.00090829225
0.00073762587
0.00056960988
0.0004040694
0.00024083966
7.9765688e-05
0.010581323
0.010137668
0.0097083441
0.009292902
0.0088908897
0.0085018536
0.0081253428
0.0077609112
0.0074081189
0.0070665334
0.0067357299
0.0064152918
0.0061048113
0.0058038894
0.0055121361
0.0052291708
0.0049546219
0.004688127
0.0044293331
0.0041778961
0.0039334808
0.0036957611
0.0034644192
0.0032391461
0.0030196411
0.0028056117
0.0025967739
0.0023928518
0.0021935782
0.0019986942
0.0018079497
0.0016211037
0.0014379242
0.0012581885
0.0010816832
0.00090820467
0.00073755866
0.00056956077
0.00040403644
0.00024082117
7.9760091e-05
0.011035616
0.010577407
0.010133959
0.0097048354
0.0092895845
0.0088877544
0.008498892
0.008122547
0.0077582738
0.0074056331
0.0070641927
0.0067335282
0.0064132232
0.0061028704
0.0058020709
0.0055104352
0.0052275827
0.0049531422
0.0046867515
0.0044280578
0.004176717
0.0039323942
0.0036947633
0.0034635066
0.0032383152
0.0030188883
0.0028049335
0.0025961665
0.0023923116
0.0021931012
0.0019982766
0.0018075875
0.0016207929
0.0014376608
0.0012579684
0.0010815027
0.00090805995
0.00073744637
0.00056947784
0.00040398012
0.0002407891
7.9750123e-05
0.0110307
0.010572674
0.010129461
0.0097005691
0.0092855427
0.008883928
0.008495272
0.0081191248
0.0077550412
0.0074025821
0.0070613159
0.0067308185
0.006410674
0.0061004752
0.0057998237
0.0055083301
0.0052256143
0.0049513053
0.0046850412
0.0044264691
0.0041752455
0.0039310355
0.003693513
0.0034623606
0.0032372693
0.0030179383
0.0028040751
0.0025953955
0.0023916235
0.0021924916
0.0019977409
0.001807121
0.0016203908
0.0014373184
0.001257681
0.0010812657
0.00090786912
0.00073729758
0.00056936737
0.0004039047
0.00024074587
7.9736517e-05
0.011025041
0.010567281
0.010124331
0.0096956981
0.0092809229
0.0088795502
0.0084911268
0.0081152028
0.0077513334
0.00739908
0.0070580113
0.0067277035
0.0064077411
0.0060977174
0.0057972342
0.0055059024
0.0052233424
0.0049491832
0.0046830634
0.0044246304
0.0041735406
0.0039294596
0.0036920612
0.0034610282
0.0032360516
0.0030168307
0.0028030728
0.0025944937
0.0023908174
0.0021917761
0.0019971108
0.0018065711
0.0016199158
0.0014369129
0.0012573398
0.0010809837
0.00090764136
0.00073711951
0.00056923482
0.00040381392
0.00024069361
7.9719938e-05
0.011018221
0.010560799
0.010118163
0.009689837
0.0092753597
0.0088742747
0.0084861283
0.0081104706
0.007746857
0.0073948495
0.007054017
0.0067239362
0.0064041921
0.0060943782
0.0057940969
0.0055029594
0.0052205864
0.0049466074
0.0046806611
0.0044223953
0.0041714667
0.003927541
0.0036902923
0.0034594033
0.0032345652
0.0030154772
0.0028018467
0.0025933893
0.0023898288
0.0021908974
0.0019963359
0.0018058938
0.0016193297
0.0014364118
0.0012569174
0.0010806339
0.00090735833
0.0007368978
0.00056906944
0.0004037004
0.00024062807
7.9699021e-05
0.011482459
0.011010188
0.010553145
0.010110877
0.0096829092
0.0092687806
0.0088680326
0.0084802109
0.0081048658
0.0077415528
0.0073898343
0.0070492797
0.0067194662
0.0063999792
0.0060904126
0.0057903693
0.005499461
0.0052173087
0.0049435424
0.0046778011
0.0044197329
0.0041689949
0.0039252529
0.0036881813
0.0034574629
0.0032327889
0.0030138585
0.002800379
0.0025920661
0.0023886433
0.0021898426
0.0019954046
0.0018050788
0.0016186238
0.0014358074
0.0012564072
0.0010802108
0.00090701554
0.0007366289
0.00056886855
0.00040356229
0.00024054816
7.9673409e-05
0.011472703
0.01100084
0.01054423
0.010102386
0.0096748334
0.0092611081
0.0088607502
0.0084733047
0.0080983219
0.0077353577
0.0073839747
0.0070437428
0.0067142398
0.0063950516
0.0060857726
0.0057860062
0.0054953646
0.0052134693
0.0049399506
0.0046744482
0.0044166103
0.0041660945
0.0039225668
0.0036857018
0.0034551825
0.0032307001
0.0030119539
0.0027986512
0.0025905072
0.0023872455
0.002188598
0.0019943049
0.0018041156
0.0016177885
0.0014350916
0.0012558024
0.0010797088
0.00090660832
0.0007363091
0.00056862937
0.00040339765
0.00024045274
7.9642746e-05
0.011948637
0.011461436
0.010990068
0.010533955
0.010092599
0.0096655226
0.0092522598
0.0088523491
0.0084653353
0.0080907683
0.0077282044
0.0073772068
0.0070373459
0.0067081999
0.0063893553
0.0060804072
0.0057809594
0.0054906249
0.0052090254
0.0049357921
0.0046705648
0.0044129925
0.0041627328
0.0039194523
0.0036828257
0.0034525362
0.0032282751
0.0030097417
0.0027966431
0.0025886945
0.0023856193
0.002187149
0.0019930238
0.0018029927
0.0016168141
0.0014342558
0.0012550957
0.0010791216
0.0009061317
0.0007359345
0.00056834897
0.00040320446
0.00024034067
7.960667e-05
0.011935129
0.01144855
0.010977761
0.010522217
0.010081418
0.0096548845
0.0092421479
0.0088427462
0.0084562234
0.0080821297
0.0077200217
0.0073694631
0.0070300247
0.0067012856
0.0063828328
0.006074262
0.0057751777
0.0054851935
0.0052039318
0.0049310241
0.0046661111
0.004408842
0.0041588751
0.003915877
0.003679523
0.0034494964
0.0032254884
0.0030071985
0.0027943336
0.0025866088
0.0023837472
0.0021854801
0.0019915474
0.001801698
0.0016156899
0.0014332911
0.0012542794
0.001078443
0.00090558044
0.00073550096
0.00056802426
0.0004029806
0.00024021072
7.9564806e-05
0.012421941
0.011919796
0.011433924
0.010963803
0.010508907
0.01006874
0.0096428207
0.0092306791
0.0088318524
0.0084458846
0.008072326
0.0077107335
0.0073606713
0.007021711
0.0066934322
0.0063754228
0.0060672792
0.0057686066
0.0054790191
0.00519814
0.0049256014
0.0046610445
0.0044041193
0.0041544843
0.0039118067
0.0036757619
0.0034460335
0.003222313
0.0030042995
0.0027917001
0.0025842297
0.0023816109
0.0021835749
0.0019898613
0.0018002186
0.0016144047
0.0014321876
0.0012533452
0.001077666
0.00090494901
0.00073500414
0.00056765201
0.00040272387
0.00024006164
7.9516759e-05
0.012403802
0.011902505
0.011417432
0.01094807
0.010493909
0.010054454
0.0096292265
0.0092177539
0.0088195736
0.0084342294
0.008061272
0.0077002589
0.0073507547
0.007012332
0.006684571
0.0063670603
0.0060593973
0.0057611879
0.005472047
0.0051915986
0.0049194756
0.0046553199
0.004398782
0.004149521
0.0039072045
0.0036715084
0.0034421163
0.0032187199
0.0030010184
0.0027887187
0.0025815353
0.0023791908
0.0021814159
0.0019879498
0.0017985408
0.0016129467
0.0014309352
0.0012522845
0.0010767834
0.0009042315
0.00073443943
0.00056722877
0.00040243194
0.00023989209
7.9462116e-05
0.01290049
0.012383465
0.011883115
0.011398938
0.010930433
0.010477099
0.010038445
0.0096139909
0.0092032668
0.0088058093
0.0084211624
0.0080488773
0.0076885119
0.0073396319
0.0070018104
0.0066746286
0.0063576761
0.0060505509
0.0057528599
0.005464219
0.005184253
0.0049125955
0.0046488891
0.0043927851
0.0041439432
0.0039020316
0.0036667263
0.0034377114
0.0032146786
0.0029973271
0.0027853636
0.0025785025
0.0023764659
0.0021789842
0.0019857963
0.00179665
0.001611303
0.0014295229
0.001251088
0.0010757875
0.00090342169
0.00073380197
0.00056675099
0.00040210239
0.00023970072
7.9400452e-05
0.012876692
0.012360773
0.011861475
0.011378301
0.010910756
0.010458347
0.010020586
0.0095969959
0.0091871058
0.008790453
0.0084065824
0.0080350456
0.0076754014
0.0073272162
0.0069900642
0.0066635275
0.0063471965
0.0060406704
0.0057435572
0.0054554734
0.0051760449
0.0049049063
0.0046417009
0.0043860809
0.0041377065
0.0038962464
0.0036613772
0.0034327833
0.0032101563
0.0029931956
0.0027816077
0.0025751066
0.0023734141
0.0021762601
0.0019833831
0.0017945307
0.0016094601
0.001427939
0.0012497459
0.0010746702
0.00090251301
0.00073308668
0.00056621494
0.00040173276
0.00023948617
7.9331347e-05
0.013382016
0.012850255
0.012335558
0.011837427
0.011355369
0.010888894
0.010437515
0.010000748
0.0095781167
0.0091691518
0.0087733918
0.0083903819
0.0080196748
0.0076608303
0.0073134157
0.0069770061
0.0066511849
0.0063355435
0.0060296821
0.0057332098
0.0054457444
0.0051669126
0.00489635
0.004633701
0.0043786183
0.0041307632
0.0038898048
0.0036554203
0.0034272941
0.0032051184
0.0029885921
0.0027774218
0.0025713212
0.0023700116
0.0021732224
0.0019806916
0.0017921663
0.0016074037
0.0014261713
0.0012482476
0.0010734228
0.00090149856
0.00073228827
0.00056561687
0.00040132064
0.00023924713
7.9254414e-05
0.01335134
0.012820987
0.012307644
0.011810805
0.011329983
0.010864695
0.010414458
0.009978791
0.0095572206
0.0091492789
0.0087545056
0.008372447
0.0080026568
0.0076446959
0.0072981328
0.0069625437
0.0066375132
0.006322634
0.0060175076
0.005721744
0.0054349623
0.0051567905
0.0048868651
0.0046248315
0.0043703435
0.004123063
0.00388266
0.0036488119
0.0034212038
0.0031995278
0.0029834829
0.0027727753
0.0025671185
0.0023662333
0.0021698485
0.0019777016
0.0017895394
0.0016051185
0.0014242065
0.0012465822
0.0010720362
0.00090037116
0.00073140141
0.0005649531
0.00040086381
0.00023898254
7.9169365e-05
0.013317466
0.012788694
0.012276844
0.01178143
0.011301974
0.010837997
0.01038902
0.0099545678
0.0095341673
0.0091273535
0.0087336674
0.0083526568
0.0079838767
0.0076268891
0.007281264
0.0069465789
0.0066224196
0.0063083802
0.0060040636
0.0057090811
0.0054230531
0.0051456088
0.0048763859
0.004615031
0.0043611989
0.0041145523
0.003874762
0.003641506
0.0034144697
0.0031933452
0.0029778318
0.0027676353
0.0025624687
0.0023620524
0.0021661145
0.001974392
0.001786631
0.0016025881
0.0014220307
0.0012447379
0.001070501
0.00089912346
0.0007304208
0.00056422029
0.00040036058
0.00023869184
7.9076128e-05
0.013280207
0.012753175
0.012242966
0.011749118
0.011271164
0.010808629
0.01036104
0.0099279224
0.0095088083
0.0091032341
0.0087107427
0.0083308834
0.0079632127
0.0076072944
0.0072626996
0.0069290075
0.0066058053
0.0062926887
0.0059892619
0.0056951378
0.0054099382
0.0051332935
0.0048648431
0.0046042344
0.0043511236
0.0041051743
0.0038660579
0.0036334534
0.0034070463
0.003186529
0.0029716007
0.0027619669
0.0025573402
0.0023574403
0.0021619949
0.00197074
0.0017834215
0.0015997954
0.0014196293
0.0012427026
0.0010688074
0.00089774812
0.00072934156
0.00056341592
0.00039981036
0.0002383755
7.8975101e-05
0.013781711
0.013239382
0.012714222
0.012205803
0.011713671
0.011237363
0.010776411
0.010330343
0.0098986902
0.0094809866
0.0090767712
0.0086855889
0.0083069912
0.0079405362
0.0075857893
0.0072423234
0.0069097193
0.0065875659
0.0062754605
0.005973009
0.0056798258
0.0053955342
0.0051197664
0.0048521628
0.0045923726
0.0043400529
0.0040948684
0.0038564917
0.003624602
0.0033988855
0.0031790348
0.0029647488
0.002755733
0.0025516993
0.0023523669
0.0021574625
0.0019667217
0.0017798896
0.0015967221
0.0014169867
0.0012404635
0.0010669453
0.00089623812
0.00072815976
0.00056253909
0.00039921476
0.00023803615
7.8867649e-05
0.013734972
0.013194739
0.012671608
0.012165139
0.011674881
0.011200373
0.010741151
0.010296748
0.009866697
0.0094505359
0.0090478063
0.0086580555
0.0082808369
0.0079157107
0.0075622443
0.0072200124
0.0068885977
0.0065675909
0.006256591
0.0059552058
0.0056630514
0.005379753
0.0051049441
0.004838267
0.0045793722
0.0043279181
0.0040835708
0.0038460035
0.0036148964
0.0033899361
0.0031708154
0.0029572331
0.0027488943
0.0025455104
0.0023467998
0.0021524886
0.0019623115
0.001776013
0.0015933488
0.0014140866
0.0012380073
0.001064905
0.00089458724
0.00072687331
0.00056159206
0.00039857967
0.00023768074
7.8757204e-05
0.014812923
0.014239417
0.013683975
0.013146019
0.012625091
0.012120744
0.011632527
0.011159983
0.010702649
0.010260062
0.0098317589
0.0094172809
0.0090161723
0.008627983
0.0082522688
0.0078885921
0.0075365224
0.0071956365
0.0068655191
0.006545763
0.0062359692
0.0059357474
0.0056447156
0.0053625009
0.0050887387
0.0048230729
0.0045651556
0.0043146466
0.0040712134
0.0038345302
0.003604278
0.0033801439
0.0031618208
0.0029490076
0.0027414089
0.0025387355
0.002340705
0.0021470425
0.0019574822
0.0017717679
0.0015896551
0.001410912
0.0012353206
0.001062677
0.00089279096
0.00072548353
0.00056058284
0.00039791919
0.00023732501
7.8651723e-05
0.015341137
0.01475209
0.014181312
0.013628429
0.013092949
0.012574414
0.012072374
0.011586378
0.01111597
0.010660691
0.010220081
0.0097936816
0.0093810363
0.0089816926
0.0085952032
0.0082211267
0.0078590279
0.0075084786
0.007169058
0.006840353
0.0065219585
0.0062134779
0.0059145228
0.0056247135
0.0053436791
0.0050710569
0.0048064927
0.0045496403
0.0043001613
0.0040577243
0.0038220048
0.0035926845
0.0033694512
0.0031519981
0.0029400237
0.0027332324
0.0025313342
0.0023340459
0.0021410918
0.001952205
0.0017671291
0.0015856194
0.0014074452
0.00123239
0.0010602531
0.0008908477
0.0007239977
0.00055952989
0.0003972631
0.00023700292
7.8569506e-05
0.015271978
0.014685967
0.014118121
0.013568033
0.013035247
0.012519309
0.012019773
0.011536187
0.011068099
0.010615052
0.010176591
0.0097522605
0.0093416066
0.0089441807
0.0085595386
0.0081872416
0.0078268572
0.00747796
0.0071401315
0.0068129612
0.0064960464
0.0061889929
0.0058914146
0.0056029341
0.0053231827
0.0050517999
0.0047884336
0.0045327393
0.0042843804
0.0040430271
0.003808356
0.0035800499
0.003357797
0.0031412907
0.0029302296
0.0027243175
0.0025232637
0.002326784
0.0021346018
0.0019464493
0.0017620699
0.0015812193
0.001403668
0.0012292027
0.0010576272
0.00088876085
0.00072243308
0.00055846998
0.00039667105
0.00023678684
7.8553841e-05
0.01519692
0.014614205
0.014049528
0.013502477
0.012972613
0.012459492
0.011962669
0.011481696
0.011016123
0.010565498
0.010129367
0.0097072795
0.0092987857
0.0089034402
0.0085208018
0.0081504349
0.0077919102
0.0074448049
0.0071087035
0.006783198
0.0064678885
0.0061623832
0.0058662987
0.0055792601
0.0053009011
0.0050308635
0.0047687973
0.0045143603
0.0042672177
0.0040270411
0.0037935087
0.0035663042
0.0033451164
0.0031296391
0.0029195706
0.0027146142
0.0025144784
0.0023188781
0.0021275357
0.0019401827
0.0017565623
0.0015764311
0.0013995621
0.0012257467
0.0010547964
0.00088654149
0.00072082299
0.00055747128
0.00039625891
0.0002368314
7.8712246e-05
0.015115605
0.014536451
0.013975197
0.013431436
0.012904737
0.012394665
0.011900778
0.011422633
0.010959782
0.010511778
0.01007817
0.0096585114
0.0092523567
0.0088592639
0.0084787952
0.0081105186
0.0077540078
0.0074088431
0.007074612
0.0067509096
0.0064373387
0.0061335104
0.0058390441
0.0055535676
0.0052767172
0.0050081372
0.0047474801
0.0044944058
0.0042485815
0.0040096808
0.0037773831
0.0035513732
0.0033313408
0.0031169797
0.0029079882
0.0027040691
0.0025049299
0.0023102846
0.0021198545
0.0019333707
0.0017505765
0.0015712303
0.001395109
0.0012220118
0.0010517629
0.00088421191
0.00071922497
0.00055665317
0.00039624581
0.00023746944
7.9329192e-05
0.015027652
0.014452338
0.013894779
0.013354571
0.012831293
0.012324515
0.011833801
0.011358711
0.010898802
0.01045363
0.010022749
0.0096057169
0.0092020911
0.0088114338
0.0084333111
0.0080672945
0.0077129612
0.0073698949
0.0070376863
0.0067159336
0.006404243
0.0061022285
0.0058095125
0.0055257258
0.0052505074
0.0049835045
0.0047243721
0.0044727726
0.0042283752
0.0039908556
0.0037598947
0.0035351785
0.0033163973
0.0031032454
0.0028954208
0.0026926256
0.0024945668
0.0023009569
0.0021115167
0.0019259768
0.0017440812
0.0015655914
0.0013902907
0.0012179903
0.0010485353
0.00088180932
0.00071773002
0.000556212
0.00039703017
0.00023941712
8.1214026e-05
0.014932663
0.014361482
0.013807903
0.013271528
0.012751939
0.012248715
0.011761424
0.01128963
0.010832895
0.01039078
0.0099628427
0.0095486447
0.0091477487
0.0087597207
0.0083841308
0.0080205542
0.0076685719
0.0073277712
0.0069977465
0.0066780994
0.0063684393
0.0060683837
0.0057775582
0.0054955968
0.0052221415
0.0049568425
0.0046993575
0.0044493517
0.0042064966
0.0039704699
0.0037409542
0.0035176368
0.0033002088
0.0030883648
0.0028818027
0.0026802238
0.0024833343
0.0022908458
0.0021024782
0.0019179622
0.0017370436
0.0015594884
0.0013850897
0.0012136774
0.0010451297
0.00087938806
0.00071646843
0.0005564425
0.00039928513
0.00024417945
8.685069e-05
0.014830217
0.01426348
0.013714183
0.013181933
0.012666319
0.012166922
0.011683317
0.011215075
0.01076176
0.010322938
0.0098981735
0.0094870307
0.0090890773
0.0087038837
0.0083310243
0.0079700783
0.0076206309
0.0072822733
0.0069546035
0.0066372269
0.0063297567
0.0060318138
0.0057430275
0.005463035
0.0051914819
0.0049280213
0.0046723141
0.0044240282
0.0041828378
0.0039484225
0.0037204672
0.0034986602
0.0032826937
0.0030722624
0.0028670642
0.0026667998
0.0024711744
0.0022798988
0.0020926921
0.001909286
0.0017294289
0.0015528941
0.0013794893
0.0012090716
0.0010415697
0.00087701757
0.00071560253
0.00055772199
0.00040398114
0.00025463846
0.00010445658
0.014719874
0.014157909
0.013613214
0.013085398
0.012574056
0.012078776
0.011599137
0.011134715
0.010685081
0.010249803
0.0098284524
0.0094205981
0.0090258124
0.0086436701
0.0082737504
0.007915637
0.007568919
0.0072331921
0.0069080583
0.0065931271
0.0062880156
0.0059923485
0.0057057588
0.0054278876
0.0051583838
0.0048969042
0.0046431129
0.0043966807
0.0041572846
0.0039246068
0.0036983337
0.0034781556
0.0032637653
0.0030548581
0.0028511315
0.0026522859
0.0024580253
0.0022680599
0.0020821087
0.0018999046
0.0017212008
0.0015457809
0.001373473
0.0012041734
0.0010378833
0.00087477293
0.00071529403
0.00056039432
0.00041200181
0.0002745977
0.00016325423
0.014601176
0.014044329
0.013504571
0.012981514
0.012474761
0.011983902
0.011508523
0.011048206
0.010602525
0.010171057
0.0097533762
0.0093490569
0.0089576765
0.0085788151
0.0082120563
0.0078569887
0.007513206
0.0071803084
0.0068579023
0.0065456015
0.0062430272
0.0059498084
0.0056655821
0.0053899934
0.005122695
0.0048633474
0.0046116182
0.0043671815
0.0041297171
0.0038989098
0.0036744484
0.0034560246
0.0032433322
0.003036067
0.0028339264
0.0026366101
0.0024438214
0.0022552699
0.0020706749
0.0018897719
0.0017123209
0.0015381195
0.0013670244
0.0011989841
0.0010340979
0.0008727187
0.00071564953
0.00056454366
0.00042282925
0.00029826736
0.00021109728
0.014473642
0.013922279
0.013387812
0.012869858
0.012368024
0.011881908
0.0114111
0.010955186
0.010513749
0.01008637
0.009672628
0.0092721037
0.0088843798
0.0085090412
0.008145677
0.0077938807
0.0074532508
0.0071233924
0.0068039165
0.0064944416
0.0061945934
0.0059040055
0.005622319
0.0053491834
0.0050842554
0.0048271995
0.0045776871
0.0043353958
0.0041000085
0.003871213
0.0036487
0.0034321632
0.0032212975
0.0030157992
0.0028153657
0.002619696
0.0024284929
0.0022414655
0.0020583345
0.0018788389
0.0017027482
0.0015298793
0.0013601253
0.0011935027
0.0010302335
0.00087089398
0.00071669446
0.00057003157
0.00043562267
0.00032292218
0.0002514063
0.014336775
0.013791281
0.013262477
0.012749987
0.012253421
0.011772385
0.011306474
0.01085528
0.010418392
0.0099953955
0.0095858767
0.0091894219
0.0088056191
0.0084340589
0.0080743358
0.0077260485
0.0073888011
0.0070622034
0.0067458717
0.0064394293
0.0061425069
0.0058547425
0.0055757823
0.0053052799
0.0050428968
0.0047883015
0.0045411695
0.004301182
0.0040680257
0.0038413909
0.0036209712
0.0034064618
0.0031975591
0.0029939599
0.0027953615
0.0026014627
0.0024119657
0.0022265798
0.0020450274
0.0018670533
0.0016924392
0.0015210267
0.0013527547
0.0011877224
0.0010262967
0.0008693038
0.00071837441
0.00057657267
0.00044951017
0.00034712686
0.00028624523
0.014190056
0.013650835
0.013128086
0.012621439
0.01213051
0.011654909
0.011194238
0.010748097
0.010316077
0.0098977739
0.0094927777
0.0091006811
0.0087210783
0.0083535657
0.0079977435
0.0076532162
0.0073195933
0.0069964901
0.0066835283
0.0063803365
0.0060865503
0.0058018131
0.0055257758
0.0052580971
0.004998443
0.0047464866
0.0045019077
0.0042643916
0.0040336285
0.003809312
0.0035911382
0.0033788046
0.0031720088
0.0029704484
0.0027738207
0.0025818243
0.0023941611
0.0022105411
0.0020306898
0.0018543592
0.0016813469
0.0015115248
0.0013448869
0.0011816279
0.001022276
0.00086791792
0.00072058037
0.00058385775
0.00046384682
0.00037021752
0.00031690574
0.014032949
0.013500426
0.012984144
0.012483738
0.011998831
0.011529039
0.01107397
0.010633228
0.010206416
0.0097931309
0.0093929719
0.0090055376
0.0086304283
0.0082672467
0.007915599
0.0075750958
0.0072453525
0.0069259901
0.0066166361
0.0063169246
0.0060264968
0.0057450014
0.0054720947
0.0052074403
0.0049507095
0.0047015802
0.0044597366
0.0042248685
0.0039966698
0.0037748377
0.0035590712
0.0033490699
0.0031445329
0.0029451587
0.0027506448
0.0025606897
0.0023749956
0.0021932737
0.0020152534
0.0018406967
0.0016694201
0.0015013318
0.0013364889
0.0011751921
0.0010181389
0.00086667037
0.00072315793
0.00059156726
0.00047814684
0.00039189781
0.00034421036
0.013864898
0.013339518
0.012830135
0.012336389
0.011857909
0.011394317
0.010945228
0.010510254
0.010089002
0.009681078
0.0092860869
0.0089036343
0.0085333269
0.0081747743
0.007827589
0.0074913878
0.0071657925
0.0068504303
0.0065449345
0.0062489454
0.0059621098
0.0056840823
0.0054145248
0.0051531064
0.0048995035
0.0046533995
0.0044144833
0.0041824492
0.0039569955
0.0037378229
0.0035246336
0.0033171294
0.0031150114
0.0029179788
0.0027257298
0.0025379628
0.0023543806
0.0021746966
0.0019986456
0.0018260012
0.001656603
0.0014904001
0.0013275196
0.0011683744
0.0010138311
0.00086546513
0.00072592507
0.00059939753
0.00049204481
0.00041203759
0.0003686905
0.013685331
0.013167562
0.012665531
0.012178882
0.011707253
0.011250271
0.01080756
0.010378737
0.0099634169
0.0095612127
0.0091717366
0.0087946008
0.0084294195
0.0080758088
0.0077333881
0.0074017811
0.0070806159
0.0067695264
0.0064681524
0.0061761402
0.005893143
0.0056188214
0.0053528431
0.0050948833
0.004844624
0.0046017538
0.0043659672
0.0041369631
0.0039144443
0.0036981156
0.0034876822
0.0032828488
0.0030833183
0.002888791
0.0026989658
0.0025135416
0.0023322223
0.0021547241
0.0019807885
0.0018102032
0.0016428339
0.0014786752
0.0013179282
0.0011611199
0.0010092786
0.00086418352
0.00072868855
0.00060707361
0.00050526377
0.0004305772
0.00039069016
0.013493659
0.01298399
0.012489783
0.01201069
0.011546356
0.011096414
0.010660496
0.010238227
0.0098292275
0.0094331193
0.0090495217
0.0086780544
0.0083183387
0.0079699982
0.0076326595
0.0073059532
0.0069895145
0.0066829841
0.0063860085
0.0060982407
0.0058193405
0.0055489748
0.0052868178
0.0050325507
0.0047858615
0.0045464447
0.0043140001
0.0040882321
0.003868848
0.0036555567
0.0034480673
0.0032460872
0.0030493213
0.0028574715
0.0026702374
0.002487319
0.0023084216
0.0021332651
0.0019615993
0.0017932279
0.0016280454
0.0014660949
0.0013076538
0.0011533604
0.0010043905
0.00086269174
0.00073125442
0.0006143525
0.00051759
0.00044748353
0.00041043077
0.01328928
0.01278822
0.012302331
0.011831273
0.011374697
0.010932245
0.010503555
0.010088259
0.0096859876
0.0092963691
0.0089190306
0.0085535998
0.0081997057
0.0078569794
0.0075250551
0.0072035709
0.0068921694
0.0065904984
0.0062982116
0.0060149691
0.0057404374
0.0054742903
0.0052162086
0.00496588
0.0047229989
0.0044872659
0.0042583866
0.0040360709
0.0038200312
0.0036099808
0.0034056327
0.0032066974
0.0030128822
0.0028238906
0.0026394235
0.002459182
0.0022828737
0.0021102232
0.0019409897
0.0017749946
0.0016121635
0.0014525895
0.0012966258
0.0011450152
0.00099906337
0.00086084825
0.00073343608
0.00062102322
0.00052885622
0.00046273324
0.0004280551
0.013071574
0.012579655
0.0121026
0.011640077
0.011191743
0.010757249
0.01033624
0.0099283573
0.0095332391
0.0091505214
0.0087798399
0.0084208305
0.0080731301
0.007736378
0.0074102162
0.0070942908
0.0067882519
0.0064917551
0.0062044615
0.0059260385
0.00565616
0.0053945069
0.005140767
0.0048946348
0.0046558115
0.004424004
0.0041989242
0.0039802877
0.0037678123
0.0035612161
0.0033602162
0.0031645265
0.0029738569
0.002787913
0.0026063973
0.0024290124
0.0022554688
0.0020854967
0.0019188659
0.001755417
0.0015951078
0.0014380818
0.0012847647
0.0011359948
0.00099318611
0.00085851099
0.00073506108
0.00062690722
0.00053893315
0.00047631067
0.00044366005
0.012839914
0.012357689
0.011890005
0.011436536
0.010996949
0.010570901
0.010158046
0.0097580344
0.0093705124
0.0089951247
0.0086315156
0.0082793294
0.0079382116
0.0076078099
0.0072877746
0.0069777599
0.0066774242
0.006386431
0.0061044492
0.0058311539
0.0055662269
0.0053093563
0.0050602374
0.0048185719
0.0045840679
0.0043564392
0.0041354041
0.0039206845
0.0037120036
0.003509085
0.0033116498
0.0031194159
0.0029320961
0.0027493983
0.0025710268
0.0023966867
0.0022260918
0.0020589787
0.001895129
0.0017344033
0.0015767921
0.0014224879
0.0012719843
0.0011262031
0.0009866453
0.00085554416
0.00073597693
0.00063185982
0.00054772714
0.00048821315
0.00045732259
0.01259366
0.012121705
0.011663949
0.011220076
0.010789758
0.010372664
0.0099684563
0.0095767926
0.0091973286
0.0088297182
0.0084736144
0.0081286706
0.0077945412
0.0074708826
0.0071573538
0.0068536177
0.006559341
0.0062741956
0.0059978587
0.0057300137
0.00547035
0.0052185638
0.004974358
0.0047374418
0.0045075309
0.004284346
0.0040676123
0.0038570581
0.0036524127
0.003453405
0.003259761
0.0030712025
0.0028874457
0.0027082012
0.0025331756
0.002362077
0.0021946232
0.0020305579
0.0018696752
0.0017118564
0.0015571245
0.0014057185
0.0012581933
0.0011155415
0.00097932989
0.00085182361
0.00073605528
0.00063577145
0.00055518002
0.00049845749
0.00046911886
0.012332165
0.011871076
0.011423828
0.010990111
0.010569609
0.010161997
0.0097669469
0.0093841268
0.0090132012
0.0086538335
0.008305686
0.0079684213
0.0076417031
0.007325197
0.0070185711
0.0067214971
0.0064336509
0.0061547129
0.0058843689
0.0056223108
0.0053682364
0.00512185
0.0048828626
0.0046509914
0.0044259595
0.0042074953
0.0039953311
0.0037892019
0.0035888435
0.0033939903
0.0032043737
0.0030197197
0.0028397482
0.002664173
0.0024927038
0.0023250517
0.0021609394
0.0020001187
0.0018423965
0.0016876752
0.0015360089
0.0013876801
0.0012432974
0.0011039113
0.00097113458
0.00084724
0.00073519379
0.0006385663
0.00056126694
0.00050708265
0.0004791342
0.012054777
0.011605174
0.011169034
0.010746056
0.010335933
0.0099383499
0.009552989
0.0091795273
0.0088176393
0.0084669981
0.0081272756
0.0077981444
0.0074792776
0.0071703503
0.0068710403
0.0065810285
0.0062999999
0.0060276442
0.0057636561
0.0055077363
0.0052595912
0.0050189339
0.0047854835
0.0045589656
0.0043391112
0.0041256566
0.0039183415
0.0037169079
0.0035210985
0.0033306536
0.0031453102
0.0029647991
0.0027888444
0.0026171633
0.002449469
0.0022854767
0.0021249146
0.0019675428
0.0018131819
0.0016617549
0.0015133457
0.001368276
0.0012272007
0.0010912154
0.00096196109
0.00084169838
0.00073331171
0.00064019612
0.00056598918
0.00051414498
0.00048746246
0.011760846
0.011323369
0.010898958
0.010487321
0.010088161
0.009701175
0.0093260534
0.0089624841
0.0086101517
0.0082687393
0.0079379291
0.0076174035
0.0073068458
0.007005941
0.0067143766
0.0064318432
0.0061580355
0.0058926526
0.0056353986
0.0053859831
0.0051441218
0.0049095365
0.0046819551
0.0044611117
0.0042467456
0.0040386012
0.0038364261
0.0036399698
0.0034489816
0.0032632088
0.003082394
0.0029062732
0.0027345751
0.0025670211
0.0024033286
0.0022432172
0.0020864213
0.0019327102
0.0017819182
0.0016339886
0.001489033
0.001347408
0.001209807
0.0010773589
0.00095171763
0.00083511572
0.00073034558
0.00064063081
0.00056936235
0.00051970706
0.0004941967
0.011449729
0.011025042
0.010613
0.010213325
0.0098257327
0.0094499294
0.0090856171
0.0087324936
0.0083902539
0.0080585915
0.0077371992
0.0074257697
0.0071239966
0.0068315751
0.006548203
0.0062735809
0.0060074134
0.0057494094
0.0054992826
0.0052567523
0.0050215433
0.0047933867
0.0045720194
0.0043571842
0.0041486294
0.0039461075
0.0037493743
0.003558187
0.0033723026
0.0031914748
0.0030154527
0.0028439781
0.0026767846
0.0025135986
0.002354142
0.0021981397
0.0020453332
0.0018955012
0.0017484921
0.0016042685
0.0014629678
0.001324977
0.0011910203
0.0010622491
0.00094031723
0.00082741661
0.00072624106
0.00063984813
0.00057140404
0.00052382529
0.00049941768
0.011544529
0.011120822
0.01070959
0.010310572
0.0099235006
0.0095480998
0.0091840868
0.0088311737
0.0084890691
0.0081574787
0.0078361068
0.0075246567
0.0072228318
0.0069303366
0.0066468768