/*--------------------------------*- C++ -*----------------------------------*\
| =========                 |                                                 |
| \\      /  F ield         | OpenFOAM: The Open Source CFD Toolbox           |
|  \\    /   O peration     | Version:  2312                                  |
|   \\  /    A nd           | Website:  www.openfoam.com                      |
|    \\/     M anipulation  |                                                 |
\*---------------------------------------------------------------------------*/
FoamFile
{
    version     2.0;
    format      ascii;
    arch        "LSB;label=32;scalar=64";
    class       volScalarField;
    location    "0.07";
    object      k;
}
// * * * * * * * * * * * * * * * * * * * * * * * * * * * * * * * * * * * * * //

dimensions      [0 2 -2 0 0 0 0];

internalField   nonuniform List<scalar> 
3224
(
9.5389962
9.5461161
9.5547801
9.5649786
9.5767021
9.5899411
9.6046859
9.6209273
9.6386568
9.657866
9.6785475
9.700694
9.7242992
9.7493571
9.7758623
9.8038101
9.8331963
9.8640177
9.8962714
9.9299556
9.9650689
10.001611
10.039582
10.078982
10.119812
10.162074
10.205769
10.250899
10.297464
10.345466
10.394903
10.445775
10.49808
10.551815
10.606975
10.663554
10.721546
10.780942
10.841732
10.903908
10.967446
9.5390162
9.5461421
9.5548105
9.5650119
9.5767374
9.5899779
9.6047238
9.620966
9.6386959
9.6579054
9.6785868
9.7007331
9.7243379
9.7493951
9.7758994
9.8038462
9.8332312
9.8640513
9.8963035
9.9299861
9.9650978
10.001638
10.039607
10.079005
10.119834
10.162094
10.205788
10.250917
10.297481
10.345481
10.394917
10.445788
10.498092
10.551826
10.606985
10.663563
10.721554
10.780949
10.841738
10.903911
10.967447
9.5391145
9.5462462
9.5549176
9.5651206
9.5768468
9.5900873
9.6048327
9.621074
9.6388026
9.6580103
9.6786896
9.7008334
9.7244353
9.7494894
9.7759902
9.8039333
9.8333143
9.8641302
9.896378
9.9300561
9.9651631
10.001699
10.039663
10.079056
10.11988
10.162137
10.205826
10.25095
10.297511
10.345508
10.394941
10.445809
10.498111
10.551842
10.606999
10.663576
10.721565
10.780958
10.841744
10.903916
10.967449
9.5392923
9.5464288
9.5551017
9.5653049
9.5770304
9.5902695
9.6050129
9.6212516
9.6389769
9.6581809
9.6788559
9.700995
9.7245917
9.7496401
9.776135
9.8040716
9.8334459
9.8642546
9.8964951
9.9301656
9.9652649
10.001793
10.039749
10.079135
10.119952
10.162201
10.205883
10.251001
10.297555
10.345547
10.394975
10.445839
10.498136
10.551864
10.607018
10.663592
10.721578
10.780969
10.841752
10.903921
10.967451
9.533956
9.5395539
9.5466903
9.5553628
9.5655648
9.5772884
9.5905247
9.6052644
9.6214988
9.6392191
9.6584173
9.679086
9.7012182
9.7248073
9.7498476
9.7763339
9.8042613
9.8336261
9.8644248
9.896655
9.9303149
9.9654035
10.00192
10.039866
10.079241
10.120048
10.162286
10.20596
10.251069
10.297614
10.345598
10.395019
10.445877
10.498169
10.551892
10.607041
10.663611
10.721594
10.780981
10.841762
10.903927
10.967453
9.5342903
9.5398771
9.5470114
9.555682
9.5658816
9.577602
9.5908342
9.6055692
9.6217978
9.6395116
9.6587027
9.6793634
9.7014869
9.7250667
9.750097
9.7765727
9.804489
9.833842
9.8646287
9.8968464
9.9304935
9.9655691
10.002073
10.040006
10.079368
10.120162
10.162388
10.20605
10.251148
10.297684
10.345658
10.395071
10.445921
10.498206
10.551923
10.607067
10.663633
10.721611
10.780995
10.841771
10.903932
10.967455
9.5346658
9.5402489
9.5473802
9.556048
9.5662443
9.5779606
9.5911878
9.6059168
9.6221387
9.6398449
9.6590275
9.679679
9.7017924
9.7253615
9.7503804
9.7768439
9.8047474
9.8340872
9.8648599
9.8970634
9.9306959
9.9657567
10.002246
10.040164
10.079511
10.120291
10.162504
10.206152
10.251237
10.297762
10.345725
10.395128
10.44597
10.498247
10.551957
10.607096
10.663656
10.72163
10.781009
10.841782
10.903938
10.967457
9.5351166
9.5406986
9.5478261
9.55649
9.5666818
9.5783927
9.5916136
9.6063353
9.6225488
9.6402457
9.6594179
9.6800581
9.7021594
9.7257154
9.7507204
9.7771693
9.8050574
9.8343811
9.8651373
9.8973236
9.9309386
9.9659816
10.002453
10.040353
10.079683
10.120445
10.162641
10.206274
10.251344
10.297855
10.345805
10.395197
10.446028
10.498296
10.551998
10.607129
10.663683
10.721652
10.781026
10.841793
10.903945
10.967459
9.5316268
9.5356546
9.5412323
9.5483551
9.5570139
9.5672001
9.5789044
9.5921175
9.6068302
9.6230336
9.6407192
9.6598791
9.6805059
9.7025927
9.7261333
9.7511218
9.7775533
9.8054233
9.834728
9.8654645
9.8976306
9.9312249
9.966247
10.002697
10.040576
10.079885
10.120627
10.162804
10.206418
10.251471
10.297964
10.3459
10.395278
10.446096
10.498353
10.552046
10.607168
10.663715
10.721677
10.781045
10.841807
10.903953
10.967461
9.5322688
9.5362847
9.5418565
9.5489735
9.5576262
9.5678054
9.5795017
9.5927055
9.6074076
9.623599
9.6412714
9.6604168
9.6810278
9.7030976
9.7266201
9.7515894
9.7780007
9.8058494
9.835132
9.8658456
9.8979881
9.9315584
9.966556
10.002982
10.040836
10.080121
10.12084
10.162994
10.206586
10.251618
10.298092
10.34601
10.395372
10.446176
10.49842
10.552101
10.607214
10.663752
10.721706
10.781068
10.841823
10.903963
10.967464
9.5305839
9.5330061
9.5370129
9.5425777
9.549688
9.5583336
9.5685046
9.5801913
9.5933842
9.6080738
9.6242513
9.6419082
9.6610367
9.6816295
9.7036797
9.7271812
9.7521284
9.7785163
9.8063405
9.8355976
9.8662848
9.8984002
9.9319427
9.9669123
10.00331
10.041136
10.080393
10.121085
10.163212
10.206779
10.251788
10.29824
10.346138
10.39548
10.446267
10.498497
10.552165
10.607266
10.663794
10.72174
10.781094
10.841842
10.903974
10.967468
9.5314285
9.5338468
9.5378457
9.5434032
9.550506
9.5591432
9.5693046
9.5809803
9.5941604
9.6088356
9.624997
9.6426362
9.6617453
9.6823171
9.7043448
9.7278224
9.7527442
9.7791053
9.8069016
9.8361295
9.8667866
9.898871
9.9323819
9.9673193
10.003684
10.041479
10.080704
10.121364
10.163462
10.207
10.251982
10.298409
10.346283
10.395605
10.446373
10.498585
10.552238
10.607326
10.663843
10.721779
10.781124
10.841864
10.903988
10.967473
9.5315614
9.5323837
9.5347987
9.5387907
9.5443406
9.5514351
9.5600629
9.5702133
9.5818762
9.5950417
9.6097003
9.6258433
9.6434622
9.6625492
9.6830971
9.7050993
9.7285496
9.7534425
9.7797733
9.8075379
9.8367328
9.8673556
9.8994049
9.9328799
9.967781
10.004109
10.041867
10.081057
10.121682
10.163746
10.207252
10.252202
10.298601
10.346449
10.395746
10.446492
10.498685
10.552321
10.607395
10.663899
10.721823
10.781158
10.841889
10.904003
10.967478
9.5326347
9.5334585
9.5358706
9.5398562
9.5453983
9.5524838
9.5611009
9.5712388
9.5828871
9.5960359
9.6106757
9.6267978
9.6443936
9.6634556
9.6839766
9.7059498
9.7293694
9.7542298
9.7805263
9.808255
9.8374127
9.8679971
9.9000067
9.9334413
9.9683015
10.004589
10.042306
10.081455
10.12204
10.164066
10.207535
10.252451
10.298817
10.346635
10.395905
10.446627
10.498798
10.552415
10.607472
10.663961
10.721873
10.781196
10.841917
10.90402
10.967484
9.5346077
9.5338367
9.5346623
9.5370717
9.5410514
9.5465855
9.553661
9.5622662
9.5723899
9.5840217
9.5971516
9.6117702
9.6278686
9.6454385
9.6644724
9.6849629
9.7069037
9.7302886
9.7551125
9.7813707
9.8090592
9.8381751
9.8687162
9.9006815
9.9340708
9.9688851
10.005126
10.042797
10.081901
10.122442
10.164425
10.207853
10.25273
10.29906
10.346845
10.396084
10.446778
10.498925
10.55252
10.607558
10.66403
10.721928
10.781239
10.841947
10.904039
10.967491
9.5359416
9.5351774
9.536005
9.5384121
9.5423862
9.547912
9.5549767
9.5635685
9.5736763
9.5852895
9.5983981
9.6129927
9.6290646
9.6466055
9.6656077
9.6860642
9.7079686
9.7313149
9.7560979
9.7823131
9.8099568
9.839026
9.8695189
9.9014346
9.9347734
9.9695364
10.005726
10.043346
10.082399
10.122891
10.164826
10.208208
10.253042
10.299332
10.347079
10.396284
10.446947
10.499066
10.552637
10.607653
10.664107
10.721989
10.781285
10.841981
10.90406
10.967498
9.5397866
9.5374247
9.5366677
9.5374978
9.5399031
9.5438715
9.5493884
9.5564413
9.5650183
9.5751082
9.5867006
9.5997853
9.6143531
9.6303953
9.6479037
9.6668706
9.6872892
9.7091531
9.7324563
9.7571938
9.7833612
9.8109549
9.8399722
9.8704114
9.902272
9.9355546
9.9702607
10.006393
10.043956
10.082953
10.12339
10.165271
10.208603
10.253389
10.299633
10.347339
10.396506
10.447135
10.499223
10.552767
10.607759
10.664192
10.722056
10.781336
10.842018
10.904082
10.967507
9.541417
9.539068
9.5383195
9.5391527
9.5415565
9.5455192
9.5510266
9.5580665
9.5666269
9.5766969
9.5882659
9.601324
9.6158619
9.631871
9.6493432
9.6682709
9.6886473
9.7104661
9.7337215
9.7584085
9.7845229
9.8120611
9.8410209
9.8714006
9.9032001
9.9364203
9.9710633
10.007132
10.044632
10.083567
10.123943
10.165765
10.209041
10.253773
10.299968
10.347627
10.396752
10.447343
10.499397
10.55291
10.607875
10.664285
10.722128
10.781391
10.842056
10.904106
10.967515
9.5432144
9.5408842
9.5401458
9.5409828
9.5433853
9.547342
9.5528392
9.5598646
9.5684067
9.5784545
9.5899975
9.6030259
9.6175306
9.6335029
9.6509349
9.6698191
9.6901488
9.7119176
9.73512
9.7597512
9.7858068
9.8132838
9.8421798
9.8724938
9.9042258
9.9373771
9.9719504
10.007949
10.045379
10.084245
10.124554
10.166311
10.209525
10.254199
10.300338
10.347946
10.397025
10.447573
10.499588
10.553067
10.608002
10.664385
10.722205
10.781448
10.842097
10.90413
10.967524
9.5451971
9.5428888
9.5421613
9.5430025
9.5454037
9.5493539
9.5548397
9.5618492
9.5703709
9.580394
9.5919082
9.6049037
9.6193714
9.635303
9.6526905
9.6715266
9.6918046
9.7135182
9.7366622
9.7612316
9.7872225
9.8146318
9.8434576
9.873699
9.9053566
9.938432
9.9729284
10.00885
10.046203
10.084993
10.125228
10.166914
10.210058
10.254668
10.300746
10.348298
10.397325
10.447826
10.499799
10.553239
10.60814
10.664492
10.722286
10.781507
10.842137
10.904154
10.967533
9.551257
9.547388
9.5450981
9.5443816
9.5452273
9.547627
9.5515701
9.5570433
9.5640351
9.5725342
9.5825298
9.594012
9.606971
9.6213979
9.6372845
9.6546228
9.6734058
9.6936267
9.7152796
9.7383591
9.7628605
9.7887801
9.8161149
9.8448634
9.8750251
9.9066007
9.9395926
9.9740045
10.009841
10.04711
10.085817
10.12597
10.167577
10.210646
10.255184
10.301196
10.348686
10.397656
10.448104
10.50003
10.553427
10.608289
10.664606
10.722369
10.781564
10.842174
10.904175
10.967542
9.5536492
9.5498017
9.5475293
9.5468238
9.547674
9.5500717
9.5540067
9.559466
9.5664381
9.574912
9.5848773
9.596324
9.6092427
9.6236246
9.6394615
9.6567457
9.6754702
9.6956284
9.7172143
9.7402229
9.7646496
9.7904908
9.8177439
9.8464075
9.8764814
9.9079671
9.9408674
9.9751865
10.01093
10.048106
10.086721
10.126785
10.168306
10.211293
10.255753
10.301691
10.349113
10.398019
10.44841
10.500283
10.553631
10.608448
10.664725
10.722452
10.781616
10.842202
10.904189
10.967548
9.5687075
9.5616864
9.5562802
9.5524554
9.5502006
9.5495063
9.5503608
9.552756
9.5566818
9.5621253
9.5690755
9.5775216
9.5874534
9.5988609
9.6117352
9.6260674
9.6418496
9.6590742
9.6777344
9.6978236
9.7193361
9.7422669
9.7666115
9.7923667
9.8195301
9.8481007
9.8780786
9.9094657
9.9422655
9.976483
10.012125
10.049199
10.087714
10.12768
10.169107
10.212003
10.256377
10.302235
10.349582
10.398419
10.448746
10.500559
10.553852
10.608617
10.664846
10.722528
10.781653
10.842212
10.904187
10.967548
9.5800851
9.571516
9.5645444
9.5591683
9.5553681
9.5531317
9.5524489
9.5533075
9.5556994
9.5596146
9.5650405
9.5719663
9.5803816
9.5902761
9.6016406
9.6144658
9.6287434
9.6444655
9.6616247
9.6802143
9.7002278
9.7216598
9.7445053
9.7687602
9.7944212
9.8214864
9.849955
9.8798278
9.9111071
9.9437971
9.9779035
10.013434
10.050397
10.088803
10.128662
10.169985
10.212782
10.257063
10.302833
10.350097
10.398858
10.449113
10.50086
10.554089
10.608794
10.664962
10.722587
10.781662
10.842185
10.90415
10.967536
9.5831095
9.5745975
9.567675
9.5623343
9.5585612
9.5563444
9.5556733
9.5565355
9.5589231
9.5628261
9.5682322
9.5751309
9.5835119
9.5933655
9.6046824
9.6174538
9.6316714
9.6473275
9.664415
9.6829272
9.7028579
9.7242017
9.7469539
9.7711105
9.7966686
9.8236265
9.8519838
9.8817417
9.9129032
9.9454731
9.9794582
10.014867
10.051709
10.089995
10.129738
10.170948
10.213637
10.257815
10.303489
10.350663
10.399339
10.449515
10.501186
10.554342
10.608973
10.665066
10.722613
10.781615
10.842084
10.904043
10.967491
9.5864242
9.5779748
9.5711035
9.5658019
9.5620583
9.5598621
9.5592028
9.5600682
9.5624502
9.5663392
9.571723
9.5785915
9.5869347
9.5967431
9.6080077
9.6207199
9.6348717
9.6504555
9.6674645
9.685892
9.7057321
9.7269795
9.7496298
9.773679
9.7991247
9.8259654
9.8542012
9.8838338
9.9148668
9.9473058
9.9811585
10.016434
10.053144
10.0913
10.130916
10.172003
10.214575
10.25864
10.304209
10.351284
10.399867
10.449955
10.501539
10.554609
10.609148
10.665142
10.722581
10.781469
10.841845
10.903786
10.967367
9.5900571
9.581674
9.5748569
9.5695973
9.5658852
9.5637106
9.5630633
9.563931
9.566306
9.5701788
9.5755376
9.5823725
9.5906739
9.6004324
9.6116395
9.6242868
9.6383664
9.6538712
9.6707942
9.6891291
9.7088703
9.7300125
9.7525515
9.7764837
9.8018068
9.8285198
9.8566231
9.8861191
9.917012
9.9493085
9.9830169
10.018148
10.054714
10.092728
10.132205
10.173159
10.215602
10.259546
10.304999
10.351965
10.400445
10.450433
10.501918
10.554884
10.609309
10.665168
10.722446
10.781148
10.841343
10.903214
10.967032
9.594038
9.5857246
9.5789643
9.5737493
9.5700704
9.567918
9.5672825
9.5681515
9.5705178
9.574372
9.5797027
9.5865002
9.5947554
9.6044591
9.615603
9.6281791
9.6421798
9.657598
9.6744272
9.6926611
9.7122943
9.7333218
9.7557395
9.7795441
9.8047337
9.8313075
9.8592666
9.8886139
9.9193545
9.9514957
9.9850473
10.020021
10.05643
10.09429
10.133616
10.174424
10.216728
10.260539
10.305866
10.352713
10.401078
10.450953
10.502323
10.555162
10.609439
10.665112
10.722146
10.780532
10.84036
10.901965
10.966106
9.5983987
9.5901581
9.5834574
9.5782891
9.5746447
9.5725152
9.5718909
9.5727601
9.5751156
9.5789484
9.5842475
9.5910036
9.5992076
9.6088511
9.6199257
9.6324238
9.6463382
9.6616619
9.6783886
9.6965123
9.7160278
9.7369303
9.759216
9.7828818
9.807926
9.8343485
9.8621507
9.8913363
9.9219112
9.9538837
9.9872647
10.022067
10.058306
10.095999
10.135161
10.17581
10.217962
10.261628
10.306817
10.353532
10.40177
10.451517
10.50275
10.555434
10.609516
10.664929
10.721592
10.779443
10.838525
10.899284
10.963404
9.603174
9.5950094
9.5883707
9.5832511
9.5796422
9.5775355
9.5769218
9.5777896
9.580132
9.5839404
9.589204
9.595914
9.6040617
9.6136388
9.6246375
9.6370503
9.6508703
9.6660908
9.6827058
9.7007095
9.7200968
9.7408633
9.7630053
9.7865201
9.8114063
9.8376643
9.8652961
9.894306
9.9247009
9.9564902
9.9896859
10.024303
10.060357
10.097867
10.136851
10.177328
10.219314
10.262822
10.30786
10.35443
10.402524
10.452125
10.503197
10.555687
10.609514
10.664563
10.720675
10.777651
10.835302
10.893711
10.95499
9.6084018
9.6003161
9.5937419
9.5886724
9.5850997
9.5830158
9.5824116
9.583276
9.5856027
9.5893831
9.594607
9.6012658
9.6093513
9.6188555
9.629771
9.6420905
9.6558075
9.6709156
9.6874088
9.7052818
9.7245297
9.7451483
9.7671341
9.7904848
9.8151995
9.8412788
9.8687256
9.8975448
9.9277443
9.9593347
9.9923293
10.026744
10.062598
10.09991
10.138701
10.178991
10.220797
10.264132
10.309005
10.355413
10.403347
10.452777
10.503656
10.555905
10.6094
10.663956
10.719285
10.774943
10.830182
10.883292
10.92717
9.6141232
9.6061195
9.5996118
9.5945937
9.5910578
9.588996
9.5884
9.5892589
9.5915666
9.5953151
9.6004945
9.6070966
9.6151136
9.6245377
9.635362
9.6475797
9.6611842
9.6761697
9.6925304
9.7102612
9.7293575
9.7498153
9.7716315
9.7948042
9.8193327
9.8452182
9.8724642
9.9010767
9.9310643
9.9624389
9.9952155
10.029412
10.065048
10.102145
10.140727
10.180813
10.222422
10.265569
10.310259
10.35649
10.404241
10.453475
10.504122
10.556071
10.609143
10.663053
10.717347
10.771254
10.823362
10.870486
10.902161
9.6203834
9.6124645
9.6060253
9.6010597
9.5975605
9.5955202
9.5949306
9.5957813
9.5980665
9.6017786
9.6069082
9.6134475
9.6213888
9.6307252
9.6414497
9.653556
9.667038
9.6818899
9.6981064
9.7156827
9.7346143
9.7548976
9.7765298
9.7995092
9.8238357
9.8495112
9.8765396
9.9049279
9.9346858
9.9658267
9.9983669
10.032326
10.067726
10.104591
10.142944
10.182809
10.224205
10.267145
10.311635
10.357666
10.405212
10.454217
10.504588
10.55617
10.608715
10.661824
10.714849
10.766695
10.815426
10.857178
10.881454
9.6272319
9.6194006
9.6130316
9.6081192
9.6046565
9.6026364
9.602051
9.6028903
9.605149
9.6088198
9.6138937
9.6203633
9.6282214
9.6374614
9.6480769
9.6600616
9.67341
9.6881165
9.7041763
9.7215846
9.7403374
9.7604313
9.7818639
9.8046339
9.8287416
9.8541894
9.8809821
9.9091275
9.9386367
9.9695243
10.001808
10.035511
10.070655
10.107267
10.145372
10.184997
10.226159
10.268874
10.313143
10.358952
10.406263
10.455003
10.505047
10.556189
10.608101
10.660262
10.711838
10.761472
10.806919
10.844144
10.86375
9.634723
9.6269817
9.6206844
9.6158256
9.6123989
9.6103973
9.6098135
9.6106379
9.6128654
9.6164893
9.6215009
9.6278934
9.6356599
9.6447943
9.6552904
9.6671425
9.6803453
9.6948937
9.7107831
9.728009
9.7465678
9.7664564
9.7876727
9.8102157
9.8340864
9.8592876
9.8858251
9.9137077
9.9429476
9.973561
10.005568
10.038991
10.073858
10.110196
10.148033
10.187396
10.228304
10.270771
10.314796
10.360357
10.407402
10.455835
10.505495
10.55612
10.607298
10.658387
10.708395
10.755788
10.798186
10.831644
10.848186
9.6429164
9.6352673
9.6290428
9.6242377
9.6208459
9.6188608
9.6182754
9.6190807
9.6212718
9.6248426
9.6297848
9.6360918
9.6437576
9.6527761
9.6631418
9.6748492
9.6878935
9.70227
9.7179742
9.7350023
9.7533507
9.7730167
9.7939985
9.8162958
9.8399099
9.8648443
9.8911057
9.9187038
9.9476524
9.977969
10.009676
10.042798
10.077364
10.113405
10.15095
10.190027
10.230658
10.272853
10.316608
10.36189
10.408634
10.456716
10.505935
10.555967
10.606318
10.656239
10.704618
10.749819
10.789447
10.819778
10.834203
9.6518776
9.6443228
9.6381719
9.63342
9.6300616
9.6280904
9.6274998
9.6282811
9.63043
9.6339406
9.6388054
9.645018
9.6525729
9.6614645
9.6716876
9.6832373
9.6961091
9.7102986
9.7258018
9.7426151
9.7607354
9.7801603
9.8008883
9.8229196
9.846256
9.8709018
9.8968645
9.924155
9.9527884
9.982784
10.014166
10.046961
10.081202
10.11692
10.154148
10.192915
10.233243
10.275139
10.318594
10.363566
10.40997
10.457653
10.50637
10.555739
10.605186
10.653875
10.70061
10.743713
10.780849
10.808576
10.821474
9.661679
9.6542199
9.648143
9.6434437
9.6401166
9.6381561
9.6375559
9.6383078
9.6404078
9.6438506
9.648629
9.6547373
9.6621702
9.6709227
9.6809901
9.6923679
9.7050519
9.7190382
9.7343231
9.7509035
9.7687765
9.7879402
9.8083935
9.8301369
9.853173
9.8775068
9.9031465
9.9301045
9.958397
9.9880455
10.019076
10.051518
10.085406
10.120774
10.157657
10.196086
10.236082
10.27765
10.320774
10.3654
10.411421
10.458656
10.506814
10.555456
10.603939
10.651359
10.69647
10.737596
10.772502
10.79805
10.809794
9.6724
9.665038
9.6590349
9.6543868
9.6510886
9.6491349
9.6485201
9.6492363
9.6512799
9.6546462
9.6593284
9.6653213
9.6726201
9.6812203
9.6911175
9.7023079
9.7147876
9.728553
9.7436011
9.7599289
9.777534
9.7964148
9.8165707
9.8380028
9.8607141
9.8847105
9.9100013
9.9365997
9.964524
9.9937971
10.024447
10.056507
10.090012
10.125001
10.16151
10.19957
10.239202
10.28041
10.323167
10.367408
10.413004
10.459741
10.507285
10.555144
10.602619
10.648757
10.69229
10.73157
10.764485
10.788199
10.799035
9.6841288
9.6768645
9.6709347
9.6663357
9.6630631
9.6611117
9.6604763
9.6611498
9.6631286
9.6664087
9.6709837
9.6768491
9.6840005
9.6924337
9.7021452
9.7131312
9.7253885
9.738914
9.7537049
9.7697587
9.7870735
9.805648
9.8254822
9.8465776
9.8689378
9.8925696
9.9174832
9.9436933
9.9712195
10.000087
10.030326
10.061971
10.095063
10.129639
10.165741
10.203399
10.242634
10.283445
10.325798
10.369613
10.414738
10.460927
10.507807
10.554837
10.601276
10.646137
10.688151
10.725718
10.756858
10.779014
10.789113
9.6969625
9.6897961
9.6839382
9.6793858
9.6761346
9.6741801
9.6735174
9.67414
9.6760444
9.6792275
9.6836833
9.6894077
9.6963969
9.7046472
9.7141555
9.7249187
9.736934
9.7501986
9.7647104
9.7804671
9.7974673
9.8157103
9.8351963
9.8559275
9.8779082
9.901146
9.9256521
9.9514427
9.9785389
10.006968
10.036762
10.06796
10.100602
10.134732
10.17039
10.20761
10.246411
10.286786
10.328695
10.372039
10.416646
10.46224
10.508409
10.554574
10.599959
10.643561
10.684125
10.720108
10.74966
10.770479
10.779965
9.7110089
9.7039397
9.6981517
9.6936423
9.6904075
9.6884434
9.6877454
9.6883078
9.6901271
9.693201
9.697524
9.7030925
9.7099032
9.717953
9.7272393
9.7377594
9.749511
9.7624921
9.7767006
9.7921351
9.8087944
9.8266783
9.8457875
9.8661249
9.8876955
9.9105075
9.9345736
9.9599109
9.9865427
10.014498
10.043812
10.074525
10.106681
10.140326
10.175503
10.212245
10.25057
10.290468
10.331887
10.374716
10.418758
10.463708
10.509124
10.554393
10.598717
10.641088
10.680271
10.714789
10.742916
10.762575
10.771541
9.726387
9.7194136
9.7136925
9.7092213
9.7059969
9.7040154
9.703273
9.7037644
9.7054864
9.7084373
9.7126123
9.7180082
9.7246223
9.732452
9.7414953
9.75175
9.7632145
9.7758869
9.7897661
9.8048508
9.8211405
9.8386355
9.857337
9.8772485
9.8983757
9.9207279
9.9443186
9.9691667
9.995297
10.022741
10.051535
10.081724
10.113354
10.146473
10.181126
10.217348
10.255154
10.294529
10.335412
10.377676
10.421104
10.465365
10.509988
10.554337
10.597598
10.638767
10.676638
10.709798
10.73664
10.755282
10.763798
9.7432287
9.7363484
9.7306899
9.7262511
9.7230293
9.7210212
9.7202235
9.7206314
9.722242
9.7250544
9.7290641
9.7342687
9.740666
9.748254
9.7570311
9.7669958
9.778147
9.7904836
9.8040046
9.8187096
9.8345985
9.8516721
9.8699323
9.8893831
9.9100311
9.9318866
9.9549642
9.9792841
10.004873
10.031764
10.059998
10.08962
10.12068
10.153229
10.187314
10.222969
10.260209
10.299012
10.339309
10.380957
10.423721
10.467247
10.51104
10.554447
10.596646
10.636642
10.673263
10.705161
10.730836
10.748576
10.756698
9.7616791
9.7548878
9.749286
9.7448718
9.7416432
9.7395974
9.7387314
9.7390414
9.7405242
9.7431801
9.7470052
9.7519973
9.758155
9.765477
9.7739621
9.7836097
9.7944189
9.8063894
9.8195209
9.8338134
9.8492674
9.8658844
9.8836668
9.9026195
9.9227497
9.9440687
9.9665924
9.9903426
10.015348
10.041643
10.069271
10.098281
10.128725
10.160657
10.194125
10.229163
10.265785
10.303965
10.343622
10.384601
10.42665
10.469394
10.512321
10.554764
10.595901
10.634751
10.670176
10.700892
10.725499
10.742432
10.750201
9.7818969
9.7751887
9.7696355
9.765236
9.7619887
9.7598914
9.7589417
9.7591366
9.7604728
9.7629517
9.7665697
9.7713254
9.777218
9.7842467
9.7924112
9.8017112
9.8121468
9.8237181
9.8364255
9.8502697
9.8652518
9.8813739
9.8986392
9.9170531
9.9366241
9.9573641
9.9792905
10.002426
10.026802
10.052455
10.07943
10.10778
10.137559
10.168822
10.201621
10.23599
10.27194
10.30944
10.348401
10.388656
10.429935
10.47185
10.513872
10.555329
10.5954
10.633124
10.667397
10.696999
10.720618
10.736817
10.74427
9.8040542
9.7974209
9.7919049
9.7875068
9.7842259
9.7820604
9.7810084
9.7810678
9.7822353
9.7845132
9.7878985
9.7923906
9.7979892
9.8046941
9.8125058
9.8214248
9.8314517
9.8425874
9.854833
9.8681898
9.8826598
9.8982456
9.9149514
9.9327833
9.9517506
9.9718664
9.9931491
10.015624
10.039322
10.064283
10.090556
10.118194
10.147255
10.177797
10.209872
10.243516
10.278736
10.315497
10.353703
10.393174
10.433628
10.474663
10.51574
10.556184
10.595182
10.631791
10.664946
10.693483
10.716177
10.7317
10.738862
9.8359915
9.8283381
9.8217632
9.8162686
9.8118548
9.8085214
9.8062671
9.8050904
9.80499
9.805963
9.808012
9.8111354
9.8153328
9.8206047
9.8269518
9.834375
9.8428758
9.8524555
9.8631158
9.8748586
9.887686
9.9016007
9.9166061
9.9327072
9.949911
9.9682278
9.9876716
10.008262
10.030026
10.052997
10.077216
10.102734
10.129607
10.157896
10.18766
10.218954
10.251813
10.286242
10.322202
10.359589
10.398214
10.437785
10.477886
10.517975
10.557376
10.595285
10.630782
10.66284
10.69035
10.712164
10.727053
10.733943
9.8711211
9.8625061
9.8549307
9.8483959
9.8429027
9.8384516
9.8350423
9.8326739
9.8313456
9.8310566
9.831805
9.8335931
9.8364209
9.8402886
9.8451973
9.8511486
9.8581441
9.8661861
9.8752769
9.8854189
9.896615
9.908868
9.9221816
9.9365601
9.9520094
9.9685373
9.9861549
10.004878
10.024727
10.045729
10.067921
10.091345
10.116055
10.142108
10.169569
10.198498
10.22895
10.260962
10.294537
10.329631
10.366133
10.403847
10.442471
10.481583
10.520635
10.558956
10.595755
10.630135
10.661105
10.687611
10.708576
10.722861
10.729494
9.9095581
9.9000447
9.8915286
9.8840109
9.877493
9.871976
9.8674604
9.8639462
9.8614332
9.8599211
9.8594099
9.8598989
9.8613898
9.8638844
9.8673834
9.8718887
9.8774027
9.8839281
9.8914679
9.9000254
9.909604
9.9202074
9.9318397
9.9445052
9.9582093
9.9729587
9.9887624
10.005632
10.023585
10.042642
10.062833
10.084195
10.106772
10.13062
10.155799
10.182374
10.210409
10.239959
10.271059
10.303713
10.337873
10.373422
10.410156
10.447766
10.485827
10.523791
10.56099
10.59665
10.629897
10.659778
10.685293
10.705428
10.719129
10.725514
9.941061
9.9316674
9.9232255
9.9157379
9.909207
9.9036343
9.8990208
9.895367
9.8926734
9.8909405
9.8901688
9.8903592
9.8915126
9.8936328
9.8967211
9.9007803
9.9058136
9.9118246
9.9188175
9.9267966
9.9357663
9.9457314
9.9566969
9.9686683
9.9816519
9.9956554
10.010688
10.026764
10.0439
10.062118
10.08145
10.101933
10.123613
10.146547
10.170798
10.196431
10.223512
10.252097
10.282221
10.313885
10.347039
10.381561
10.417242
10.453769
10.490712
10.527528
10.563557
10.59804
10.630131
10.658914
10.683438
10.702754
10.715883
10.722025
9.97543
9.9661236
9.9577219
9.9502288
9.9436476
9.9379808
9.93323
9.9293966
9.9264818
9.9244868
9.9234133
9.923263
9.9240371
9.9257404
9.9283754
9.9319456
9.9364553
9.9419092
9.9483125
9.9556706
9.9639892
9.9732741
9.9835315
9.9947678
10.00699
10.020207
10.03443
10.049671
10.065949
10.083287
10.101716
10.121276
10.142014
10.163986
10.187256
10.211892
10.237961
10.265518
10.294598
10.325201
10.357273
10.39069
10.425239
10.460604
10.496357
10.531958
10.566759
10.600019
10.630921
10.658586
10.682112
10.700608
10.713171
10.719071
10.012736
10.003475
9.9950719
9.9875306
9.980856
9.9750518
9.9701206
9.9660647
9.9628863
9.9605876
9.9591709
9.958639
9.9589945
9.9602413
9.9623846
9.9654282
9.9693777
9.9742387
9.9800177
9.9867212
9.994356
10.002929
10.012448
10.022919
10.034351
10.046753
10.060136
10.074513
10.089902
10.106329
10.123822
10.142422
10.162177
10.183143
10.205384
10.22897
10.253966
10.280429
10.308394
10.337858
10.368767
10.400993
10.434322
10.468439
10.502917
10.537226
10.57073
10.602711
10.632378
10.658893
10.681402
10.699072
10.711065
10.716721
10.052941
10.04368
10.035228
10.027593
10.02078
10.014796
10.009642
10.005324
10.001845
9.9992063
9.9974128
9.9964678
9.9963752
9.9971388
9.9987651
10.001259
10.004628
10.008877
10.014015
10.020049
10.026987
10.034837
10.043606
10.053303
10.063935
10.075512
10.088043
10.101543
10.116029
10.131524
10.148058
10.16567
10.184407
10.204326
10.22549
10.247969
10.271829
10.297126
10.323894
10.352131
10.381782
10.412718
10.444725
10.477492
10.510597
10.543521
10.575646
10.606275
10.634649
10.659969
10.68143
10.698254
10.709669
10.715073
10.09587
10.086562
10.07802
10.070251
10.063265
10.057067
10.051663
10.047057
10.043256
10.040261
10.038079
10.036713
10.036169
10.03645
10.037563
10.039516
10.042314
10.045966
10.050479
10.055862
10.062124
10.069273
10.077315
10.086258
10.096109
10.106876
10.118568
10.131198
10.144779
10.159335
10.174894
10.191492
10.209176
10.228001
10.248032
10.269336
10.29198
10.316021
10.341492
10.368393
10.396668
10.426192
10.456753
10.488045
10.519657
10.551082
10.581723
10.610908
10.637912
10.661977
10.682346
10.698294
10.709112
10.714256
10.141202
10.13182
10.123165
10.115248
10.108079
10.101665
10.096016
10.091136
10.087032
10.083709
10.081173
10.079427
10.078478
10.078331
10.07899
10.080464
10.082758
10.085881
10.089841
10.094646
10.100303
10.106818
10.114197
10.122446
10.131568
10.141567
10.152452
10.164229
10.176912
10.19052
10.205079
10.220624
10.237201
10.254863
10.273674
10.293704
10.315018
10.337676
10.361713
10.387131
10.413876
10.441829
10.470783
10.500442
10.530408
10.560191
10.589217
10.616843
10.642379
10.665109
10.684326
10.699356
10.709551
10.71442
10.188537
10.179103
10.170368
10.162347
10.15505
10.148489
10.142672
10.137608
10.133304
10.129765
10.126997
10.125004
10.123789
10.123358
10.123712
10.124858
10.126801
10.129546
10.133099
10.137465
10.142648
10.14865
10.155472
10.163115
10.171577
10.180858
10.190959
10.201885
10.213647
10.226261
10.239751
10.254151
10.269507
10.285875
10.303317
10.321906
10.341712
10.362796
10.385198
10.408924
10.433928
10.460097
10.487235
10.515057
10.543184
10.571145
10.598393
10.624317
10.648263
10.66956
10.687549
10.701607
10.711144
10.71572
10.247654
10.237628
10.228278
10.219619
10.211664
10.204429
10.197926
10.192165
10.187154
10.1829
10.179407
10.176677
10.174713
10.173514
10.173079
10.173406
10.174494
10.176342
10.178951
10.182318
10.186443
10.191322
10.196949
10.203318
10.21042
10.218248
10.226796
10.23606
10.246045
10.256758
10.268218
10.280451
10.293495
10.307397
10.322218
10.338027
10.3549
10.372912
10.392133
10.412609
10.434354
10.457331
10.481437
10.50649
10.532221
10.55827
10.584192
10.609468
10.63352
10.655734
10.675483
10.692154
10.705178
10.714018
10.718279
10.298639
10.289045
10.280147
10.271958
10.264491
10.257759
10.251772
10.246538
10.24206
10.23834
10.235375
10.233162
10.231694
10.230962
10.230954
10.231656
10.233054
10.235132
10.237879
10.241281
10.245324
10.249994
10.255275
10.261153
10.267612
10.27464
10.28223
10.290381
10.299101
10.308407
10.318326
10.328893
10.340158
10.352176
10.365019
10.378763
10.393495
10.409298
10.42625
10.444407
10.463794
10.484383
10.506086
10.528735
10.55208
10.575782
10.599422
10.622512
10.64451
10.66484
10.68292
10.698183
10.710108
10.71821
10.722136
10.354124
10.34575
10.338121
10.331243
10.325116
10.319738
10.315106
10.311214
10.30805
10.305601
10.303854
10.302793
10.3024
10.302654
10.303525
10.304976
10.306965
10.309452
10.312403
10.315791
10.319591
10.323782
10.328345
10.333269
10.338543
10.344163
10.350134
10.356474
10.36321
10.37038
10.378034
10.386227
10.395024
10.404499
10.414733
10.425817
10.437843
10.450908
10.465096
10.480474
10.497074
10.514882
10.533819
10.553735
10.574396
10.595487
10.616616
10.637324
10.657104
10.675419