/*--------------------------------*- C++ -*----------------------------------*\
| =========                 |                                                 |
| \\      /  F ield         | OpenFOAM: The Open Source CFD Toolbox           |
|  \\    /   O peration     | Version:  2312                                  |
|   \\  /    A nd           | Website:  www.openfoam.com                      |
|    \\/     M anipulation  |                                                 |
\*---------------------------------------------------------------------------*/
FoamFile
{
    version     2.0;
    format      ascii;
    arch        "LSB;label=32;scalar=64";
    class       volScalarField;
    location    "0.07";
    object      Ma;
}
// * * * * * * * * * * * * * * * * * * * * * * * * * * * * * * * * * * * * * //

dimensions      [0 0 0 0 0 0 0];

internalField   nonuniform List<scalar> 
3224
(
0.00045048255
0.00041400035
0.00037830294
0.00034339171
0.00030925619
0.00027588706
0.00024327586
0.00021141553
0.00018029976
0.0001499232
0.00012028152
9.1372899e-05
6.3203168e-05
3.5814213e-05
9.7764956e-06
1.7893714e-05
4.2980741e-05
6.7615647e-05
9.1610055e-05
0.0001149404
0.00013760319
0.00015960054
0.00018093674
0.00020161778
0.00022165081
0.00024104433
0.00025980797
0.00027795273
0.00029549076
0.00031243562
0.00032880207
0.00034460621
0.00035986541
0.00037459767
0.00038882505
0.00040256131
0.00041586338
0.00042864845
0.00044138324
0.00045249498
0.00046849323
0.00045081385
0.00041434518
0.00037866313
0.0003437713
0.00030965887
0.00027631665
0.00024373718
0.00021191502
0.00018084684
0.00015053243
0.00012097736
9.2201205e-05
6.4266712e-05
3.7430427e-05
1.4001385e-05
2.0048903e-05
4.3699481e-05
6.792561e-05
9.1723999e-05
0.00011493565
0.00013751613
0.00015945092
0.00018073633
0.00020137397
0.00022136838
0.00024072639
0.00025945648
0.00027756881
0.00029507492
0.00031198792
0.00032832228
0.00034409392
0.00035932027
0.00037401965
0.0003882148
0.00040192051
0.00041519536
0.00042795736
0.00044067743
0.00045177614
0.0004677665
0.0004514492
0.00041501074
0.00037936408
0.0003445136
0.00031044832
0.00027715998
0.0002446429
0.00021289482
0.00018191756
0.00015171998
0.00012232456
9.378707e-05
6.6261956e-05
4.0314659e-05
1.9553837e-05
2.3423034e-05
4.4888349e-05
6.8382322e-05
9.1819308e-05
0.00011480976
0.00013723598
0.00015905342
0.00018024379
0.00020080083
0.00022072438
0.00024001834
0.00025868921
0.00027674578
0.00029419859
0.00031105999
0.00032734389
0.0003430659
0.0003582434
0.00037289501
0.00038704428
0.00040070729
0.00041394493
0.00042667611
0.00043937844
0.00045045895
0.00046643741
0.00045243264
0.00041604169
0.0003804515
0.00034566436
0.0003116698
0.00027846116
0.00024603553
0.00021439497
0.00018354839
0.0001535167
0.00012434467
9.6133608e-05
6.914609e-05
4.4251617e-05
2.5597598e-05
2.7550566e-05
4.6480901e-05
6.8952188e-05
9.186679e-05
0.00011453487
0.00013673617
0.00015838288
0.00017943563
0.00019987663
0.00021969903
0.00023890244
0.00025749058
0.00027547029
0.00029285068
0.00030964303
0.00032586048
0.00034151807
0.00035663301
0.00037122416
0.00038531599
0.00039892603
0.00041211837
0.00042481191
0.00043749744
0.00044855094
0.00046452889
0.00049094552
0.00045386051
0.00041753875
0.00038202749
0.00034732573
0.00031342462
0.00028031984
0.00024801196
0.00021650845
0.00018582664
0.00015600157
0.00012710301
9.9281163e-05
7.2903233e-05
4.9068985e-05
3.1905516e-05
3.2129888e-05
4.8392299e-05
6.9579955e-05
9.1813784e-05
0.00011405967
0.00013596763
0.00015739349
0.00017826992
0.00019856391
0.00021825959
0.000237351
0.00025583813
0.00027372526
0.00029101963
0.00030773111
0.00032387173
0.00033945576
0.0003545
0.00036902343
0.00038305143
0.00039660314
0.00040974622
0.0004224
0.00043507225
0.00044609504
0.00046208074
0.00049269039
0.00045567107
0.00041943085
0.00038400812
0.00034940079
0.00031560196
0.00028261006
0.00025042956
0.00021907366
0.00018856852
0.00015896335
0.00013035229
0.00010292985
7.7147265e-05
5.4235563e-05
3.8034722e-05
3.6798044e-05
5.054626e-05
7.0314802e-05
9.1764522e-05
0.00011352221
0.00013509376
0.00015626944
0.00017694895
0.00019708107
0.00021663922
0.00023561067
0.00025399099
0.00027178134
0.00028898674
0.00030561527
0.00032167763
0.00033718706
0.00035215979
0.00036661475
0.00038057822
0.00039407101
0.00040716467
0.00041977926
0.00043244189
0.00044343534
0.00045943584
0.00049465356
0.00045768002
0.00042150207
0.00038614816
0.00035161573
0.00031790038
0.00028500342
0.00025293333
0.00022170914
0.00019136584
0.00016196659
0.00013362857
0.00010658599
8.1357262e-05
5.9247384e-05
4.3783636e-05
4.1547826e-05
5.3187556e-05
7.1554896e-05
9.2187943e-05
0.00011343331
0.00013465512
0.00015557488
0.00017605646
0.00019602856
0.0002154525
0.00023430791
0.00025258516
0.00027028177
0.00028740002
0.00030394593
0.00031992852
0.00033535986
0.00035025551
0.0003646346
0.00037852446
0.00039194869
0.00040498212
0.00041755222
0.00043018611
0.00044117703
0.00045714315
0.00049703095
0.00046008888
0.00042395818
0.00038865801
0.00035418647
0.00032054166
0.00028772813
0.00025575867
0.00022465862
0.0001944723
0.00016527736
0.000137214
0.00011055378
8.5870838e-05
6.4505453e-05
4.9660439e-05
4.6650126e-05
5.6409486e-05
7.3337411e-05
9.3080098e-05
0.00011375874
0.00013459561
0.00015523752
0.00017550794
0.00019531228
0.00021459773
0.00023333467
0.00025150728
0.00026910855
0.00028613739
0.00030259713
0.00031849476
0.00033384082
0.00034865015
0.00036294209
0.00037674547
0.00039008757
0.00040304677
0.00041556293
0.00042814957
0.0004391548
0.00045505899
0.00053761212
0.00049991394
0.00046299773
0.0004269066
0.00039165228
0.00035723384
0.00032365228
0.00029091552
0.00025904114
0.00022806104
0.00019802922
0.00016903769
0.00014124868
0.00011496651
9.0806499e-05
7.0106331e-05
5.5739807e-05
5.2043242e-05
6.0085134e-05
7.5542286e-05
9.4318893e-05
0.00011437022
0.0001347809
0.00015511816
0.00017516046
0.0001947867
0.00021392757
0.00023254274
0.00025060893
0.00026811375
0.00028505197
0.00030142371
0.00031723338
0.00033248969
0.00034720645
0.00036140331
0.00037511065
0.00038836047
0.00040123428
0.00041368976
0.00042621317
0.00043724828
0.00045306716
0.00054100462
0.00050331645
0.00046642823
0.00043037403
0.00039516195
0.00036079311
0.00032727142
0.00029460858
0.000262827
0.00023196539
0.00020208723
0.00017329838
0.0001457808
0.00011986563
9.6193306e-05
7.6067047e-05
6.2040841e-05
5.7689747e-05
6.4137333e-05
7.8100685e-05
9.5835048e-05
0.00011519169
0.0001351269
0.00015512513
0.00017491557
0.00019434732
0.0002133323
0.0002318177
0.00024977164
0.00026717536
0.00028401881
0.00030029816
0.00031601478
0.00033117508
0.00034579162
0.00035988418
0.00037348492
0.00038663095
0.00039940757
0.00041179275
0.00042424083
0.00043531019
0.00045103851
0.00058336614
0.0005449033
0.00050722967
0.0004703728
0.00043435632
0.0003991871
0.00036486833
0.00033140714
0.00029881899
0.00026713136
0.00023638953
0.00020666627
0.00017807993
0.00015082947
0.00012526567
0.00010203885
8.2393309e-05
6.8583089e-05
6.3583776e-05
6.8529993e-05
8.0980033e-05
9.7593694e-05
0.00011617962
0.00013558002
0.00015519524
0.00017470143
0.00019391459
0.00021272542
0.0002310669
0.0002488972
0.00026619023
0.00028293023
0.00029910884
0.00031472372
0.00032977853
0.00034428416
0.00035826036
0.00037174102
0.00038476899
0.00039743356
0.00040973606
0.00042209427
0.00043320072
0.00044882642
0.00058772973
0.00054927664
0.00051162758
0.00047480728
0.00043883209
0.00040370894
0.00036944356
0.00033604619
0.00030353627
0.00027194613
0.00024132756
0.00021176169
0.00018337802
0.00015638891
0.00013115781
0.00010833105
8.9078055e-05
7.5378428e-05
6.973059e-05
7.3251342e-05
8.4174799e-05
9.9589828e-05
0.0001173219
0.00013611857
0.00015529726
0.00017447801
0.00019344057
0.00021205188
0.00023022888
0.00024791839
0.00026508589
0.00028170905
0.00029777417
0.00031327461
0.00032821064
0.00034259103
0.00035643516
0.00036977862
0.00038267012
0.00039520403
0.00040740609
0.00041965867
0.00043079646
0.00044630868
0.00063175662
0.00059252961
0.00055409562
0.00051648085
0.00047970284
0.00044377418
0.00040870254
0.00037449594
0.00034116795
0.00030874172
0.00027725446
0.00024676386
0.00021735873
0.00018917766
0.000162443
0.00013752383
0.0001150515
9.6111015e-05
8.2436041e-05
7.6140084e-05
7.830247e-05
8.7694651e-05
0.00010183737
0.00011862792
0.00013674374
0.00015542355
0.00017422941
0.00019290187
0.00021128166
0.00022926769
0.00024679393
0.00026381627
0.00028030483
0.00029623976
0.00031160931
0.00032640972
0.00034064698
0.00035433966
0.00036752474
0.00038025702
0.00039263663
0.00040471531
0.00041684143
0.0004280001
0.00044338038
0.00063693976
0.00059773349
0.00055933241
0.00052176107
0.00048503227
0.00044915671
0.00041414306
0.00038000192
0.00034674991
0.00031441399
0.00028303578
0.00025267849
0.00022343735
0.00019545827
0.00016896977
0.00014434062
0.0001221784
0.00010348014
8.9761443e-05
8.28221e-05
8.3689606e-05
9.155722e-05
0.00010436255
0.00012012317
0.00013747515
0.00015558644
0.00017396071
0.00019229701
0.00021040739
0.00022817078
0.00024550671
0.0002623602
0.00027869278
0.00029447751
0.00030969664
0.00032434156
0.00033841473
0.00035193314
0.00036493479
0.00037748028
0.0003896767
0.0004016021
0.00041357592
0.00042473626
0.00043995864
0.00068245268
0.00064249418
0.00060331946
0.00056496363
0.00052744416
0.00049077166
0.0004549562
0.00042000782
0.0003859394
0.00035277069
0.00032053208
0.00028926941
0.0002590506
0.00022997629
0.0002021975
0.00017594574
0.00015158405
0.00012969031
0.00011117361
9.7358241e-05
8.9785124e-05
8.9420547e-05
9.5782815e-05
0.00010719822
0.00012184372
0.00013834578
0.00015581325
0.00017369319
0.00019164155
0.00020943959
0.00022694423
0.00024405899
0.00026071662
0.00027686893
0.00029248082
0.00030752759
0.00032199475
0.00033588022
0.00034919844
0.00036198761
0.00037431372
0.0003862915
0.00039802613
0.00040981348
0.00042094799
0.0004359779
0.00068832141
0.00064839766
0.00060926959
0.00057096937
0.00053350998
0.0004969012
0.0004611532
0.00042627741
0.00039228914
0.00035921096
0.00032707663
0.00029593563
0.00026585997
0.00023695438
0.00020937315
0.00018334757
0.00015923089
0.00013756718
0.00011918071
0.00010522853
9.7036145e-05
9.5502552e-05
0.00010039145
0.00011037979
0.00012383221
0.00013939811
0.00015614279
0.0001734608
0.00019096461
0.00020840296
0.00022560897
0.00024246841
0.00025890045
0.00027484588
0.0002902603
0.00030511092
0.00031937619
0.00033304819
0.00034613751
0.00035868127
0.00037074981
0.00038246625
0.00039396278
0.00040551989
0.0004165895
0.00043137696
0.00073515969
0.00069451492
0.00065463762
0.00061556911
0.00057733346
0.00053994182
0.00050340392
0.00046773051
0.0004329346
0.00039903371
0.00036605314
0.00033402961
0.00030301587
0.00027308718
0.00024435122
0.00021696365
0.00019115299
0.0001672593
0.00014579085
0.00012749163
0.00011337318
0.00010457996
0.00010194095
0.00010540004
0.00011394135
0.00012613351
0.00014068006
0.00015662131
0.00017330624
0.0001903049
0.00020733246
0.0002241966
0.00024076384
0.00025693826
0.00027264835
0.00028783918
0.00030246856
0.00031650643
0.00032993748
0.00034276656
0.00035502791
0.00036679453
0.00037819775
0.00038939703
0.00040066563
0.00041161666
0.00042609825
0.00074161065
0.00070101914
0.00066120345
0.00062220441
0.00058404141
0.00054672489
0.00051026491
0.00047467308
0.00043996399
0.00040615736
0.00037328097
0.00034137421
0.00031049255
0.0002807138
0.00025214735
0.00022494865
0.00019934114
0.00017564947
0.00015434523
0.00013609784
0.00012179225
0.00011241982
0.00010873896
0.0001108217
0.00011791347
0.00012879185
0.00014224189
0.00015729969
0.00017327819
0.00018970792
0.00020627029
0.0002227464
0.00023898204
0.00025486484
0.00027030964
0.00028524962
0.00029963174
0.00031341582
0.00032657708
0.00033911227
0.00035105005
0.0003624634
0.00037349083
0.00038431829
0.00039522278
0.00040598177
0.00042006502
0.00074835747
0.00070782819
0.00066808421
0.00062916295
0.00059107995
0.00055384542
0.00051747
0.00048196638
0.00044735076
0.00041364486
0.00038087876
0.00034909414
0.0003183487
0.00028872198
0.00026032412
0.00023330878
0.00020789265
0.0001843833
0.00016321602
0.0001449916
0.00013048503
0.0001205572
0.00011589744
0.00011666485
0.00012232124
0.00013184793
0.00014413326
0.00015823046
0.00017342854
0.00018922326
0.00020526331
0.0002213026
0.00023716504
0.00025272051
0.00026786885
0.00028252995
0.00029663837
0.00031014182
0.00032300366
0.00033520935
0.00034677825
0.00035777919
0.00036835506
0.00037871691
0.00038915522
0.00039961985
0.00041318409
0.00075539238
0.00071493153
0.00067526785
0.00063643164
0.00059843552
0.00056128959
0.0005250052
0.0004895962
0.00045508037
0.00042148134
0.00038883117
0.00035717355
0.00032656783
0.00029709462
0.00026886375
0.00024202596
0.00021678972
0.00019344464
0.00017239071
0.00015416618
0.00013945033
0.0001289924
0.00012341529
0.00012293368
0.00012718374
0.00013533736
0.00014640109
0.0001594658
0.00017381045
0.00018890283
0.00020436128
0.00021991266
0.0002353583
0.00025054917
0.00026536891
0.00027972269
0.00029353094
0.00030672711
0.00031925969
0.00033109894
0.00034224968
0.00035277059
0.00036280351
0.00037258078
0.00038241841
0.00039244664
0.00040531213
0.00080383731
0.00076269798
0.00072231496
0.00068274064
0.00064399685
0.00060609423
0.00056904326
0.00053285614
0.00049754797
0.00046313804
0.00042965173
0.00039712285
0.00036559667
0.00033513374
0.00030581504
0.00027774926
0.00025108312
0.00022601594
0.0002028189
0.00018185822
0.00016361543
0.0001486865
0.00013772452
0.00013128967
0.00012962837
0.00013251368
0.00013928929
0.00014908775
0.00016105557
0.00017447661
0.0001887993
0.00020361544
0.000218626
0.00023360951
0.00024839728
0.00026285562
0.00027687365
0.00029035588
0.0003032191
0.00031539349
0.0003268291
0.00033750946
0.00034747412
0.00035685487
0.00036589743
0.00037495112
0.00038433813
0.00039625501
0.00081131775
0.00077025443
0.00072996375
0.00069048819
0.00065184386
0.00061404128
0.00057709157
0.00054100795
0.00050580676
0.00047150877
0.00043814089
0.00040573844
0.00037434793
0.00034403061
0.0003148672
0.00028696449
0.0002604644
0.00023555631
0.00021249303
0.00019160878
0.00017333387
0.00015819156
0.0001467519
0.00013951644
0.00013674591
0.00013831789
0.00014372605
0.0001522299
0.000163046
0.00017547798
0.00018896497
0.00020307758
0.00021749313
0.00023196786
0.00024631308
0.00026037695
0.0002740313
0.00028716305
0.00029966971
0.00031145927
0.00032245554
0.00033261181
0.00034193625
0.00035053521
0.00035865323
0.00036667674
0.00037513006
0.00038571736
0.00090325035
0.00086075169
0.00081902313
0.00077804928
0.00073786378
0.00069849515
0.00065995727
0.00062226121
0.00058541908
0.00054944521
0.0005143572
0.00048017718
0.00044693346
0.00041466256
0.00038341188
0.00035324289
0.00032423554
0.00029649406
0.00027015486
0.00024539701
0.00022245517
0.00020163356
0.00018331632
0.00016796317
0.00015607207
0.0001480904
0.00014428067
0.00014459798
0.00014866306
0.00015585775
0.00016547856
0.00017686269
0.00018945092
0.00020279941
0.00021656525
0.00023048376
0.00024434651
0.00025798307
0.00027124705
0.00028400622
0.00029613629
0.00030751876
0.00031804433
0.00032762489
0.0003362203
0.00034388852
0.00035084564
0.00035750528
0.0003645879
0.00037327451
0.00095407814
0.00091095206
0.00086856664
0.00082693472
0.00078606988
0.00074599964
0.00070674542
0.00066832077
0.00063073781
0.00059400973
0.00055815205
0.0005231836
0.00048912778
0.00045601405
0.00042387992
0.00039277329
0.00036275548
0.00033390512
0.00030632334
0.00028014057
0.00025552531
0.00023269456
0.00021192456
0.0001935579
0.00017799862
0.00016568195
0.00015700556
0.00015222507
0.00015135115
0.00015410929
0.00015999467
0.00016838909
0.00017867506
0.00019030614
0.00020283189
0.00021589375
0.00022920853
0.000242549
0.00025572628
0.00026857528
0.0002809434
0.00029268223
0.0003036426
0.00031367433
0.0003226348
0.00033041309
0.00033698464
0.00034249143
0.00034733506
0.0003524037
0.00035829677
0.00096182935
0.0009188331
0.00087656111
0.00083504522
0.00079430197
0.0007543549
0.00071522205
0.00067691745
0.0006394543
0.00060284699
0.00056711221
0.00053226998
0.00049834482
0.00046536717
0.00043337524
0.00040241711
0.00037255354
0.00034386142
0.00031643831
0.0002904083
0.00026592924
0.00024320113
0.00022247421
0.00020405372
0.00018829478
0.00017557786
0.00016625529
0.00016057009
0.00015857107
0.00016006792
0.00016465736
0.00017180745
0.00018095499
0.00019157694
0.00020322475
0.00021553
0.00022819435
0.00024097361
0.00025366129
0.00026607375
0.00027803743
0.0002893781
0.0002999121
0.00030944089
0.00031775224
0.00032463754
0.00032994144
0.00033365665
0.00033609113
0.00033816844
0.00033983341
0.00096973782
0.00092686993
0.0008847306
0.00084334157
0.00080272896
0.00076291185
0.00072390726
0.00068572964
0.00064839332
0.00061191385
0.00057630908
0.00054160011
0.00050781246
0.00047497733
0.00044313334
0.00041232847
0.00038262255
0.00035409033
0.00032682545
0.0003009454
0.00027659746
0.00025396533
0.00023327521
0.00021479874
0.000198848
0.00018575547
0.00017583241
0.00016930565
0.00016624863
0.0001665371
0.00016985604
0.00017575709
0.00018373722
0.00019330608
0.00020402584
0.00021552479
0.00022749389
0.00023967478
0.00025184509
0.00026380361
0.00027535614
0.00028630197
0.00029642044
0.00030545805
0.00031311854
0.00031906372
0.00032294529
0.00032449749
0.00032375013
0.00032137493
0.00031649169
0.00097777889
0.00093506073
0.00089305724
0.00085180676
0.0008113318
0.00077165172
0.00073278241
0.00069473905
0.00065753699
0.00062119289
0.00058572571
0.00055115752
0.00051751464
0.00048482887
0.00045313897
0.00042249251
0.00039294806
0.00036457791
0.0003374715
0.00031173954
0.0002875189
0.00026497778
0.00024432019
0.00022578756
0.00020965397
0.00019620982
0.00018572922
0.00017842088
0.00017437268
0.00017351083
0.00017559513
0.00018025519
0.00018705096
0.00019553232
0.00020528058
0.00021592794
0.00022716003
0.00023870815
0.00025033678
0.00026182915
0.00027297199
0.00028353902
0.00029327225
0.00030185952
0.00030890871
0.00031392131
0.00031628433
0.00031531111
0.00031047143
0.00030147672
0.0002861551
0.00098594457
0.00094337557
0.00090152411
0.00086041932
0.00082009036
0.00078055448
0.00074182801
0.00070392667
0.00066686682
0.00063066621
0.00059534475
0.00056092538
0.00052743507
0.00049490596
0.00046337674
0.00043289428
0.00040351562
0.00037531028
0.00034836326
0.00032277843
0.00029868252
0.00027622903
0.0002556015
0.0002370142
0.00022070762
0.00020693514
0.00019593744
0.0001879043
0.00018293047
0.00018097974
0.00018187377
0.00018531274
0.00019091953
0.00019828965
0.00020703112
0.00021678748
0.00022724516
0.00023812991
0.00024919686
0.00026021694
0.00027096081
0.0002811797
0.0002905809
0.00029879502
0.0003053292
0.00030950276
0.0003103629
0.00030663255
0.00029672893
0.00027805108
0.00024586027
0.00099420273
0.00095180241
0.00091010639
0.00086915817
0.00082898278
0.00078959925
0.00075102371
0.00071327279
0.00067636376
0.00064031536
0.00060514836
0.00057088643
0.00053755701
0.00050519239
0.00047383093
0.00044351856
0.00041431049
0.00038627328
0.0003594873
0.0003340496
0.00031007701
0.00028770921
0.00026711091
0.00024847191
0.00023200296
0.00021792484
0.0002064482
0.00019774389
0.00019190809
0.00018893178
0.00018868666
0.00019093504
0.00019536034
0.00020160689
0.00020931578
0.00021814899
0.00022780042
0.00023799595
0.00024848619
0.00025903423
0.00026939933
0.0002793154
0.00028846167
0.00029641883
0.00030260078
0.00030613944
0.00030570444
0.00029924733
0.00028356911
0.0002512383
0.00019150801
0.0010025398
0.00096030797
0.00091878323
0.00087799907
0.00083798666
0.00079876399
0.00076034832
0.00072275692
0.00068600804
0.00065012125
0.00061511812
0.00058102287
0.00054786323
0.00051567144
0.00048448532
0.00045434961
0.00042531748
0.00039745231
0.00037082974
0.00034554004
0.00032169053
0.00029940784
0.00027883939
0.00026015295
0.00024353291
0.00022917129
0.00021725183
0.00020792702
0.00020129071
0.00019735279
0.00019602466
0.00019712205
0.00020038485
0.00020550724
0.00021216814
0.00022005457
0.0002288746
0.00023836055
0.00024826427
0.00025834657
0.00026836118
0.00027803197
0.00028701946
0.00029486835
0.00030091824
0.00030413938
0.00030283178
0.00029415218
0.0002728095
0.00022283432
0.00011816802
0.0010109204
0.00096887672
0.00092752725
0.00088691865
0.0008470781
0.00080802598
0.00076977981
0.00073235785
0.00069577915
0.00066006411
0.00062523491
0.00059131618
0.00055833579
0.00052632571
0.00049532301
0.00046537103
0.00043652071
0.00040883207
0.000382376
0.00035723605
0.00033351041
0.00031131351
0.00029077686
0.00027204843
0.00025528918
0.00024066573
0.00022833783
0.00021844049
0.00021106271
0.00020622694
0.00020387549
0.00020386907
0.00020599883
0.00021000801
0.0002156165
0.00022254186
0.0002305129
0.00023927488
0.00024858721
0.00025821459
0.00026791179
0.00027740025
0.00028633189
0.00029423008
0.00030038419
0.00030364046
0.00030200498
0.00029206462
0.00026710822
0.00019921139
2.8852409e-05
0.0010193282
0.00097747318
0.0009363152
0.00089589073
0.00085623287
0.00081736142
0.00077929531
0.00074205347
0.00070565579
0.00067012333
0.00063547878
0.00060174704
0.00056895591
0.00053713692
0.00050632619
0.00047656549
0.00044790333
0.0004203963
0.00039411046
0.00036912284
0.00034552289
0.00032341359
0.00030291194
0.00028414802
0.00026726201
0.0002523981
0.00023969462
0.00022927028
0.00022120767
0.00021553701
0.00021222419
0.00021116718
0.00021220259
0.00021512047
0.00021968317
0.00022564307
0.00023275552
0.00024078512
0.00024950516
0.00025869036
0.00026810242
0.00027746611
0.00028643049
0.00029450286
0.00030092705
0.00030442234
0.00030271286
0.00029212045
0.00026581326
0.00018258774
7.0610697e-05
0.0010277251
0.00098607908
0.00094511777
0.00090489002
0.00086542527
0.00082674585
0.00078887107
0.00075182085
0.00071561575
0.00068027741
0.00064582886
0.00061229512
0.00057970378
0.00054808573
0.00051747597
0.00048791451
0.00045944735
0.00043212752
0.0004060163
0.00038118437
0.00035771284
0.00033569407
0.00031523172
0.00029643982
0.00027944005
0.00026435682
0.00025130941
0.00024040147
0.00023170836
0.00022526453
0.00022105354
0.00021900376
0.00021899132
0.00022084982
0.00022438399
0.00022938389
0.0002356362
0.00024293055
0.00025105985
0.00025981393
0.00026896516
0.00027824281
0.00028728863
0.00029557833
0.00030226631
0.00030583891
0.00030352317
0.00029064304
0.00025714826
0.00016439386
0.00016056956
0.0010360926
0.00099465737
0.00095390965
0.00091388869
0.00087462937
0.00083615374
0.00079848247
0.00076163611
0.00072563586
0.0006905038
0.00065626318
0.00062293897
0.00059055838
0.00055915151
0.00052875209
0.00049939824
0.0004711333
0.00044400674
0.00041807512
0.00039340294
0.00037006347
0.00034813914
0.00032772147
0.00030891002
0.00029181009
0.00027652856
0.00026316789
0.00025181792
0.00024254651
0.00023538976
0.00023034428
0.00022736282
0.0002263554
0.00022719513
0.00022972785
0.00023378261
0.00023918088
0.0002457418
0.0002532824
0.00026161088
0.00027051067
0.00027971005
0.00028882695
0.00029726612
0.0003040126
0.0003071767
0.00030323091
0.00028631213
0.00024452147
0.00015428695
0.00021901649
0.0010443907
0.0010031872
0.00096266003
0.00092285962
0.0008838178
0.00084555885
0.00080810393
0.00077147436
0.00073569187
0.00070077879
0.00066675851
0.00063365577
0.00060149726
0.00057031214
0.00054013272
0.00051099513
0.00048293998
0.00045601319
0.00043026666
0.000405759
0.00038255602
0.000360731
0.00034036437
0.00032154274
0.00030435678
0.00028889803
0.00027525396
0.00026350205
0.00025370256
0.00024589161
0.00024007508
0.00023622525
0.00023428057
0.00023414945
0.00023571636
0.00023884938
0.00024340651
0.00024923943
0.00025619201
0.00026409177
0.00027272984
0.00028182222
0.00029093753
0.00029936173
0.00030583055
0.00030799789
0.00030161131
0.00028004524
0.00023301136
0.00015844517
0.00025600657
0.0010525987
0.0010116307
0.00097134154
0.00093177344
0.00089296278
0.00085493382
0.00081770879
0.00078130958
0.00074575823
0.00071107733
0.00067729015
0.00064442113
0.00061249626
0.00058154365
0.00055159409
0.0005226816
0.0004948441
0.0004681239
0.00044256844
0.00041823063
0.00039516938
0.00037344941
0.00035314117
0.00033431953
0.00031706238
0.00030144754
0.00028754947
0.00027543436
0.00026515536
0.00025674725
0.00025022257
0.00024556877
0.00024274811
0.00024169972
0.0002423437
0.00024458557
0.0002483203
0.00025343316
0.00025979579
0.00026725357
0.00027559917
0.00028452181
0.00029351415
0.00030170278
0.00030753365
0.0003082139
0.00029904235
0.00027356995
0.00022522221
0.00017280381
0.00028414462
0.0010606753
0.001019964
0.00097992213
0.00094060105
0.00090203516
0.00086425029
0.00082726926
0.00079111436
0.00075580801
0.00072137273
0.00068783167
0.00065520875
0.00062352918
0.00059281993
0.00056311014
0.00053443176
0.00050681986
0.0004803134
0.00045495532
0.00043079334
0.00040787966
0.00038627142
0.00036602971
0.00034721925
0.00032990624
0.00031415682
0.00030003365
0.0002875932
0.00027688161
0.00026793193
0.00026076088
0.00025536798
0.00025173477
0.00024982697
0.00024959636
0.00025098364
0.00025391928
0.00025832176
0.00026408939
0.00027108234
0.00027908715
0.00028775213
0.00029647256
0.00030419361
0.00030907564
0.00030798596
0.00029613386
0.00026816741
0.00022257452
0.00019254668
0.000306626
0.001068598
0.0010281495
0.00098837211
0.00094931157
0.00091100499
0.00087347873
0.00083675611
0.00080085992
0.00076581253
0.0007316365
0.00069835458
0.00066599013
0.00063456749
0.0006041123
0.00057465218
0.00054621677
0.00051883862
0.00049255307
0.00046739918
0.0004434193
0.00042065991
0.00039917066
0.00037900477
0.00036021726
0.00034286467
0.00032700225
0.00031268294
0.00029995399
0.00028885565
0.00027941821
0.00027166157
0.00026559388
0.00026121282
0.00025850604
0.00025745335
0.00025802692
0.00026019048
0.00026389342
0.00026905848
0.00027555625
0.00028316
0.0002914657
0.0002997596
0.00030680434
0.0003105184
0.00030758994
0.00029352293
0.00026468031
0.00022483132
0.00021432651
0.00032585304
0.0010763251
0.0010361594
0.00099665863
0.00095787348
0.00091984104
0.0008825881
0.00084613869
0.00081051555
0.00077574122
0.00074183793
0.00070882801
0.0006767342
0.00064557974
0.00061538919
0.00058618823
0.0005580047
0.00053086814
0.00050481104
0.00047986807
0.00045607735
0.00043347922
0.00041211739
0.00039203706
0.0003732856
0.00035590999
0.00033995699
0.00032547003
0.0003124892
0.00030104843
0.00029117593
0.00028289269
0.00027621399
0.00027114967
0.00026770599
0.00026588609
0.00026569017
0.00026711121
0.00027012675
0.00027468012
0.00028064843
0.0002877852
0.00029562842
0.00030335303
0.00030955919
0.00031199443
0.00030734497
0.00029173018
0.00026356143
0.00023110615
0.00023607441
0.00034326938
0.0010838304
0.0010439575
0.0010047486
0.00096625403
0.00092851044
0.00089154592
0.00085538426
0.00082004861
0.00078556107
0.00075194371
0.00071921828
0.00068740671
0.00065653139
0.00062661534
0.00059768292
0.00056975951
0.0005428726
0.00051705105
0.00049232642
0.00046873179
0.00044630305
0.00042507726
0.0004050937
0.00038639164
0.00036901099
0.00035298971
0.00033836427
0.00032516716
0.0003134278
0.00030317103
0.00029441906
0.00028719148
0.00028150821
0.00027738973
0.00027485916
0.00027393967
0.00027465015
0.0002769915
0.00028092474
0.00028632844
0.00029293408
0.00030021919
0.00030725811
0.0003125204
0.00031367152
0.00030756244
0.00029115651
0.00026492675
0.00024037936
0.00025710394
0.00035939568
0.0010910742
0.0010515096
0.0010126083
0.0009744183
0.00093697906
0.00090031736
0.00086445823
0.00082942373
0.00079523654
0.00076191753
0.00072948851
0.00069797004
0.000667384
0.00063775181
0.00060909647
0.0005814413
0.00055481142
0.00052923287
0.00050473364
0.00048134294
0.00045909172
0.00043801199
0.00041813669
0.00039949895
0.0003821314
0.00036606538
0.00035133019
0.00033795268
0.00032595715
0.00031536607
0.00030620116
0.00029848566
0.00029224607
0.00028751485
0.00028433002
0.00028273462
0.00028276755
0.00028445054
0.00028775643
0.00029256455
0.00029858075
0.00030522927
0.00031149836
0.0003157737
0.00031572506
0.00030851145
0.00029205815
0.00026871194
0.00025186109
0.00027719593
0.0003745768
0.0010980226
0.0010587819
0.0010202
0.00098233101
0.00094520982
0.0009088663
0.00087332284
0.00083860362
0.00080472856
0.00077172035
0.00073959786
0.00070838312
0.00067809494
0.00064875557
0.00062038468
0.00059300557
0.00056663948
0.00054131138
0.00051704462
0.00049386608
0.00047180114
0.0004508782
0.00043112369
0.00041256604
0.00039523075
0.00037914401
0.00036432825
0.00035080584
0.00033859602
0.00032771909
0.00031819564
0.00031005097
0.00030331657
0.00029803294
0.00029425069
0.00029202662
0.00029141769
0.00029245921
0.00029513581
0.00029932198
0.0003047032
0.00031065615
0.00031610844
0.00031940922
0.00031831349
0.00031039172
0.00029455204
0.00027467738
0.00026493382
0.00029637755
0.00038916489
0.0011046396
0.0010657328
0.0010274885
0.00098995281
0.00095316559
0.00091715265
0.00088193963
0.00084754663
0.00081399676
0.00078130836
0.00074950354
0.00071859974
0.00068861883
0.00065957818
0.00063150004
0.00060440225
0.00057830794
0.0005532359
0.00052921031
0.00050625105
0.0004843832
0.00046362727
0.00044400835
0.00042554633
0.00040826459
0.00039218076
0.000377315
0.00036368217
0.00035130002
0.00034018392
0.00033035496
0.00032183789
0.00031466806
0.00030889138
0.00030456678
0.00030176271
0.00030054742
0.0003009691
0.00030301776
0.00030656556
0.00031127916
0.0003165004
0.00032112486
0.00032350785
0.00032156635
0.00031332991
0.00029864745
0.00028252687
0.0002790586
0.00031485749
0.00040335617
0.0011108833
0.0010723287
0.0010344322
0.00099724594
0.00096080505
0.00092513732
0.00089026567
0.0008562117
0.00082299565
0.00079063785
0.000759157
0.00072857319
0.00069890412
0.00067017018
0.00064238848
0.00061557992
0.00058976133
0.00056495415
0.00054117511
0.000518446
0.0004967834
0.00047620887
0.00045673818
0.00043839149
0.00042118259
0.00040512888
0.00039024147
0.00037653501
0.00036401978
0.00035271176
0.00034262732
0.00033379356
0.00032624505
0.00032003303
0.00031522023
0.00031188425
0.00031010017
0.00030992639
0.00031135465
0.00031425774
0.00031828469
0.00032276317
0.00032657525
0.00032813771
0.00032556754
0.00031739387
0.00030428285
0.00029198571
0.0002938673
0.0003327406
0.00041723162
0.0011167191
0.0010785269
0.0010409942
0.0010041702