/*--------------------------------*- C++ -*----------------------------------*\
| =========                 |                                                 |
| \\      /  F ield         | OpenFOAM: The Open Source CFD Toolbox           |
|  \\    /   O peration     | Version:  2312                                  |
|   \\  /    A nd           | Website:  www.openfoam.com                      |
|    \\/     M anipulation  |                                                 |
\*---------------------------------------------------------------------------*/
FoamFile
{
    version     2.0;
    format      ascii;
    arch        "LSB;label=32;scalar=64";
    class       volScalarField;
    location    "0.07";
    object      nut;
}
// * * * * * * * * * * * * * * * * * * * * * * * * * * * * * * * * * * * * * //

dimensions      [0 2 -1 0 0 0 0];

internalField   nonuniform List<scalar> 
3224
(
0.053594621
0.054047325
0.054499987
0.054952443
0.055404543
0.055856141
0.056307104
0.056757306
0.057206633
0.057654981
0.05810226
0.058548389
0.0589933
0.059436938
0.05987926
0.060320231
0.060759792
0.061197933
0.061634658
0.062069983
0.062503933
0.062936547
0.063367869
0.063797956
0.064226871
0.064654684
0.065081472
0.065507314
0.065932294
0.066356499
0.066780012
0.067202919
0.067625302
0.068047239
0.068468805
0.06889007
0.069311096
0.06973194
0.070152645
0.070573251
0.070993761
0.053594905
0.054047685
0.054500396
0.05495288
0.055404998
0.055856609
0.056307581
0.056757789
0.05720712
0.057655472
0.058102753
0.058548882
0.058993793
0.059437431
0.059879751
0.060320721
0.060760279
0.061198416
0.061635138
0.062070458
0.062504403
0.062937011
0.063368328
0.06379841
0.064227319
0.064655126
0.065081908
0.065507744
0.06593272
0.066356919
0.066780428
0.067203331
0.067625711
0.068047645
0.06846921
0.068890473
0.069311497
0.06973234
0.070153042
0.070573641
0.070994126
0.053595474
0.054048318
0.054501054
0.054953548
0.055405666
0.055857272
0.056308235
0.056758433
0.057207752
0.057656089
0.058103355
0.058549468
0.058994362
0.05943798
0.059880281
0.060321231
0.060760768
0.061198883
0.061635582
0.062070878
0.0625048
0.062937383
0.063368675
0.063798731
0.064227614
0.064655397
0.065082154
0.065507967
0.065932919
0.066357097
0.066780585
0.06720347
0.067625832
0.068047751
0.068469301
0.068890551
0.069311564
0.069732395
0.070153087
0.070573675
0.070994121
0.05359634
0.054049223
0.054501957
0.054954439
0.055406538
0.055858122
0.05630906
0.05675923
0.057208519
0.057656826
0.058104059
0.058550139
0.058994997
0.059438579
0.059880842
0.060321753
0.060761251
0.061199325
0.061635982
0.062071236
0.062505114
0.062937653
0.0633689
0.063798911
0.06422775
0.064655488
0.065082202
0.065507973
0.065932885
0.066357024
0.066780476
0.067203326
0.067625656
0.068047546
0.06846907
0.068890296
0.069311287
0.069732098
0.070152771
0.07057334
0.070993741
0.053144666
0.053597557
0.054050399
0.054503102
0.054955549
0.055407611
0.055859155
0.05631005
0.056760175
0.057209419
0.057657677
0.058104861
0.058550889
0.058995695
0.059439223
0.059881429
0.060322283
0.060761722
0.061199738
0.061636334
0.062071526
0.062505341
0.062937816
0.063368999
0.063798945
0.06422772
0.064655395
0.065082047
0.065507757
0.065932611
0.066356694
0.066780093
0.067202894
0.067625178
0.068047026
0.068468511
0.068889702
0.069310661
0.069731442
0.070152086
0.070572631
0.070992984
0.053146307
0.053598993
0.054051761
0.054504408
0.054956803
0.055408811
0.0558603
0.056311139
0.056761206
0.057210389
0.057658586
0.058105707
0.05855167
0.05899641
0.059439869
0.059882006
0.060322788
0.060762156
0.061200098
0.061636618
0.062071734
0.062505471
0.062937867
0.063368971
0.063798839
0.064227535
0.064655132
0.065081707
0.065507343
0.065932125
0.066356139
0.066779473
0.067202212
0.06762444
0.068046235
0.068467672
0.06888882
0.069309739
0.069730483
0.070151092
0.070571606
0.070991914
0.053148012
0.053600589
0.054053269
0.054505845
0.054958173
0.055410116
0.055861538
0.056312309
0.056762307
0.05721142
0.057659545
0.058106592
0.05855248
0.058997142
0.059440523
0.059882578
0.060323278
0.060762562
0.061200419
0.061636854
0.062071881
0.062505528
0.062937835
0.063368847
0.063798624
0.064227229
0.064654737
0.065081224
0.065506775
0.065931474
0.066355409
0.066778668
0.067201337
0.067623499
0.068045234
0.068466615
0.068887712
0.069308585
0.069729286
0.070149856
0.070570331
0.070990594
0.053149973
0.053602465
0.054055041
0.054507525
0.054959767
0.055411626
0.055862965
0.056313652
0.056763565
0.057212591
0.057660628
0.058107584
0.058553381
0.058997949
0.059441234
0.05988319
0.060323789
0.060762973
0.061200727
0.061637056
0.062071977
0.062505516
0.062937713
0.063368616
0.063798282
0.064226778
0.064654177
0.065080559
0.065506006
0.065930605
0.066354445
0.066777613
0.067200197
0.067622279
0.06804394
0.068465254
0.068886289
0.069307106
0.069727756
0.070148277
0.070568705
0.070988918
0.052700168
0.053152289
0.053604643
0.054057092
0.054509463
0.054961601
0.055413358
0.055864595
0.05631518
0.05676499
0.057213912
0.057661843
0.058108692
0.058554379
0.058998836
0.059442005
0.059883845
0.060324324
0.060763388
0.061201019
0.061637224
0.062072017
0.062505428
0.062937495
0.063368268
0.063797803
0.06422617
0.064653441
0.065079696
0.06550502
0.065929501
0.066353227
0.066776288
0.067198769
0.067620757
0.06804233
0.068463564
0.068884526
0.069305276
0.069725864
0.070146327
0.070566699
0.070986856
0.052703103
0.053154959
0.053607142
0.054059442
0.054511679
0.054963691
0.055415326
0.055866443
0.056316907
0.056766596
0.057215395
0.057663202
0.058109924
0.058555482
0.058999807
0.059442842
0.059884544
0.060324883
0.060763806
0.061201294
0.061637353
0.062071998
0.062505259
0.062937174
0.063367793
0.063797177
0.064225391
0.064652512
0.06507862
0.065503801
0.065928143
0.066351736
0.06677467
0.067197033
0.067618909
0.06804038
0.068461519
0.068882395
0.069303067
0.069723582
0.070143977
0.070564283
0.070984375
0.052255562
0.052706382
0.053157992
0.05360998
0.05406211
0.054514191
0.054966056
0.055417549
0.055868524
0.056318848
0.056768395
0.057217052
0.057664713
0.058111289
0.058556697
0.059000869
0.059443749
0.059885292
0.060325468
0.060764228
0.06120155
0.06163744
0.062071913
0.062505
0.06293674
0.063367183
0.06379639
0.064224429
0.064651376
0.065077314
0.065502328
0.06592651
0.066349949
0.066772737
0.067194961
0.067616709
0.068038061
0.068459091
0.068879867
0.069300447
0.069720879
0.070141196
0.070561425
0.070981444
0.052259424
0.052710035
0.053161404
0.053613178
0.054065116
0.05451702
0.054968715
0.055420043
0.055870857
0.056321018
0.056770402
0.057218894
0.057666389
0.058112796
0.058558032
0.059002029
0.05944473
0.05988609
0.06032608
0.060764654
0.061201786
0.061637481
0.062071759
0.062504646
0.062936185
0.063366426
0.06379543
0.064223268
0.064650017
0.065075759
0.065500584
0.065924581
0.066347844
0.066770463
0.06719253
0.067614129
0.068035344
0.068456248
0.068876909
0.069297385
0.069717721
0.070137947
0.070558089
0.070978024
0.051814348
0.052263708
0.052714094
0.053165214
0.053616758
0.054068483
0.054520186
0.05497169
0.05542283
0.055873458
0.056323434
0.056772633
0.057220937
0.057668242
0.058114456
0.058559497
0.059003294
0.059445792
0.059886945
0.060326722
0.060765083
0.061201999
0.061637475
0.062071528
0.062504189
0.062935499
0.063365511
0.063794285
0.064221895
0.064648417
0.065073937
0.065498545
0.065922333
0.066345395
0.066767823
0.067189709
0.06761114
0.068032198
0.068452959
0.068873489
0.069293845
0.069714072
0.070134196
0.070554239
0.070974078
0.051819297
0.052268444
0.052718586
0.053169448
0.053620744
0.054072235
0.054523715
0.054975003
0.055425931
0.055876349
0.056326115
0.056775103
0.057223195
0.057670285
0.058116281
0.058561101
0.059004673
0.059446941
0.05988786
0.060327398
0.060765518
0.061202189
0.061637416
0.062071217
0.062503622
0.062934674
0.063364426
0.063792941
0.064220292
0.064646559
0.065071829
0.065496192
0.065919743
0.066342577
0.066764789
0.06718647
0.06760771
0.068028591
0.068449188
0.06886957
0.06928979
0.069709893
0.070129902
0.070549833
0.070969565
0.051377098
0.051824759
0.052273664
0.052723545
0.053174135
0.053625164
0.054076399
0.054527632
0.054978678
0.055429369
0.05587955
0.056329081
0.056777832
0.057225685
0.057672534
0.058118285
0.058562856
0.059006176
0.059448186
0.059888841
0.060328109
0.060765959
0.061202355
0.061637303
0.06207082
0.062502938
0.0629337
0.06336316
0.063791384
0.064218444
0.064644424
0.065069412
0.0654935
0.065916785
0.066339363
0.06676133
0.067182781
0.067603805
0.068024486
0.068444899
0.068865113
0.06928518
0.069705143
0.070125023
0.07054483
0.070964443
0.051383344
0.051830764
0.052279406
0.052729005
0.053179306
0.053630049
0.054081004
0.054531964
0.054982742
0.055433168
0.055883086
0.056332353
0.056780839
0.057228425
0.057675005
0.058120482
0.058564775
0.059007812
0.059449533
0.059889894
0.060328862
0.060766409
0.061202497
0.061637132
0.062070332
0.062502129
0.062932567
0.063361701
0.063789598
0.064216334
0.064641993
0.065066665
0.065490445
0.065913432
0.066335723
0.066757417
0.067178609
0.067599391
0.068019846
0.068440053
0.068860076
0.069279972
0.069699778
0.070119515
0.070539184
0.070958664
0.050944581
0.051390203
0.051837353
0.052285706
0.052735004
0.053184996
0.05363543
0.054086081
0.054536742
0.054987224
0.055437357
0.055886983
0.056335957
0.056784148
0.057231437
0.057677716
0.058122889
0.058566873
0.059009594
0.059450995
0.059891028
0.060329661
0.060766871
0.061202617
0.061636903
0.06206975
0.062501189
0.062931266
0.063360037
0.063787571
0.064213945
0.064639247
0.065063567
0.065487004
0.065909657
0.066331628
0.066753016
0.067173919
0.06759443
0.068014633
0.068434606
0.068854418
0.06927412
0.069693751
0.070113327
0.070532845
0.070952182
0.050952367
0.051397707
0.051844566
0.052292609
0.052741583
0.053191244
0.053641346
0.054091666
0.054541999
0.054992157
0.055441966
0.055891268
0.056339918
0.056787783
0.057234743
0.057680689
0.058125524
0.058569164
0.059011537
0.059452582
0.059892252
0.060330514
0.060767349
0.061202715
0.061636615
0.06206907
0.062500112
0.062929788
0.063358156
0.063785287
0.06421126
0.064636164
0.065060094
0.065483149
0.065905432
0.066327046
0.066748095
0.067168675
0.067588883
0.068008804
0.068428516
0.068848089
0.069267575
0.06968701
0.070106409
0.070525761
0.070944943
0.050960804
0.051405901
0.051852452
0.052300161
0.052748787
0.053198092
0.053647835
0.054097796
0.054547772
0.054997574
0.055447027
0.055895974
0.056344266
0.056791771
0.057238367
0.057683945
0.058128408
0.058571669
0.059013657
0.059454309
0.059893578
0.060331431
0.060767848
0.061202795
0.061636268
0.062068289
0.062498892
0.062928125
0.063356047
0.063782732
0.064208261
0.064632725
0.065056222
0.065478854
0.065900727
0.066321947
0.066742617
0.067162839
0.067582709
0.068002315
0.068421735
0.06884104
0.069260282
0.069679499
0.070098702
0.070517875
0.070936892
0.050970006
0.051414849
0.051861066
0.052308413
0.052756663
0.053205585
0.053654941
0.054104513
0.0545541
0.055003513
0.055452577
0.055901133
0.056349033
0.056796142
0.057242338
0.057687512
0.058131564
0.058574408
0.059015971
0.05945619
0.059895018
0.06033242
0.060768377
0.061202861
0.061635863
0.062067406
0.062497525
0.062926268
0.063353699
0.063779892
0.064204931
0.064628909
0.065051929
0.065474094
0.065895514
0.066316296
0.066736548
0.067156372
0.067575866
0.06799512
0.068414213
0.068833216
0.069252184
0.069671155
0.070090141
0.070509123
0.07092797
0.05053718
0.050980127
0.051424622
0.051870465
0.05231742
0.052765265
0.053213773
0.053662711
0.054111863
0.054561027
0.055010016
0.055458655
0.055906784
0.056354254
0.056800929
0.057246687
0.057691416
0.058135017
0.058577404
0.0590185
0.059458244
0.059896588
0.060333495
0.060768946
0.061202921
0.061635405
0.062066422
0.062496007
0.062924213
0.063351103
0.063776754
0.064201253
0.064624697
0.065047191
0.065468841
0.065889761
0.06631006
0.066729849
0.067149233
0.067568309
0.06798717
0.068405896
0.068824558
0.069243214
0.069661906
0.070080652
0.070499432
0.070918111
0.050548671
0.050991194
0.051435284
0.051880713
0.052327241
0.052774649
0.053222711
0.053671197
0.054119893
0.0545686
0.055017128
0.055465305
0.055912968
0.056359968
0.056806169
0.057251447
0.05769569
0.058138799
0.058580683
0.059021269
0.059460493
0.059898305
0.060334669
0.060769567
0.061202982
0.061634897
0.062065337
0.062494338
0.062921953
0.063348249
0.063773305
0.064197212
0.064620069
0.065041984
0.065463069
0.065883438
0.066303206
0.066722484
0.067141379
0.067559991
0.067978412
0.068396723
0.068814997
0.069233295
0.069651666
0.070070142
0.070488712
0.070907242
0.049683311
0.050121029
0.050561208
0.051003262
0.051446899
0.051891875
0.05233794
0.052784875
0.053232456
0.053680455
0.054128659
0.05457687
0.055024899
0.055472573
0.055919729
0.056366218
0.056811902
0.057256657
0.05770037
0.05814294
0.058584277
0.059024305
0.05946296
0.059900191
0.060335963
0.060770254
0.061203055
0.061634349
0.062064156
0.062492516
0.062919485
0.06334513
0.063769534
0.064192792
0.064615005
0.065036286
0.06545675
0.065876515
0.066295697
0.066714412
0.067132767
0.067550863
0.067968791
0.068386631
0.068804457
0.069222334
0.069640325
0.070058488
0.070476844
0.070895273
0.049262903
0.049697807
0.050135177
0.050574837
0.05101639
0.051459537
0.051904019
0.052349583
0.052796008
0.053243072
0.053690546
0.054138219
0.054585894
0.055033383
0.055480512
0.055927118
0.056373051
0.056818173
0.057262359
0.057705494
0.058147477
0.058588217
0.059027637
0.059465672
0.05990227
0.060337395
0.060771025
0.061203156
0.061633769
0.062062885
0.062490546
0.062916807
0.063341741
0.063765432
0.064187979
0.064609489
0.065030076
0.065449859
0.065868961
0.066287501
0.066705595
0.067123352
0.067540872
0.067958244
0.068375544
0.068792843
0.069210212
0.069627734
0.070045514
0.070463652
0.070882086
0.04927907
0.049713538
0.050150477
0.050589623
0.05103065
0.05147327
0.05191722
0.052362244
0.052808121
0.053254627
0.053701536
0.054148638
0.054595735
0.05504264
0.055489179
0.055935189
0.05638052
0.056825032
0.0572686
0.057711108
0.058152453
0.058592544
0.059031302
0.059468661
0.05990457
0.060338991
0.060771902
0.061203299
0.061633171
0.062061534
0.062488431
0.062913921
0.063338078
0.063760992
0.064182763
0.064603503
0.065023331
0.065442371
0.065860747
0.066278581
0.066695992
0.067113088
0.067529964
0.067946704
0.068363376
0.068780042
0.069196773
0.069613679
0.070030947
0.070448845
0.070867497
0.049296553
0.049730575
0.050167032
0.050605646
0.05104612
0.051488177
0.051931557
0.052376001
0.052821289
0.053267196
0.053713498
0.054159984
0.054606459
0.055052734
0.055498637
0.055944003
0.056388682
0.056832534
0.057275432
0.057717259
0.058157912
0.058597299
0.059035338
0.059471965
0.059907125
0.060340781
0.06077291
0.061203508
0.061632573
0.062060115
0.062486181
0.06291083
0.063334141
0.063756207
0.064177133
0.064597035
0.065016035
0.065434262
0.065851844
0.066268905
0.066685564
0.067101925
0.067518078
0.067934094
0.068350023
0.068765907
0.069181801
0.069597838
0.070014332
0.070431885
0.070851147
0.04931547
0.049749009
0.050184946
0.050622998
0.051062889
0.051504347
0.051947116
0.05239094
0.052835595
0.05328086
0.05372651
0.054172335
0.05461814
0.055063738
0.055508954
0.055953626
0.056397601
0.056840739
0.057282913
0.057724004
0.058163908
0.058602531
0.059039792
0.059475624
0.059909972
0.060342797
0.060774078
0.06120381
0.061631996
0.062058647
0.062483808
0.062907543
0.063329934
0.063751078
0.064171083
0.064590072
0.06500817
0.065425511
0.065842225
0.066258439
0.066674269
0.067089813
0.067505149
0.067920325
0.068335359
0.068750245
0.06916499
0.069579716
0.069994885
0.070411704
0.070832193
0.049335935
0.049768949
0.050204324
0.050641781
0.051081052
0.051521874
0.051963992
0.052407151
0.05285113
0.053295707
0.053740657
0.054185774
0.05463086
0.055075729
0.055520208
0.055964131
0.056407348
0.056849717
0.057291108
0.057731404
0.058170498
0.058608296
0.059044714
0.059479686
0.059913154
0.060345081
0.060775442
0.061204234
0.061631467
0.06205715
0.062481329
0.062904072
0.063325464
0.063745605
0.064164611
0.064582606
0.064999723
0.065416098
0.065831866
0.066247151
0.066662066
0.067076699
0.067491105
0.067905297
0.06831923
0.06873281
0.06914592
0.069558561
0.069971257
0.070386083
0.070808307
0.049358065
0.049790508
0.050225279
0.050662104
0.051100716
0.05154086
0.051982284
0.052424733
0.05286799
0.053311831
0.053756034
0.054200391
0.054644707
0.055088795
0.05553248
0.0559756
0.056418001
0.05685954
0.057300089
0.057739528
0.058177748
0.058614654
0.059050163
0.059484205
0.059916723
0.060347677
0.060777045
0.06120482
0.061631019
0.062055653
0.062478768
0.062900434
0.063320742
0.063739796
0.064157716
0.064574633
0.064990684
0.065406009
0.065820742
0.06623501
0.066648914
0.067062526
0.067475867
0.06788889
0.068301451
0.068713288
0.069124028
0.069533293
0.069941228
0.070350421
0.0707723
0.049381982
0.049813808
0.050247932
0.050684082
0.051121994
0.051561417
0.052002102
0.052443796
0.052886282
0.053329338
0.053772741
0.054216287
0.054659778
0.055103029
0.055545865
0.055988122
0.056429646
0.056870295
0.057309937
0.057748452
0.058185732
0.058621678
0.059056206
0.059489244
0.059920736
0.060350641
0.060778934
0.061205612
0.06163069
0.062054189
0.062476153
0.062896654
0.063315788
0.063733664
0.064150408
0.064566155
0.064981048
0.065395229
0.065808836
0.066221987
0.066634772
0.067047236
0.067459348
0.067870971
0.068281803
0.068691312
0.069098642
0.069502555
0.069901619
0.070295895
0.070700028
0.049407816
0.049838978
0.05027241
0.050707841
0.05114501
0.051583666
0.052023565
0.052464455
0.05290612
0.053348339
0.053790891
0.05423357
0.05467618
0.055118536
0.055560462
0.056001795
0.056442379
0.056882072
0.057320741
0.057758265
0.058194532
0.058629444
0.059062916
0.059494874
0.059925261
0.060354034
0.060781169
0.061206662
0.06163053
0.062052803
0.062473521
0.062892763
0.063310626
0.063727227
0.064142697
0.064557177
0.064970814
0.065383754
0.06579613
0.066208056
0.0666196
0.067030767
0.067441454
0.067851392
0.068260051
0.06866649
0.06906909
0.069465084
0.06984945
0.070210681
0.070505446
0.049435703
0.049866155
0.05029885
0.050733515
0.051169894
0.051607738
0.052046802
0.052486838
0.05292763
0.053368959
0.053810604
0.054252359
0.05469403
0.055135431
0.055576385
0.05601673
0.056456308
0.056894977
0.057332602
0.057769061
0.058204242
0.058638044
0.05907038
0.059501176
0.059930373
0.060357927
0.060783815
0.061208032
0.061630595
0.062051543
0.062470918
0.062888799
0.06330529
0.063720514
0.064134606
0.064547714
0.06495999
0.06537158
0.065782615
0.066193195
0.066603359
0.067013057
0.067422086
0.067830001
0.068235963
0.068638475
0.069034901
0.069420477
0.069786001
0.070110692
0.070333022
0.049465791
0.049895485
0.050327395
0.050761249
0.05119679
0.051633773
0.052071952
0.052511083
0.052950949
0.053391333
0.053832013
0.054272787
0.054713457
0.055153839
0.055593758
0.056033047
0.05647155
0.056909124
0.057345632
0.057780951
0.058214967
0.058647578
0.059078695
0.059508243
0.059936161
0.060362405
0.060786951
0.061209794
0.061630954
0.062050473
0.062468399
0.062884813
0.063299824
0.06371356
0.064126164
0.064537788
0.06494859
0.065358714
0.065768286
0.066177385
0.066586013
0.066994045
0.067401148
0.067806653
0.068209334
0.068607026
0.068995925
0.069369217
0.069714264
0.070005805
0.070183057
0.049498232
0.049927123
0.050358202
0.050791196
0.051225852
0.051661923
0.052099168
0.052537339
0.052976225
0.053415607
0.053855265
0.054294995
0.054734602
0.055173901
0.055612716
0.05605088
0.056488238
0.056924642
0.057359956
0.057794056
0.058226825
0.05865816
0.059087971
0.05951618
0.059942726
0.060367563
0.060790668
0.061212035
0.061631686
0.062049666
0.062466032
0.062880865
0.063294281
0.063706412
0.06411741
0.064527432
0.064936637
0.065345171
0.065753145
0.066160615
0.066567531
0.066973675
0.067378554
0.067781228
0.068180021
0.068572041
0.068952323
0.069312308
0.069637131
0.069900327
0.070048291
0.049533195
0.049961237
0.050391437
0.050823524
0.051257246
0.051692355
0.052128612
0.052565771
0.05300362
0.053441942
0.053880517
0.054319142
0.054757622
0.055195771
0.055633413
0.05607038
0.056506517
0.056941674
0.057375715
0.057808512
0.058239949
0.05866992
0.059098332
0.059525107
0.059950183
0.060373512
0.06079507
0.061214854
0.061632884
0.062049209
0.062463897
0.06287703
0.063288728
0.063699131
0.064108397
0.064516689
0.064924168
0.065330974
0.065737205
0.066142883
0.066547893
0.066951905
0.067354236
0.067753637
0.068147951
0.068533555
0.068904447
0.069250774
0.069556568
0.069795979
0.069924018
0.049570854
0.049998003
0.050427278
0.050858412
0.05129115
0.051725247
0.052160464
0.052596557
0.053033312
0.053470515
0.053907947
0.054345403
0.054782689
0.055219619
0.055656016
0.056091712
0.05652655
0.056960381
0.057393065
0.057824474
0.058254489
0.058683002
0.05910992
0.059535162
0.059958664
0.060380378
0.060800279
0.061218365
0.061634658
0.062049207
0.062462092
0.062873397
0.063283247
0.063691791
0.064099192
0.064505617
0.064911228
0.06531616
0.065720491
0.066124198
0.066527091
0.066928708
0.067328152
0.067723843
0.068113135
0.068491723
0.068852759
0.069185553
0.069473869
0.069693427
0.069807216
0.049611401
0.050037613
0.05046592
0.050896053
0.051327759
0.051760794
0.052194918
0.05262989
0.053065495
0.05350152
0.053937745
0.054373967
0.054809992
0.055245632
0.055680711
0.056115061
0.056548521
0.056980942
0.057412183
0.057842114
0.058270613
0.058697573
0.059122896
0.0595465
0.059968319
0.060388306
0.060806435
0.061222703
0.061637134
0.062049782
0.062460729
0.062870072
0.063277939
0.063684483
0.064089875
0.064494288
0.064897882
0.065300782
0.06570304
0.066104583
0.066505133
0.066904079
0.067300295
0.067691861
0.06807566
0.068446793
0.068797773
0.06911747
0.069389935
0.069592887
0.069696035
0.049655038
0.050080273
0.050507568
0.050936656
0.051367283
0.051799206
0.052232187
0.052665983
0.053100382
0.053535168
0.053970125
0.054405048
0.054839742
0.055274021
0.055707707
0.05614063
0.05657263
0.057003556
0.057433265
0.057861624
0.058288512
0.058713817
0.05913744
0.059559297
0.059979321
0.060397463
0.060813697
0.061228021
0.061640461
0.062051072
0.062459943
0.062867183
0.06327292
0.063677317
0.06408055
0.064482795
0.06488421
0.065284908
0.065684909
0.066084084
0.066482052
0.066878044
0.067270697
0.067657758
0.068035679
0.068399073
0.068740016
0.069047243
0.069305432
0.069494419
0.069589298
0.049701983
0.050126204
0.050552448
0.050980448
0.051409952
0.051840716
0.052272502
0.05270507
0.053138205
0.053571694
0.054005319
0.054438877
0.054872171
0.055305016
0.055737232
0.056168649
0.056599105
0.057028447
0.057456531
0.057883224
0.058308399
0.058731944
0.059153758
0.059573754
0.059991864
0.060408038
0.060822249
0.061234496
0.061644808
0.062053243
0.062459892
0.062864877
0.063268331
0.063670424
0.064071336
0.064471248
0.064870314
0.065268628
0.065666177
0.066062765
0.066457904
0.06685066
0.067239432
0.067621655
0.067993404
0.068348914
0.068679999
0.068975486
0.069220865
0.069398021
0.069486264
0.049752473
0.050175646
0.050600803
0.051027676
0.051456014
0.051885574
0.052316117
0.052747405
0.053179221
0.053611354
0.054043586
0.054475712
0.054907538
0.055338874
0.055769542
0.05619937
0.056628196
0.057055864
0.057482229
0.057907154
0.058330513
0.058752189
0.059172079
0.059590096
0.060006168
0.060420245
0.060832299
0.061242332
0.061650372
0.062056481
0.062460756
0.062863327
0.063264337
0.06366396
0.064062382
0.064459785
0.064856317
0.065252055
0.065646944
0.066040717
0.066432776
0.066822018
0.067206614
0.067583716
0.067949085
0.06829668
0.068618201
0.06890272
0.069136622
0.069303662
0.069386447
0.049806762
0.050228859
0.050652896
0.051078607
0.051505741
0.051934055
0.05236331
0.052793268
0.053223713
0.053654433
0.054085209
0.054515839
0.054946125
0.055375879
0.05580492
0.056233077
0.056660184
0.057086085
0.057510632
0.057933687
0.058355121
0.058774815
0.059192664
0.059608577
0.060022483
0.060434328
0.060844086
0.061251758
0.061657376
0.062061004
0.062462746
0.062862734
0.06326113
0.063658107
0.064053859
0.064448567
0.064842372
0.065235328
0.065627339
0.066018063
0.066406786
0.066792244
0.067172396
0.067544143
0.067902999
0.068242739
0.06855506
0.068829382
0.06905299
0.069211305
0.06928951
0.049865126
0.050286125
0.050709016
0.051133536
0.051559431
0.05198646
0.052414385
0.052842967
0.053271989
0.05370124
0.054130502
0.05455957
0.054988247
0.055416344
0.055843679
0.056270079
0.056695378
0.057119417
0.057542046
0.057963125
0.058382522
0.058800117
0.059215802
0.059629483
0.060041087
0.060450561
0.060857877
0.061263036
0.061666074
0.062067059
0.062466098
0.062863331
0.063258932
0.063653079
0.06404597
0.064437786
0.064828659
0.065218618
0.065607522
0.065994954
0.066380086
0.0667615
0.067136965
0.067503169
0.067855438
0.068187443
0.068490964
0.068755826
0.068970181
0.0691209
0.069195201
0.049927865
0.05034775
0.050769476
0.05119278
0.051617409
0.05204312
0.052469675
0.052896839
0.053324389
0.053752119
0.054179807
0.05460725
0.05503425
0.055460615
0.055886165
0.056310722
0.056734121
0.0571562
0.057576808
0.057995802
0.058413047
0.058828422
0.059241814
0.05965313
0.060062293
0.060469249
0.06087397
0.06127646
0.061676753
0.062074924
0.062471085
0.062865382
0.063257997
0.063649121
0.06403895
0.064427666
0.064815391
0.065202127
0.065587687
0.065971577
0.066352863
0.066729983
0.067100538
0.067461046
0.067806696
0.068131122
0.068426249
0.068682331
0.068888334
0.069032377
0.069103299
0.049995301
0.050414068
0.050834618
0.051256688
0.051680027
0.052104391
0.052529544
0.05295525
0.053381284
0.053807441
0.054233501
0.054659256
0.05508451
0.05550907
0.055932753
0.056355382
0.056776787
0.057196808
0.057615289
0.058032085
0.05844706
0.058860088
0.059271057
0.059679869
0.060086446
0.060490733
0.060892702
0.061292356
0.061689734
0.062084914
0.062478013
0.062869184
0.063258616
0.063646512
0.06403307
0.064418469
0.064802817
0.065186094
0.065568062
0.065948157
0.066325339
0.066697922
0.067063361
0.067418041
0.067757065
0.06807408
0.068361196
0.068609107
0.068807525
0.068945641
0.069013599
0.050067787
0.050485439
0.050904811
0.051325638
0.051747669
0.052170664
0.052594385
0.053018597
0.053443074
0.053867611
0.054291988
0.054715996
0.055139437
0.055562118
0.055983854
0.056404467
0.056823785
0.057241645
0.057657891
0.058072374
0.058484957
0.05889551
0.059303919
0.059710084
0.060113925
0.060515386
0.060914439
0.061311088
0.061705374
0.06209738
0.062487226
0.062875074
0.063261118
0.063645573
0.06402864
0.064410492
0.064791228
0.065170798
0.065548919
0.065924956
0.066297777
0.066665582
0.067025709
0.067374441
0.067706836
0.068016596
0.068296047
0.068536311
0.068727785
0.068860579
0.0689259
0.050145695
0.050562254
0.050980453
0.051400032
0.051820745
0.052242351
0.052664616
0.053087304
0.053510186
0.05393306
0.054355702
0.054777905
0.055199467
0.055620197
0.056039906
0.056458414
0.05687555
0.057291147
0.057705047
0.0581171
0.058527165
0.05893511
0.05934082
0.059744191
0.060145143
0.060543617
0.060939586
0.061333055
0.061724067
0.062112708
0.062499106
0.062883427
0.063265874
0.063646665
0.064026012
0.064404081
0.064780956
0.065156562
0.065530571
0.065902282
0.06627048
0.066633267
0.066987885
0.06733055
0.067656306
0.067958943
0.068231018
0.068464074
0.068649124
0.068777075
0.068840018
0.050229431
0.050644931
0.051061964
0.051480294
0.051899682
0.052319888
0.052740676
0.053161815
0.053583069
0.054004238
0.054425098
0.054845439
0.055265059
0.055683765
0.056101367
0.056517684
0.056932541
0.057345771
0.057757214
0.058166717
0.058574137
0.058979341
0.059382209
0.059782637
0.060180543
0.060575867
0.060968581
0.061358692
0.061746244
0.062131328
0.062514077
0.062894663
0.063273295
0.063650197
0.064025588
0.064399627
0.064772386
0.065143762
0.065513385
0.065880495
0.066243801
0.066601324
0.066950233
0.067286701
0.067605789
0.067901399
0.068166327
0.068392524
0.068571561
0.068695047
0.068755812
0.049906812
0.050319505
0.050733906
0.051149771
0.051566855
0.051984916
0.052403714
0.052823013
0.05324258
0.053662178
0.054081605
0.054500637
0.054919063
0.05533668
0.055753292
0.056168709
0.056582747
0.056995231
0.057405992
0.057814866
0.0582217
0.058626348
0.059028675
0.059428559
0.059825896
0.060220599
0.060612609
0.061001898
0.061388472
0.061772379
0.062153713
0.062532611
0.062909252
0.06328385
0.063656634
0.064027824
0.064397582
0.06476596
0.065132832
0.065497787
0.065860011
0.066218149
0.066570155
0.066913145
0.067243272
0.067555638
0.067844273
0.068102222
0.068321824
0.068495166
0.068614472
0.068673212
0.049594768
0.050004547
0.050416233
0.05082956
0.051244273
0.051660123
0.052076864
0.052494255
0.052912056
0.053330035
0.053747955
0.054165607
0.054582772
0.054999234
0.05541479
0.055829242
0.056242399
0.056654075
0.057064094
0.057472284
0.057878481
0.05828253
0.058684283
0.059083602
0.059480366
0.059874465
0.060265814
0.060654351
0.061040048
0.061422912
0.061802993
0.062180387
0.062555236
0.062927724
0.063298069
0.063666504
0.06403325
0.064398469
0.064762197
0.065124283
0.065484279
0.065841324
0.066194008
0.066540232
0.066877078
0.067200699
0.067506257
0.067787928
0.068039008
0.068252203
0.068420083
0.068535425
0.068592254
0.049293421
0.049700252
0.050109178
0.050519924
0.050932223
0.051345819
0.05176046
0.052175898
0.052591888
0.053008192
0.053424575
0.053840802
0.054256654
0.054671917
0.055086374
0.055499818
0.055912051
0.056322879
0.056732118
0.057139587
0.057545115
0.057948537
0.058349694
0.058748437
0.05914463
0.059538144
0.059928873
0.060316727
0.060701645
0.061083596
0.061462588
0.061838673
0.062211948
0.062582558
0.062950692
0.063316571
0.063680432
0.064042492
0.064402911
0.064761715
0.065118725
0.065473463
0.065825024
0.066171955
0.066512117
0.066842575
0.067159501
0.067458135
0.067732807
0.067977069
0.068183983
0.068346566
0.068458098
0.068513098
0.049406563
0.049812755
0.050220926
0.050630807
0.05104214
0.051454667
0.051868135
0.052282297
0.052696908
0.053111726
0.053526516
0.053941044
0.054355083
0.054768423
0.055180845
0.05559214
0.056002108
0.056410555
0.056817295
0.057222148
0.057624939
0.058025503
0.058423682
0.058819323
0.059212289
0.05960245
0.059989697
0.060373939
0.060755113
0.061133187
0.061508168
0.061880107
0.062249103
0.062615302
0.062978895
0.063340106
0.063699171
0.064056308
0.064411667
0.064765268
0.065116907
0.065466075