/*--------------------------------*- C++ -*----------------------------------*\
| =========                 |                                                 |
| \\      /  F ield         | OpenFOAM: The Open Source CFD Toolbox           |
|  \\    /   O peration     | Version:  2312                                  |
|   \\  /    A nd           | Website:  www.openfoam.com                      |
|    \\/     M anipulation  |                                                 |
\*---------------------------------------------------------------------------*/
FoamFile
{
    version     2.0;
    format      ascii;
    arch        "LSB;label=32;scalar=64";
    class       volScalarField;
    location    "0.07";
    object      O2;
}
// * * * * * * * * * * * * * * * * * * * * * * * * * * * * * * * * * * * * * //

dimensions      [0 0 0 0 0 0 0];

internalField   nonuniform List<scalar> 
3224
(
0.21606757
0.21657902
0.21707873
0.21756692
0.21804385
0.21850976
0.21896492
0.21940959
0.21984403
0.22026851
0.22068328
0.22108863
0.22148483
0.22187213
0.2222508
0.22262113
0.22298336
0.22333776
0.22368459
0.22402412
0.22435659
0.22468227
0.22500139
0.22531421
0.22562096
0.22592189
0.22621723
0.22650721
0.22679206
0.22707199
0.22734721
0.22761794
0.22788437
0.2281467
0.22840509
0.22865974
0.22891079
0.22915841
0.22940274
0.22964391
0.22988205
0.21606862
0.21658005
0.21707973
0.21756788
0.21804477
0.21851064
0.21896576
0.21941038
0.21984478
0.22026921
0.22068395
0.22108926
0.22148541
0.22187267
0.22225131
0.2226216
0.2229838
0.22333817
0.22368497
0.22402447
0.22435691
0.22468256
0.22500165
0.22531444
0.22562117
0.22592208
0.22621739
0.22650735
0.22679218
0.22707209
0.2273473
0.22761802
0.22788444
0.22814675
0.22840513
0.22865977
0.22891082
0.22915843
0.22940275
0.22964392
0.22988205
0.21607118
0.21658254
0.21708212
0.21757017
0.21804696
0.21851273
0.21896775
0.21941227
0.21984657
0.22027091
0.22068555
0.22109078
0.22148684
0.22187402
0.22225258
0.22262279
0.22298491
0.22333921
0.22368594
0.22402536
0.22435774
0.22468332
0.22500235
0.22531508
0.22562175
0.2259226
0.22621787
0.22650778
0.22679255
0.22707242
0.22734759
0.22761827
0.22788465
0.22814693
0.22840528
0.22865989
0.22891091
0.2291585
0.2294028
0.22964395
0.22988206
0.21607526
0.21658647
0.21708589
0.21757378
0.21805041
0.21851602
0.21897088
0.21941525
0.2198494
0.2202736
0.2206881
0.22109319
0.22148912
0.22187617
0.2222546
0.22262469
0.22298669
0.22334087
0.22368749
0.22402681
0.22435908
0.22468456
0.22500349
0.22531613
0.22562271
0.22592347
0.22621865
0.22650848
0.22679318
0.22707297
0.22734807
0.22761868
0.22788501
0.22814723
0.22840553
0.22866009
0.22891107
0.22915862
0.22940288
0.22964399
0.22988207
0.21555786
0.21608089
0.21659186
0.21709105
0.21757872
0.21805511
0.21852051
0.21897516
0.21941932
0.21985327
0.22027727
0.22069159
0.22109649
0.22149224
0.22187911
0.22225738
0.2226273
0.22298914
0.22334317
0.22368964
0.22402881
0.22436094
0.22468628
0.22500507
0.22531758
0.22562403
0.22592467
0.22621974
0.22650945
0.22679405
0.22707374
0.22734875
0.22761927
0.22788551
0.22814765
0.22840589
0.22866038
0.2289113
0.22915879
0.229403
0.22964406
0.22988209
0.21556499
0.21608764
0.21659831
0.21709722
0.21758461
0.21806074
0.21852587
0.21898027
0.21942419
0.2198579
0.22028166
0.22069575
0.22110043
0.22149597
0.22188264
0.22226071
0.22263043
0.22299208
0.22334592
0.22369221
0.22403121
0.22436317
0.22468834
0.22500698
0.22531933
0.22562563
0.22592613
0.22622106
0.22651064
0.22679511
0.22707468
0.22734957
0.22761999
0.22788612
0.22814818
0.22840632
0.22866073
0.22891157
0.229159
0.22940314
0.22964414
0.22988212
0.21557298
0.21609527
0.2166056
0.21710418
0.21759126
0.21806709
0.21853193
0.21898604
0.21942969
0.21986313
0.22028663
0.22070047
0.2211049
0.2215002
0.22188664
0.22226447
0.22263398
0.22299541
0.22334905
0.22369513
0.22403393
0.2243657
0.22469069
0.22500914
0.22532132
0.22562745
0.22592779
0.22622256
0.22651199
0.22679631
0.22707575
0.22735051
0.2276208
0.22788683
0.22814877
0.22840682
0.22866114
0.22891189
0.22915923
0.22940331
0.22964424
0.22988215
0.21558249
0.21610438
0.21661431
0.2171125
0.2175992
0.21807467
0.21853916
0.21899293
0.21943625
0.21986937
0.22029256
0.2207061
0.22111023
0.22150525
0.22189141
0.22226897
0.22263822
0.2229994
0.22335278
0.22369863
0.22403719
0.22436873
0.2246935
0.22501174
0.2253237
0.22562964
0.22592978
0.22622436
0.22651361
0.22679776
0.22707704
0.22735164
0.22762179
0.22788767
0.22814949
0.22840742
0.22866162
0.22891228
0.22915952
0.22940351
0.22964435
0.22988219
0.2150601
0.21559368
0.21611508
0.21662453
0.21712226
0.21760853
0.21808358
0.21854766
0.21900103
0.21944396
0.2198767
0.22029953
0.22071271
0.22111651
0.22151119
0.22189702
0.22227427
0.2226432
0.22300409
0.22335718
0.22370274
0.22404103
0.2243723
0.2246968
0.22501479
0.22532651
0.22563221
0.22593212
0.22622648
0.22651552
0.22679947
0.22707855
0.22735298
0.22762295
0.22788868
0.22815034
0.22840812
0.2286622
0.22891273
0.22915986
0.22940374
0.22964449
0.22988223
0.21507373
0.21560666
0.21612748
0.21663638
0.21713358
0.21761934
0.2180939
0.2185575
0.21901042
0.2194529
0.21988521
0.22030761
0.22072038
0.22112378
0.22151807
0.22190353
0.22228041
0.22264899
0.22300953
0.22336228
0.22370752
0.22404549
0.22437645
0.22470065
0.22501835
0.22532978
0.2256352
0.22593485
0.22622895
0.22651775
0.22680146
0.22708032
0.22735453
0.22762431
0.22788984
0.22815133
0.22840895
0.22866287
0.22891326
0.22916026
0.22940402
0.22964465
0.22988228
0.21454499
0.21508934
0.21562156
0.2161417
0.21664997
0.21714658
0.21763175
0.21810574
0.21856881
0.21902119
0.21946316
0.21989497
0.22031689
0.22072919
0.22113213
0.22152598
0.22191101
0.22228747
0.22265564
0.22301578
0.22336815
0.22371301
0.22405061
0.22438121
0.22470507
0.22502243
0.22533354
0.22563865
0.22593799
0.2262318
0.22652031
0.22680376
0.22708236
0.22735633
0.22762587
0.22789119
0.22815247
0.2284099
0.22866365
0.22891388
0.22916073
0.22940434
0.22964484
0.22988234
0.21456351
0.21510706
0.21563849
0.21615789
0.21666544
0.21716136
0.21764587
0.21811922
0.21858167
0.21903345
0.21947484
0.21990608
0.22032746
0.22073922
0.22114165
0.22153499
0.22191952
0.22229551
0.22266322
0.22302291
0.22337483
0.22371926
0.22405645
0.22438665
0.22471011
0.22502709
0.22533783
0.22564258
0.22594157
0.22623505
0.22652324
0.22680638
0.22708468
0.22735837
0.22762765
0.22789273
0.22815378
0.22841099
0.22866454
0.22891458
0.22916125
0.2294047
0.22964505
0.22988241
0.21402949
0.21458439
0.21512706
0.21565761
0.21617616
0.21668291
0.21717806
0.21766182
0.21813446
0.2185962
0.21904731
0.21948804
0.21991865
0.2203394
0.22075056
0.2211524
0.22154517
0.22192915
0.2223046
0.22267179
0.22303096
0.2233824
0.22372634
0.22406306
0.2243928
0.22471582
0.22503237
0.22534269
0.22564703
0.22594563
0.22623872
0.22652655
0.22680934
0.22708732
0.22736069
0.22762968
0.22789447
0.22815526
0.22841223
0.22866555
0.22891537
0.22916185
0.22940512
0.22964529
0.22988249
0.2140539
0.21460779
0.21514947
0.21567906
0.21619668
0.21670253
0.21719681
0.21767974
0.21815157
0.21861253
0.21906287
0.21950286
0.21993276
0.22035282
0.2207633
0.22116448
0.22155662
0.22193998
0.22231482
0.22268142
0.22304002
0.2233909
0.2237343
0.22407049
0.22439972
0.22472224
0.2250383
0.22534815
0.22565203
0.22595019
0.22624286
0.22653028
0.22681268
0.22709029
0.22736331
0.22763196
0.22789643
0.22815693
0.22841362
0.22866668
0.22891627
0.22916252
0.22940558
0.22964556
0.22988258
0.21351602
0.21408112
0.21463391
0.21517449
0.215703
0.21621959
0.21672445
0.21721776
0.21769976
0.21817068
0.21863077
0.21908027
0.21951944
0.21994853
0.22036781
0.22077755
0.22117799
0.22156942
0.22195208
0.22232625
0.22269219
0.22305016
0.22340041
0.22374321
0.22407881
0.22440746
0.22472942
0.22504494
0.22535426
0.22565763
0.2259553
0.2262475
0.22653446
0.22681642
0.22709361
0.22736623
0.22763451
0.22789863
0.2281588
0.22841518
0.22866796
0.22891727
0.22916328
0.2294061
0.22964587
0.22988268
0.2135475
0.21411135
0.21466291
0.21520229
0.21572962
0.21624507
0.21674881
0.21724106
0.21772203
0.21819195
0.21865106
0.21909962
0.21953788
0.21996608
0.2203845
0.2207934
0.22119303
0.22158366
0.22196555
0.22233897
0.22270418
0.22306144
0.223411
0.22375312
0.22408807
0.22441608
0.22473742
0.22505234
0.22536107
0.22566388
0.22596099
0.22625266
0.22653912
0.22682059
0.22709731
0.22736949
0.22763735
0.22790108
0.22816088
0.22841692
0.22866937
0.22891839
0.22916412
0.22940668
0.2296462
0.22988279
0.21300753
0.21358234
0.2141448
0.214695
0.21523305
0.21575909
0.21627328
0.21677581
0.21726688
0.2177467
0.21821551
0.21867355
0.21912107
0.21955831
0.21998554
0.220403
0.22081097
0.22120969
0.22159945
0.22198049
0.22235308
0.22271748
0.22307395
0.22342274
0.22376412
0.22409834
0.22442565
0.2247463
0.22506054
0.22536863
0.2256708
0.22596731
0.22625839
0.22654428
0.22682522
0.22710142
0.22737311
0.22764051
0.22790381
0.22816319
0.22841885
0.22867095
0.22891963
0.22916505
0.22940733
0.22964658
0.22988291
0.21304749
0.21362073
0.21418168
0.21473039
0.21526699
0.2157916
0.21630441
0.2168056
0.21729537
0.21777394
0.21824153
0.21869839
0.21914476
0.21958088
0.22000702
0.22042343
0.22083037
0.22122811
0.22161689
0.22199699
0.22236867
0.22273217
0.22308777
0.22343572
0.22377628
0.22410969
0.22443622
0.22475611
0.22506961
0.22537698
0.22567846
0.2259743
0.22626473
0.22655
0.22683033
0.22710597
0.22737712
0.227644
0.22790682
0.22816575
0.22842099
0.22867269
0.22892101
0.22916608
0.22940804
0.22964699
0.22988304
0.21309134
0.21366294
0.21422223
0.21476931
0.21530431
0.21582737
0.21633867
0.21683839
0.21732674
0.21780392
0.21827017
0.21872573
0.21917083
0.21960573
0.22003068
0.22044593
0.22085175
0.22124839
0.22163611
0.22201517
0.22238584
0.22274836
0.22310301
0.22345002
0.22378967
0.2241222
0.22444787
0.22476692
0.22507961
0.22538619
0.2256869
0.225982
0.22627171
0.22655629
0.22683597
0.22711098
0.22738153
0.22764785
0.22791013
0.22816857
0.22842334
0.2286746
0.22892251
0.22916721
0.22940881
0.22964744
0.22988318
0.21313941
0.21370921
0.21426669
0.21481199
0.21534524
0.21586661
0.21637626
0.21687437
0.21736116
0.21783683
0.21830162
0.21875575
0.21919946
0.21963302
0.22005666
0.22047064
0.22087522
0.22127066
0.22165721
0.22203514
0.2224047
0.22276615
0.22311974
0.22346574
0.22380439
0.22413595
0.22446067
0.22477881
0.2250906
0.22539631
0.22569618
0.22599046
0.22627939
0.22656322
0.22684217
0.22711649
0.22738639
0.22765209
0.22791378
0.22817167
0.22842592
0.22867671
0.22892417
0.22916844
0.22940966
0.22964793
0.22988334
0.21261185
0.21319205
0.21375983
0.21431532
0.21485868
0.21539003
0.21590955
0.21641739
0.21691376
0.21739884
0.21787286
0.21833604
0.21878862
0.21923082
0.2196629
0.22008512
0.22049771
0.22090094
0.22129506
0.22168034
0.22205702
0.22242537
0.22278563
0.22313808
0.22348296
0.22382052
0.22415102
0.22447471
0.22479183
0.22510265
0.22540741
0.22570636
0.22599975
0.22628782
0.22657081
0.22684897
0.22712253
0.22739171
0.22765673
0.22791778
0.22817507
0.22842875
0.22867901
0.22892597
0.22916978
0.22941057
0.22964845
0.2298835
0.21267163
0.21324953
0.21381509
0.21436841
0.21490965
0.21543893
0.21595643
0.21646232
0.21695677
0.21744001
0.21791223
0.21837366
0.21882453
0.21926508
0.21969556
0.22011621
0.22052729
0.22092904
0.22132173
0.22170561
0.22208094
0.22244796
0.22280694
0.22315813
0.22350179
0.22383816
0.2241675
0.22449006
0.22480608
0.22511583
0.22541955
0.22571749
0.2260099
0.22629703
0.22657912
0.22685641
0.22712914
0.22739754
0.22766181
0.22792216
0.22817878
0.22843184
0.22868151
0.22892793
0.22917123
0.22941154
0.22964899
0.22988367
0.21154918
0.21214903
0.21273676
0.21331216
0.21387528
0.21442624
0.21496517
0.21549221
0.21600752
0.21651127
0.21700366
0.21748487
0.21795513
0.21841466
0.21886369
0.21930244
0.21973117
0.22015013
0.22055955
0.2209597
0.22135083
0.22173319
0.22210703
0.22247261
0.22283019
0.22318002
0.22352234
0.22385741
0.22418549
0.22450681
0.22482164
0.22513022
0.2254328
0.22572964
0.22602099
0.22630709
0.22658819
0.22686454
0.22713636
0.2274039
0.22766735
0.22792693
0.22818283
0.22843521
0.22868423
0.22893003
0.22917276
0.22941255
0.22964953
0.22988384
0.2110162
0.21162556
0.21222265
0.21280757
0.21338024
0.21394073
0.21448912
0.21502555
0.21555015
0.21606308
0.21656452
0.21705466
0.21753369
0.21800182
0.21845928
0.2189063
0.2193431
0.21976993
0.22018704
0.22059467
0.22099308
0.2213825
0.22176321
0.22213544
0.22249946
0.22285551
0.22320385
0.22354472
0.22387839
0.22420508
0.22452507
0.22483859
0.2251459
0.22544724
0.22574289
0.22603307
0.22631805
0.22659808
0.22687339
0.22714423
0.22741083
0.22767339
0.22793213
0.22818723
0.22843885
0.22868715
0.22893227
0.22917435
0.22941354
0.22965003
0.22988396
0.21110219
0.21170843
0.21230249
0.21288439
0.21345413
0.21401176
0.21455737
0.21509109
0.21561304
0.21612341
0.21662234
0.21711004
0.2175867
0.21805254
0.21850776
0.21895259
0.21938728
0.21981205
0.22022716
0.22063284
0.22102935
0.22141693
0.22179584
0.22216633
0.22252865
0.22288304
0.22322976
0.22356906
0.22390119
0.22422639
0.22454492
0.22485702
0.22516295
0.22546295
0.22575729
0.22604622
0.22632998
0.22660883
0.22688302
0.22715279
0.22741836
0.22767996
0.22793778
0.228192
0.22844279
0.22869029
0.22893463
0.22917595
0.22941444
0.22965036
0.22988399
0.21119528
0.21179818
0.21238895
0.21296761
0.21353419
0.21408873
0.21463133
0.21516211
0.21568122
0.2161888
0.21668503
0.21717009
0.21764419
0.21810753
0.21856032
0.2190028
0.21943519
0.21985774
0.22027067
0.22067425
0.2210687
0.22145429
0.22183125
0.22219985
0.22256032
0.22291292
0.22325789
0.22359549
0.22392595
0.22424953
0.22456647
0.22487704
0.22518147
0.22548001
0.22577294
0.2260605
0.22634294
0.22662052
0.22689349
0.22716209
0.22742655
0.22768709
0.2279439
0.22819716
0.22844703
0.22869361
0.22893705
0.22917746
0.22941507
0.22965031
0.22988376
0.21129594
0.21189523
0.21248246
0.21305763
0.21362079
0.214172
0.21471136
0.21523898
0.215755
0.21625958
0.21675288
0.2172351
0.21770643
0.21816707
0.21861725
0.21905717
0.21948709
0.21990722
0.22031781
0.2207191
0.22111134
0.22149476
0.22186963
0.22223617
0.22259465
0.22294531
0.22328838
0.22362413
0.22395279
0.22427461
0.22458985
0.22489874
0.22520155
0.22549852
0.22578991
0.22607598
0.22635699
0.2266332
0.22690484
0.22717218
0.22743543
0.22769481
0.22795053
0.22820273
0.22845155
0.2286971
0.22893944
0.22917869
0.22941511
0.22964937
0.22988285
0.21140465
0.21200005
0.21258344
0.21315486
0.21371435
0.21426197
0.21479783
0.21532204
0.21583473
0.21633607
0.21682623
0.21730538
0.21777372
0.21823145
0.2186788
0.21911598
0.21954321
0.21996074
0.2203688
0.22076763
0.22115747
0.22153856
0.22191115
0.22227548
0.2226318
0.22298036
0.22332139
0.22365514
0.22398185
0.22430177
0.22461516
0.22492225
0.2252233
0.22551856
0.22580829
0.22609276
0.22637222
0.22664693
0.22691714
0.2271831
0.22744504
0.22770317
0.22795768
0.2282087
0.22845636
0.22870068
0.22894168
0.22917937
0.22941397
0.22964651
0.22988007
0.21152191
0.2121131
0.21269237
0.21325975
0.21381529
0.21435905
0.21489114
0.21541168
0.2159208
0.21641865
0.2169054
0.21738125
0.21784637
0.21830097
0.21874527
0.21917948
0.21960384
0.22001856
0.22042388
0.22082005
0.2212073
0.22158588
0.22195602
0.22231796
0.22267196
0.22301824
0.22335706
0.22368866
0.22401327
0.22433114
0.22464253
0.22494767
0.22524682
0.22554024
0.22582818
0.22611091
0.22638869
0.22666179
0.22693045
0.22719492
0.22745544
0.2277122
0.22796538
0.2282151
0.22846141
0.22870428
0.22894356
0.22917904
0.22941064
0.22963947
0.22987175
0.21164823
0.21223489
0.21280973
0.21337276
0.21392405
0.21446367
0.21499171
0.2155083
0.21601357
0.21650767
0.21699077
0.21746306
0.21792471
0.21837595
0.21881696
0.21924799
0.21966923
0.22008093
0.22048332
0.22087662
0.22126109
0.22163695
0.22200444
0.22236382
0.22271531
0.22305915
0.22339558
0.22372485
0.2240472
0.22436286
0.22467209
0.22497513
0.22527223
0.22556366
0.22584967
0.22613053
0.2264065
0.22667785
0.22694483
0.22720769
0.22746666
0.22772194
0.22797366
0.22822192
0.22846669
0.2287078
0.22894485
0.22917716
0.22940371
0.22962403
0.22984574
0.21178416
0.21236595
0.21293602
0.21349439
0.21404111
0.21457628
0.21509997
0.21561232
0.21611345
0.21660352
0.2170827
0.21755116
0.2180091
0.21845671
0.2188942
0.21932179
0.21973969
0.22014814
0.22054736
0.22093759
0.22131906
0.221692
0.22205665
0.22241326
0.22276205
0.22310326
0.22343713
0.2237639
0.2240838
0.22439708
0.22470399
0.22500476
0.22529966
0.22558894
0.22587287
0.22615171
0.22642573
0.22669519
0.22696036
0.22722148
0.22747878
0.22773242
0.22798254
0.22822915
0.22847214
0.22871112
0.22894531
0.22917321
0.22939186
0.22959454
0.22975889
0.21193025
0.21250682
0.21307177
0.21362513
0.21416697
0.21469735
0.21521638
0.21572417
0.21622087
0.21670662
0.21718159
0.21764594
0.21809988
0.2185436
0.21897731
0.21940121
0.21981553
0.22022048
0.22061631
0.22100322
0.22138147
0.22175128
0.22211287
0.2224665
0.22281239
0.22315077
0.22348188
0.22380596
0.22412324
0.22443396
0.22473837
0.22503671
0.22532923
0.22561621
0.22589789
0.22617455
0.22644647
0.2267139
0.22697712
0.22723635
0.22749182
0.22774369
0.22799203
0.2282368
0.22847772
0.22871414
0.22894478
0.22916707
0.22937585
0.22955956
0.2296882
0.21208711
0.21265807
0.21321753
0.21376553
0.21430212
0.21482738
0.21534141
0.21584433
0.21633628
0.21681739
0.21728784
0.2177478
0.21819745
0.218637
0.21906664
0.21948659
0.21989706
0.22029827
0.22069044
0.22107381
0.2214486
0.22181504
0.22217335
0.22252378
0.22286656
0.2232019
0.22353005
0.22385124
0.2241657
0.22447367
0.22477539
0.22507111
0.22536109
0.22564557
0.22592485
0.22619917
0.22646882
0.22673407
0.22699517
0.22725237
0.22750587
0.2277558
0.22800218
0.22824486
0.2284834
0.22871682
0.22894322
0.22915894
0.22935693
0.22952312
0.22962863
0.21225535
0.2128203
0.21337388
0.21391614
0.21444711
0.21496689
0.21547558
0.21597327
0.21646013
0.21693628
0.21740189
0.21785714
0.2183022
0.21873728
0.21916257
0.21957828
0.21998462
0.22038182
0.22077008
0.22114964
0.22152072
0.22188355
0.22223835
0.22258535
0.22292478
0.22325687
0.22358184
0.22389992
0.22421136
0.22451637
0.22481521
0.22510813
0.22539536
0.22567719
0.22595387
0.22622568
0.22649289
0.22675579
0.22701462
0.22726962
0.22752097
0.22776878
0.228013
0.22825335
0.22848918
0.22871913
0.2289407
0.22914925
0.22933638
0.22948733
0.22957713
0.2124356
0.21299412
0.21354142
0.21407753
0.21460251
0.21511643
0.21561938
0.2161115
0.21659291
0.21706375
0.21752419
0.21797439
0.21841455
0.21884484
0.21926548
0.21967665
0.22007858
0.22047147
0.22085555
0.22123103
0.22159814
0.2219571
0.22230813
0.22265146
0.22298731
0.2233159
0.22363747
0.22395223
0.22426042
0.22456227
0.22485802
0.22514792
0.22543222
0.22571118
0.22598508
0.22625419
0.22651879
0.22677916
0.22703555
0.22728817
0.22753721
0.2277827
0.22802453
0.22826228
0.22849506
0.22872113
0.2289374
0.22913844
0.22931516
0.22945317
0.22953178
0.21262853
0.21318019
0.21372077
0.21425032
0.21476888
0.21527653
0.21577338
0.21625953
0.21673512
0.21720029
0.2176552
0.21810002
0.21853492
0.2189601
0.21937575
0.21978208
0.22017928
0.22056758
0.22094717
0.2213183
0.22168116
0.22203598
0.22238297
0.22272237
0.22305439
0.22337925
0.22369717
0.22400837
0.22431309
0.22461155
0.22490399
0.22519066
0.22547181
0.22574771
0.22601863
0.22628485
0.22654665
0.2268043
0.22705805
0.22730812
0.22755464
0.22779761
0.22803682
0.22827169
0.22850109
0.22872291
0.22893354
0.229127
0.22929397
0.22942108
0.22949139
0.21283482
0.21337915
0.21391257
0.21443512
0.21494683
0.21544781
0.21593813
0.21641791
0.21688729
0.2173464
0.21779541
0.21823447
0.21866377
0.21908349
0.21949383
0.21989497
0.22028713
0.22067051
0.22104532
0.22141178
0.2217701
0.22212049
0.22246318
0.22279838
0.2231263
0.22344716
0.22376118
0.22406858
0.22436958
0.22466441
0.22495331
0.22523653
0.22551432
0.22578694
0.22605467
0.22631779
0.22657658
0.22683131
0.22708224
0.22732955
0.22757335
0.22781358
0.22804992
0.22828165
0.22850736
0.22872461
0.22892938
0.22911536
0.22927337
0.22939125
0.22945515
0.21305519
0.21359172
0.2141175
0.21463257
0.21513699
0.21563084
0.21611421
0.2165872
0.21704996
0.21750262
0.21794533
0.21837825
0.21880157
0.21921547
0.21962012
0.22001574
0.22040251
0.22078065
0.22115035
0.22151183
0.2218653
0.22221097
0.22254906
0.22287976
0.22320331
0.2235199
0.22382975
0.22413309
0.22443012
0.22472108
0.2250062
0.22528573
0.22555991
0.22582903
0.22609335
0.22635315
0.22660872
0.22686034
0.22710823
0.22735257
0.22759343
0.22783069
0.22806392
0.22829223
0.22851397
0.22872641
0.22892521
0.22910394
0.22925376
0.22936378
0.22942256
0.21329037
0.21381858
0.21433623
0.21484335
0.21534001
0.21582626
0.21630222
0.21676799
0.21722369
0.21766947
0.21810547
0.21853186
0.21894881
0.21935649
0.2197551
0.22014482
0.22052585
0.22089839
0.22126264
0.22161882
0.22196712
0.22230775
0.22264092
0.22296684
0.22328571
0.22359775
0.22390316
0.22420215
0.22449495
0.22478177
0.22506286
0.22533844
0.22560879
0.22587416
0.22613483
0.22639109
0.22664322
0.22689149
0.22713613
0.22737728
0.22761498
0.22784903
0.2280789
0.22830353
0.22852106
0.22872849
0.22892131
0.22909309
0.22923546
0.2293387
0.2293933
0.21354111
0.21406048
0.21456948
0.21506814
0.21555653
0.21603472
0.21650279
0.21696087
0.21740906
0.21784752
0.21827638
0.21869581
0.21910597
0.21950705
0.21989921
0.22028265
0.22065757
0.22102415
0.2213826
0.22173312
0.22207591
0.22241117
0.2227391
0.22305992
0.22337381
0.22368099
0.22398166
0.22427603
0.22456431
0.22484673
0.22512351
0.22539489
0.22566114
0.22592252
0.2261793
0.22643178
0.22668023
0.22692492
0.22716607
0.2274038
0.2276381
0.2278687
0.22809496
0.22831567
0.22852877
0.22873108
0.22891797
0.22908312
0.2292187
0.22931606
0.22936715
0.21380819
0.21431816
0.21481797
0.21530765
0.21578726
0.21625687
0.21671656
0.21716646
0.21760668
0.21803735
0.21845862
0.21887065
0.2192736
0.21966763
0.22005294
0.22042971
0.22079811
0.22115836
0.22151063
0.22185513
0.22219205
0.22252159
0.22284395
0.22315933
0.22346792
0.22376993
0.22406555
0.224355
0.22463847
0.22491619
0.22518838
0.22545529
0.22571717
0.22597429
0.22622693
0.22647538
0.2267199
0.22696077
0.22719819
0.22743226
0.22766291
0.22788982
0.22811222
0.22832878
0.22853727
0.22873438
0.22891542
0.2290743
0.22920369
0.22929588
0.22934397
0.21409239
0.21459239
0.21508245
0.21556259
0.21603288
0.21649338
0.21694419
0.2173854
0.21781714
0.21823955
0.21865276
0.21905692
0.2194522
0.21983877
0.22021679
0.22058646
0.22094794
0.22130145
0.22164715
0.22198524
0.22231593
0.22263939
0.22295582
0.22326542
0.22356837
0.22386487
0.22415513
0.22443933
0.22471768
0.2249904
0.22525772
0.22551987
0.2257771
0.2260297
0.22627792
0.22652206
0.22676241
0.2269992
0.22723264
0.22746279
0.22768954
0.2279125
0.22813081
0.228343
0.22854672
0.22873858
0.22891391
0.22906684
0.22919056
0.22927815
0.22932364
0.21439452
0.21488396
0.21536367
0.21583371
0.21629411
0.21674496
0.21718633
0.21761834
0.21804109
0.21845472
0.21885938
0.21925519
0.21964234
0.22002097
0.22039126
0.22075339
0.22110753
0.22145387
0.22179259
0.22212389
0.22244794
0.22276493
0.22307507
0.22337852
0.22367548
0.22396613
0.22425068
0.22452931
0.22480222
0.22506964
0.22533177
0.22558886
0.22584115
0.22608893
0.22633246
0.22657203
0.22680792
0.22704037
0.22726956
0.22749553
0.22771813
0.22793688
0.22815086
0.22835847
0.2285573
0.22874387
0.22891362
0.22906089
0.22917939
0.22926286
0.22930606
0.2147154
0.21519365
0.21566242
0.21612175
0.21657169
0.2170123
0.21744368
0.21786593
0.21827916
0.21868349
0.21907907
0.21946604
0.21984456
0.22021478
0.22057686
0.22093099
0.22127734
0.22161608
0.2219474
0.22227147
0.22258849
0.22289862
0.22320206
0.22349899
0.22378959
0.22407404
0.22435252
0.22462524
0.22489238
0.22515415
0.22541078
0.22566249
0.22590954
0.2261522
0.22639075
0.22662546
0.22685661
0.22708444
0.22730911
0.22753063
0.2277488
0.2279631
0.2281725
0.22837535
0.22856914
0.22875042
0.22891469
0.22905658
0.22917022
0.22924995
0.22929109
0.21505585
0.21552227
0.21597947
0.21642747
0.21686633
0.21729613
0.21771693
0.21812885
0.21853199
0.21892648
0.21931246
0.21969006
0.22005943
0.22042073
0.22077412
0.22111978
0.22145786
0.22178855
0.22211201
0.22242843
0.22273798
0.22304084
0.22333719
0.22362719
0.22391104
0.2241889
0.22446096
0.2247274
0.22498842
0.22524421
0.225495
0.22574102
0.22598251
0.22621974
0.226453
0.22668255
0.22690868
0.2271316
0.22735145
0.22756824
0.22778171
0.22799129
0.22819589
0.22839377
0.22858241
0.22875836
0.22891725
0.22905397
0.22916305
0.22923933
0.22927861
0.2154167
0.21587063
0.2163156
0.21675164
0.2171788
0.21759715
0.21800677
0.21840776
0.21880024
0.21918432
0.21956013
0.21992781
0.22028751
0.22063937
0.22098356
0.22132024
0.22164957
0.22197173
0.22228687
0.22259518
0.22289683
0.22319198
0.2234808
0.22376348
0.22404017
0.22431106
0.22457631
0.2248361
0.22509063
0.22534009
0.2255847
0.22582468
0.22606028
0.22629177
0.22651941
0.2267435
0.22696429
0.227182
0.22739676
0.22760852
0.22781702
0.2280216
0.22822115
0.22841388
0.22859723
0.22876781
0.22892139
0.2290531
0.22915786
0.22923091
0.22926846
0.2157988
0.21623956
0.21667162
0.21709502
0.21750982
0.21791608
0.21831389
0.21870334
0.21908455
0.21945762
0.21982269
0.22017988
0.22052935
0.22087124
0.22120569
0.22153288
0.22185295
0.22216608
0.22247242
0.22277215
0.22306542
0.22335241
0.22363328
0.22390819
0.22417731
0.22444081
0.22469886
0.22495162
0.22519928
0.22544205
0.22568011
0.22591371
0.22614308
0.22636849
0.2265902
0.22680851
0.22702365
0.22723584
0.22744519
0.22765163
0.22785486
0.22805419
0.22824844
0.2284358
0.22861373
0.22877889
0.22892719
0.22905402
0.22915462
0.22922461
0.22926053
0.21576773
0.21620301
0.21662985
0.21704829
0.21745836
0.21786011
0.21825362
0.21863896
0.21901624
0.21938554
0.21974699
0.22010071
0.22044683
0.22078549
0.22111683
0.221441
0.22175815
0.22206844
0.22237202
0.22266906
0.22295971
0.22324413
0.22352249
0.22379495
0.22406166
0.22432277
0.22457847
0.22482889
0.22507422
0.22531464
0.22555032
0.22578148
0.22600833
0.22623112
0.22645011
0.22666556
0.22687775
0.22708693
0.22729329
0.22749691
0.22769773
0.22789539
0.22808918
0.22827789
0.22845969
0.22863205
0.2287917
0.22893473
0.22905675
0.22915331
0.22922036
0.22925473
0.21578138
0.21620978
0.21663008
0.21704226
0.21744633
0.21784235
0.21823035
0.21861042
0.21898261
0.21934704
0.21970379
0.22005298
0.22039473
0.22072916
0.22105642
0.22137662
0.22168993
0.22199649
0.22229644
0.22258994
0.22287715
0.22315822
0.2234333
0.22370255
0.22396612
0.22422416
0.22447683
0.22472428
0.22496667
0.22520416
0.22543692
0.22566514
0.22588901
0.22610876
0.22632461
0.22653683
0.22674568
0.22695143
0.22715431
0.2273545
0.2275521
0.22774698
0.22793877
0.22812674
0.22830964
0.22848566
0.22865229
0.22880635
0.22894408
0.22906133
0.22915394
0.22921813
0.22925101
0.21584376
0.21626386
0.21667619
0.21708072
0.21747746
0.21786642
0.21824763
0.21862116
0.21898705
0.2193454
0.21969628
0.22003981
0.22037607
0.2207052
0.22102731
0.22134254
0.221651
0.22195286
0.22224824
0.22253729
0.22282017
0.22309701
0.22336797
0.2236332
0.22389284
0.22414704
0.22439595
0.22463972
0.22487849
0.22511241
0.22534164
0.22556634
0.2257867
0.22600291
0.22621518
0.22642374
0.22662884
0.22683074
0.22702969
0.22722595
0.22741966
0.22761089
0.22779952
0.22798515
0.22816701
0.22834385
0.22851386
0.22867458
0.22882294
0.22895533
0.22906782
0.22915651
0.22921791
0.22924932
0.21636923
0.21677212
0.21716755
0.21755552
0.21793601
0.21830907
0.21867471
0.21903299
0.21938397
0.21972774
0.22006437
0.22039396
0.22071662
0.22103246
0.22134159
0.22164414
0.22194025
0.22223004
0.22251365
0.22279123
0.22306291
0.22332884
0.22358916
0.22384402
0.22409355
0.22433789
0.2245772
0.2248116
0.22504124
0.22526626
0.22548681
0.22570306
0.22591517
0.22612333
0.22632775
0.22652865
0.22672628
0.22692089
0.22711272
0.22730201
0.22748891
0.22767347
0.22785552
0.22803467
0.22821013
0.22838065
0.22854442
0.22869906
0.22884159
0.22896857
0.22907628
0.22916107
0.2292197
0.22924967
0.21692182
0.21730663
0.2176843
0.21805485
0.21841828
0.2187746
0.21912387
0.21946612
0.21980142
0.22012985
0.22045149
0.22076643
0.22107477
0.22137663
0.22167212
0.22196135
0.22224446
0.22252157
0.22279281
0.22305833
0.22331825
0.22357272
0.22382187
0.22406583
0.22430475
0.22453876
0.22476798
0.22499257
0.22521264
0.22542834
0.22563981
0.2258472
0.22605067
0.22625042
0.22644662
0.22663951
0.22682932
0.2270163
0.22720068
0.22738268
0.22756243
0.22773998
0.22791515
0.22808751
0.22825628
0.2284202
0.2285775
0.22872586
0.22886242
0.2289839
0.22908679
0.22916768
0.22922354
0.22925208
0.21750169
0.21786749
0.21822651
0.21857876
0.21892425
0.21926301
0.21959507
0.21992048
0.22023931
0.22055163
0.22085752
0.22115708
0.2214504
0.22173758
0.22201875
0.22229401
0.22256349
0.22282731
0.22308559
0.22333847
0.22358608
0.22382855
0.224066
0.22429858
0.22452641
0.22474961
0.22496831
0.22518265
0.22539273
0.22559871
0.2258007
0.22599885
0.22619333
0.22638429
0.22657194
0.22675647
0.22693813
0.22711714
0.22729374
0.22746812
0.22764041
0.22781063
0.2279786
0.22814386
0.22830564
0.22846268
0.22861327
0.22875515
0.22888559
0.22900146
0.22909947
0.22917643
0.22922952
0.22925663
0.21810843
0.21845427
0.21879371
0.21912675
0.21945341
0.21977373
0.22008774
0.2203955
0.22069706
0.2209925
0.22128191
0.22156536
0.22184296
0.2221148
0.222381
0.22264166
0.2228969
0.22314685
0.22339161
0.22363132
0.22386611
0.22409608
0.22432137
0.2245421
0.2247584
0.22497037
0.22517814
0.22538183
0.22558156
0.22577743
0.22596959
0.22615816
0.22634329
0.22652514
0.2267039
0.22687976
0.22705294
0.22722366
0.22739215
0.22755859
0.2277231
0.22788567
0.22804611
0.22820396
0.22835844
0.22850834
0.22865196
0.22878715
0.22891128
0.22902142
0.22911448
0.22918746
0.22923777
0.22926344
0.21874076
0.21906566
0.21938457
0.21969749
0.22000445
0.22030548
0.22060062
0.22088993
0.22117346
0.2214513
0.22172352
0.2219902
0.22225143
0.22250732
0.22275797
0.22300348
0.22324397
0.22347954
0.22371031
0.2239364
0.22415792
0.22437498
0.22458772
0.22479623
0.22500062
0.22520102
0.22539752
0.22559023
0.22577927
0.22596473
0.22614673
0.2263254
0.22650088
0.22667331
0.22684286
0.22700973
0.22717412
0.22733624
0.2274963
0.22765447
0.22781086
0.22796544
0.22811802
0.22826814
0.22841501
0.22855745
0.22869384
0.22882211
0.22893976