/*--------------------------------*- C++ -*----------------------------------*\
| =========                 |                                                 |
| \\      /  F ield         | OpenFOAM: The Open Source CFD Toolbox           |
|  \\    /   O peration     | Version:  2312                                  |
|   \\  /    A nd           | Website:  www.openfoam.com                      |
|    \\/     M anipulation  |                                                 |
\*---------------------------------------------------------------------------*/
FoamFile
{
    version     2.0;
    format      ascii;
    arch        "LSB;label=32;scalar=64";
    class       volScalarField;
    location    "0.07";
    object      omega;
}
// * * * * * * * * * * * * * * * * * * * * * * * * * * * * * * * * * * * * * //

dimensions      [0 0 -1 0 0 0 0];

internalField   nonuniform List<scalar> 
3224
(
177.98421
176.62514
175.31711
174.0592
172.85049
171.69
170.5768
169.50994
168.48845
167.51139
166.57781
165.68678
164.83735
164.02859
163.25957
162.52938
161.83723
161.1822
160.56342
159.98
159.43107
158.91579
158.43331
157.98283
157.56352
157.1746
156.81528
156.4848
156.18241
155.90735
155.6589
155.43633
155.23894
155.06603
154.9169
154.79088
154.6873
154.60552
154.54488
154.50482
154.48465
177.98364
176.62444
175.31635
174.05843
172.8497
171.68922
170.57603
169.50917
168.4877
167.51065
166.57708
165.68605
164.83663
164.02787
163.25885
162.52866
161.83651
161.18148
160.56269
159.97926
159.43033
158.91505
158.43257
157.98208
157.56277
157.17384
156.81452
156.48404
156.18164
155.90659
155.65814
155.43557
155.23818
155.06526
154.91613
154.7901
154.68652
154.60473
154.54408
154.50402
154.48387
177.98358
176.6243
175.3162
174.05829
172.84959
171.68915
170.57599
169.50916
168.4877
167.51067
166.57712
165.68611
164.83669
164.02794
163.25892
162.52873
161.83657
161.18154
160.56274
159.97931
159.43037
158.91507
158.43258
157.98208
157.56276
157.17383
156.81451
156.48403
156.18163
155.90657
155.65813
155.43556
155.23818
155.06526
154.91613
154.79011
154.68652
154.60473
154.54408
154.50401
154.48391
177.98402
176.62472
175.31667
174.05882
172.85019
171.6898
170.57669
169.5099
168.48849
167.51149
166.57796
165.68697
164.83757
164.02882
163.25981
162.52962
161.83745
161.18241
160.5636
159.98015
159.43119
158.91588
158.43338
157.98287
157.56354
157.1746
156.81527
156.48479
156.18239
155.90733
155.65889
155.43634
155.23896
155.06605
154.91693
154.79091
154.68733
154.60554
154.54489
154.50481
154.48476
179.39629
177.98486
176.62571
175.31778
174.06003
172.85149
171.69119
170.57816
169.51143
168.49007
167.51312
166.57963
165.68866
164.83927
164.03054
163.26153
162.53134
161.83916
161.1841
160.56528
159.98181
159.43283
158.9175
158.43498
157.98445
157.56511
157.17616
156.81682
156.48633
156.18393
155.90888
155.66045
155.4379
155.24054
155.06764
154.91854
154.79253
154.68896
154.60718
154.54653
154.50645
154.48643
179.39704
177.98613
176.6272
175.31943
174.06183
172.85341
171.69321
170.58027
169.51363
168.49233
167.51543
166.58198
165.69103
164.84167
164.03295
163.26395
162.53375
161.84156
161.18649
160.56764
159.98415
159.43515
158.91979
158.43725
157.9867
157.56734
157.17837
156.81903
156.48853
156.18614
155.91109
155.66266
155.44013
155.24278
155.0699
154.92081
154.79482
154.69127
154.6095
154.54886
154.50878
154.48879
179.39835
177.98776
176.6291
175.32153
174.06409
172.85581
171.69574
170.5829
169.51634
168.49512
167.51828
166.58487
165.69396
164.84462
164.03591
163.26692
162.53671
161.84451
161.18942
160.57055
159.98703
159.438
158.92262
158.44005
157.98948
157.5701
157.18111
156.82176
156.49126
156.18886
155.91382
155.6654
155.44288
155.24555
155.07269
154.92362
154.79765
154.69411
154.61235
154.55173
154.51165
154.49169
179.40021
177.98992
176.63156
175.32423
174.067
172.8589
171.69897
170.58626
169.51981
168.49867
167.5219
166.58855
165.69768
164.84836
164.03967
163.27068
162.54048
161.84825
161.19314
160.57424
159.99069
159.44163
158.92622
158.44362
157.99301
157.57361
157.18461
156.82523
156.49473
156.19233
155.91729
155.66889
155.44638
155.24907
155.07623
154.92719
154.80124
154.69772
154.61599
154.55538
154.51531
154.49536
180.86521
179.40252
177.99265
176.63464
175.32761
174.07062
172.86273
171.70298
170.59042
169.5241
168.50306
167.52637
166.59308
165.70226
164.85297
164.0443
163.27531
162.5451
161.85286
161.19772
160.57879
159.9952
159.4461
158.93065
158.44801
157.99737
157.57794
157.18891
156.82952
156.49901
156.19661
155.92158
155.67319
155.4507
155.25341
155.0806
154.93158
154.80566
154.70217
154.62046
154.55987
154.51982
154.49989
180.86732
179.40536
177.99599
176.6384
175.33172
174.07502
172.86737
171.70783
170.59544
169.52926
168.50834
167.53174
166.59853
165.70776
164.85851
164.04985
163.28087
162.55066
161.85839
161.20322
160.58425
160.00062
159.45148
158.93598
158.4533
158.00262
157.58315
157.1941
156.8347
156.50417
156.20177
155.92675
155.67837
155.45591
155.25864
155.08586
154.93687
154.81099
154.70753
154.62584
154.56528
154.52524
154.50533
182.38411
180.87005
179.40882
178.00002
176.6429
175.33661
174.08025
172.87288
171.71358
170.60139
169.53538
168.51459
167.5381
166.60497
165.71426
164.86505
164.05642
163.28745
162.55722
161.86493
161.20972
160.59071
160.00703
159.45784
158.94229
158.45956
158.00884
157.58933
157.20025
156.84082
156.51028
156.20788
155.93286
155.6845
155.46207
155.26483
155.09209
154.94314
154.81729
154.71387
154.63221
154.57168
154.53166
154.51177
182.38679
180.87347
179.41298
178.0048
176.64821
175.34237
174.08638
172.87934
171.7203
170.60834
169.54252
168.52189
167.54552
166.61248
165.72184
164.87267
164.06407
163.2951
162.56487
161.87255
161.2173
160.59824
160.01451
159.46525
158.94965
158.46686
158.01609
157.59653
157.20742
156.84796
156.51741
156.21501
155.94001
155.69167
155.46926
155.27206
155.09936
154.95045
154.82465
154.72127
154.63965
154.57915
154.53916
154.51928
183.95602
182.39011
180.8776
179.41789
178.0104
176.6544
175.34905
174.09349
172.88681
171.72808
170.61638
169.55076
168.53031
167.55408
166.62114
165.73058
164.88146
164.07288
163.30393
162.57369
161.88133
161.22604
160.60692
160.02313
159.47381
158.95813
158.47528
158.02445
157.60485
157.2157
156.85622
156.52565
156.22325
155.94825
155.69994
155.47756
155.28041
155.10775
154.95889
154.83314
154.72981
154.64823
154.58777
154.54781
154.52794
183.95917
182.39415
180.88252
179.42364
178.01689
176.66153
175.35674
174.10165
172.89537
171.73699
170.62557
169.5602
168.53994
167.56386
166.63104
165.74056
164.8915
164.08295
163.31401
162.58376
161.89137
161.23601
160.61684
160.03297
159.48358
158.96783
158.48491
158.03402
157.61436
157.22516
156.86565
156.53507
156.23267
155.95769
155.7094
155.48707
155.28996
155.11736
154.96855
154.84286
154.73958
154.65805
154.59763
154.5577
154.53785
185.58089
183.96297
182.39897
180.88829
179.43031
178.02436
176.6697
175.36552
174.11095
172.90512
171.74712
170.63602
169.57091
168.55086
167.57496
166.64227
165.75188
164.90289
164.09437
163.32543
162.59517
161.90274
161.24733
160.62808
160.04414
159.49466
158.97883
158.49584
158.04487
157.62515
157.23591
156.87637
156.54577
156.24337
155.96841
155.72015
155.49786
155.3008
155.12826
154.97952
154.85389
154.75067
154.6692
154.60882
154.56893
154.5491
185.5843
183.96753
182.40462
180.89498
179.43796
178.03288
176.67898
175.37547
174.12148
172.91614
171.75855
170.64781
169.58299
168.56318
167.58746
166.65492
165.76464
164.91571
164.10723
163.33829
162.60802
161.91554
161.26007
160.64074
160.05671
159.50715
158.99123
158.50814
158.0571
157.63732
157.24802
156.88844
156.55783
156.25543
155.98049
155.73227
155.51003
155.31303
155.14056
154.99189
154.86633
154.76318
154.68177
154.62145
154.5816
154.56179
187.25812
185.58838
183.97289
182.41119
180.90267
179.44669
178.04254
176.68948
175.38668
174.13333
172.92853
171.7714
170.66104
169.59654
168.57699
167.60148
166.66909
165.77892
164.93007
164.12162
163.3527
162.62241
161.92988
161.27434
160.65492
160.0708
159.52114
159.00512
158.52194
158.07081
157.65095
157.2616
156.90199
156.57136
156.26896
155.99404
155.74586
155.52368
155.32675
155.15436
155.00577
154.88029
154.77722
154.69588
154.63562
154.59581
154.57603
187.26151
185.59326
183.97915
182.41875
180.91145
179.45659
178.05345
176.70128
175.39927
174.1466
172.94239
171.78576
170.67582
169.61168
168.59241
167.61712
166.6849
165.79485
164.94608
164.13767
163.36876
162.63845
161.94587
161.29024
160.67073
160.0865
159.53673
159.0206
158.53731
158.08609
157.66616
157.27674
156.91709
156.58644
156.28405
156.00917
155.76104
155.53892
155.34207
155.16976
155.02126
154.89587
154.79288
154.71163
154.65143
154.61168
154.59192
187.26577
185.59901
183.9864
182.42741
180.92142
179.46775
178.0657
176.71449
175.41334
174.1614
172.95783
171.80175
170.69227
169.6285
168.60954
167.6345
166.70246
165.81255
164.96385
164.15549
163.38658
162.65624
161.96361
161.30789
160.68828
160.10393
159.55403
159.03778
158.55438
158.10306
157.68304
157.29356
156.93387
156.60321
156.30083
156.02597
155.7779
155.55585
155.35909
155.18688
155.03848
154.91319
154.8103
154.72913
154.66901
154.62931
154.60959
187.27087
185.6057
183.9947
182.43724
180.93266
179.48029
178.0794
176.72923
175.42899
174.17786
172.97497
171.81948
170.7105
169.64714
168.62851
167.65373
166.7219
165.83212
164.98351
164.17519
163.40629
162.67592
161.98322
161.32741
160.70768
160.1232
159.57317
159.05679
158.57327
158.12183
157.70172
157.31217
156.95243
156.62176
156.31939
156.04458
155.79657
155.5746
155.37794
155.20583
155.05754
154.93236
154.82957
154.7485
154.68847
154.64884
154.62917
188.99466
187.27666
185.61338
184.00416
182.44836
180.9453
179.49432
178.09468
176.74563
175.44637
174.19609
172.99395
171.83909
170.73064
169.66773
168.64946
167.67496
166.74334
165.85371
165.00519
164.19692
163.42801
162.6976
162.00484
161.34892
160.72906
160.14444
159.59427
159.07774
158.59408
158.14252
157.72231
157.33269
156.9729
156.64221
156.33986
156.0651
155.81716
155.59529
155.39873
155.22674
155.07857
154.9535
154.85083
154.76987
154.70994
154.6704
154.65078
188.99902
187.28335
185.62218
184.01489
182.46087
180.95946
179.50996
178.11166
176.7638
175.4656
174.21624
173.0149
171.86072
170.75284
169.6904
168.67252
167.69832
166.76692
165.87745
165.02903
164.2208
163.45188
162.72143
162.02859
161.37255
160.75255
160.16778
159.61744
159.10076
158.61695
158.16526
157.74494
157.35524
156.99541
156.66471
156.36238
156.08767
155.83981
155.61805
155.42161
155.24974
155.1017
154.97676
154.87421
154.79336
154.73355
154.69412
154.67458
192.594
190.77195
189.00419
187.29107
185.63219
184.02701
182.47491
180.97525
179.52735
178.13048
176.7839
175.48683
174.23845
173.03796
171.88451
170.77725
169.71531
168.69784
167.72396
166.7928
165.90349
165.05517
164.24698
163.47806
162.74755
162.05462
161.39845
160.7783
160.19336
159.64284
159.12598
158.64201
158.19018
157.76975
157.37996
157.02008
156.68937
156.38707
156.11242
155.86466
155.64301
155.4467
155.27497
155.12706
155.00225
154.89983
154.81911
154.75944
154.72013
154.7007
194.46855
192.59433
190.77512
189.01036
187.29996
185.64356
184.04064
182.49061
180.99284
179.54664
178.1513
176.80608
175.51021
174.26288
173.0633
171.91063
170.80402
169.74262
168.72558
167.75204
166.82113
165.932
165.08378
164.27562
163.50668
162.77611
162.08308
161.42677
160.80644
160.22132
159.67061
159.15356
158.66941
158.21743
157.79687
157.40699
157.04706
156.71634
156.41408
156.1395
155.89184
155.67031
155.47415
155.30256
155.1548
155.03011
154.92781
154.84723
154.78771
154.74858
154.7293
194.46612
192.59537
190.77934
189.0177
187.3102
185.65645
184.05595
182.50813
181.01237
179.56798
178.17427
176.8305
175.53591
174.28971
173.09109
171.93924
170.83332
169.7725
168.75592
167.78273
166.85208
165.96313
165.11501
164.30688
163.53792
162.80727
162.11413
161.45766
160.83714
160.25181
159.70089
159.18364
158.6993
158.24715
157.82645
157.43648
157.0765
156.74577
156.44354
156.16905
155.9215
155.70011
155.5041
155.33266
155.18503
155.06047
154.95829
154.87782
154.81847
154.77958
154.76053
194.46439
192.59731
190.78473
189.02638
187.32194
185.67101
184.0731
182.52765
181.03402
179.59156
178.19959
176.85735
175.56412
174.3191
173.12151
171.97053
170.86535
169.80513
168.78903
167.81621
166.88584
165.99706
165.14904
164.34095
163.57194
162.84121
162.14792
161.49129
160.87056
160.285
159.73385
159.21637
158.73183
158.27949
157.85865
157.46857
157.10854
156.77781
156.47563
156.20122
155.9538
155.73256
155.5367
155.36541
155.21792
155.09346
154.99135
154.91098
154.85179
154.81321
154.79448
194.46347
192.6003
190.79142
189.03656
187.33537
185.68744
184.09228
182.54933
181.05798
179.61757
178.22743
176.88683
175.59503
174.35127
173.15476
172.0047
170.90029
169.8407
168.82511
167.85269
166.92259
166.034
165.18607
164.37799
163.60894
162.87809
162.18466
161.52784
160.90688
160.32107
159.76966
159.25193
158.76716
158.31463
157.89363
157.50344
157.14335
156.81262
156.51049
156.23618
155.98889
155.76781
155.57211
155.40097
155.25357
155.12917
155.02707
154.94671
154.88765
154.84945
154.83118
194.46349
192.60452
190.79959
189.04843
187.35069
185.70594
184.11369
182.5734
181.08445
179.64621
178.25801
176.91914
175.62886
174.38642
173.19105
172.04197
170.93837
169.87944
168.86438
167.89235
166.96254
166.07413
165.2263
164.41822
163.6491
162.91813
162.22451
161.56748
160.94627
160.36018
159.8085
159.2905
158.80547
158.35272
157.93155
157.54125
157.1811
156.85036
156.54829
156.27408
156.02694
155.80602
155.61047
155.43946
155.29213
155.1677
155.06549
154.98498
154.9259
154.88808
154.87034
194.46465
192.61017
190.80944
189.06221
187.36811
185.72673
184.13756
182.60007
181.11367
179.67772
178.29157
176.95451
175.66583
174.42478
173.23061
172.08255
170.9798
169.92156
168.90704
167.93543
167.00591
166.11768
165.26992
164.46184
163.69263
162.96151
162.26769
161.61041
160.98892
160.40253
159.85054
159.33224
158.84694
158.39396
157.9726
157.58216
157.22195
156.89121
156.58919
156.3151
156.0681
155.84735
155.65195
155.48103
155.33369
155.20912
155.10659
155.02563
154.96618
154.92848
154.91095
194.46717
192.61747
190.8212
189.07812
187.38788
185.75004
184.16413
182.6296
181.14588
179.71235
178.32835
176.9932
175.7062
174.46661
173.2737
172.12669
171.02482
169.96731
168.95335
167.98216
167.05293
166.16487
165.31718
164.50907
163.73975
163.00845
162.3144
161.65684
161.03504
160.44832
159.89598
159.37736
158.89176
158.43851
158.01695
157.62637
157.26607
156.93533
156.63338
156.3594
156.11255
155.89195
155.69668
155.5258
155.37835
155.25345
155.1503
155.06842
155.00788
154.96937
154.95029
194.47129
192.62667
190.83513
189.09644
187.41026
185.77617
184.19367
182.66226
181.18136
179.75036
178.36862
177.03548
175.75023
174.51217
173.32057
172.17467
171.07371
170.01693
169.00355
168.03278
167.10384
166.21594
165.3683
164.56014
163.79069
163.05917
162.36485
161.70699
161.08485
160.49774
159.94503
159.42604
158.94011
158.48658
158.06478
157.67404
157.31366
156.98291
156.68102
156.40715
156.16045
155.93999
155.74481
155.57389
155.4262
155.30072
155.19656
155.11308
155.05035
155.00906
154.98335
194.47732
192.63806
190.85152
189.11747
187.43556
185.80539
184.2265
182.69835
181.22041
179.79206
178.41269
177.08164
175.79823
174.56176
173.37151
172.22676
171.12674
170.07072
169.05792
168.08757
167.15891
166.27115
165.42354
164.6153
163.84568
163.11392
162.41929
161.76107
161.13854
160.55103
159.9979
159.47851
158.99221
158.53835
158.1163
157.72538
157.3649
157.03413
156.73228
156.45853
156.21196
155.99161
155.79646
155.6254
155.47729
155.35097
155.24534
155.15961
155.0936
155.04748
155.00772
194.48559
192.65199
190.87071
189.14152
187.46411
185.83806
184.26293
182.73821
181.26335
179.83778
178.46087
177.132
175.8505
174.61568
173.42684
172.28326
171.18421
170.12896
169.11674
168.14681
167.21841
166.33078
165.48317
164.67482
163.90499
163.17294
162.47796
161.81933
161.19637
160.60839
160.0548
159.53496
159.04825
158.59404
158.17169
157.78056
157.41996
157.08915
156.78735
156.51368
156.26723
156.04696
155.85176
155.68044
155.53172
155.40426
155.29684
155.20854
155.13935
155.08968
155.04389
194.49648
192.66883
190.89307
189.16899
187.49628
185.87454
184.30335
182.7822
181.31056
179.88787
178.51354
177.18693
175.9074
174.67428
173.48688
172.34451
171.24645
170.19196
169.18033
168.2108
167.28265
166.39512
165.54747
164.73897
163.96888
163.23649
162.5411
161.88201
161.25856
160.67007
160.11596
159.59562
159.10845
158.65383
158.23116
157.83979
157.47904
157.14817
156.84638
156.57279
156.32641
156.10616
155.91084
155.73912
155.58958
155.46077
155.35137
155.26063
155.18903
155.13724
155.08944
194.51043
192.68902
190.91903
189.20029
187.53249
185.91525
184.34816
182.83072
181.36243
179.94274
178.57106
177.24679
175.96929
174.73792
173.55201
172.41086
171.31379
170.26008
169.24901
168.27987
167.35193
166.46446
165.61673
164.80803
164.03764
163.30486
162.60899
161.94938
161.32537
160.73631
160.18161
159.66071
159.17303
158.71796
158.29492
157.90326
157.54232
157.21136
156.90956
156.636
156.38965
156.16935
155.97379
155.80153
155.65102
155.5207
155.40935
155.31651
155.24323
155.19009
155.14248
194.52794
192.71304
190.94909
189.23591
187.57321
185.96065
184.39781
182.88423
181.4194
180.0028
178.63386
177.312
176.03659
174.807
173.62259
172.48269
171.3866
170.33366
169.32314
168.35436
167.42659
166.53914
165.69128
164.88232
164.11156
163.37831
162.68191
162.0217
161.39706
160.80736
160.25201
159.73048
159.24221
158.78663
158.36315
157.97116
157.60999
157.27889
156.97703
156.70346
156.45707
156.23664
156.04074
155.86781
155.71619
155.58434
155.47116
155.37664
155.30223
155.24818
155.20176
194.54959
192.74146
190.98377
189.27637
187.61898
186.01126
184.45282
182.94321
181.48196
180.06854
178.70242
177.38301
176.10973
174.88196
173.69907
172.5604
171.4653
170.4131
169.4031
168.43463
167.507
166.6195
165.77145
164.96217
164.19096
163.45717
162.76015
162.09926
161.4739
160.88347
160.32739
159.80515
159.31622
158.86005
158.43607
158.04369
157.68223
157.35094
157.04896
156.77531
156.52882
156.30815
156.1118
155.93808
155.78529
155.65193
155.53716
155.44135
155.36618
155.3115
155.26671
194.57601
192.77491
191.02371
189.32228
187.67036
186.06764
184.51373
183.00822
181.55063
180.14047
178.77722
177.46032
176.1892
174.96326
173.78188
172.64444
171.5503
170.49881
169.48929
168.52108
167.59351
166.70591
165.85759
165.0479
164.27617
163.54175
162.84402
162.18235
161.55618
160.96491
160.40802
159.88498
159.39529
158.93845
158.51389
158.12103
157.75921
157.42766
157.1255
156.85168
156.60499
156.384
156.18709
156.0125
155.8585
155.72373
155.60762
155.51085
155.43517
155.3801
155.33701
194.60793
192.81408
191.06958
189.3743
187.72802
186.13043
184.58118
183.07985
181.62601
180.21917
178.85883
177.54447
176.27551
175.0514
173.87153
172.73529
171.64207
170.59123
169.58213
168.61412
167.68655
166.79875
165.95008
165.13988
164.36752
163.63237
162.93382
162.27127
161.64417
161.05197
160.49415
159.9702
159.47966
159.02204
158.59681
158.20338
157.84111
157.5092
157.20677
156.9327
156.68571
156.46429
156.26671
156.09118
155.936
155.79994
155.68273
155.58527
155.50926
155.45399
155.41251
194.64618
192.85979
191.12216
189.4332
187.79269
186.20035
184.65583
183.15877
181.70873
180.30525
178.94785
177.63603
176.36924
175.14693
173.96853
172.83345
171.7411
170.69085
169.68209
168.71419
167.78652
166.89843
166.0493
165.23849
164.46539
163.72939
163.02989
162.36634
161.73819
161.14492
160.58604
160.06107
159.56956
159.11105
158.68502
158.29092
157.92808
157.59572
157.2929
157.01848
156.77108
156.54911
156.35078
156.17427
156.01793
155.88073
155.76262
155.66466
155.58843
155.53311
155.49309
194.69169
192.91292
191.18232
189.4998
187.86517
186.27816
184.73846
183.24571
181.7995
180.3994
179.04494
177.73564
176.47099
175.25044
174.07346
172.93947
171.84791
170.79817
169.78965
168.82176
167.89387
167.00538
166.15566
165.34412
164.57014
163.83314
163.13257
162.46787
161.83853
161.24405
160.68397
160.15784
159.66522
159.20568
158.77873
158.38382
158.02029
157.68735
157.38402
157.10911
156.86118
156.63855
156.43939
156.26186
156.10442
155.96621
155.84735
155.74901
155.67262
155.61733
155.5786
194.7455
192.9745
191.25103
189.57504
187.94636
186.36474
184.8299
183.34148
181.89911
180.50237
179.15082
177.84401
176.58143
175.36258
174.18693
173.05395
171.96307
170.91372
169.90534
168.93732
168.00909
167.12005
166.2696
165.45716
164.68215
163.94401
163.2422
162.57619
161.94549
161.34964
160.78821
160.26075
159.76686
159.30613
158.87811
158.48224
158.11788
157.78421
157.48023
157.20468
156.95607
156.73267
156.5326
156.35404
156.19554
156.05641
155.93693
155.83827
155.76175
155.70652
155.6689
194.80879
193.04564
191.32938
189.65997
188.03727
186.46106
184.93107
183.44696
182.00839
180.61497
179.26628
177.96187
176.70128
175.48403
174.30961
173.1775
172.08717
171.03808
170.02968
169.06139
168.13265
167.24289
166.39155
165.57804
164.80183
164.06236
163.35913
162.69162
162.05939
161.46199
160.899
160.37004
159.87471
159.41262
158.98334
158.58634
158.22097
157.8864
157.58159
157.30525
157.05583
156.83153
156.63046
156.45084
156.29132
156.15135
156.03131
155.93236
155.85571
155.80055
155.76388
194.88289
193.12761
191.41857
189.75574
188.13901
186.56818
185.04298
183.56313
182.12829
180.73809
179.39215
178.09003
176.83131
175.61552
174.44217
173.31079
172.22086
171.17185
170.16325
169.1945
168.26507
167.3744
166.52196
165.70719
164.92956
164.18856
163.4837
162.8145
162.18052
161.58135
161.01661
160.48594
159.98896
159.52531
159.09458
158.69625
158.32967
157.994
157.68818
157.41087
157.16046
156.93513
156.73297
156.55226
156.39175
156.25099
156.13043
156.03119
155.95439
155.89929
155.86345
194.96925
193.22181
191.51993
189.86363
188.25279
186.68724
185.16675
183.69104
182.25981
180.8727
179.52935
178.22937
176.97234
175.75782
174.58537
173.45452
172.36477
171.31565
170.30663
169.3372
168.40685
167.51505
166.66128
165.84501
165.06574
164.32298
163.61626
162.94512
162.30916
161.708
161.14127
160.60865
160.1098
159.64436
159.21195
158.81207
158.44406
158.10708
157.80004
157.52155
157.26997
157.04346
156.84013
156.65828
156.49676
156.35523
156.23416
156.13463
156.05769
156.00264
155.96751
195.06952
193.32977
191.63493
189.98502
188.37994
186.81953
185.30358
183.83184
182.40402
181.0198
179.67884
178.38078
177.12522
175.91176
174.73997
173.6094
172.51959
171.47009
170.4604
169.49004
168.55851
167.66532
166.80995
165.99192
165.21075
164.46596
163.75711
163.08378
162.44558
161.84216
161.27319
160.73837
160.23739
159.76992
159.33557
158.93388
158.5642
158.22566
157.91715
157.63727
157.38433
157.15648
156.95184
156.76879
156.60625
156.46394
156.34235
156.24251
156.1654
156.11041
156.07593
195.18545
193.45314
191.76515
190.12142
188.52188
186.96639
185.45474
183.98672
182.56206
181.18047
179.84163
178.54521
177.29085
176.07815
174.90672
173.77614
172.68598
171.6358
170.62514
169.65355
168.72054
167.82564
166.96838
166.1483
165.36492
164.61781
163.90654
163.23072
162.59
161.98404
161.41254
160.87524
160.37184
159.90205
159.4655
159.06173
158.69009
158.34973
158.0395
157.75798
157.50346
157.27409
157.06801
156.88366
156.72004
156.5769
156.45475
156.35457
156.27728
156.22233
156.18842
197.08715
195.31866
193.59367
191.91227
190.27445
188.68014
187.12924
185.62157
184.15693
182.73509
181.35579
180.01873
178.7236
177.47007
176.25778
175.08636
173.95542
172.86456
171.81335
170.80138
169.82819
168.89336
167.99642
167.13693
166.31445
165.52854
164.77878
164.06477
163.38615
162.74259
162.13377
161.55945
161.01935
160.51324
160.04083
159.60177
159.19561
158.82173
158.47925
158.16701
157.88358
157.62725
157.39615
157.18847
157.0027
156.8379
156.69387
156.5711
156.4705
156.39299
156.33805
156.30467
199.03553
197.23219
195.47138
193.75332
192.0781
190.44576
188.85627
187.30953
185.8054
184.34371
182.92426
181.54681
180.21109
178.91683
177.66371
176.45141
175.27958
174.14786
173.05588
172.00324
170.98954
170.01438
169.07733
168.17797
167.31587
166.49063
165.70182
164.94905
164.23196
163.55019
162.90345
162.29145
161.71396
161.17075
160.66159
160.18624
159.74436
159.33549
158.95904
158.61412
158.29957
158.01395
157.75553
157.52249
157.31303
157.12569
156.9596
156.81457
156.69107
156.58998
156.51217
156.4572
156.42428
201.03206
199.19506
197.39954
195.6458
193.93406
192.26445
190.63703
189.05178
187.50864
186.0075
184.54821
183.13061
181.75448
180.41958
179.12567
177.87245
176.65964
175.48691
174.35393
173.26036
172.20582
171.18996
170.21237
169.27268
168.37047
167.50537
166.67696
165.88487
165.12872
164.40817
163.7229
163.07262
162.4571
161.8761
161.32942
160.81688
160.33824
159.89319
159.48129
159.10192
158.75422
158.43704
158.14891
157.88813
157.65289
157.44143
157.25236
157.08483
156.93867
156.81433
156.71265
156.63446
156.57941
156.54691
201.20932
199.38001
197.59145
195.84396
194.13777
192.47301
190.84975
189.26802
187.72778
186.22894
184.77139
183.35498
181.97953
180.64484
179.35066
178.09677
176.88287
175.70869
174.57391
173.47822
172.42129
171.40276
170.42228
169.47948
168.57399
167.70544
166.87346
166.07769
165.31777
164.59339
163.90425
163.25008
162.63067
162.04581
161.49533
160.97906
160.49678
160.0482
159.6329
159.25026
158.89942
158.57925
158.28828
158.02483
157.78711
157.57343
157.38242
157.21327
157.06583
156.94052
156.83815
156.7595
156.70432
156.67219
201.41517
199.59249
197.80986
196.06761
194.36597
192.70511
191.08511
189.50602
187.96783
186.47047
185.01387
183.59789
182.22239
180.88718
179.59207
178.33683
177.12122
175.94498
174.80782
173.70946
172.64959
171.62789
170.64402
169.69765
168.78843
167.91602
167.08005
166.2802
165.51614
164.78756
164.09419
163.43578
162.81214
162.22307
161.66844
161.14808
160.66179
160.20932
159.79024
159.40395
159.0496
158.72605
158.43188
158.16542
157.92492
157.70874
157.51555
157.34459
157.1957
157.06927
156.96608
156.88689
156.83152
156.7997
201.65143
199.83411
198.05614
196.31791
194.61965
192.96156
191.34374
189.76626
188.22913
186.73232
185.27577
183.85937
182.48301
181.14652
179.84974
178.59247
177.37448
176.19555
175.05542
173.95382
172.89048
171.86511
170.87739
169.92701
169.01364
168.13696
167.29664
166.49235
165.7238
164.99069
164.29276
163.62978
163.00157
162.40797
161.84884
161.32403
160.83337
160.3766
159.95334
159.56298
159.2047
158.87736
158.57958
158.30973
158.0661
157.84709
157.65146
157.47844
157.32788
157.20017
157.09602
157.01618
156.96055
156.929
201.91907
200.10558
198.33081
196.59517
194.89895
193.24236
191.62551
190.0485
188.51136
187.01409
185.55663
184.13893
182.76086
181.42232
180.12313
178.86313
177.64213
176.45992
175.31627
174.21093
173.14366
172.11418
171.12221
170.16745
169.24959
168.36833
167.52334
166.71433
165.941
165.20307
164.50029
163.83245
163.19937
162.6009
162.0369
161.50726
161.01182
160.55033
160.12242
159.72753
159.36482
159.03322
158.73135
158.45764
158.21046
157.98825
157.78983
157.61445
157.46198
157.33276
157.22749
157.14688
157.0909
157.05957
202.21776
200.40638
198.63318
196.8986
195.20298
193.54652
191.92939
190.35168
188.81345
187.31471
185.85544
184.43558
183.05504
181.71373
180.41151
179.14821
177.92368
176.73773
175.59014
174.4807
173.40917
172.3753
171.37882
170.41945
169.49689
168.61084
167.76099
166.94704
166.16871
165.42572
164.71783
164.04483
163.40654
162.80282
162.23355
161.69863
161.19791
160.73116
160.29804
159.89801
159.53028
159.1938
158.88726
158.60914
158.35788
158.132
157.93036
157.75226
157.59755
157.46656
157.35995
157.27841
157.22199
157.1908
202.54566
200.73456
198.96125
197.22623
195.5298
193.87221
192.25363
190.67417
189.13391
187.63287
186.17105
184.7484
183.36486
182.02032
180.71466
179.44776
178.21944
177.02953
175.87786
174.7642
173.68833
172.65001
171.64897
170.68493
169.7576
168.86668
168.01184
167.1928
166.40926
165.66095
164.94761
164.26906
163.6251
163.01562
162.4405
161.89965
161.39295
160.92021
160.48111
160.07515
159.70159
159.35945
159.04746
158.76422
158.50821
158.27805
158.07265
157.89136
157.73403
157.60094
157.49273
157.41007
157.35309
157.32197
202.89952
201.08693
199.31213
197.57543
195.87712
194.21746
192.59663
191.01477
189.47195
187.96822
186.50357
185.07796
183.69133
182.34357
181.03457
179.76418
178.53226
177.33862
176.18308
175.06542
173.98543
172.94284
171.93738
170.96876
170.03666
169.14076
168.28075
167.45632
166.66716
165.91301
165.19362
164.5088
163.85838
163.24225
162.66033
162.11255
161.59881
161.11898
160.67278
160.25978
159.8793
159.53043
159.21201
158.92269
158.66109
158.42589
158.21607
158.03102
157.87056
157.73499
157.62488
157.54089
157.4832
157.45207
205.12529
203.27453
201.46041
199.68371
197.94493
196.24447
194.58261
192.95956
191.37547
189.83041
188.32443
186.85751
185.42959
184.04058
182.69036
181.37879
180.10569
178.87088
177.67418
176.51537
175.39421
174.31045
173.2638
172.25397
171.28062
170.34342
169.44203
168.57613
167.7454
166.94957
166.18837
165.4616
164.76908
164.11068
163.48634
162.896
162.33965
161.81726
161.32873
160.87386
160.45229
160.06344
159.70648
159.38034
159.08381
158.81557
158.57442
158.3594
158.1699
158.00579
157.86728
157.75494
157.66939
157.61084
157.57962
205.52456
203.67273
201.85763
200.07995
198.34023
196.6389
194.97628
193.35257
191.76791
190.22235
188.71588
187.24844
185.81994
184.43023
183.07912
181.76639
180.49181
179.25512
178.05607
176.8944
175.76981
174.68202
173.6307
172.61552
171.63614
170.69221
169.78342
168.90946
168.07009
167.26507
166.49423
165.75742
165.05454
164.38554
163.75041
163.14916
162.58185
162.0485
161.54911
161.08354
160.65151
160.25253
159.88588
159.5506
159.24556
158.96957
158.7215
158.50044
158.30583
158.1375
157.99564
157.88074
157.7934
157.73387
157.70248
205.95839
204.10943
202.29748
200.52296
198.78642
197.0883
195.42887
193.8083
192.22662
190.68381
189.17978
187.71441
186.28752
184.89891
183.54829
182.2353
180.95954
179.72064
178.51825
177.35204
176.22171
175.12696
174.06749
173.04304
172.05333
171.09811
170.17717
169.29034
168.4375
167.61858
166.83355
166.08237
165.36507
164.68167
164.03224
163.41686
162.83563
162.28866
161.77598
161.29753
160.8531
160.44228
160.06443
159.71868
159.404
159.11928
158.86348
158.63572
158.43545
158.26248