/*--------------------------------*- C++ -*----------------------------------*\
| =========                 |                                                 |
| \\      /  F ield         | OpenFOAM: The Open Source CFD Toolbox           |
|  \\    /   O peration     | Version:  2312                                  |
|   \\  /    A nd           | Website:  www.openfoam.com                      |
|    \\/     M anipulation  |                                                 |
\*---------------------------------------------------------------------------*/
FoamFile
{
    version     2.0;
    format      ascii;
    arch        "LSB;label=32;scalar=64";
    class       volScalarField;
    location    "0.07";
    object      p;
}
// * * * * * * * * * * * * * * * * * * * * * * * * * * * * * * * * * * * * * //

dimensions      [1 -1 -2 0 0 0 0];

internalField   nonuniform List<scalar> 
3224
(
99968.463
99968.786
99969.147
99969.545
99969.977
99970.443
99970.943
99971.474
99972.036
99972.627
99973.248
99973.897
99974.573
99975.275
99976.001
99976.752
99977.526
99978.323
99979.141
99979.979
99980.837
99981.714
99982.607
99983.516
99984.439
99985.373
99986.317
99987.267
99988.222
99989.177
99990.132
99991.082
99992.025
99992.959
99993.883
99994.795
99995.694
99996.589
99997.449
99998.4
99998.934
99968.476
99968.801
99969.163
99969.563
99969.997
99970.465
99970.966
99971.499
99972.062
99972.656
99973.278
99973.928
99974.605
99975.308
99976.036
99976.788
99977.563
99978.361
99979.18
99980.019
99980.878
99981.755
99982.65
99983.56
99984.483
99985.418
99986.362
99987.313
99988.268
99989.224
99990.179
99991.128
99992.07
99993.003
99993.924
99994.832
99995.726
99996.616
99997.469
99998.413
99998.938
99968.499
99968.826
99969.192
99969.594
99970.031
99970.502
99971.006
99971.541
99972.107
99972.702
99973.326
99973.978
99974.657
99975.361
99976.091
99976.844
99977.621
99978.419
99979.24
99980.08
99980.94
99981.818
99982.714
99983.624
99984.548
99985.484
99986.428
99987.38
99988.335
99989.29
99990.244
99991.192
99992.133
99993.062
99993.979
99994.883
99995.771
99996.652
99997.496
99998.43
99998.944
99968.532
99968.863
99969.233
99969.639
99970.08
99970.554
99971.061
99971.6
99972.168
99972.766
99973.393
99974.047
99974.727
99975.434
99976.165
99976.92
99977.698
99978.499
99979.32
99980.162
99981.023
99981.902
99982.798
99983.709
99984.633
99985.569
99986.514
99987.465
99988.42
99989.375
99990.327
99991.274
99992.211
99993.137
99994.05
99994.947
99995.826
99996.698
99997.53
99998.453
99998.951
99968.28
99968.577
99968.913
99969.288
99969.699
99970.144
99970.623
99971.134
99971.676
99972.248
99972.85
99973.479
99974.136
99974.819
99975.528
99976.262
99977.019
99977.799
99978.6
99979.423
99980.266
99981.128
99982.008
99982.904
99983.816
99984.74
99985.676
99986.621
99987.572
99988.526
99989.48
99990.43
99991.374
99992.309
99993.23
99994.136
99995.025
99995.895
99996.755
99997.572
99998.483
99998.956
99968.329
99968.634
99968.977
99969.357
99969.774
99970.225
99970.71
99971.226
99971.772
99972.348
99972.953
99973.587
99974.247
99974.933
99975.644
99976.38
99977.139
99977.921
99978.724
99979.549
99980.392
99981.255
99982.136
99983.033
99983.944
99984.869
99985.805
99986.749
99987.699
99988.652
99989.604
99990.553
99991.494
99992.424
99993.34
99994.239
99995.119
99995.977
99996.823
99997.621
99998.522
99998.956
99968.39
99968.702
99969.052
99969.44
99969.863
99970.321
99970.811
99971.333
99971.884
99972.465
99973.075
99973.712
99974.375
99975.065
99975.779
99976.518
99977.279
99978.063
99978.868
99979.693
99980.538
99981.401
99982.282
99983.18
99984.091
99985.016
99985.951
99986.894
99987.843
99988.795
99989.746
99990.692
99991.629
99992.555
99993.465
99994.355
99995.225
99996.069
99996.899
99997.678
99998.558
99998.97
99968.461
99968.782
99969.141
99969.536
99969.967
99970.432
99970.929
99971.456
99972.013
99972.599
99973.214
99973.855
99974.522
99975.215
99975.933
99976.673
99977.437
99978.223
99979.029
99979.856
99980.701
99981.565
99982.447
99983.344
99984.255
99985.179
99986.113
99987.056
99988.003
99988.953
99989.902
99990.845
99991.779
99992.699
99993.602
99994.484
99995.342
99996.172
99996.984
99997.744
99998.595
99998.991
99968.249
99968.542
99968.872
99969.24
99969.644
99970.083
99970.555
99971.059
99971.593
99972.156
99972.747
99973.366
99974.012
99974.683
99975.38
99976.1
99976.843
99977.609
99978.397
99979.204
99980.032
99980.878
99981.742
99982.623
99983.52
99984.431
99985.354
99986.287
99987.228
99988.174
99989.122
99990.068
99991.009
99991.939
99992.854
99993.75
99994.623
99995.469
99996.284
99997.076
99997.815
99998.633
99999.015
99968.33
99968.633
99968.974
99969.351
99969.764
99970.211
99970.691
99971.202
99971.743
99972.312
99972.909
99973.533
99974.183
99974.858
99975.558
99976.281
99977.027
99977.795
99978.584
99979.393
99980.221
99981.067
99981.932
99982.812
99983.708
99984.618
99985.539
99986.471
99987.411
99988.355
99989.301
99990.245
99991.182
99992.109
99993.019
99993.908
99994.772
99995.605
99996.404
99997.176
99997.892
99998.674
99999.041
99968.14
99968.42
99968.735
99969.086
99969.473
99969.896
99970.352
99970.84
99971.359
99971.906
99972.482
99973.085
99973.714
99974.368
99975.047
99975.751
99976.477
99977.225
99977.994
99978.784
99979.594
99980.422
99981.269
99982.132
99983.012
99983.907
99984.815
99985.735
99986.666
99987.603
99988.546
99989.49
99990.431
99991.366
99992.288
99993.194
99994.077
99994.931
99995.752
99996.534
99997.284
99997.977
99998.72
99999.069
99968.23
99968.521
99968.847
99969.21
99969.608
99970.04
99970.505
99971.002
99971.528
99972.083
99972.665
99973.274
99973.908
99974.567
99975.25
99975.956
99976.685
99977.435
99978.206
99978.997
99979.807
99980.635
99981.481
99982.344
99983.222
99984.116
99985.022
99985.941
99986.869
99987.805
99988.745
99989.687
99990.626
99991.558
99992.478
99993.379
99994.256
99995.101
99995.909
99996.675
99997.402
99998.07
99998.77
99999.1
99968.062
99968.329
99968.632
99968.97
99969.345
99969.754
99970.197
99970.671
99971.177
99971.711
99972.273
99972.862
99973.476
99974.116
99974.779
99975.466
99976.175
99976.906
99977.658
99978.43
99979.221
99980.031
99980.859
99981.704
99982.565
99983.442
99984.333
99985.238
99986.154
99987.08
99988.014
99988.952
99989.892
99990.83
99991.76
99992.677
99993.574
99994.445
99995.282
99996.079
99996.828
99997.531
99998.171
99998.827
99999.133
99968.159
99968.438
99968.754
99969.105
99969.491
99969.912
99970.365
99970.85
99971.365
99971.907
99972.476
99973.072
99973.692
99974.336
99975.003
99975.694
99976.406
99977.139
99977.892
99978.665
99979.456
99980.265
99981.092
99981.936
99982.795
99983.67
99984.558
99985.46
99986.374
99987.298
99988.23
99989.166
99990.105
99991.041
99991.97
99992.885
99993.78
99994.647
99995.476
99996.262
99996.994
99997.672
99998.284
99998.891
99999.171
99968.011
99968.266
99968.558
99968.887
99969.252
99969.65
99970.083
99970.547
99971.042
99971.565
99972.116
99972.693
99973.294
99973.92
99974.569
99975.24
99975.934
99976.648
99977.383
99978.137
99978.91
99979.701
99980.509
99981.334
99982.176
99983.033
99983.905
99984.791
99985.69
99986.601
99987.522
99988.452
99989.387
99990.324
99991.26
99992.188
99993.103
99993.996
99994.86
99995.684
99996.459
99997.175
99997.828
99998.408
99998.964
99999.212
99968.115
99968.384
99968.69
99969.033
99969.41
99969.822
99970.266
99970.741
99971.246
99971.778
99972.337
99972.921
99973.529
99974.161
99974.814
99975.489
99976.186
99976.902
99977.638
99978.392
99979.165
99979.955
99980.762
99981.585
99982.423
99983.277
99984.146
99985.029
99985.925
99986.833
99987.752
99988.679
99989.613
99990.55
99991.486
99992.415
99993.33
99994.224
99995.087
99995.907
99996.672
99997.373
99998.001
99998.547
99999.048
99999.259
99967.984
99968.23
99968.513
99968.834
99969.19
99969.582
99970.006
99970.462
99970.948
99971.463
99972.005
99972.572
99973.163
99973.777
99974.414
99975.072
99975.75
99976.449
99977.167
99977.903
99978.658
99979.429
99980.218
99981.022
99981.842
99982.678
99983.528
99984.393
99985.273
99986.165
99987.07
99987.986
99988.912
99989.845
99990.782
99991.719
99992.65
99993.568
99994.464
99995.328
99996.146
99996.905
99997.591
99998.195
99998.705
99999.146
99999.312
99968.095
99968.356
99968.654
99968.99
99969.361
99969.766
99970.203
99970.672
99971.169
99971.694
99972.245
99972.82
99973.418
99974.038
99974.679
99975.341
99976.023
99976.723
99977.442
99978.179
99978.932
99979.702
99980.488
99981.29
99982.107
99982.939
99983.785
99984.646
99985.521
99986.41
99987.311
99988.225
99989.149
99990.082
99991.02
99991.959
99992.894
99993.817
99994.718
99995.585
99996.405
99997.16
99997.834
99998.413
99998.885
99999.261
99999.374
99968.218
99968.494
99968.808
99969.159
99969.545
99969.964
99970.414
99970.895
99971.403
99971.938
99972.498
99973.081
99973.686
99974.311
99974.957
99975.623
99976.307
99977.009
99977.728
99978.464
99979.216
99979.984
99980.767
99981.565
99982.378
99983.205
99984.047
99984.903
99985.774
99986.658
99987.557
99988.468
99989.391
99990.324
99991.264
99992.207
99993.147
99994.077
99994.986
99995.861
99996.685
99997.44
99998.105
99998.661
99999.092
99999.398
99999.447
99968.353
99968.645
99968.976
99969.342
99969.743
99970.176
99970.64
99971.132
99971.652
99972.197
99972.765
99973.355
99973.967
99974.598
99975.248
99975.916
99976.602
99977.305
99978.024
99978.759
99979.509
99980.274
99981.054
99981.847
99982.655
99983.478
99984.314
99985.165
99986.031
99986.911
99987.806
99988.715
99989.637
99990.571
99991.514
99992.463
99993.411
99994.35
99995.27
99996.156
99996.99
99997.75
99998.41
99998.945
99999.334
99999.564
99999.536
99968.23
99968.501
99968.81
99969.157
99969.539
99969.955
99970.402
99970.879
99971.384
99971.915
99972.469
99973.046
99973.644
99974.261
99974.897
99975.551
99976.221
99976.909
99977.612
99978.33
99979.063
99979.811
99980.572
99981.347
99982.136
99982.939
99983.755
99984.586
99985.431
99986.292
99987.167
99988.059
99988.966
99989.888
99990.823
99991.771
99992.726
99993.684
99994.637
99995.572
99996.474
99997.323
99998.094
99998.754
99999.273
99999.62
99999.766
99999.646
99968.373
99968.662
99968.99
99969.353
99969.752
99970.183
99970.644
99971.135
99971.651
99972.192
99972.756
99973.341
99973.946
99974.569
99975.209
99975.866
99976.539
99977.227
99977.93
99978.646
99979.377
99980.121
99980.878
99981.648
99982.432
99983.228
99984.038
99984.863
99985.702
99986.557
99987.427
99988.315
99989.22
99990.143
99991.081
99992.034
99992.999
99993.969
99994.938
99995.892
99996.816
99997.688
99998.477
99999.146
99999.654
99999.96
100000.02
99999.785
99968.029
99968.261
99968.53
99968.838
99969.184
99969.565
99969.98
99970.427
99970.902
99971.406
99971.934
99972.486
99973.059
99973.651
99974.262
99974.891
99975.535
99976.194
99976.869
99977.557
99978.258
99978.973
99979.701
99980.44
99981.192
99981.957
99982.734
99983.524
99984.327
99985.144
99985.977
99986.826
99987.692
99988.576
99989.48
99990.403
99991.345
99992.305
99993.28
99994.266
99995.254
99996.233
99997.185
99998.086
99998.903
99999.592
100000.1
100000.37
100000.33
99999.965
99967.953
99968.162
99968.413
99968.703
99969.031
99969.395
99969.794
99970.225
99970.687
99971.177
99971.693
99972.233
99972.795
99973.377
99973.977
99974.594
99975.227
99975.874
99976.536
99977.211
99977.899
99978.598
99979.31
99980.034
99980.769
99981.515
99982.273
99983.043
99983.825
99984.621
99985.431
99986.257
99987.099
99987.96
99988.841
99989.744
99990.668
99991.615
99992.583
99993.571
99994.574
99995.586
99996.594
99997.581
99998.521
99999.378
100000.1
100000.62
100000.86
100000.73
100000.2
99968.081
99968.311
99968.582
99968.892
99969.24
99969.623
99970.039
99970.488
99970.965
99971.469
99971.998
99972.549
99973.121
99973.711
99974.318
99974.941
99975.578
99976.228
99976.891
99977.566
99978.253
99978.95
99979.658
99980.377
99981.106
99981.846
99982.597
99983.359
99984.134
99984.921
99985.723
99986.542
99987.378
99988.234
99989.111
99990.013
99990.939
99991.89
99992.868
99993.871
99994.894
99995.932
99996.975
99998.004
99998.994
99999.904
100000.68
100001.23
100001.46
100001.24
100000.53
99968.225
99968.476
99968.768
99969.099
99969.466
99969.869
99970.303
99970.768
99971.261
99971.779
99972.321
99972.883
99973.464
99974.062
99974.676
99975.304
99975.944
99976.597
99977.26
99977.935
99978.619
99979.314
99980.018
99980.731
99981.454
99982.187
99982.93
99983.683
99984.449
99985.228
99986.022
99986.833
99987.662
99988.513
99989.387
99990.287
99991.215
99992.173
99993.161
99994.179
99995.224
99996.293
99997.374
99998.453
99999.503
100000.48
100001.33
100001.94
100002.19
100001.91
100000.99
99968.386
99968.659
99968.972
99969.324
99969.712
99970.134
99970.587
99971.069
99971.577
99972.109
99972.662
99973.235
99973.825
99974.431
99975.051
99975.683
99976.326
99976.98
99977.644
99978.317
99978.999
99979.69
99980.388
99981.096
99981.812
99982.536
99983.271
99984.016
99984.772
99985.542
99986.328
99987.13
99987.953
99988.798
99989.668
99990.567
99991.497
99992.461
99993.46
99994.494
99995.564
99996.664
99997.789
99998.923
100000.04
100001.11
100002.05
100002.75
100003.06
100002.77
100001.64
99968.564
99968.86
99969.196
99969.569
99969.978
99970.419
99970.89
99971.389
99971.912
99972.458
99973.023
99973.606
99974.205
99974.818
99975.443
99976.079
99976.725
99977.379
99978.043
99978.714
99979.392
99980.078
99980.771
99981.472
99982.18
99982.896
99983.622
99984.357
99985.104
99985.865
99986.64
99987.435
99988.25
99989.089
99989.956
99990.854
99991.786
99992.755
99993.765
99994.816
99995.909
99997.043
99998.212
99999.407
100000.61
100001.77
100002.83
100003.66
100004.09
100003.89
100002.57
99968.762
99969.081
99969.44
99969.835
99970.265
99970.725
99971.215
99971.73
99972.268
99972.827
99973.404
99973.997
99974.604
99975.224
99975.853
99976.492
99977.14
99977.795
99978.457
99979.125
99979.8
99980.48
99981.167
99981.86
99982.56
99983.267
99983.983
99984.708
99985.445
99986.195
99986.962
99987.747
99988.554
99989.388
99990.25
99991.146
99992.08
99993.055
99994.074
99995.14
99996.256
99997.422
99998.636
99999.891
100001.17
100002.44
100003.64
100004.65
100005.26
100005.31
100003.91
99968.979
99969.323
99969.705
99970.122
99970.573
99971.054
99971.561
99972.093
99972.646
99973.218
99973.806
99974.409
99975.023
99975.648
99976.282
99976.924
99977.573
99978.227
99978.887
99979.552
99980.222
99980.897
99981.576
99982.261
99982.952
99983.649
99984.355
99985.07
99985.796
99986.536
99987.292
99988.068
99988.867
99989.694
99990.552
99991.445
99992.379
99993.358
99994.385
99995.465
99996.601
99997.796
99999.049
100000.36
100001.72
100003.1
100004.45
100005.66
100006.55
100007.12
100005.9
99969.217
99969.586
99969.992
99970.432
99970.904
99971.405
99971.931
99972.479
99973.046
99973.631
99974.23
99974.841
99975.463
99976.094
99976.731
99977.375
99978.024
99978.677
99979.334
99979.995
99980.659
99981.327
99981.999
99982.675
99983.357
99984.044
99984.738
99985.442
99986.157
99986.886
99987.632
99988.398
99989.189
99990.008
99990.86
99991.75
99992.683
99993.664
99994.697
99995.786
99996.937
99998.154
99999.439
100000.79
100002.21
100003.68
100005.17
100006.59
100007.87
100009.6
100010.04
99969.476
99969.871
99970.302
99970.766
99971.259
99971.78
99972.324
99972.888
99973.47
99974.067
99974.676
99975.296
99975.924
99976.559
99977.2
99977.845
99978.493
99979.145
99979.798
99980.455
99981.113
99981.774
99982.437
99983.104
99983.775
99984.451
99985.135
99985.827
99986.53
99987.248
99987.983
99988.739
99989.52
99990.331
99991.176
99992.062
99992.991
99993.971
99995.006
99996.1
99997.259
99998.488
99999.79
100001.17
100002.62
100004.14
100005.7
100007.25
100008.91
100012.69
100017.67
99969.758
99970.18
99970.635
99971.123
99971.639
99972.179
99972.741
99973.322
99973.918
99974.526
99975.146
99975.773
99976.408
99977.047
99977.69
99978.335
99978.983
99979.631
99980.281
99980.932
99981.583
99982.236
99982.89
99983.547
99984.208
99984.873
99985.544
99986.225
99986.916
99987.622
99988.345
99989.09
99989.861
99990.662
99991.5
99992.378
99993.302
99994.278
99995.309
99996.402
99997.561
99998.79
100000.09
100001.46
100002.91
100004.41
100005.95
100007.44
100009.08
100012.58
100015.91
99970.064
99970.512
99970.994
99971.506
99972.044
99972.604
99973.184
99973.781
99974.39
99975.01
99975.639
99976.274
99976.914
99977.556
99978.201
99978.846
99979.492
99980.137
99980.782
99981.427
99982.071
99982.715
99983.36
99984.006
99984.655
99985.309
99985.968
99986.636
99987.315
99988.008
99988.719
99989.452
99990.212
99991.003
99991.831
99992.7
99993.615
99994.583
99995.606
99996.69
99997.838
99999.052
100000.33
100001.68
100003.07
100004.5
100005.92
100007.23
100008.58
100011.13
100013.04
99970.393
99970.87
99971.378
99971.915
99972.475
99973.056
99973.654
99974.265
99974.888
99975.52
99976.157
99976.799
99977.443
99978.089
99978.734
99979.379
99980.022
99980.664
99981.303
99981.941
99982.577
99983.212
99983.847
99984.482
99985.119
99985.76
99986.407
99987.062
99987.728
99988.408
99989.106
99989.826
99990.574
99991.353
99992.168
99993.026
99993.93
99994.884
99995.894
99996.961
99998.088
99999.274
100000.52
100001.8
100003.12
100004.43
100005.69
100006.8
100007.84
100009.72
100010.79
99970.748
99971.254
99971.789
99972.35
99972.933
99973.534
99974.15
99974.777
99975.413
99976.055
99976.701
99977.349
99977.998
99978.645
99979.291
99979.935
99980.575
99981.212
99981.845
99982.475
99983.103
99983.728
99984.352
99984.975
99985.6
99986.229
99986.862
99987.503
99988.155
99988.821
99989.506
99990.212
99990.946
99991.711
99992.513
99993.356
99994.244
99995.182
99996.171
99997.214
99998.31
99999.456
100000.64
100001.86
100003.07
100004.25
100005.35
100006.26
100007.1
100008.67
100009.08
99971.128
99971.664
99972.227
99972.813
99973.419
99974.04
99974.674
99975.316
99975.965
99976.617
99977.271
99977.925
99978.577
99979.227
99979.872
99980.514
99981.15
99981.782
99982.408
99983.03
99983.648
99984.263
99984.876
99985.487
99986.1
99986.714
99987.334
99987.961
99988.598
99989.25
99989.919
99990.611
99991.329
99992.079
99992.865
99993.69
99994.559
99995.475
99996.439
99997.45
99998.507
99999.602
100000.72
100001.85
100002.96
100004.01
100004.95
100005.71
100006.4
100007.82
100007.87
99971.534
99972.101
99972.692
99973.305
99973.933
99974.575
99975.226
99975.884
99976.545
99977.207
99977.869
99978.528
99979.183
99979.834
99980.479
99981.117
99981.75
99982.375
99982.994
99983.608
99984.216
99984.82
99985.42
99986.019
99986.618
99987.218
99987.823
99988.435
99989.057
99989.693
99990.347
99991.022
99991.724
99992.456
99993.223
99994.028
99994.875
99995.764
99996.697
99997.671
99998.682
99999.719
100000.77
100001.81
100002.81
100003.74
100004.55
100005.18
100005.78
100007.11
100006.98
99971.967
99972.566
99973.187
99973.825
99974.477
99975.14
99975.808
99976.481
99977.154
99977.826
99978.495
99979.159
99979.817
99980.468
99981.112
99981.747
99982.375
99982.994
99983.605
99984.209
99984.807
99985.399
99985.987
99986.572
99987.156
99987.742
99988.331
99988.928
99989.533
99990.153
99990.789
99991.447
99992.13
99992.843
99993.588
99994.37
99995.19
99996.049
99996.947
99997.879
99998.838
99999.814
100000.79
100001.74
100002.64
100003.46
100004.17
100004.7
100005.24
100006.52
100006.29
99972.428
99973.06
99973.71
99974.376
99975.052
99975.735
99976.421
99977.109
99977.794
99978.476
99979.151
99979.82
99980.481
99981.132
99981.774
99982.405
99983.027
99983.639
99984.242
99984.836
99985.422
99986.002
99986.576
99987.147
99987.717
99988.287
99988.86
99989.439
99990.027
99990.629
99991.247
99991.885
99992.548
99993.238
99993.96
99994.716
99995.506
99996.332
99997.19
99998.076
99998.982
99999.894
100000.79
100001.66
100002.47
100003.2
100003.82
100004.28
100004.79
100006.02
100005.73
99972.918
99973.583
99974.265
99974.958
99975.658
99976.362
99977.067
99977.769
99978.466
99979.157
99979.84
99980.513
99981.175
99981.826
99982.465
99983.093
99983.709
99984.313
99984.907
99985.49
99986.064
99986.631
99987.191
99987.747
99988.3
99988.854
99989.409
99989.97
99990.54
99991.122
99991.72
99992.337
99992.977
99993.644
99994.339
99995.066
99995.824
99996.613
99997.43
99998.267
99999.117
99999.964
100000.79
100001.58
100002.31
100002.96
100003.5
100003.92
100004.42
100005.59
100005.27
99973.437
99974.138
99974.851
99975.572
99976.297
99977.022
99977.745
99978.462
99979.172
99979.872
99980.561
99981.238
99981.903
99982.553
99983.19
99983.813
99984.422
99985.018
99985.602
99986.174
99986.736
99987.288
99987.833
99988.373
99988.909
99989.445
99989.982
99990.523
99991.073
99991.634
99992.209
99992.803
99993.419
99994.059
99994.726
99995.421
99996.145
99996.895
99997.667
99998.454
99999.247
100000.03
100000.79
100001.51
100002.16
100002.74
100003.23
100003.62
100004.11
100005.24
100004.88
99973.985
99974.723
99975.469
99976.22
99976.97
99977.718
99978.459
99979.191
99979.913
99980.623
99981.319
99982
99982.666
99983.316
99983.95
99984.568
99985.171
99985.758
99986.331
99986.891
99987.439
99987.976
99988.505
99989.028
99989.545
99990.061
99990.578
99991.099
99991.627
99992.164
99992.716
99993.285
99993.873
99994.485
99995.121
99995.783
99996.469
99997.178
99997.904
99998.641
99999.377
100000.1
100000.8
100001.45
100002.04
100002.56
100003
100003.37
100003.84
100004.94
100004.55
99974.565
99975.341
99976.121
99976.902
99977.679
99978.449
99979.21
99979.958
99980.693
99981.412
99982.115
99982.801
99983.469
99984.118
99984.749
99985.362
99985.957
99986.535
99987.097
99987.644
99988.177
99988.698
99989.21
99989.713
99990.211
99990.706
99991.201
99991.699
99992.203
99992.716
99993.241
99993.782
99994.342
99994.922
99995.525
99996.15
99996.797
99997.463
99998.143
99998.828
99999.51
100000.17
100000.81
100001.4
100001.93
100002.41
100002.81
100003.16
100003.62
100004.69
100004.27
99975.176
99975.993
99976.809
99977.621
99978.426
99979.22
99980
99980.765
99981.514
99982.243
99982.954
99983.645
99984.314
99984.963
99985.591
99986.199
99986.786
99987.354
99987.904
99988.436
99988.954
99989.457
99989.95
99990.433
99990.909
99991.381
99991.852
99992.325
99992.803
99993.289
99993.786
99994.297
99994.825
99995.372
99995.939
99996.526
99997.132
99997.753
99998.385
99999.02
99999.647
100000.26
100000.83
100001.37
100001.85
100002.28
100002.65
100002.97
100003.44
100004.47
100004.02
99975.821
99976.68
99977.534
99978.38
99979.213
99980.032
99980.833
99981.616
99982.379
99983.12
99983.839
99984.535
99985.207
99985.856
99986.481
99987.082
99987.661
99988.219
99988.755
99989.272
99989.772
99990.257
99990.728
99991.189
99991.642
99992.089
99992.534
99992.979
99993.429
99993.885
99994.351
99994.829
99995.323
99995.834
99996.363
99996.91
99997.473
99998.049
99998.632
99999.216
99999.79
100000.35
100000.87
100001.35
100001.79
100002.18
100002.52
100002.83
100003.29
100004.27
100003.8
99976.503
99977.406
99978.3
99979.18
99980.044
99980.889
99981.713
99982.515
99983.293
99984.046
99984.774
99985.476
99986.152
99986.801
99987.423
99988.018
99988.588
99989.134
99989.656
99990.157
99990.637
99991.101
99991.549
99991.986
99992.412
99992.832
99993.248
99993.663
99994.081
99994.505
99994.937
99995.381
99995.838
99996.31
99996.799
99997.303
99997.822
99998.351
99998.885
99999.418
99999.941
100000.44
100000.92
100001.35
100001.75
100002.11
100002.42
100002.7
100003.15
100004.09
100003.59
99976.261
99977.223
99978.174
99979.109
99980.026
99980.922
99981.795
99982.643
99983.465
99984.26
99985.028
99985.766
99986.475
99987.154
99987.803
99988.423
99989.012
99989.572
99990.105
99990.611
99991.093
99991.553
99991.993
99992.416
99992.825
99993.222
99993.611
99993.996
99994.378
99994.762
99995.151
99995.546
99995.952
99996.37
99996.801
99997.247
99997.707
99998.179
99998.66
99999.145
99999.627
100000.1
100000.55
100000.98
100001.37
100001.73
100002.05
100002.34
100002.6
100003.03
100003.93
100003.4
99975.936
99976.967
99977.986
99978.987
99979.966
99980.922
99981.852
99982.754
99983.628
99984.472
99985.286
99986.069
99986.819
99987.537
99988.221
99988.871
99989.487
99990.069
99990.619
99991.137
99991.626
99992.087
99992.522
99992.936
99993.33
99993.709
99994.074
99994.43
99994.779
99995.126
99995.473
99995.823
99996.179
99996.543
99996.919
99997.307
99997.708
99998.121
99998.546
99998.977
99999.412
99999.844
100000.27
100000.67
100001.05
100001.4
100001.72
100002.01
100002.27
100002.51
100002.93
100003.77
100003.23
99975.506
99976.62
99977.719
99978.797
99979.85
99980.876
99981.872
99982.837
99983.771
99984.673
99985.542
99986.377
99987.177
99987.941
99988.669
99989.358
99990.01
99990.623
99991.197
99991.735
99992.236
99992.704
99993.141
99993.55
99993.934
99994.296
99994.64
99994.969
99995.288
99995.599
99995.906
99996.212
99996.521
99996.834
99997.155
99997.486
99997.828
99998.182
99998.547
99998.922
99999.303
99999.687
100000.07
100000.44
100000.8
100001.13
100001.44
100001.72
100001.98
100002.21
100002.44
100002.83
100003.62
100003.06
99976.159
99977.353
99978.522
99979.662
99980.769
99981.842
99982.881
99983.884
99984.852
99985.784
99986.68
99987.538
99988.359
99989.139
99989.878
99990.575
99991.228
99991.837
99992.403
99992.926
99993.408
99993.852
99994.261
99994.638
99994.987
99995.313
99995.618
99995.908
99996.186
99996.455
99996.719
99996.981
99997.244
99997.512
99997.787
99998.07
99998.364
99998.668
99998.983
99999.307
99999.637
99999.97
100000.3
100000.62
100000.93
100001.22
100001.49
100001.73
100001.96
100002.17
100002.37
100002.74
100003.48
100002.89
99976.863
99978.141
99979.383
99980.586
99981.749
99982.871
99983.954
99984.997
99986.001
99986.966
99987.892
99988.778
99989.622
99990.422
99991.175
99991.88
99992.535
99993.14
99993.694
99994.199
99994.658
99995.073
99995.449
99995.789
99996.098
99996.382
99996.644
99996.889
99997.121
99997.343
99997.561
99997.776
99997.991
99998.211
99998.436
99998.67
99998.913
99999.166
99999.429
99999.701
99999.979
100000.26
100000.54
100000.81
100001.07
100001.32
100001.54
100001.75
100001.95
100002.13
100002.31
100002.65
100003.33
100002.73
99977.629
99978.994
99980.311
99981.579
99982.797
99983.969
99985.097
99986.182
99987.225
99988.227
99989.188
99990.106
99990.977
99991.8
99992.57
99993.285
99993.942
99994.541
99995.081
99995.564
99995.993
99996.373
99996.708
99997.004
99997.267
99997.501
99997.714
99997.908
99998.09
99998.262
99998.428
99998.593
99998.758
99998.926
99999.1
99999.282
99999.473
99999.673
99999.883
100000.1
100000.33
100000.56
100000.78
100001.01
100001.22
100001.42
100001.61
100001.78
100001.95
100002.1
100002.25
100002.56
100003.19
100002.58
99978.472
99979.925
99981.317
99982.648
99983.922
99985.143
99986.317
99987.446
99988.532
99989.575
99990.576
99991.531
99992.437
99993.287
99994.078
99994.805
99995.465
99996.054
99996.575
99997.029
99997.421
99997.756
99998.041
99998.284
99998.491
99998.669
99998.824
99998.961
99999.087
99999.203
99999.315
99999.426
99999.537
99999.652
99999.773
99999.902
100000.04
100000.19
100000.34
100000.51
100000.68
100000.85
100001.03
100001.2
100001.37
100001.53
100001.68
100001.82
100001.95
100002.07
100002.19
100002.47
100003.04
100002.42
99979.41
99980.951
99982.414
99983.804
99985.131
99986.401
99987.621
99988.797
99989.93
99991.021
99992.069
99993.07
99994.017
99994.903
99995.721
99996.463
99997.123
99997.7
99998.195
99998.61
99998.953
99999.231
99999.454
99999.63
99999.769
99999.88
99999.968
100000.04
100000.1
100000.16
100000.21
100000.27
100000.32
100000.38
100000.45
100000.52
100000.6
100000.7
100000.8
100000.91
100001.03
100001.15
100001.28
100001.4
100001.52
100001.64
100001.75
100001.85
100001.95
100002.04
100002.14
100002.38
100002.89
100002.27
99980.47
99982.092
99983.619
99985.063
99986.438
99987.754
99989.021
99990.245
99991.43
99992.578
99993.684
99994.742
99995.743
99996.676
99997.528
99998.288
99998.949
99999.508
99999.965
100000.33
100000.6
100000.81
100000.95
100001.04
100001.1
100001.13
100001.14
100001.14
100001.13
100001.12
100001.11
100001.1
100001.1
100001.1
100001.11
100001.13
100001.16
100001.2
100001.25
100001.31
100001.37
100001.44
100001.52
100001.6
100001.67
100001.75
100001.82
100001.89
100001.95
100002.01
100002.08
100002.29
100002.74
100002.12
99981.685
99983.375
99984.954
99986.443
99987.857
99989.215
99990.527
99991.803
99993.048
99994.263
99995.442
99996.576
99997.649
99998.645
99999.544
100000.33
100000.99
100001.52
100001.92
100002.21
100002.39
100002.5
100002.54
100002.53
100002.48
100002.41
100002.33
100002.24
100002.15
100002.07
100001.99
100001.92
100001.85
100001.8
100001.75
100001.72
100001.69
100001.68
100001.68
100001.68
100001.7
100001.72
100001.75
100001.78
100001.82
100001.85
100001.88
100001.91
100001.95
100001.98
100002.01
100002.19
100002.59
100001.96
99981.213
99983.1
99984.837
99986.45
99987.965
99989.408
99990.798
99992.153
99993.484
99994.799
99996.096
99997.37
99998.606
99999.781
100000.87
100001.83
100002.65
100003.3
100003.78
100004.1
100004.28
100004.34
100004.31
100004.22
100004.08
100003.9
100003.72
100003.52
100003.34
100003.16
100002.99
100002.83
100002.69
100002.57
100002.45
100002.35
100002.26
100002.19
100002.12
100002.07
100002.03
100001.99
100001.97
100001.96
100001.94
100001.94
100001.93
100001.93
100001.93
100001.93
100001.93
100001.94
100002.08
100002.42
100001.81
99982.848
99984.769
99986.521
99988.138
99989.657
99991.108
99992.518
99993.908
99995.295
99996.689
99998.09
99999.491
100000.87
100002.19
100003.41
100004.47
100005.33
100005.96
100006.36
100006.55
100006.57
100006.46
100006.25
100005.98
100005.68
100005.35
100005.02
100004.7
100004.4
100004.11
100003.85
100003.62
100003.41
100003.21
100003.04
100002.89
100002.75
100002.62
100002.51
100002.41
100002.32
100002.25
100002.18
100002.12
100002.08
100002.03
100001.99
100001.96
100001.93
100001.9
100001.88
100001.86
100001.96
100002.25
100001.65
99984.852
99986.752
99988.469
99990.048
99991.533
99992.961
99994.365
99995.775
99997.213
99998.696
100000.23
100001.8
100003.38
100004.93
100006.35
100007.56
100008.48
100009.06
100009.31
100009.29
100009.07
100008.71
100008.27
100007.79
100007.28
100006.78
100006.29
100005.82
100005.39
100004.99
100004.63
100004.31
100004.03
100003.77
100003.54
100003.33
100003.14
100002.97
100002.82
100002.68
100002.55
100002.44
100002.33
100002.24
100002.16
100002.09
100002.02
100001.95
100001.9