/*--------------------------------*- C++ -*----------------------------------*\
| =========                 |                                                 |
| \\      /  F ield         | OpenFOAM: The Open Source CFD Toolbox           |
|  \\    /   O peration     | Version:  2312                                  |
|   \\  /    A nd           | Website:  www.openfoam.com                      |
|    \\/     M anipulation  |                                                 |
\*---------------------------------------------------------------------------*/
FoamFile
{
    version     2.0;
    format      ascii;
    arch        "LSB;label=32;scalar=64";
    class       surfaceScalarField;
    location    "0.07";
    object      phi;
}
// * * * * * * * * * * * * * * * * * * * * * * * * * * * * * * * * * * * * * //

dimensions      [1 0 -1 0 0 0 0];

oriented        oriented;

internalField   nonuniform List<scalar> 
6327
(
1.2576896e-08
1.017837e-09
1.1561811e-08
9.9032568e-10
1.0563095e-08
9.6134813e-10
9.5808134e-09
9.3145426e-10
8.6149559e-09
9.0095782e-10
7.6655191e-09
8.7000606e-10
6.7325319e-09
8.3866479e-10
5.8160384e-09
8.0697131e-10
4.9161022e-09
7.7495201e-10
4.0327825e-09
7.4264505e-10
3.1661433e-09
7.1009919e-10
2.3162351e-09
6.7738344e-10
1.4831123e-09
6.4457882e-10
6.6682146e-10
6.1178046e-10
-1.3258108e-10
5.7908968e-10
-9.1504033e-10
5.4661872e-10
-1.6804916e-09
5.1448295e-10
-2.428874e-09
4.8280914e-10
-3.160123e-09
4.5173033e-10
-3.8741866e-09
4.2139505e-10
-4.5710231e-09
3.9196476e-10
-5.2506158e-09
3.636254e-10
-5.9129722e-09
3.3658505e-10
-6.5581343e-09
3.1108416e-10
-7.1861787e-09
2.8739411e-10
-7.7972231e-09
2.6582615e-10
-8.3914266e-09
2.4672944e-10
-8.9689925e-09
2.3049534e-10
-9.5301701e-09
2.1755255e-10
-1.0075254e-08
2.0836244e-10
-1.0604586e-08
2.0340652e-10
-1.1118551e-08
2.0316974e-10
-1.1617584e-08
2.0811824e-10
-1.2102161e-08
2.1867077e-10
-1.2572829e-08
2.3517942e-10
-1.3030221e-08
2.5789657e-10
-1.3475179e-08
2.8697939e-10
-1.3908728e-08
3.2224097e-10
-1.4332569e-08
3.6326796e-10
-1.474641e-08
4.0606134e-10
4.4308766e-10
1.257772e-08
1.7401504e-09
1.1562775e-08
1.6950837e-09
1.0564269e-08
1.6484501e-09
9.5822517e-09
1.6008498e-09
8.6166905e-09
1.5525964e-09
7.6675702e-09
1.503874e-09
6.734914e-09
1.4547821e-09
5.8187646e-09
1.4054065e-09
4.9191859e-09
1.3558122e-09
4.0362392e-09
1.3060902e-09
3.1699899e-09
1.2563299e-09
2.320491e-09
1.2066552e-09
1.4877975e-09
1.1571893e-09
6.7195665e-10
1.1080836e-09
-1.269757e-10
1.0594834e-09
-9.0894451e-10
1.0115581e-09
-1.6738858e-09
9.6446996e-10
-2.4217382e-09
9.184032e-10
-3.1524374e-09
8.735394e-10
-3.8659307e-09
8.3008433e-10
-4.5621753e-09
7.8824854e-10
-5.2411525e-09
7.482739e-10
-5.9028676e-09
7.1041833e-10
-6.5473596e-09
6.7497699e-10
-7.1747017e-09
6.4227239e-10
-7.7850077e-09
6.1267099e-10
-8.3784322e-09
5.8657707e-10
-8.9551743e-09
5.6444048e-10
-9.5154786e-09
5.4675143e-10
-1.0059637e-08
5.340345e-10
-1.0587989e-08
5.2683905e-10
-1.1100923e-08
5.2571739e-10
-1.159888e-08
5.3121021e-10
-1.2082356e-08
5.4381281e-10
-1.2551924e-08
5.6397855e-10
-1.3008259e-08
5.9209022e-10
-1.345225e-08
6.285483e-10
-1.3884974e-08
6.7340204e-10
-1.4308159e-08
7.2687111e-10
-1.4721412e-08
7.8317291e-10
8.3510749e-10
1.2581323e-08
2.4602564e-09
1.1566874e-08
2.3974833e-09
1.0568949e-08
2.3332305e-09
9.5875802e-09
2.2680127e-09
8.6227108e-09
2.2021145e-09
7.6743154e-09
2.1357435e-09
6.742411e-09
2.0690306e-09
5.8270405e-09
2.0021062e-09
4.9282668e-09
1.9350764e-09
4.0461542e-09
1.8680824e-09
3.1807681e-09
1.8012566e-09
2.3321639e-09
1.734775e-09
1.500396e-09
1.6688044e-09
6.855131e-10
1.6035485e-09
-1.1243085e-10
1.5391982e-09
-8.9338067e-10
1.475976e-09
-1.6572748e-09
1.4140916e-09
-2.4040525e-09
1.353783e-09
-3.1336514e-09
1.2952798e-09
-3.8460188e-09
1.2388408e-09
-4.5411133e-09
1.1847253e-09
-5.2189159e-09
1.133227e-09
-5.8794319e-09
1.084652e-09
-6.5226992e-09
1.0393464e-09
-7.1487899e-09
9.9768154e-10
-7.7578154e-09
9.6007568e-10
-8.3499279e-09
9.2698554e-10
-8.9253226e-09
8.9891694e-10
-9.4842405e-09
8.7641964e-10
-1.002697e-08
8.6008157e-10
-1.0553848e-08
8.5052145e-10
-1.1065267e-08
8.4836529e-10
-1.1561676e-08
8.5423691e-10
-1.2043594e-08
8.6872464e-10
-1.2511628e-08
8.9240177e-10
-1.2966507e-08
9.25806e-10
-1.3409186e-08
9.6959907e-10
-1.3840811e-08
1.0240736e-09
-1.426313e-08
1.0900386e-09
-1.4675512e-08
1.1596692e-09
1.2267778e-09
1.258912e-08
3.1780819e-09
1.1575575e-08
3.0974411e-09
1.0578639e-08
3.0156042e-09
9.598319e-09
2.932843e-09
8.6345433e-09
2.8493956e-09
7.6872792e-09
2.7654806e-09
6.7565388e-09
2.6812599e-09
5.8423659e-09
2.5969054e-09
4.9448229e-09
2.5125672e-09
4.0639769e-09
2.4284331e-09
3.1998937e-09
2.3446815e-09
2.3526314e-09
2.2615365e-09
1.5222438e-09
2.1792106e-09
7.0878067e-10
2.0979561e-09
-8.7705955e-11
2.0180105e-09
-8.671612e-10
1.9396455e-09
-1.6295263e-09
1.863119e-09
-2.3747417e-09
1.7887184e-09
-3.1027482e-09
1.7167214e-09
-3.8134947e-09
1.6474363e-09
-4.5069429e-09
1.5811694e-09
-5.1830753e-09
1.5182627e-09
-5.8418994e-09
1.4590683e-09
-6.4834542e-09
1.4039791e-09
-7.1078129e-09
1.3534124e-09
-7.7150864e-09
1.3078342e-09
-8.3054257e-09
1.2677502e-09
-8.8790237e-09
1.233719e-09
-9.4361174e-09
1.206347e-09
-9.9769908e-09
1.1862852e-09
-1.0501979e-08
1.1742229e-09
-1.1011475e-08
1.1708665e-09
-1.1505938e-08
1.176934e-09
-1.1985909e-08
1.1931264e-09
-1.2452039e-08
1.2201607e-09
-1.2905124e-08
1.2587623e-09
-1.3346196e-08
1.3098731e-09
-1.3776504e-08
1.374058e-09
-1.4197808e-08
1.4526306e-09
-1.4609106e-08
1.5353374e-09
1.6183217e-09
1.3632424e-08
3.9895067e-09
1.260416e-08
3.8929039e-09
1.1592005e-08
3.7945494e-09
1.059651e-08
3.6952179e-09
9.6176644e-09
3.5950068e-09
8.6553904e-09
3.4941129e-09
7.7096527e-09
3.3927654e-09
6.7804644e-09
3.2911549e-09
5.8678701e-09
3.1894963e-09
4.9719348e-09
3.0879827e-09
4.092727e-09
2.9868507e-09
3.2303146e-09
2.8863228e-09
2.3847566e-09
2.7866712e-09
1.5561085e-09
2.6881518e-09
7.4442048e-10
2.5910644e-09
-5.0255017e-11
2.4956913e-09
-8.2786409e-10
2.4023523e-09
-1.5883491e-09
2.3113511e-09
-2.3316528e-09
2.2230236e-09
-3.0577186e-09
2.137693e-09
-3.7664984e-09
2.055715e-09
-4.4579576e-09
1.9774407e-09
-5.1320823e-09
1.9032572e-09
-5.788884e-09
1.8335593e-09
-6.4284048e-09
1.7687829e-09
-7.0507208e-09
1.7093875e-09
-7.6559445e-09
1.655882e-09
-8.244227e-09
1.608817e-09
-8.8157589e-09
1.5687988e-09
-9.3707731e-09
1.5364878e-09
-9.909548e-09
1.5125954e-09
-1.0432414e-08
1.4978835e-09
-1.0939762e-08
1.4931449e-09
-1.1432058e-08
1.4992051e-09
-1.1909869e-08
1.5168993e-09
-1.2373889e-08
1.5471189e-09
-1.282499e-08
1.5908145e-09
-1.3264295e-08
1.6492333e-09
-1.3693195e-08
1.7232734e-09
-1.4113397e-08
1.8145549e-09
-1.4524202e-08
1.9107644e-09
2.0081868e-09
1.2089294e-08
4.63497e-09
1.1180148e-08
4.5228013e-09
1.0285354e-08
4.4090103e-09
9.4053285e-09
4.2943017e-09
8.5400476e-09
4.1787422e-09
7.6894415e-09
4.0625106e-09
6.8534821e-09
3.9458427e-09
6.0321838e-09
3.8289563e-09
5.2255899e-09
3.7121042e-09
4.4337603e-09
3.59552e-09
3.6567585e-09
3.4794823e-09
2.8946461e-09
3.3642536e-09
2.1474782e-09
3.2501462e-09
1.4153052e-09
3.137454e-09
6.9817332e-10
3.0265166e-09
-3.8702291e-12
2.9176547e-09
-6.9077689e-10
2.8112284e-09
-1.362496e-09
2.7075812e-09
-2.0189772e-09
2.6070892e-09
-2.6601723e-09
2.5101151e-09
-3.2860407e-09
2.4170537e-09
-3.8965549e-09
2.3282939e-09
-4.4917055e-09
2.2442594e-09
-5.0715062e-09
2.1653803e-09
-5.6359974e-09
2.0921261e-09
-6.1852493e-09
2.0249899e-09
-6.7193626e-09
1.9645136e-09
-7.2384708e-09
1.911283e-09
-7.7427398e-09
1.8659419e-09
-8.2323709e-09
1.8291944e-09
-8.7076035e-09
1.8018034e-09
-9.168723e-09
1.7845958e-09
-9.6160715e-09
1.7784469e-09
-1.0050066e-08
1.7842896e-09
-1.0471229e-08
1.8031025e-09
-1.0880208e-08
1.8359496e-09
-1.127788e-08
1.8840636e-09
-1.1665205e-08
1.948832e-09
-1.2044006e-08
2.0320838e-09
-1.2414075e-08
2.1333958e-09
-1.2782293e-08
2.2478718e-09
2.342585e-09
1.2445632e-08
5.2954223e-09
1.1512088e-08
5.167502e-09
1.059341e-08
5.0380179e-09
9.6899157e-09
4.9076256e-09
8.8015723e-09
4.7764037e-09
7.9283144e-09
4.6445219e-09
7.0701162e-09
4.5122304e-09
6.2269959e-09
4.3797749e-09
5.3990002e-09
4.247449e-09
4.586194e-09
4.1155271e-09
3.7886449e-09
3.9843317e-09
3.0064194e-09
3.8541644e-09
2.2395762e-09
3.7253782e-09
1.4881699e-09
3.598304e-09
7.522502e-10
3.4733204e-09
3.186757e-11
3.3507855e-09
-6.7292656e-10
3.2310992e-09
-1.3620787e-09
3.1146431e-09
-2.0355364e-09
3.0018325e-09
-2.6932491e-09
2.8930677e-09
-3.3351748e-09
2.7887809e-09
-3.9612844e-09
2.6893964e-09
-4.5715678e-09
2.5953715e-09
-5.1660379e-09
2.5071681e-09
-5.7447346e-09
2.4252857e-09
-6.3077271e-09
2.3502466e-09
-6.8551147e-09
2.282621e-09
-7.387028e-09
2.2230253e-09
-7.9036285e-09
2.1721364e-09
-8.4051118e-09
2.1306993e-09
-8.8917114e-09
2.099528e-09
-9.3637091e-09
2.0795191e-09
-9.8214507e-09
2.0716408e-09
-1.0265371e-08
2.0769546e-09
-1.0696033e-08
2.0966132e-09
-1.111416e-08
2.1319001e-09
-1.1520738e-08
2.1843764e-09
-1.1916906e-08
2.2556524e-09
-1.2304607e-08
2.3484385e-09
-1.2683989e-08
2.4605121e-09
-1.3060819e-08
2.5929314e-09
2.6865349e-09
1.2818501e-08
5.9718941e-09
1.1859395e-08
5.8277797e-09
1.0915663e-08
5.6823047e-09
9.9875331e-09
5.5359219e-09
9.0749691e-09
5.3887214e-09
8.1779092e-09
5.2408799e-09
7.2963321e-09
5.092665e-09
6.4302581e-09
4.9443558e-09
5.5797389e-09
4.7962855e-09
4.7448434e-09
4.6487717e-09
3.9256459e-09
4.5021785e-09
3.1222179e-09
4.3568487e-09
2.3346247e-09
4.2131736e-09
1.562925e-09
4.0715222e-09
8.0717428e-10
3.9323097e-09
6.7426803e-11
3.795932e-09
-6.5626071e-10
3.6628254e-09
-1.3638308e-09
3.5334093e-09
-2.0552255e-09
3.4081348e-09
-2.7303901e-09
3.2874384e-09
-3.3892769e-09
3.1717855e-09
-4.0318521e-09
3.0616331e-09
-4.6580998e-09
2.9574675e-09
-5.2680276e-09
2.8597783e-09
-5.8616692e-09
2.7690894e-09
-6.439087e-09
2.6859468e-09
-7.0003719e-09
2.6109433e-09
-7.5456445e-09
2.5447198e-09
-8.0750541e-09
2.4879816e-09
-8.5887825e-09
2.4415112e-09
-9.0870495e-09
2.4061743e-09
-9.570127e-09
2.3829428e-09
-1.0038361e-08
2.3728936e-09
-1.0492207e-08
2.3772427e-09
-1.0932275e-08
2.3973584e-09
-1.1359386e-08
2.4348018e-09
-1.1774665e-08
2.4915225e-09
-1.2179483e-08
2.5694588e-09
-1.2575899e-08
2.6721044e-09
-1.2964601e-08
2.795867e-09
-1.3349541e-08
2.9454103e-09
3.0414081e-09
1.4212029e-08
6.8221027e-09
1.3211141e-08
6.6648232e-09
1.2225477e-08
6.5042532e-09
1.1255666e-08
6.342492e-09
1.0301867e-08
6.1798189e-09
9.364041e-09
6.016338e-09
8.4421323e-09
5.8522414e-09
7.5361254e-09
5.6878199e-09
6.6460453e-09
5.5233887e-09
5.7719498e-09
5.3593209e-09
4.9139136e-09
5.1959782e-09
4.0720187e-09
5.0337656e-09
3.2463429e-09
4.8730675e-09
2.4369592e-09
4.7143118e-09
1.6439329e-09
4.5579055e-09
8.6732644e-10
4.4042986e-09
1.0720046e-10
4.2539234e-09
-6.3638106e-10
4.1072506e-09
-1.3633537e-09
3.9647352e-09
-2.0736518e-09
3.826861e-09
-2.7672128e-09
3.6940972e-09
-3.4439802e-09
3.5669386e-09
-4.1039115e-09
3.4458706e-09
-4.7469813e-09
3.3314032e-09
-5.3731874e-09
3.2240483e-09
-5.9825523e-09
3.1243477e-09
-6.5751262e-09
3.0328648e-09
-7.1509856e-09
2.9502072e-09
-7.7102337e-09
2.8770339e-09
-8.2529998e-09
2.8140721e-09
-8.7794431e-09
2.7621383e-09
-9.2897613e-09
2.7221504e-09
-9.7842083e-09
2.6951632e-09
-1.0263125e-08
2.6823809e-09
-1.0726985e-08
2.6852065e-09
-1.1176454e-08
2.705273e-09
-1.1612463e-08
2.7444907e-09
-1.2036304e-08
2.8052688e-09
-1.2449619e-08
2.8899998e-09
-1.2854616e-08
3.0028493e-09
-1.3252558e-08
3.1392985e-09
-1.3645893e-08
3.3055362e-09
3.4068107e-09
1.4653856e-08
7.5492779e-09
1.3624976e-08
7.3745769e-09
1.2611877e-08
7.1973878e-09
1.1615066e-08
7.01907e-09
1.0634659e-08
6.8398244e-09
9.6706216e-09
6.6597778e-09
8.7229083e-09
6.4791487e-09
7.7915113e-09
6.2982557e-09
6.8764614e-09
6.1174542e-09
5.9778242e-09
5.9371566e-09
5.0956817e-09
5.7577695e-09
4.230125e-09
5.5797371e-09
3.3812402e-09
5.4034858e-09
2.5491095e-09
5.2294783e-09
1.7338064e-09
5.0581596e-09
9.3540251e-10
4.8900117e-09
1.5396691e-10
4.7255027e-09
-6.1042666e-10
4.5651338e-09
-1.3577043e-09
4.4093935e-09
-2.0877895e-09
4.2587941e-09
-2.8006093e-09
4.1138346e-09
-3.4960956e-09
3.9750334e-09
-4.174194e-09
3.8429e-09
-4.8348663e-09
3.7179614e-09
-5.4780968e-09
3.6007458e-09
-6.1038932e-09
3.4918051e-09
-6.7122886e-09
3.3917117e-09
-7.3033391e-09
3.30108e-09
-7.8771242e-09
3.2205781e-09
-8.433745e-09
3.1509483e-09
-8.9733292e-09
3.0930355e-09
-9.4960421e-09
3.0478111e-09
-1.000211e-08
3.0164212e-09
-1.0491861e-08
3.0002185e-09
-1.0965782e-08
3.0008309e-09
-1.1424598e-08
3.0202147e-09
-1.1869362e-08
3.0607114e-09
-1.230156e-08
3.1252809e-09
-1.2723137e-08
3.2169014e-09
-1.3136516e-08
3.3403427e-09
-1.3543539e-08
3.4905349e-09
-1.3945514e-08
3.6734812e-09
3.7827052e-09
1.6191542e-08
8.4803207e-09
1.5118307e-08
8.2934397e-09
1.4060675e-08
8.1015341e-09
1.3019333e-08
7.9075509e-09
1.199469e-08
7.7124151e-09
1.0986832e-08
7.516327e-09
9.9957328e-09
7.3194459e-09
9.0213575e-09
7.1220248e-09
8.0637087e-09
6.9244155e-09
7.122826e-09
6.7270153e-09
6.1987842e-09
6.5302761e-09
5.2916744e-09
6.3346497e-09
4.4015978e-09
6.1406184e-09
3.5286506e-09
5.9486499e-09
2.6729257e-09
5.7592402e-09
1.8345069e-09
5.5728712e-09
1.0134769e-09
5.3900546e-09
2.0991595e-10
5.2112922e-09
-5.7609052e-10
5.0371125e-09
-1.3444565e-09
4.8680348e-09
-2.0950928e-09
4.7045954e-09
-2.8279135e-09
4.5473187e-09
-3.5428366e-09
4.3967417e-09
-4.2397936e-09
4.2533915e-09
-4.9187314e-09
4.1178059e-09
-5.579618e-09
3.9905209e-09
-6.2224432e-09
3.8720902e-09
-6.8472187e-09
3.7630857e-09
-7.453976e-09
3.6641183e-09
-8.0427635e-09
3.5758546e-09
-8.6136464e-09
3.4990431e-09
-9.1667105e-09
3.4345511e-09
-9.7020778e-09
3.383403e-09
-1.0219936e-08
3.3468451e-09
-1.0720588e-08
3.326403e-09
-1.1204527e-08
3.3239719e-09
-1.1672536e-08
3.3418983e-09
-1.2125799e-08
3.383051e-09
-1.2566018e-08
3.4510484e-09
-1.2995484e-08
3.549608e-09
-1.3416901e-08
3.6840647e-09
-1.3832734e-08
3.8491572e-09
-1.4243446e-08
4.0492401e-09
4.1688435e-09
1.6708861e-08
9.260165e-09
1.5605524e-08
9.0551103e-09
1.4518419e-08
8.8460215e-09
1.3448093e-08
8.6350254e-09
1.239485e-08
8.4228208e-09
1.1358767e-08
8.2096307e-09
1.0339828e-08
7.9956587e-09
9.3380128e-09
7.7812004e-09
8.3533354e-09
7.5666453e-09
7.3858461e-09
7.3524348e-09
6.4356297e-09
7.1390603e-09
5.5027885e-09
6.927018e-09
4.5874348e-09
6.7168272e-09
3.6896766e-09
6.5089955e-09
2.8096189e-09
6.3040511e-09
1.9473579e-09
6.1025108e-09
1.1029888e-09
5.9049141e-09
2.7660499e-10
5.7117935e-09
-5.3169456e-10
5.5237021e-09
-1.3218096e-09
5.3411856e-09
-2.0936368e-09
5.1648005e-09
-2.8470751e-09
4.9950913e-09
-3.5820277e-09
4.8326079e-09
-4.2984105e-09
4.6778881e-09
-4.9961535e-09
4.5314727e-09
-5.6752073e-09
4.3938969e-09
-6.3355408e-09
4.2657059e-09
-6.9771417e-09
4.1474596e-09
-7.6000113e-09
4.0397534e-09
-8.2041613e-09
3.9432404e-09
-8.7896116e-09
3.8586636e-09
-9.3563956e-09
3.7869048e-09
-9.9045787e-09
3.7290396e-09
-1.0434294e-08
3.6864237e-09
-1.0945807e-08
3.6607802e-09
-1.1439605e-08
3.6543196e-09
-1.1916521e-08
3.6698536e-09
-1.2377874e-08
3.7108871e-09
-1.2825607e-08
3.7818292e-09
-1.3262388e-08
3.8873053e-09
-1.3691306e-08
4.0332481e-09
-1.411546e-08
4.214482e-09
-1.453484e-08
4.4326109e-09
4.5648836e-09
1.8400072e-08
1.0275517e-08
1.7249546e-08
1.0057724e-08
1.6115487e-08
9.8346866e-09
1.4998227e-08
9.6083025e-09
1.38982e-08
9.3800491e-09
1.2815642e-08
9.1505164e-09
1.175062e-08
8.9199676e-09
1.070313e-08
8.6886572e-09
9.6731669e-09
8.456928e-09
8.6607578e-09
8.2252111e-09
7.6659657e-09
7.9939927e-09
6.6888876e-09
7.763804e-09
5.7296376e-09
7.5351841e-09
4.7883406e-09
7.3086885e-09
3.8651175e-09
7.0848631e-09
2.9600867e-09
6.8642664e-09
2.0733582e-09
6.6474481e-09
1.2050415e-09
6.4349733e-09
3.552446e-10
6.2274023e-09
-4.7591854e-10
6.0253092e-09
-1.2883322e-09
5.8292622e-09
-2.0818774e-09
5.6398331e-09
-2.8564376e-09
5.4575811e-09
-3.6119001e-09
5.2830624e-09
-4.3481642e-09
5.1168183e-09
-5.0651432e-09
4.9593835e-09
-5.7627682e-09
4.8112822e-09
-6.4409863e-09
4.6730397e-09
-7.0997579e-09
4.545191e-09
-7.73905e-09
4.4283014e-09
-8.3588305e-09
4.3229957e-09
-8.9590648e-09
4.2299978e-09
-9.5397211e-09
4.1501931e-09
-1.0100792e-08
4.0847047e-09
-1.064234e-08
4.035005e-09
-1.1164571e-08
4.0030406e-09
-1.1667948e-08
3.9913874e-09
-1.215334e-08
4.0034054e-09
-1.2622201e-08
4.043359e-09
-1.3076728e-08
4.1166047e-09
-1.3520011e-08
4.2288745e-09
-1.3955622e-08
4.3867953e-09
-1.438736e-08
4.5855267e-09
-1.4815055e-08
4.8230671e-09
4.9702436e-09
1.8995986e-08
1.1110004e-08
1.7813577e-08
1.0873429e-08
1.664817e-08
1.0632478e-08
1.55001e-08
1.0388581e-08
1.4369695e-08
1.0142806e-08
1.3257142e-08
9.8956841e-09
1.2162506e-08
9.647522e-09
1.1085798e-08
9.398631e-09
1.0027028e-08
9.149405e-09
8.9862403e-09
8.9003199e-09
7.9635101e-09
8.6519065e-09
6.9589475e-09
8.4047363e-09
5.9726804e-09
8.1593893e-09
5.0048464e-09
7.9164562e-09
4.0555811e-09
7.6765186e-09
3.1250166e-09
7.4401645e-09
2.2132784e-09
7.2079733e-09
1.3204908e-09
6.9805339e-09
4.4677778e-10
6.7584304e-09
-4.0773098e-10
6.5422552e-09
-1.2429032e-09
6.3325937e-09
-2.0586038e-09
6.1300288e-09
-2.8547003e-09
5.9351276e-09
-3.6310641e-09
5.748446e-09
-4.3875781e-09
5.5705198e-09
-5.1241385e-09
5.4018686e-09
-5.8406571e-09
5.2429938e-09
-6.5370578e-09
5.0943877e-09
-7.2132713e-09
4.956545e-09
-7.8692259e-09
4.8299845e-09
-8.5048384e-09
4.715285e-09
-9.1200093e-09
4.6131343e-09
-9.7146271e-09
4.5244075e-09
-1.0288594e-08
4.4502679e-09
-1.0841875e-08
4.3923101e-09
-1.1374594e-08
4.3527275e-09
-1.188716e-08
4.3345138e-09
-1.2380456e-08
4.3416665e-09
-1.2856054e-08
4.3793458e-09
-1.3316418e-08
4.4540425e-09
-1.3765095e-08
4.5728253e-09
-1.4206257e-08
4.743202e-09
-1.4644488e-08
4.9608888e-09
-1.5079755e-08
5.2196478e-09
5.3840495e-09
2.0847681e-08
1.2212018e-08
1.9615874e-08
1.196277e-08
1.8401001e-08
1.1707631e-08
1.7203637e-08
1.1448703e-08
1.6024101e-08
1.1187033e-08
1.4862654e-08
1.0923456e-08
1.3719451e-08
1.0658473e-08
1.2594558e-08
1.0392442e-08
1.1488001e-08
1.0125731e-08
1.0399807e-08
9.8587888e-09
9.330035e-09
9.5921367e-09
8.2787774e-09
9.3263505e-09
7.2461578e-09
9.0620408e-09
6.2323182e-09
8.7998271e-09
5.2374102e-09
8.5403336e-09
4.2615839e-09
8.284176e-09
3.3049865e-09
8.0319693e-09
2.3677592e-09
7.7843204e-09
1.4500422e-09
7.5418391e-09
5.5197612e-10
7.3051303e-09
-3.2629317e-10
7.0748003e-09
-1.1846166e-09
6.8514473e-09
-2.0228431e-09
6.6356596e-09
-2.8408242e-09
6.4280058e-09
-3.6384162e-09
6.2290338e-09
-4.4154866e-09
6.0392648e-09
-5.1719149e-09
5.8591923e-09
-5.9075941e-09
5.689282e-09
-6.6224242e-09
5.5299785e-09
-7.3163045e-09
5.3817186e-09
-7.9891199e-09
5.2449556e-09
-8.6407286e-09
5.1202011e-09
-9.2709541e-09
5.0080863e-09
-9.8795885e-09
4.9094577e-09
-1.0466419e-08
4.8255071e-09
-1.1031289e-08
4.7579516e-09
-1.1574199e-08
4.7092521e-09
-1.2095469e-08
4.6828697e-09
-1.2595956e-08
4.6835319e-09
-1.3077317e-08
4.7174442e-09
-1.3542282e-08
4.7924478e-09
-1.3994886e-08
4.9172268e-09
-1.4440023e-08
5.1004495e-09
-1.4883198e-08
5.3386401e-09
-1.5324855e-08
5.620897e-09
5.8050448e-09
2.1525366e-08
1.3102808e-08
2.0259923e-08
1.283423e-08
1.9011969e-08
1.256062e-08
1.778203e-08
1.2283531e-08
1.6570384e-08
1.2003803e-08
1.5377246e-08
1.1722131e-08
1.4202754e-08
1.1439013e-08
1.3046979e-08
1.1154856e-08
1.1909961e-08
1.087009e-08
1.0791749e-08
1.0585217e-08
9.6924183e-09
1.0300805e-08
8.6120763e-09
1.0017474e-08
7.5508621e-09
9.7358749e-09
6.5089324e-09
9.4566629e-09
5.4864531e-09
9.1804951e-09
4.4835894e-09
8.9080178e-09
3.5005037e-09
8.6398721e-09
2.5373535e-09
8.3766889e-09
1.5942952e-09
8.1190969e-09
6.7148605e-10
7.8677172e-09
-2.3091171e-10
7.6231666e-09
-1.1127323e-09
7.3860503e-09
-1.9738092e-09
7.1569572e-09
-2.8139789e-09
6.9364494e-09
-3.633084e-09
6.7250593e-09
-4.4309778e-09
6.5232825e-09
-5.2075252e-09
6.3315753e-09
-5.962601e-09
6.1503531e-09
-6.696082e-09
5.9799961e-09
-7.4078337e-09
5.8208635e-09
-8.0976939e-09
5.6733207e-09
-8.765454e-09
5.537788e-09
-9.4108471e-09
5.4148145e-09
-1.0033549e-08
5.3051948e-09
-1.0633206e-08
5.2101312e-09
-1.1209499e-08
5.1314569e-09
-1.1762265e-08
5.0719126e-09
-1.2291678e-08
5.0354708e-09
-1.2798507e-08
5.0276804e-09
-1.3284446e-08
5.0559502e-09
-1.3752456e-08
5.1297196e-09
-1.4207083e-08
5.2596213e-09
-1.4654073e-08
5.455886e-09
-1.5100035e-08
5.716161e-09
-1.5546217e-08
6.024611e-09
6.2313609e-09
2.3544865e-08
1.429337e-08
2.222802e-08
1.401237e-08
2.0928361e-08
1.3724743e-08
1.9646721e-08
1.3432601e-08
1.8383571e-08
1.3137116e-08
1.7139164e-08
1.2839026e-08
1.591369e-08
1.253896e-08
1.4707279e-08
1.2237427e-08
1.3520009e-08
1.1934888e-08
1.2351939e-08
1.1631832e-08
1.1203135e-08
1.1328817e-08
1.007369e-08
1.1026458e-08
8.9637303e-09
1.0725419e-08
7.8734095e-09
1.0426386e-08
6.8028995e-09
1.0130051e-08
5.7523807e-09
9.8371017e-09
4.7220334e-09
9.548213e-09
3.7120356e-09
9.2640491e-09
2.7225606e-09
8.9852624e-09
1.7537815e-09
8.7124972e-09
8.0587197e-10
8.4463873e-09
-1.2098975e-10
8.1875556e-09
-1.0266222e-09
7.9366091e-09
-1.910844e-09
7.6941307e-09
-2.7734787e-09
7.4606689e-09
-3.614357e-09
7.2367311e-09
-4.4333205e-09
7.0227774e-09
-5.2302218e-09
6.8192131e-09
-6.00492e-09
6.6263879e-09
-6.757269e-09
6.4445988e-09
-7.4871004e-09
6.2741055e-09
-8.1942001e-09
6.1151601e-09
-8.8782845e-09
5.9680629e-09
-9.538982e-09
5.8332508e-09
-1.017583e-08
5.7114366e-09
-1.0788299e-08
5.6038067e-09
-1.1375867e-08
5.5122934e-09
-1.1938143e-08
5.4399176e-09
-1.2475081e-08
5.3911948e-09
-1.2987278e-08
5.3725769e-09
-1.3476373e-08
5.3928371e-09
-1.3945497e-08
5.4632872e-09
-1.4399699e-08
5.5969118e-09
-1.4845696e-08
5.8060403e-09
-1.5291455e-08
6.089913e-09
-1.573952e-08
6.4277333e-09
6.6604015e-09
2.4308253e-08
1.5241331e-08
2.2955988e-08
1.4941166e-08
2.1621481e-08
1.4634615e-08
2.0305519e-08
1.4323755e-08
1.9008514e-08
1.4009595e-08
1.7730699e-08
1.3692831e-08
1.647225e-08
1.3374066e-08
1.5233295e-08
1.3053838e-08
1.4013927e-08
1.2732661e-08
1.281422e-08
1.2411086e-08
1.1634261e-08
1.2089722e-08
1.0474163e-08
1.1769234e-08
9.3340686e-09
1.1450326e-08
8.2141481e-09
1.1133722e-08
7.1145877e-09
1.0820147e-08
6.0355825e-09
1.0510316e-08
4.9773279e-09
1.020493e-08
3.9400169e-09
9.9046746e-09
2.9238391e-09
9.6102209e-09
1.9289833e-09
9.3222258e-09
9.5563927e-10
9.0413311e-09
4.0004023e-12
8.768162e-09
-9.2573727e-10
8.5033213e-09
-1.8333797e-09
8.2473797e-09
-2.7187395e-09
8.0008635e-09
-3.5816385e-09
7.7642468e-09
-4.4219102e-09
7.5379414e-09
-5.2393983e-09
7.3222885e-09
-6.0339493e-09
7.1175545e-09
-6.8053968e-09
6.9239329e-09
-7.553538e-09
6.7415595e-09
-8.2781041e-09
6.5705443e-09
-8.9787279e-09
6.4110348e-09
-9.6549177e-09
6.2633198e-09
-1.0306047e-08
6.1279922e-09
-1.0931374e-08
6.0061857e-09
-1.1530115e-08
5.8999003e-09
-1.2101579e-08
5.8124188e-09
-1.26454e-08
5.7488104e-09
-1.316188e-08
5.716491e-09
-1.3652468e-08
5.72575e-09
-1.4120341e-08
5.7900658e-09
-1.4570999e-08
5.9252499e-09
-1.5012245e-08
6.1464497e-09
-1.545371e-08
6.4551731e-09
-1.5899732e-08
6.8258496e-09
7.0883218e-09
2.5097969e-08
1.6209289e-08
2.3709579e-08
1.5889728e-08
2.2339573e-08
1.5564098e-08
2.0988633e-08
1.5234251e-08
1.9657114e-08
1.4901109e-08
1.8345238e-08
1.456535e-08
1.7053176e-08
1.4227583e-08
1.5781061e-08
1.3888379e-08
1.4528997e-08
1.3548312e-08
1.3297081e-08
1.3207989e-08
1.2085418e-08
1.2868076e-08
1.0894142e-08
1.2529282e-08
9.7234124e-09
1.2192352e-08
8.5734156e-09
1.1858045e-08
7.4443528e-09
1.1527116e-08
6.3364333e-09
1.1200307e-08
5.249867e-09
1.0878343e-08
4.1848618e-09
1.0561929e-08
3.1416227e-09
1.025175e-08
2.1203538e-09
9.9484716e-09
1.12126e-09
9.6527413e-09
1.4454862e-10
9.3651811e-09
-8.0957207e-10
9.086384e-09
-1.7408975e-09
8.8169014e-09
-2.6492329e-09
8.55723e-09
-3.5343951e-09
8.3077998e-09
-4.3962142e-09
8.0689627e-09
-5.2345301e-09
7.8409804e-09
-6.0491814e-09
7.6240183e-09
-6.8399848e-09
7.4181441e-09
-7.6067051e-09
7.2233426e-09
-8.3490165e-09
7.0395498e-09
-9.0664606e-09
6.8667238e-09
-9.7584099e-09
6.7049622e-09
-1.0424046e-08
6.5546911e-09
-1.1062373e-08
6.4169409e-09
-1.167228e-08
6.2937285e-09
-1.2252681e-08
6.1885556e-09
-1.2802758e-08
6.1070208e-09
-1.3322352e-08
6.0575307e-09
-1.381252e-08
6.0520113e-09
-1.4276279e-08
6.1064029e-09
-1.4719444e-08
6.2398921e-09
-1.5150941e-08
6.471346e-09
-1.558245e-08
6.8055804e-09
-1.6020923e-08
7.2128843e-09
7.5097141e-09
2.5914248e-08
1.7198113e-08
2.448904e-08
1.6858481e-08
2.3082869e-08
1.6513416e-08
2.1696283e-08
1.6164258e-08
2.0329591e-08
1.5811804e-08
1.8983004e-08
1.5456726e-08
1.7656696e-08
1.5099652e-08
1.6350809e-08
1.4741196e-08
1.5065463e-08
1.4381989e-08
1.3800775e-08
1.4022698e-08
1.2556872e-08
1.3664038e-08
1.1333907e-08
1.3306766e-08
1.0132058e-08
1.2951666e-08
8.9515265e-09
1.2599528e-08
7.7925278e-09
1.2251137e-08
6.6552851e-09
1.1907261e-08
5.5400225e-09
1.1568643e-08
4.446962e-09
1.1236004e-08
3.3763231e-09
1.0910043e-08
2.3283243e-09
1.0591432e-08
1.3031841e-09
1.0280816e-08
3.0112139e-10
9.9788123e-09
-6.7764545e-10
9.6859965e-09
-1.6329052e-09
9.4028945e-09
-2.5644595e-09
9.1299647e-09
-3.472126e-09
8.8675831e-09
-4.3557373e-09
8.6160287e-09
-5.2151363e-09
8.3754687e-09
-6.0501603e-09
8.1459478e-09
-6.860615e-09
7.9273845e-09
-7.6462365e-09
7.7195838e-09
-8.4066418e-09
7.5222733e-09
-9.1412759e-09
7.3351795e-09
-9.84936e-09
7.1581598e-09
-1.0529856e-08
6.9914158e-09
-1.1181466e-08
6.8358079e-09
-1.1802674e-08
6.6932954e-09
-1.2391887e-08
6.567519e-09
-1.2947672e-08
6.4645373e-09
-1.3469175e-08
6.3937127e-09
-1.3956778e-08
6.3686725e-09
-1.4413011e-08
6.4080768e-09
-1.4843725e-08
6.5350887e-09
-1.5258928e-08
6.7734326e-09
-1.5672731e-08
7.1326951e-09
-1.6095542e-08
7.580124e-09
7.9164653e-09
2.8238397e-08
1.8560294e-08
2.6757117e-08
1.8207396e-08
2.529451e-08
1.7847544e-08
2.3851519e-08
1.7482744e-08
2.2428622e-08
1.7113933e-08
2.1026096e-08
1.6741833e-08
1.9644154e-08
1.6367114e-08
1.8282975e-08
1.5990432e-08
1.6942716e-08
1.5612452e-08
1.5623515e-08
1.5233862e-08
1.4325508e-08
1.4855384e-08
1.3048847e-08
1.4477787e-08
1.1793702e-08
1.4101871e-08
1.056027e-08
1.3728456e-08
9.3487656e-09
1.3358365e-08
8.1594197e-09
1.2992408e-08
6.9924682e-09
1.2631375e-08
5.848148e-09
1.2276028e-08
4.7266945e-09
1.1927103e-08
3.6283404e-09
1.1585305e-08
2.5533171e-09
1.125131e-08
1.5018545e-09
1.092576e-08
4.7418106e-10
1.0609259e-08
-5.29479e-10
1.0302361e-08
-1.5089119e-09
1.0005559e-08
-2.4639216e-09
9.7192647e-09
-3.394333e-09
9.4437901e-09
-4.2999897e-09
9.1793286e-09
-5.180746e-09
8.9259368e-09
-6.0364473e-09
8.6835189e-09
-6.8668968e-09
8.4518201e-09
-7.6718082e-09
8.2304355e-09
-8.4507453e-09
8.0188467e-09
-9.2030527e-09
7.8165032e-09
-9.9277883e-09
7.6229662e-09
-1.0623667e-08
7.438144e-09
-1.1289035e-08
7.2626417e-09
-1.1921894e-08
7.0982569e-09
-1.2520003e-08
6.9486457e-09
-1.3081111e-08
6.8201902e-09
-1.3603378e-08
6.7230886e-09
-1.4086099e-08
6.6726275e-09
-1.4530825e-08
6.69036e-09
-1.4942937e-08
6.8040094e-09
-1.5333218e-08
7.0434814e-09
-1.5718508e-08
7.4251727e-09
-1.6113995e-08
7.9153622e-09
8.2967799e-09
2.9146604e-08
1.9611159e-08
2.7626645e-08
1.9237181e-08
2.6126034e-08
1.8857065e-08
2.4645581e-08
1.8472238e-08
2.3185711e-08
1.8083442e-08
2.1746699e-08
1.7691361e-08
2.0328767e-08
1.7296682e-08
1.8932107e-08
1.6900099e-08
1.7556891e-08
1.6502328e-08
1.6203278e-08
1.6104116e-08
1.4871428e-08
1.5706241e-08
1.3561511e-08
1.5309521e-08
1.2273719e-08
1.4914799e-08
1.1008265e-08
1.4522929e-08
9.7653778e-09
1.4134764e-08
8.5453012e-09
1.3751138e-08
7.3482833e-09
1.3372862e-08
6.1745729e-09
1.3000713e-08
5.0244172e-09
1.2635438e-08
3.8980607e-09
1.2277748e-08
2.7957454e-09
1.1928317e-08
1.7177103e-09
1.1587781e-08
6.6418958e-10
1.1256726e-08
-3.6459094e-10
1.0935679e-08
-1.3684207e-09
1.0625093e-08
-2.3471133e-09
1.0325325e-08
-3.3005093e-09
1.0036613e-08
-4.2284735e-09
9.7590524e-09
-5.130883e-09
9.4925726e-09
-6.0076034e-09
9.2369186e-09
-6.8584476e-09
8.9916374e-09
-7.6831178e-09
8.7560833e-09
-8.4811316e-09
8.5294538e-09
-9.2517355e-09
8.3108724e-09
-9.9938158e-09
8.0995424e-09
-1.0705816e-08
7.8949985e-09
-1.1385679e-08
7.6974863e-09
-1.203083e-08
7.5085039e-09
-1.2638233e-08
7.3315447e-09
-1.3204572e-08
7.1730941e-09
-1.3726645e-08
7.043943e-09
-1.4202115e-08
6.9608342e-09
-1.4630812e-08
6.9481979e-09
-1.5016797e-08
7.0387904e-09
-1.5370944e-08
7.2701413e-09
-1.5712859e-08
7.6681101e-09
-1.6063715e-08
8.2010811e-09
8.6326213e-09
3.3256412e-08
2.1447065e-08
3.1660032e-08
2.1069267e-08
3.0081983e-08
2.0682432e-08
2.8522806e-08
2.028767e-08
2.6983576e-08
1.9887204e-08
2.5465009e-08
1.9482067e-08
2.3967512e-08
1.9072959e-08
2.2491372e-08
1.866057e-08
2.1036829e-08
1.8245617e-08
1.9604093e-08
1.7828845e-08
1.8193358e-08
1.7411024e-08
1.6804803e-08
1.6992957e-08
1.543861e-08
1.6575479e-08
1.4094971e-08
1.6159455e-08
1.2774096e-08
1.5745768e-08
1.1476213e-08
1.5335306e-08
1.0201566e-08
1.4928948e-08
8.9504095e-09
1.4527552e-08
7.7230026e-09
1.4131945e-08
6.5196044e-09
1.3742919e-08
5.3404724e-09
1.3361228e-08
4.1858606e-09
1.2987586e-08
3.056019e-09
1.2622664e-08
1.9511923e-09
1.2267085e-08
8.7161609e-10
1.1921415e-08
-1.8248783e-10
1.1586148e-08
-1.2109195e-09
1.1261691e-08
-2.2135105e-09
1.0948338e-08
-3.1901285e-09
1.0646243e-08
-4.1406715e-09
1.035539e-08
-5.0650545e-09
1.007557e-08
-5.9631788e-09
9.8063489e-09
-6.8348833e-09
9.5470507e-09
-7.6798749e-09
9.2967596e-09
-8.4976383e-09
9.0543501e-09
-9.2873308e-09
8.8185704e-09
-1.0047666e-08
8.5881994e-09
-1.07768e-08
8.3623095e-09
-1.1472228e-08
8.1406631e-09
-1.2130711e-08
7.9242872e-09
-1.2748257e-08
7.7162733e-09
-1.332021e-08
7.5228907e-09
-1.3841547e-08
7.3551185e-09
-1.4307582e-08
7.230718e-09
-1.4715372e-08
7.1766665e-09
-1.5066279e-08
7.2308974e-09
-1.5369821e-08
7.4398488e-09
-1.5647571e-08
7.8419012e-09
-1.5928024e-08
8.4122452e-09
8.896656e-09
3.595701e-08
2.2971746e-08
3.4300644e-08
2.2581528e-08
3.2663152e-08
2.2182464e-08
3.1044495e-08
2.1774531e-08
2.9445474e-08
2.1359174e-08
2.7866978e-08
2.0938166e-08
2.6309638e-08
2.0512426e-08
2.4773865e-08
2.0082679e-08
2.3259971e-08
1.9649657e-08
2.1768218e-08
1.9214125e-08
2.029884e-08
1.8776882e-08
1.8852051e-08
1.8338757e-08
1.7428054e-08
1.7900609e-08
1.6027053e-08
1.7463327e-08
1.4649261e-08
1.7027821e-08