/*--------------------------------*- C++ -*----------------------------------*\
| =========                 |                                                 |
| \\      /  F ield         | OpenFOAM: The Open Source CFD Toolbox           |
|  \\    /   O peration     | Version:  2312                                  |
|   \\  /    A nd           | Website:  www.openfoam.com                      |
|    \\/     M anipulation  |                                                 |
\*---------------------------------------------------------------------------*/
FoamFile
{
    version     2.0;
    format      ascii;
    arch        "LSB;label=32;scalar=64";
    class       volVectorField;
    location    "0.07";
    object      U;
}
// * * * * * * * * * * * * * * * * * * * * * * * * * * * * * * * * * * * * * //

dimensions      [0 1 -1 0 0 0 0];

internalField   nonuniform List<vector> 
3224
(
(0.17240692 0.0034548545 0)
(0.15799175 0.0033360455 0)
(0.14395944 0.0032117349 0)
(0.13030652 0.0030845563 0)
(0.11702507 0.0029559088 0)
(0.10410773 0.0028265803 0)
(0.09154752 0.0026966996 0)
(0.079338053 0.0025664414 0)
(0.067473242 0.0024357308 0)
(0.055947273 0.002304723 0)
(0.044754445 0.0021734617 0)
(0.033889179 0.0020422318 0)
(0.023346003 0.0019112363 0)
(0.013119568 0.0017808651 0)
(0.0032047191 0.0016514078 0)
(-0.006403518 0.0015233119 0)
(-0.01570988 0.0013969218 0)
(-0.024718946 0.0012727266 0)
(-0.0334351 0.0011511468 0)
(-0.04186266 0.001032748 0)
(-0.050005913 0.00091807546 0)
(-0.057869253 0.00080784322 0)
(-0.065457176 0.00070280179 0)
(-0.07277442 0.00060388671 0)
(-0.079825939 0.00051211893 0)
(-0.086617025 0.00042871788 0)
(-0.093153244 0.00035502475 0)
(-0.099440546 0.00029256674 0)
(-0.10548519 0.00024299579 0)
(-0.11129384 0.0002080868 0)
(-0.1168735 0.00018967326 0)
(-0.12223152 0.0001895642 0)
(-0.12737564 0.00020946815 0)
(-0.13231371 0.00025082307 0)
(-0.13705492 0.00031473973 0)
(-0.14160542 0.00040176014 0)
(-0.14598648 0.00051180908 0)
(-0.15017019 0.00064322881 0)
(-0.15432103 0.00079261269 0)
(-0.15789056 0.00094593428 0)
(-0.16314957 0.0010703231 0)
(0.17241395 0.0072682972 0)
(0.15800084 0.0070353271 0)
(0.14397088 0.0067973497 0)
(0.13032124 0.0065572962 0)
(0.1170436 0.0063169905 0)
(0.10413032 0.0060771471 0)
(0.091574335 0.0058382922 0)
(0.079369198 0.0056005887 0)
(0.067508819 0.005364338 0)
(0.055987402 0.0051297152 0)
(0.04479927 0.0048971187 0)
(0.033938862 0.0046668836 0)
(0.023400731 0.0044395478 0)
(0.013179521 0.0042155704 0)
(0.0032700851 0.0039955599 0)
(-0.0063325637 0.0037800472 0)
(-0.015633164 0.0035696828 0)
(-0.0246363 0.0033650583 0)
(-0.033346352 0.0031668814 0)
(-0.041767643 0.0029758346 0)
(-0.049904445 0.0027927237 0)
(-0.057761141 0.0026183886 0)
(-0.065342199 0.0024538183 0)
(-0.072652332 0.002300084 0)
(-0.079696457 0.0021584261 0)
(-0.086479826 0.0020302149 0)
(-0.093007962 0.0019170049 0)
(-0.099286766 0.0018205018 0)
(-0.10532245 0.0017425735 0)
(-0.11112164 0.0016852022 0)
(-0.11669131 0.0016504331 0)
(-0.12203882 0.0016403025 0)
(-0.12717197 0.0016567229 0)
(-0.13209874 0.0017013947 0)
(-0.13682858 0.0017757076 0)
(-0.14136801 0.0018807028 0)
(-0.14573886 0.0020171719 0)
(-0.1499135 0.0021844854 0)
(-0.15405786 0.0023817926 0)
(-0.15762131 0.0025877902 0)
(-0.16287644 0.002769644 0)
(0.17245256 0.011068483 0)
(0.15804558 0.010720982 0)
(0.14402286 0.01036959 0)
(0.13038149 0.010017531 0)
(0.1171127 0.0096662384 0)
(0.10420861 0.0093168384 0)
(0.091662057 0.0089697365 0)
(0.079466556 0.0086255442 0)
(0.067616013 0.0082844964 0)
(0.056104639 0.0079472133 0)
(0.044926782 0.0076140492 0)
(0.034076895 0.0072857671 0)
(0.023549534 0.0069628785 0)
(0.01333935 0.0066462382 0)
(0.0034411839 0.0063364546 0)
(-0.0061499608 0.0060344283 0)
(-0.015438838 0.0057408379 0)
(-0.02443005 0.0054566182 0)
(-0.033127997 0.0051825258 0)
(-0.041537014 0.0049195526 0)
(-0.049661384 0.0046685755 0)
(-0.057505492 0.0044307101 0)
(-0.065073808 0.0042070341 0)
(-0.072371037 0.0039988594 0)
(-0.079402086 0.0038075387 0)
(-0.086172186 0.0036346599 0)
(-0.092686831 0.0034819243 0)
(-0.098951889 0.0033512457 0)
(-0.10497353 0.0032446842 0)
(-0.11075834 0.0031644322 0)
(-0.11631325 0.0031127772 0)
(-0.12164563 0.0030919733 0)
(-0.12676333 0.0031042298 0)
(-0.13167452 0.0031514967 0)
(-0.13638894 0.0032356121 0)
(-0.14091358 0.0033580817 0)
(-0.14527107 0.0035208047 0)
(-0.14943405 0.0037239212 0)
(-0.15357073 0.0039695097 0)
(-0.15712604 0.0042268504 0)
(-0.16237565 0.0044685069 0)
(0.1725411 0.014854026 0)
(0.1581448 0.014390504 0)
(0.14413475 0.013925815 0)
(0.13050686 0.013461921 0)
(0.11725199 0.013000253 0)
(0.10436213 0.012541724 0)
(0.091830048 0.012087101 0)
(0.079649224 0.011636955 0)
(0.067813569 0.011191917 0)
(0.056317314 0.010752603 0)
(0.045154822 0.010319746 0)
(0.034320572 0.0098941168 0)
(0.023809127 0.0094765796 0)
(0.013615138 0.0090680169 0)
(0.0037334342 0.0086693703 0)
(-0.0058409902 0.0082815887 0)
(-0.015112914 0.0079056632 0)
(-0.024086957 0.0075425902 0)
(-0.032767552 0.007193411 0)
(-0.04115906 0.006859196 0)
(-0.049265796 0.0065410777 0)
(-0.057092164 0.00624026 0)
(-0.064642661 0.0059580456 0)
(-0.071922006 0.0056958475 0)
(-0.078935122 0.0054552192 0)
(-0.085687235 0.0052378705 0)
(-0.092183837 0.005045695 0)
(-0.098430762 0.004880766 0)
(-0.10443415 0.0047453483 0)
(-0.11020054 0.0046418492 0)
(-0.11573681 0.0045727926 0)
(-0.12105032 0.0045407207 0)
(-0.12614897 0.0045481377 0)
(-0.13104107 0.0045974087 0)
(-0.13573678 0.0046908293 0)
(-0.14024358 0.0048306254 0)
(-0.1445852 0.0050197369 0)
(-0.14873422 0.0052593213 0)
(-0.15286338 0.005553935 0)
(-0.15640724 0.0058615388 0)
(-0.16165485 0.0061673807 0)
(0.18747302 0.019199867 0)
(0.17271825 0.01862534 0)
(0.15833895 0.018046262 0)
(0.14434765 0.017468746 0)
(0.13073861 0.016893771 0)
(0.11750269 0.016322283 0)
(0.10463182 0.015755412 0)
(0.092118773 0.015193868 0)
(0.079957044 0.014638573 0)
(0.068140571 0.014090182 0)
(0.056663605 0.013549667 0)
(0.045520543 0.013017798 0)
(0.034705876 0.01249568 0)
(0.024214187 0.011984215 0)
(0.014040139 0.011484598 0)
(0.0041785682 0.010997825 0)
(-0.0053755386 0.010525136 0)
(-0.014626965 0.010067595 0)
(-0.023580356 0.0096264676 0)
(-0.032240168 0.0092028745 0)
(-0.040610801 0.0087981312 0)
(-0.0486966 0.0084134578 0)
(-0.056502018 0.0080502747 0)
(-0.064031586 0.0077099749 0)
(-0.071290068 0.0073941604 0)
(-0.078282413 0.0071044851 0)
(-0.085013875 0.006842833 0)
(-0.091489944 0.0066112211 0)
(-0.097716447 0.006411904 0)
(-0.10369948 0.0062473171 0)
(-0.1094455 0.0061200863 0)
(-0.11496134 0.0060329869 0)
(-0.1202543 0.0059888592 0)
(-0.1253323 0.0059905935 0)
(-0.13020381 0.0060410073 0)
(-0.13487934 0.0061430402 0)
(-0.13936698 0.006299703 0)
(-0.14369165 0.0065151554 0)
(-0.14782603 0.0067917227 0)
(-0.1519487 0.0071354818 0)
(-0.15547943 0.0074950765 0)
(-0.16072778 0.0078598824 0)
(0.18772825 0.022858507 0)
(0.17298989 0.022172902 0)
(0.15863093 0.021486908 0)
(0.14466042 0.020804634 0)
(0.13107179 0.020126301 0)
(0.11785596 0.019452793 0)
(0.10500493 0.018785115 0)
(0.092511525 0.018124209 0)
(0.080369283 0.017471055 0)
(0.068572193 0.016826593 0)
(0.057114558 0.016191885 0)
(0.045990802 0.015567971 0)
(0.035195461 0.014956046 0)
(0.024723143 0.014357261 0)
(0.014568535 0.0137729 0)
(0.0047264925 0.013204188 0)
(-0.0048079791 0.012652463 0)
(-0.014039666 0.012119006 0)
(-0.022973207 0.011605186 0)
(-0.03161308 0.011112327 0)
(-0.0399637 0.010641847 0)
(-0.048029457 0.010195149 0)
(-0.055814826 0.0097737486 0)
(-0.063324392 0.009379199 0)
(-0.070562947 0.0090131907 0)
(-0.077535487 0.0086775188 0)
(-0.084247275 0.0083741575 0)
(-0.090703815 0.0081052623 0)
(-0.096910894 0.0078731989 0)
(-0.10287456 0.0076805662 0)
(-0.10860119 0.0075301562 0)
(-0.11409751 0.00742498 0)
(-0.11937073 0.0073681609 0)
(-0.12442875 0.007362975 0)
(-0.12928017 0.0074127532 0)
(-0.13393588 0.0075210795 0)
(-0.13840458 0.0076919858 0)
(-0.14271252 0.0079304354 0)
(-0.14683245 0.0082415592 0)
(-0.15094996 0.0086271821 0)
(-0.15446695 0.0090492016 0)
(-0.15972062 0.0094295728 0)
(0.18802637 0.026314499 0)
(0.17329573 0.025525613 0)
(0.15894894 0.024738347 0)
(0.14499087 0.023956195 0)
(0.13141423 0.023179371 0)
(0.1182102 0.022408596 0)
(0.10537085 0.021644976 0)
(0.092889045 0.020889502 0)
(0.080758364 0.020143387 0)
(0.068972849 0.019407688 0)
(0.057526834 0.018683704 0)
(0.046414795 0.017972582 0)
(0.035631298 0.017275723 0)
(0.025170989 0.016594373 0)
(0.015028588 0.015930006 0)
(0.0051989801 0.015283951 0)
(-0.0043228105 0.014657727 0)
(-0.013541542 0.014052722 0)
(-0.022461848 0.013470477 0)
(-0.031088191 0.012912419 0)
(-0.039424984 0.012380121 0)
(-0.047476603 0.011875083 0)
(-0.055247526 0.011398953 0)
(-0.062742318 0.010953365 0)
(-0.069965767 0.010540121 0)
(-0.07692283 0.010161089 0)
(-0.08361874 0.0098183463 0)
(-0.090058923 0.009514127 0)
(-0.096249084 0.0092509174 0)
(-0.10219514 0.0090314393 0)
(-0.10790331 0.0088586738 0)
(-0.11338019 0.0087358645 0)
(-0.11863286 0.0086664809 0)
(-0.12366922 0.0086542486 0)
(-0.12849806 0.0087031439 0)
(-0.13313072 0.0088175339 0)
(-0.13757689 0.0090027073 0)
(-0.14186395 0.0092643351 0)
(-0.14596696 0.0096113484 0)
(-0.15007209 0.010037293 0)
(-0.15358296 0.010531975 0)
(-0.15882671 0.010899375 0)
(0.1884101 0.029849662 0)
(0.17368018 0.028955518 0)
(0.15933815 0.028065012 0)
(0.14538484 0.027180898 0)
(0.13181264 0.026303464 0)
(0.11861286 0.02543341 0)
(0.10577767 0.024571891 0)
(0.09329998 0.023720031 0)
(0.081173411 0.022879211 0)
(0.06939204 0.022050664 0)
(0.057950263 0.021235864 0)
(0.046842602 0.020436117 0)
(0.036063687 0.019652977 0)
(0.025608208 0.018887832 0)
(0.015470935 0.018142296 0)
(0.0056467868 0.017417829 0)
(-0.0038691631 0.016716089 0)
(-0.013081646 0.016038596 0)
(-0.021995243 0.015387018 0)
(-0.030614389 0.014762908 0)
(-0.038943445 0.014167952 0)
(-0.04698675 0.013603757 0)
(-0.054748713 0.013072061 0)
(-0.062233851 0.012574587 0)
(-0.069446863 0.0121132 0)
(-0.07639263 0.011689844 0)
(-0.083076257 0.011306645 0)
(-0.089503043 0.010965924 0)
(-0.095678503 0.010670237 0)
(-0.10160836 0.010422446 0)
(-0.10729859 0.010225693 0)
(-0.11275558 0.010083512 0)
(-0.11798623 0.0099997449 0)
(-0.12299845 0.0099787137 0)
(-0.12780126 0.010025169 0)
(-0.13240662 0.010144526 0)
(-0.13682549 0.010343548 0)
(-0.14108647 0.010628997 0)
(-0.14516859 0.011013436 0)
(-0.14925401 0.011482866 0)
(-0.15276337 0.012049663 0)
(-0.15798772 0.012410251 0)
(0.20402609 0.034464068 0)
(0.18891059 0.0334722 0)
(0.17417781 0.032470827 0)
(0.15983583 0.031475329 0)
(0.14588226 0.030487547 0)
(0.13230921 0.029507742 0)
(0.11910822 0.028536696 0)
(0.10627154 0.027575597 0)
(0.093792171 0.026625755 0)
(0.081663788 0.025688683 0)
(0.069880541 0.024765838 0)
(0.058436881 0.023858826 0)
(0.047327412 0.022969155 0)
(0.036546822 0.022098486 0)
(0.026089877 0.021248382 0)
(0.01595141 0.020420552 0)
(0.0061264072 0.019616622 0)
(-0.0033899987 0.018838344 0)
(-0.012602465 0.018087389 0)
(-0.021515513 0.017365517 0)
(-0.030133498 0.016674412 0)
(-0.038460709 0.016015838 0)
(-0.046501389 0.015391508 0)
(-0.054259863 0.014803218 0)
(-0.061740531 0.014252762 0)
(-0.068947976 0.013742044 0)
(-0.075886931 0.013273051 0)
(-0.082562332 0.012847947 0)
(-0.088979265 0.012469087 0)
(-0.095143001 0.012139102 0)
(-0.10105896 0.011860948 0)
(-0.10673283 0.011637966 0)
(-0.11217066 0.011473968 0)
(-0.11737915 0.011373291 0)
(-0.12236614 0.01134092 0)
(-0.12714093 0.011382629 0)
(-0.13171613 0.011505094 0)
(-0.13610431 0.011716883 0)
(-0.14033511 0.012026292 0)
(-0.14439346 0.012449029 0)
(-0.14845263 0.012965642 0)
(-0.15196505 0.013600329 0)
(-0.15716099 0.013970127 0)
(0.20465331 0.038290462 0)
(0.18953063 0.03718134 0)
(0.17479443 0.036071032 0)
(0.1604499 0.034968736 0)
(0.14649287 0.033875364 0)
(0.13291555 0.032791342 0)
(0.11970967 0.031717455 0)
(0.10686765 0.030655068 0)
(0.094382562 0.029605587 0)
(0.082248181 0.028570754 0)
(0.070458727 0.027552152 0)
(0.059008744 0.026551605 0)
(0.047892916 0.025570731 0)
(0.037106029 0.024611378 0)
(0.026642927 0.023675198 0)
(0.016498537 0.022764067 0)
(0.0066679231 0.02187969 0)
(-0.0028536824 0.021023967 0)
(-0.012070854 0.020198649 0)
(-0.020988005 0.019405621 0)
(-0.029609401 0.018646637 0)
(-0.037939213 0.017923557 0)
(-0.045981581 0.017238143 0)
(-0.05374069 0.016592251 0)
(-0.061220816 0.015987697 0)
(-0.068426373 0.01542641 0)
(-0.07536192 0.014910377 0)
(-0.082032164 0.014441763 0)
(-0.088441935 0.014022938 0)
(-0.094596176 0.01365656 0)
(-0.10049995 0.013345689 0)
(-0.10615853 0.013093839 0)
(-0.11157757 0.01290518 0)
(-0.11676347 0.012784584 0)
(-0.12172393 0.012737923 0)
(-0.12646853 0.012772166 0)
(-0.13101056 0.012895662 0)
(-0.13536433 0.013119048 0)
(-0.13956071 0.013452817 0)
(-0.14359137 0.013915225 0)
(-0.14761899 0.014483536 0)
(-0.15113509 0.0151843 0)
(-0.15629987 0.015576702 0)
(0.22091285 0.04340979 0)
(0.20539392 0.042202288 0)
(0.19026405 0.040978244 0)
(0.17552435 0.039757937 0)
(0.16117614 0.038547 0)
(0.14721426 0.037346274 0)
(0.133631 0.036156194 0)
(0.12041837 0.034977776 0)
(0.10756893 0.033812417 0)
(0.095075884 0.032661786 0)
(0.082933115 0.031527706 0)
(0.071134951 0.030412028 0)
(0.059676025 0.029316655 0)
(0.048551133 0.028243437 0)
(0.037755156 0.02719428 0)
(0.027283049 0.026171034 0)
(0.017129844 0.025175617 0)
(0.0072907204 0.02420991 0)
(-0.0022389852 0.02327585 0)
(-0.011463724 0.022375338 0)
(-0.0203878 0.021510291 0)
(-0.02901535 0.020682578 0)
(-0.037350426 0.019894074 0)
(-0.045397027 0.019146614 0)
(-0.053159205 0.018442043 0)
(-0.060641069 0.017782201 0)
(-0.067846861 0.017168978 0)
(-0.074780924 0.016604342 0)
(-0.081447714 0.01609041 0)
(-0.087851742 0.015629525 0)
(-0.093997576 0.015224351 0)
(-0.099889826 0.014878011 0)
(-0.10553327 0.014594224 0)
(-0.11093306 0.014377528 0)
(-0.11609518 0.014233486 0)
(-0.12102713 0.014168976 0)
(-0.12573866 0.014192513 0)
(-0.13024374 0.01431443 0)
(-0.1345586 0.01454795 0)
(-0.13871531 0.01490627 0)
(-0.14271339 0.015410054 0)
(-0.14670321 0.016034702 0)
(-0.15022289 0.016802371 0)
(-0.15535129 0.017228441 0)
(0.22175879 0.047533615 0)
(0.20623252 0.046202828 0)
(0.19109796 0.044864455 0)
(0.17635561 0.04353268 0)
(0.16200382 0.042211472 0)
(0.14803693 0.040901595 0)
(0.13444744 0.039603788 0)
(0.12122757 0.038319136 0)
(0.1083701 0.037049286 0)
(0.095868373 0.035796004 0)
(0.083716393 0.034561362 0)
(0.071908599 0.033347313 0)
(0.060439742 0.032155981 0)
(0.049304727 0.030989302 0)
(0.038498561 0.029849364 0)
(0.028016314 0.028738082 0)
(0.017853146 0.027657526 0)
(0.0080043545 0.026609625 0)
(-0.0015345868 0.025596444 0)
(-0.010768008 0.024619917 0)
(-0.019700069 0.023682062 0)
(-0.028334785 0.022784762 0)
(-0.036676064 0.021929949 0)
(-0.044727775 0.021119444 0)
(-0.052493806 0.020355097 0)
(-0.059978114 0.019638694 0)
(-0.067184742 0.018972076 0)
(-0.07411781 0.018357123 0)
(-0.080781484 0.017795872 0)
(-0.087179927 0.017290584 0)
(-0.093317257 0.016843883 0)
(-0.099197565 0.016458942 0)
(-0.10482502 0.016139666 0)
(-0.11020417 0.015891038 0)
(-0.11534043 0.015719384 0)
(-0.12024095 0.015632853 0)
(-0.12491558 0.015641754 0)
(-0.1293789 0.015758938 0)
(-0.13364908 0.016000642 0)
(-0.13775965 0.016383569 0)
(-0.14171834 0.016930605 0)
(-0.14566346 0.017616831 0)
(-0.14918335 0.018454243 0)
(-0.15427047 0.018923818 0)
(0.23861028 0.053184071 0)
(0.22268592 0.051746623 0)
(0.2071547 0.050294407 0)
(0.19201817 0.048841207 0)
(0.17727442 0.047396443 0)
(0.16292007 0.045963182 0)
(0.1489491 0.044542506 0)
(0.13535419 0.04313527 0)
(0.12212781 0.041742866 0)
(0.10926291 0.040367019 0)
(0.096753037 0.03900977 0)
(0.084592313 0.037673269 0)
(0.072775313 0.03635973 0)
(0.061296902 0.035071337 0)
(0.050152118 0.033810249 0)
(0.039336086 0.032578588 0)
(0.028844013 0.031378452 0)
(0.018671192 0.030211929 0)
(0.0088130597 0.029081095 0)
(-0.00073477697 0.027988021 0)
(-0.0099765034 0.026934758 0)
(-0.018916147 0.025923307 0)
(-0.02755758 0.024955625 0)
(-0.03590458 0.024033601 0)
(-0.043960872 0.023159068 0)
(-0.051730201 0.022333794 0)
(-0.059216355 0.02155951 0)
(-0.066423187 0.020837927 0)
(-0.073354575 0.020170812 0)
(-0.080014382 0.019560044 0)
(-0.086406374 0.019007756 0)
(-0.092534171 0.018516479 0)
(-0.098401244 0.018089391 0)
(-0.10401105 0.017730596 0)
(-0.10936738 0.01744554 0)
(-0.11447492 0.01724147 0)
(-0.1193403 0.01712798 0)
(-0.12397328 0.017117593 0)
(-0.12838892 0.017226109 0)
(-0.13260729 0.017473498 0)
(-0.13666355 0.017880639 0)
(-0.14057413 0.018473025 0)
(-0.14446565 0.019226343 0)
(-0.14798037 0.020138371 0)
(-0.15301836 0.020661041 0)
(0.23960494 0.057617788 0)
(0.22367836 0.056051303 0)
(0.20814663 0.054478514 0)
(0.19301096 0.052909154 0)
(0.17826779 0.051349649 0)
(0.1639126 0.049802727 0)
(0.14993921 0.048269562 0)
(0.13634048 0.04675137 0)
(0.12310912 0.04524968 0)
(0.11023831 0.043766491 0)
(0.097721759 0.042303956 0)
(0.085553745 0.040864466 0)
(0.073728972 0.039450326 0)
(0.062242438 0.038063922 0)
(0.051089301 0.036707484 0)
(0.040264828 0.035383294 0)
(0.029764354 0.034093496 0)
(0.019583317 0.032840301 0)
(0.0097172925 0.031625808 0)
(0.00016203204 0.030452177 0)
(-0.0090865142 0.029321456 0)
(-0.018032227 0.028235701 0)
(-0.026678853 0.02719683 0)
(-0.035030034 0.026206731 0)
(-0.043089368 0.025267152 0)
(-0.050860458 0.024379789 0)
(-0.058346939 0.023546226 0)
(-0.065552472 0.022768027 0)
(-0.072480695 0.022046752 0)
(-0.079135143 0.021384078 0)
(-0.085519153 0.020781929 0)
(-0.091635778 0.020242685 0)
(-0.097487784 0.019769482 0)
(-0.10307778 0.019366594 0)
(-0.10840862 0.019039988 0)
(-0.11348407 0.018797925 0)
(-0.11830999 0.01865172 0)
(-0.12289578 0.018616445 0)
(-0.12725677 0.018711494 0)
(-0.13141475 0.018961234 0)
(-0.13540676 0.019391743 0)
(-0.13925794 0.020031579 0)
(-0.14308483 0.020858158 0)
(-0.14658539 0.021851694 0)
(-0.15156342 0.022437092 0)
(0.25696824 0.063820842 0)
(0.2406498 0.062142945 0)
(0.22472435 0.060449494 0)
(0.20919626 0.058755965 0)
(0.19406429 0.057068818 0)
(0.17932398 0.055392846 0)
(0.16497018 0.053730473 0)
(0.1509966 0.052083211 0)
(0.13739625 0.050452466 0)
(0.12416211 0.048840085 0)
(0.11128757 0.04724819 0)
(0.098766514 0.045679193 0)
(0.086593386 0.044135573 0)
(0.074763026 0.042619858 0)
(0.063270558 0.041134498 0)
(0.052111276 0.039681903 0)
(0.041280572 0.03826439 0)
(0.030773924 0.036884243 0)
(0.020586906 0.035543681 0)
(0.01071524 0.034244904 0)
(0.0011548139 0.032990054 0)
(-0.0080982816 0.031781239 0)
(-0.017047797 0.030620465 0)
(-0.025697351 0.029509654 0)
(-0.034050472 0.028450597 0)
(-0.042110638 0.02744497 0)
(-0.049881332 0.026494305 0)
(-0.057366046 0.025600024 0)
(-0.064568263 0.024763449 0)
(-0.071491377 0.023985888 0)
(-0.078138585 0.023268721 0)
(-0.084512755 0.022613592 0)
(-0.09061631 0.022022643 0)
(-0.096451203 0.021498907 0)
(-0.10201905 0.021046802 0)
(-0.10732156 0.020672827 0)
(-0.11236132 0.020386385 0)
(-0.11714308 0.020200725 0)
(-0.12167552 0.020133918 0)
(-0.1259739 0.020209536 0)
(-0.13006141 0.020457291 0)
(-0.13397702 0.020909457 0)
(-0.1377547 0.021598748 0)
(-0.1415026 0.022505116 0)
(-0.14497642 0.02358891 0)
(-0.14988009 0.024247357 0)
(0.25804633 0.068573905 0)
(0.2417328 0.066761522 0)
(0.22581371 0.064942359 0)
(0.21029305 0.063127013 0)
(0.1951678 0.061320313 0)
(0.18043303 0.059526033 0)
(0.1660832 0.057746566 0)
(0.152112 0.055983578 0)
(0.13851264 0.05423883 0)
(0.12527833 0.052514345 0)
(0.11240268 0.050812514 0)
(0.099879778 0.049135876 0)
(0.087704208 0.047487119 0)
(0.075870954 0.045868862 0)
(0.06437527 0.044283723 0)
(0.053212574 0.042734173 0)
(0.042378389 0.041222655 0)
(0.031868325 0.039751481 0)
(0.021678099 0.038322959 0)
(0.011803563 0.036939283 0)
(0.0022407447 0.03560264 0)
(-0.0070141395 0.034315097 0)
(-0.015964713 0.033078655 0)
(-0.024614489 0.031895147 0)
(-0.032966891 0.030766279 0)
(-0.041025305 0.02969357 0)
(-0.048793113 0.028678374 0)
(-0.056273687 0.027721858 0)
(-0.063470345 0.02682506 0)
(-0.070386245 0.025988933 0)
(-0.077024236 0.025214486 0)
(-0.083386681 0.024502974 0)
(-0.089475305 0.023856214 0)
(-0.095291131 0.023277046 0)
(-0.10083462 0.022769975 0)
(-0.10610608 0.022342038 0)
(-0.1111066 0.022003858 0)
(-0.11583941 0.021770859 0)
(-0.12031196 0.021664505 0)
(-0.12453887 0.021713273 0)
(-0.12854423 0.021953183 0)
(-0.1323689 0.022424109 0)
(-0.1360554 0.023164248 0)
(-0.13970604 0.024157363 0)
(-0.14313557 0.0253424 0)
(-0.14794429 0.026085421 0)
(0.27584487 0.075348299 0)
(0.25915024 0.073419706 0)
(0.24284552 0.071475426 0)
(0.22693765 0.069530419 0)
(0.21142789 0.067591883 0)
(0.19631242 0.06566378 0)
(0.18158604 0.063749395 0)
(0.16724302 0.06185107 0)
(0.15327708 0.059970789 0)
(0.13968161 0.058110536 0)
(0.12645008 0.056272635 0)
(0.11357628 0.05445963 0)
(0.10105452 0.052674282 0)
(0.088879528 0.050919383 0)
(0.077046431 0.049197727 0)
(0.065550601 0.047511997 0)
(0.054387581 0.045864799 0)
(0.043553016 0.044258608 0)
(0.033042646 0.042695829 0)
(0.022852316 0.041178765 0)
(0.012978013 0.039709661 0)
(0.0034158859 0.03829066 0)
(-0.0058377302 0.036923824 0)
(-0.014786353 0.035611067 0)
(-0.0234334 0.034354144 0)
(-0.031782223 0.033154601 0)
(-0.039836137 0.032013783 0)
(-0.047598452 0.030932783 0)
(-0.055072449 0.029912471 0)
(-0.062261306 0.0289535 0)
(-0.069167956 0.028056395 0)
(-0.075794893 0.027221675 0)
(-0.082143946 0.026450106 0)
(-0.08821607 0.025743052 0)
(-0.09401124 0.025103058 0)
(-0.099528554 0.024534626 0)
(-0.10476667 0.024045295 0)
(-0.10972475 0.023646956 0)
(-0.11440397 0.023357391 0)
(-0.11880986 0.023201877 0)
(-0.12295566 0.02321449 0)
(-0.1268655 0.023438761 0)
(-0.13058174 0.023923675 0)
(-0.13415513 0.024715024 0)
(-0.1376846 0.025801825 0)
(-0.1410461 0.027100755 0)
(-0.14573346 0.027941555 0)
(0.27695186 0.080425256 0)
(0.26027091 0.078360138 0)
(0.24398051 0.076285611 0)
(0.22808786 0.074213819 0)
(0.21259246 0.072150424 0)
(0.19748997 0.070099069 0)
(0.18277504 0.068062749 0)
(0.16844187 0.066043935 0)
(0.15448426 0.064044807 0)
(0.1408958 0.062067674 0)
(0.12767018 0.060115061 0)
(0.11480145 0.058189754 0)
(0.10228405 0.056294647 0)
(0.090112908 0.054432706 0)
(0.078283259 0.052606813 0)
(0.0667906 0.050819779 0)
(0.055630584 0.049074259 0)
(0.044798975 0.047372817 0)
(0.034291632 0.045717871 0)
(0.024104523 0.044111765 0)
(0.014233754 0.042556716 0)
(0.0046755859 0.041054857 0)
(-0.004573546 0.039608172 0)
(-0.01351707 0.038218497 0)
(-0.022158337 0.036887439 0)
(-0.03050065 0.035616375 0)
(-0.03854729 0.034406394 0)
(-0.046301532 0.033258293 0)
(-0.0537666 0.032172551 0)
(-0.060945563 0.031149367 0)
(-0.067841151 0.030188721 0)
(-0.074455509 0.029290539 0)
(-0.080789904 0.02845495 0)
(-0.086844454 0.027682739 0)
(-0.092617962 0.026976002 0)
(-0.098107957 0.026339119 0)
(-0.10331111 0.025780033 0)
(-0.10822418 0.025311894 0)
(-0.11284563 0.024954952 0)
(-0.11717818 0.024738644 0)
(-0.12123257 0.024703369 0)
(-0.12503176 0.024901402 0)
(-0.12861883 0.025392824 0)
(-0.13205184 0.026233584 0)
(-0.13542958 0.027420471 0)
(-0.13869093 0.028848205 0)
(-0.14321873 0.029802571 0)
(0.27806654 0.085596844 0)
(0.26140215 0.083397587 0)
(0.24513019 0.081192597 0)
(0.22925647 0.078992576 0)
(0.21377883 0.076802591 0)
(0.19869258 0.074626106 0)
(0.1839923 0.072466083 0)
(0.16967219 0.0703251 0)
(0.15572618 0.068205637 0)
(0.14214804 0.066110242 0)
(0.12893171 0.064041708 0)
(0.11607143 0.062002988 0)
(0.10356185 0.059997165 0)
(0.091398023 0.058027306 0)
(0.079575317 0.056096427 0)
(0.068089337 0.054207399 0)
(0.056935841 0.052362969 0)
(0.046110701 0.050565721 0)
(0.035609885 0.048818121 0)
(0.025429472 0.047122493 0)
(0.015565674 0.045481049 0)
(0.00601485 0.043895847 0)
(-0.0032264857 0.042368805 0)
(-0.012161699 0.040901617 0)
(-0.0207941 0.039495734 0)
(-0.029126982 0.038152292 0)
(-0.03716363 0.036872095 0)
(-0.044907329 0.035655559 0)
(-0.052361291 0.034502711 0)
(-0.059528521 0.033413184 0)
(-0.06641158 0.032386316 0)
(-0.073012275 0.031421291 0)
(-0.0793313 0.030517467 0)
(-0.085367881 0.029674865 0)
(-0.091119518 0.028894968 0)
(-0.096581954 0.028181841 0)
(-0.10174951 0.027543681 0)
(-0.10661598 0.026994769 0)
(-0.11117629 0.026557848 0)
(-0.11542922 0.026266728 0)
(-0.11938151 0.026168791 0)
(-0.12305317 0.026326397 0)
(-0.12648645 0.026812938 0)
(-0.12974539 0.027698136 0)
(-0.13293103 0.028989912 0)
(-0.13604845 0.030562493 0)
(-0.14036659 0.031648466 0)
(0.2791804 0.090869268 0)
(0.26253591 0.088533713 0)
(0.24628652 0.086196577 0)
(0.23043536 0.083866534 0)
(0.21497899 0.081548092 0)
(0.1999124 0.079244649 0)
(0.18523016 0.076959182 0)
(0.17092652 0.074694475 0)
(0.15699555 0.072453238 0)
(0.14343124 0.07023831 0)
(0.13022774 0.068052692 0)
(0.11737952 0.065899546 0)
(0.10488138 0.063782088 0)
(0.092728533 0.061703522 0)
(0.080916447 0.059666941 0)
(0.069440832 0.057675308 0)
(0.058297542 0.055731405 0)
(0.047482542 0.053837864 0)
(0.0369919 0.051997146 0)
(0.026821791 0.05021157 0)
(0.016968519 0.048483292 0)
(0.0074285183 0.046814308 0)
(-0.0018016406 0.045206406 0)
(-0.01072529 0.043661139 0)
(-0.019345737 0.042179735 0)
(-0.027666303 0.040763066 0)
(-0.035690332 0.039411578 0)
(-0.04342117 0.038125252 0)
(-0.050862077 0.036903562 0)
(-0.058016049 0.035745493 0)
(-0.064885523 0.034649601 0)
(-0.071472006 0.033614197 0)
(-0.077775623 0.032637683 0)
(-0.083794662 0.03171913 0)
(-0.089525212 0.030859173 0)
(-0.094961003 0.030061328 0)
(-0.10009362 0.029333773 0)
(-0.10491325 0.028691697 0)
(-0.10941033 0.028160138 0)
(-0.11357822 0.027777345 0)
(-0.11741772 0.027598105 0)
(-0.12094341 0.027696184 0)
(-0.12419411 0.028160816 0)
(-0.12723732 0.029079855 0)
(-0.13017902 0.030477773 0)
(-0.133093 0.032211781 0)
(-0.13712749 0.033451483 0)
(0.29728826 0.098706316 0)
(0.28028227 0.096243166 0)
(0.26366291 0.0937687 0)
(0.24744079 0.091297414 0)
(0.23161614 0.088835459 0)
(0.21618468 0.086386718 0)
(0.20114134 0.083954514 0)
(0.1864807 0.081541941 0)
(0.17219713 0.079151973 0)
(0.15828486 0.076787601 0)
(0.14473811 0.074451904 0)
(0.13155123 0.072148122 0)
(0.11871888 0.06987958 0)
(0.10623604 0.067649648 0)
(0.094098029 0.065461626 0)
(0.082300443 0.063318702 0)
(0.070839073 0.061223886 0)
(0.059709855 0.059180012 0)
(0.048908839 0.057189719 0)
(0.038432176 0.05525547 0)
(0.028276123 0.053379544 0)
(0.018437054 0.05156404 0)
(0.0089114581 0.049810844 0)
(-0.00030406777 0.048121614 0)
(-0.009212859 0.046497704 0)
(-0.01781826 0.044940104 0)
(-0.026123673 0.043449357 0)
(-0.034132557 0.042025506 0)
(-0.041848387 0.040668014 0)
(-0.049274544 0.03937573 0)
(-0.056414085 0.038146868 0)
(-0.063269395 0.036979085 0)
(-0.069841734 0.03586965 0)
(-0.076130687 0.034815827 0)
(-0.082133592 0.033815501 0)
(-0.087845038 0.032868195 0)
(-0.093256534 0.03197654 0)
(-0.098356524 0.031148338 0)
(-0.10313093 0.030399242 0)
(-0.10756454 0.029756206 0)
(-0.11164357 0.029261592 0)
(-0.11536036 0.028977812 0)
(-0.11872055 0.028990986 0)
(-0.12175555 0.029409044 0)
(-0.12453207 0.030343297 0)
(-0.12716134 0.031842335 0)
(-0.12978861 0.033752806 0)
(-0.13343754 0.035169158 0)
(0.29833824 0.10432704 0)
(0.28136129 0.10171577 0)
(0.26477391 0.099101675 0)
(0.248584 0.096494657 0)
(0.23278991 0.093898957 0)
(0.21738724 0.091318106 0)
(0.20237093 0.088755433 0)
(0.1877357 0.086214167 0)
(0.17347605 0.083697518 0)
(0.1595864 0.081208727 0)
(0.14606116 0.078751132 0)
(0.13289492 0.076328171 0)
(0.12008249 0.07394335 0)
(0.10761903 0.071600158 0)
(0.095499974 0.069302 0)
(0.083720994 0.067052129 0)
(0.072277966 0.06485361 0)
(0.061166897 0.062709296 0)
(0.050383906 0.060621836 0)
(0.039925211 0.058593664 0)
(0.029787131 0.056627015 0)
(0.019966089 0.0547239 0)
(0.010458602 0.052886088 0)
(0.0012612601 0.051115062 0)
(-0.007629318 0.049411961 0)
(-0.016216564 0.047777485 0)
(-0.024504019 0.046211815 0)
(-0.032495326 0.044714521 0)
(-0.040194174 0.043284489 0)
(-0.047604148 0.041919843 0)
(-0.05472846 0.04061793 0)
(-0.061569537 0.03937536 0)
(-0.068128476 0.038188202 0)
(-0.074404388 0.037052368 0)
(-0.080393686 0.035964304 0)
(-0.086089412 0.034922094 0)
(-0.091480687 0.033927084 0)
(-0.096552448 0.032986166 0)
(-0.10128563 0.032114842 0)
(-0.10565814 0.031341208 0)
(-0.10964703 0.030711068 0)
(-0.11323296 0.030293933 0)
(-0.11640803 0.030188948 0)
(-0.11919011 0.030524953 0)
(-0.12163801 0.031443262 0)
(-0.12386637 0.033026346 0)
(-0.12609244 0.035120521 0)
(-0.12920235 0.036739885 0)
(0.33441793 0.11551475 0)
(0.31668504 0.11278346 0)
(0.29935151 0.11004213 0)
(0.2824091 0.10728557 0)
(0.26585975 0.10453193 0)
(0.24970666 0.10178773 0)
(0.23394736 0.099056587 0)
(0.21857753 0.096341921 0)
(0.20359231 0.093647151 0)
(0.18898655 0.090975702 0)
(0.17475495 0.088331023 0)
(0.16089209 0.085716618 0)
(0.14739263 0.083136057 0)
(0.13425132 0.080592985 0)
(0.12146317 0.078091059 0)
(0.10902345 0.07563389 0)
(0.096927711 0.073224967 0)
(0.085171706 0.070867602 0)
(0.07375137 0.068564894 0)
(0.062662768 0.066319714 0)
(0.051902071 0.064134694 0)
(0.041465546 0.062012239 0)
(0.031349552 0.05995451 0)
(0.021550537 0.057963421 0)
(0.012065015 0.056040595 0)
(0.0028895269 0.054187323 0)
(-0.0059794002 0.05240449 0)
(-0.014545344 0.050692476 0)
(-0.022812054 0.049051047 0)
(-0.030783441 0.047479255 0)
(-0.038463498 0.045975331 0)
(-0.045856124 0.044536597 0)
(-0.052964803 0.043159414 0)
(-0.059792125 0.041839219 0)
(-0.066339146 0.040570704 0)
(-0.07260461 0.039348215 0)
(-0.078584091 0.038166475 0)
(-0.084269099 0.037021759 0)
(-0.089646275 0.035913627 0)
(-0.09469674 0.034847399 0)
(-0.099395791 0.033837514 0)
(-0.10371317 0.032912088 0)
(-0.10761452 0.032118978 0)
(-0.11106499 0.031533609 0)
(-0.11403714 0.031267441 0)
(-0.11652645 0.031472274 0)
(-0.11857246 0.032325312 0)
(-0.12028524 0.033955967 0)
(-0.12194545 0.036228238 0)
(-0.12429193 0.038068449 0)
(0.35337226 0.12449219 0)
(0.33529339 0.12162626 0)
(0.3176079 0.11874603 0)
(0.30031619 0.11585219 0)
(0.28341659 0.11295251 0)
(0.26691055 0.1100588 0)
(0.2507988 0.10717604 0)
(0.23507865 0.10430785 0)
(0.21974599 0.10145776 0)
(0.20479617 0.098629375 0)
(0.19022426 0.095826358 0)
(0.17602513 0.093052412 0)
(0.16219358 0.09031129 0)