/*--------------------------------*- C++ -*----------------------------------*\
| =========                 |                                                 |
| \\      /  F ield         | OpenFOAM: The Open Source CFD Toolbox           |
|  \\    /   O peration     | Version:  2312                                  |
|   \\  /    A nd           | Website:  www.openfoam.com                      |
|    \\/     M anipulation  |                                                 |
\*---------------------------------------------------------------------------*/
FoamFile
{
    version     2.0;
    format      ascii;
    arch        "LSB;label=32;scalar=64";
    class       volScalarField;
    location    "0.08";
    object      CH4;
}
// * * * * * * * * * * * * * * * * * * * * * * * * * * * * * * * * * * * * * //

dimensions      [0 0 0 0 0 0 0];

internalField   nonuniform List<scalar> 
3275
(
0.96858611
0.8594404
0.74125979
0.63914347
0.55537557
0.48892461
0.43511004
0.39100311
0.35433542
0.32355703
0.29742476
0.27868216
0.26071165
0.2453297
0.23216753
0.22080977
0.21091702
0.20221557
0.19449288
0.18758397
0.18135955
0.17571588
0.17056874
0.16584993
0.16150334
0.15748236
0.15374795
0.15026719
0.14701206
0.14395863
0.14108624
0.13837705
0.13581548
0.13338792
0.13108239
0.12888831
0.12679628
0.12479794
0.1228858
0.12105314
0.1192939
0.11760261
0.1159743
0.11440445
0.11288902
0.11142422
0.11000654
0.10863276
0.10729992
0.10600528
0.10474628
0.10352051
0.95132678
0.82625744
0.71473675
0.62028292
0.54241406
0.48037969
0.4292726
0.38693511
0.35141404
0.3214176
0.2958388
0.27741781
0.25973009
0.24455359
0.23154179
0.22029674
0.21049005
0.20185544
0.19418546
0.18731874
0.18112851
0.1755129
0.17038903
0.16568973
0.16135964
0.15735273
0.15363042
0.15016013
0.14691413
0.1438687
0.14100337
0.13830042
0.13574441
0.13332183
0.13102077
0.12883071
0.12674233
0.1247473
0.12283817
0.12100826
0.11925155
0.11756258
0.11593641
0.11436855
0.11285494
0.11139181
0.10997568
0.10860334
0.10727185
0.10597846
0.10472063
0.10349597
0.90240649
0.75858479
0.66310487
0.58402631
0.5174564
0.46397582
0.41806152
0.37902454
0.34569725
0.31721426
0.29271243
0.27491765
0.25778941
0.24301543
0.23029964
0.21927708
0.20964056
0.20113831
0.19357285
0.18678985
0.18066753
0.17510769
0.17003012
0.16536963
0.16107239
0.15709351
0.1533953
0.14994588
0.14671808
0.14368859
0.14083732
0.13814684
0.13560193
0.13318928
0.13089713
0.12871511
0.126634
0.12464557
0.12274246
0.12091805
0.11916637
0.11748202
0.11586011
0.11429619
0.1127862
0.11132643
0.10991341
0.10854396
0.10721516
0.10592428
0.1046688
0.10344635
0.79362853
0.652931
0.59113964
0.53410626
0.48274867
0.44124975
0.40225635
0.36771911
0.33745276
0.31111093
0.28814628
0.27124554
0.25493822
0.24074641
0.22846224
0.21776563
0.20837925
0.20007203
0.19266092
0.18600176
0.17998008
0.17450296
0.16949415
0.16489137
0.160643
0.15670585
0.15304356
0.14962525
0.14642458
0.14341889
0.14058862
0.13791674
0.13538841
0.13299058
0.13071175
0.12854175
0.12647151
0.12449295
0.12259883
0.12078263
0.11903848
0.11736105
0.11574551
0.11418746
0.11268291
0.11122816
0.1098198
0.10845468
0.10712992
0.10584281
0.10459085
0.1033717
0.57295036
0.51934512
0.50204723
0.47550999
0.44361037
0.41216356
0.38249597
0.3536201
0.32704012
0.30333027
0.28227999
0.26649021
0.25124318
0.23779
0.22605944
0.21578352
0.2067214
0.19866786
0.19145811
0.18496092
0.17907112
0.17370263
0.16878424
0.16425746
0.16007353
0.15619146
0.15257659
0.14919941
0.14603462
0.14306044
0.14025796
0.13761074
0.13510438
0.13272621
0.13046506
0.12831099
0.12625517
0.12428972
0.12240754
0.12060225
0.11886809
0.11719985
0.11559276
0.11404253
0.11254519
0.11109712
0.10969495
0.10833561
0.10701621
0.10573411
0.10448684
0.10327209
0.22633756
0.38086981
0.4172725
0.41790458
0.40470822
0.38402501
0.36063036
0.33819974
0.31557165
0.29466379
0.27568699
0.26108962
0.2470399
0.23440565
0.22329679
0.21349662
0.20480313
0.19703926
0.19006028
0.18374931
0.17801156
0.17276859
0.16795489
0.16351625
0.15940715
0.15558914
0.1520295
0.14870025
0.14557733
0.14263991
0.13986991
0.1372515
0.13477084
0.13241568
0.1301752
0.12803979
0.12600088
0.12405078
0.12218259
0.12039009
0.11866766
0.11701018
0.11541303
0.11387195
0.11238308
0.11094285
0.10954797
0.1081954
0.10688231
0.1056061
0.10436434
0.10315475
0.10680584
0.28162163
0.34680218
0.3669799
0.36645129
0.3557198
0.33925409
0.32187888
0.30360272
0.28550392
0.26866165
0.25526759
0.24249475
0.23072552
0.22027963
0.21099005
0.20269432
0.19524443
0.18851656
0.18240892
0.17683764
0.17173246
0.16703392
0.1626924
0.15866591
0.15491869
0.15142015
0.148144
0.14506749
0.14217087
0.13943692
0.13685054
0.13439844
0.13206887
0.12985141
0.12773679
0.1257167
0.1237837
0.12193111
0.12015287
0.1184435
0.11679804
0.11521195
0.11368109
0.11220167
0.1107702
0.10938346
0.10803845
0.10673242
0.10546279
0.10422718
0.10302335
0.060736963
0.20677066
0.28355842
0.31777955
0.32850689
0.32641626
0.31719519
0.30438652
0.29023891
0.27534781
0.26081584
0.24867154
0.23731003
0.2265105
0.21680723
0.20809326
0.20024872
0.19315687
0.18671671
0.18084293
0.1754638
0.17051809
0.16595318
0.1617246
0.15779434
0.15412973
0.1507026
0.14748856
0.14446641
0.14161763
0.13892599
0.13637721
0.13395868
0.1316592
0.12946882
0.12737865
0.12538073
0.12346789
0.12163367
0.11987224
0.1181783
0.11654701
0.11497397
0.11345517
0.11198691
0.11056578
0.10918864
0.10785257
0.10655487
0.10529303
0.1040647
0.10286768
0.040400132
0.15447601
0.23117305
0.27309132
0.29229998
0.29753828
0.29440561
0.28651625
0.27587673
0.26426298
0.25228291
0.2413808
0.23147513
0.22177997
0.21288816
0.20480831
0.19746435
0.19077224
0.18465498
0.17904491
0.17388327
0.16911869
0.16470597
0.16060635
0.15678621
0.1532163
0.14987117
0.14672857
0.14376901
0.14097537
0.13833256
0.1358272
0.13344747
0.13118279
0.12902376
0.12696191
0.12498968
0.1231002
0.12128731
0.11954538
0.11786933
0.11625449
0.11469663
0.11319184
0.11173654
0.11032744
0.10896147
0.1076358
0.10634779
0.105095
0.10387513
0.10268606
0.029925114
0.11829982
0.18895144
0.23384702
0.25865863
0.26969901
0.27170723
0.26820334
0.26122318
0.25231512
0.24300172
0.23365999
0.22502225
0.21655893
0.20853759
0.20114219
0.19434297
0.18808895
0.18232776
0.17700998
0.1720905
0.16752834
0.16328627
0.15933166
0.15563565
0.15217272
0.14892039
0.14585877
0.14297028
0.14023932
0.13765207
0.1351962
0.1328607
0.13063575
0.12851251
0.12648305
0.12454018
0.12267745
0.12088896
0.11916937
0.11751382
0.11591785
0.11437738
0.11288866
0.11144824
0.11005294
0.1086998
0.10738607
0.1061092
0.10486681
0.10365668
0.10247672
0.023696356
0.093044258
0.15544054
0.20007419
0.22806778
0.24334706
0.2496188
0.24984922
0.24623757
0.24007422
0.23300419
0.22555007
0.21806998
0.21082762
0.2037775
0.19710686
0.19089014
0.18510841
0.17973373
0.17473507
0.1700813
0.1657422
0.16168889
0.15789518
0.15433727
0.15099367
0.14784506
0.14487413
0.14206535
0.13940481
0.13688006
0.1344799
0.13219429
0.13001416
0.12793135
0.12593848
0.12402884
0.12219636
0.12043551
0.11874124
0.11710893
0.11553435
0.11401361
0.11254314
0.11111962
0.10974
0.10840143
0.10710128
0.10583707
0.10460651
0.10340745
0.10223787
0.01953984
0.075033548
0.12901969
0.17141334
0.20070257
0.21882516
0.22841223
0.23186737
0.23112658
0.22766
0.22259763
0.21688818
0.21083546
0.20460408
0.19863123
0.19271896
0.18711526
0.1818351
0.17687402
0.17221904
0.16785305
0.16375666
0.15990957
0.15629228
0.15288628
0.14967427
0.14664034
0.14376987
0.14104956
0.1384673
0.13601214
0.1336741
0.13144416
0.12931412
0.12727653
0.12532462
0.1234522
0.12165366
0.11992382
0.11825796
0.11665176
0.11510122
0.11360267
0.11215271
0.11074821
0.10938624
0.10806409
0.10677923
0.10552929
0.10431207
0.10312549
0.10196761
0.016525684
0.061839717
0.10818296
0.14731147
0.17652537
0.19631741
0.20834312
0.21443489
0.21621577
0.21504792
0.21202359
0.20786644
0.20319237
0.19811367
0.19306667
0.18800023
0.18303148
0.1782766
0.17375231
0.16946285
0.16540477
0.16156943
0.15794515
0.15451922
0.15127854
0.14821021
0.14530179
0.14254154
0.1399185
0.13742247
0.13504408
0.13277467
0.13060633
0.12853177
0.12654433
0.12463789
0.12280684
0.12104602
0.11935068
0.11771647
0.11613936
0.11461562
0.11314182
0.11171477
0.11033149
0.10898924
0.10768544
0.10641768
0.1051837
0.1039814
0.10280879
0.10166401
0.014213119
0.051901892
0.09165968
0.12714388
0.15536147
0.17588537
0.18957526
0.19772541
0.20164095
0.20248379
0.20126543
0.19868783
0.19524809
0.19134593
0.18717509
0.18293652
0.17865531
0.17444358
0.17037489
0.16646959
0.16273728
0.15917968
0.15579365
0.15257321
0.14951075
0.14659778
0.1438255
0.14118512
0.13866809
0.13626625
0.13397186
0.13177768
0.12967695
0.12766337
0.12573111
0.12387477
0.12208932
0.12037014
0.11871293
0.1171137
0.11556877
0.11407471
0.11262832
0.11122665
0.10986692
0.10854655
0.10726311
0.10601433
0.10479808
0.10361236
0.10245528
0.10132507
0.012370629
0.044217959
0.078439609
0.11029204
0.13695448
0.15749985
0.17219764
0.181875
0.18752303
0.19010572
0.19048062
0.18934299
0.18716159
0.18428622
0.18106172
0.17756359
0.17398853
0.17034965
0.16675062
0.16324457
0.15985323
0.15658816
0.15345439
0.15045255
0.14758045
0.14483404
0.14220817
0.13969707
0.13729468
0.13499489
0.13279172
0.13067937
0.12865231
0.12670528
0.12483332
0.12303178
0.12129629
0.11962276
0.11800738
0.11644658
0.11493702
0.1134756
0.11205939
0.11068568
0.10935189
0.10805564
0.10679467
0.10556685
0.10437018
0.10320277
0.10206285
0.10094874
0.010864136
0.038135807
0.067747378
0.096189833
0.12100798
0.14106705
0.15623871
0.16697318
0.17397462
0.17800741
0.17979234
0.17993472
0.17892187
0.17707988
0.17469206
0.1719894
0.16903677
0.16600273
0.16289092
0.15979534
0.15675723
0.15379725
0.15092809
0.14815672
0.14548619
0.14291686
0.14044719
0.13807443
0.13579504
0.13360505
0.13150022
0.12947627
0.12752893
0.12565403
0.12384753
0.12210557
0.12042444
0.11880066
0.11723091
0.11571206
0.11424116
0.11281543
0.11143224
0.11008914
0.10878379
0.10751399
0.10627767
0.10507285
0.10389768
0.10275039
0.10162933
0.10053292
0.0096090338
0.033221881
0.058998637
0.084345295
0.10721633
0.12645058
0.1416793
0.1530691
0.16107837
0.16628399
0.16927217
0.1705665
0.170599
0.16972266
0.16818244
0.16618076
0.16390011
0.16139494
0.15880608
0.15613162
0.15345579
0.15081104
0.14821695
0.14568644
0.14322761
0.14084502
0.1385407
0.13631489
0.13416655
0.13209383
0.1300943
0.12816522
0.1263036
0.1245064
0.12277052
0.12109293
0.11947063
0.11790073
0.11638046
0.11490715
0.11347825
0.11209134
0.11074411
0.10943436
0.10816
0.10691906
0.10570964
0.10452994
0.10337826
0.10225297
0.10115253
0.10007548
0.008548144
0.029180518
0.051755748
0.074345172
0.095285907
0.11348985
0.12846454
0.14017773
0.14888928
0.15500969
0.15899823
0.16129352
0.1622779
0.16226786
0.16152811
0.1602354
0.15854778
0.156616
0.1544824
0.15226432
0.14995736
0.14763536
0.14532467
0.14304377
0.14080545
0.13861829
0.13648771
0.13441686
0.13240716
0.13045887
0.12857137
0.12674344
0.12497342
0.12325941
0.12159928
0.11999083
0.11843182
0.11691998
0.11545308
0.11402895
0.11264546
0.11130056
0.10999226
0.10871866
0.10747793
0.1062683
0.10508811
0.10393572
0.10280959
0.10170823
0.10063024
0.09957428
0.0076410943
0.025805536
0.045690275
0.065849706
0.084947644
0.10201486
0.11651472
0.12828627
0.13743766
0.14423886
0.14903437
0.15217943
0.15400212
0.15478659
0.15476981
0.15414898
0.15306255
0.15163848
0.14999931
0.14817801
0.14627244
0.14427776
0.14225653
0.14023215
0.13822173
0.13623751
0.13428815
0.13237956
0.13051556
0.12869843
0.12692934
0.12520859
0.12353588
0.12191041
0.12033107
0.1187965
0.11730521
0.11585558
0.11444596
0.11307467
0.11174002
0.11044035
0.10917402
0.10793942
0.10673499
0.10555921
0.10441062
0.10328778
0.10218932
0.1011139
0.10006025
0.099027146
0.0068582628
0.022950592
0.04055597
0.058583113
0.075962905
0.091857044
0.10573478
0.11736044
0.12673249
0.13400759
0.13943042
0.1432782
0.14582372
0.14731479
0.14796555
0.14795547
0.14744083
0.14653285
0.14533323
0.1439423
0.14238661
0.1407475
0.13901934
0.13725643
0.13547968
0.13370464
0.13194295
0.1302031
0.12849117
0.1268114
0.12516669
0.12355886
0.1219889
0.12045715
0.11896349
0.11750743
0.11608822
0.11470493
0.11335646
0.11204167
0.11075931
0.10950811
0.1082868
0.10709408
0.10592868
0.10478932
0.10367476
0.10258377
0.10151514
0.10046771
0.099440349
0.0061772518
0.020509179
0.036167734
0.052323828
0.06812479
0.082856554
0.096022243
0.10735048
0.11676519
0.12433558
0.13022278
0.13463387
0.13778821
0.13989563
0.14114553
0.14170374
0.14171228
0.14129607
0.14054435
0.13953801
0.13835977
0.13703231
0.13562147
0.13412288
0.13258386
0.13102282
0.12945408
0.12788851
0.12633426
0.12479742
0.12328257
0.12179297
0.12033089
0.11889779
0.11749452
0.11612144
0.11477858
0.11346565
0.11218217
0.11092749
0.10970084
0.10850137
0.10732814
0.10618021
0.10505658
0.10395624
0.10287817
0.10182135
0.10078477
0.099767423
0.09876836
0.0055807439
0.018401982
0.032385226
0.046896014
0.061256882
0.07486644
0.087273293
0.098196523
0.10751337
0.11522844
0.12143544
0.12628069
0.12993399
0.13256817
0.13434712
0.13541996
0.13591819
0.13595509
0.13563006
0.13501638
0.13417778
0.13318327
0.13205285
0.13083904
0.12954016
0.12819638
0.1268246
0.12543782
0.12404599
0.12265694
0.12127683
0.1199103
0.11856084
0.117231
0.11592256
0.11463675
0.11337433
0.11213568
0.11092092
0.10972991
0.10856236
0.10741781
0.10629573
0.10519549
0.10411638
0.10305766
0.10201856
0.10099827
0.099995976
0.099010851
0.098042096
0.0050551158
0.016568726
0.029100391
0.042160897
0.055212748
0.067755314
0.079387101
0.089833194
0.098944499
0.10668011
0.11308126
0.11824356
0.12229285
0.12536736
0.12760523
0.12913715
0.13008196
0.13054465
0.13061583
0.13037506
0.12988392
0.12919186
0.12835652
0.1273979
0.1263544
0.12523087
0.12405872
0.12285409
0.12162849
0.12039125
0.11915007
0.11791089
0.11667834
0.11545598
0.11424652
0.113052
0.11187391
0.11071331
0.10957086
0.10844698
0.10734182
0.10625537
0.10518744
0.10413775
0.1031059
0.10209141
0.10109377
0.10011238
0.099146629
0.098195869
0.097259453
0.0045894979
0.014962784
0.026228867
0.038007653
0.049872558
0.061410302
0.072270502
0.082193936
0.091019431
0.098675617
0.10516424
0.11053993
0.11489098
0.11832397
0.12095199
0.12288667
0.12423295
0.12508615
0.12553054
0.12563912
0.1254759
0.12509412
0.12453009
0.12383432
0.12302349
0.12213008
0.12116177
0.12014149
0.11908485
0.11800252
0.11690372
0.11579553
0.11468364
0.11357255
0.11246584
0.11136633
0.11027622
0.10919719
0.1081305
0.10707706
0.10603749
0.10501219
0.10400136
0.10300504
0.10202315
0.10105549
0.10010177
0.099161644
0.098234693
0.097320462
0.0041751127
0.013547517
0.023703952
0.034346903
0.045137276
0.055735876
0.065841426
0.075216357
0.083697711
0.091195467
0.097682744
0.10318187
0.1077497
0.11146472
0.11441651
0.11669793
0.11839951
0.11960596
0.12039412
0.12083208
0.12097926
0.12088778
0.12060239
0.12015472
0.1195721
0.11889571
0.11813538
0.11730529
0.11641925
0.11549386
0.11454007
0.11356579
0.11257773
0.11158119
0.11058056
0.10957941
0.10858061
0.10758645
0.10659873
0.10561886
0.10464793
0.10368673
0.10273585
0.10179565
0.10086635
0.099948045
0.099040694
0.09814417
0.097258272
0.096382745
0.0038047963
0.012293734
0.021472294
0.031105928
0.040924422
0.050650443
0.060027904
0.068843868
0.076940738
0.08421887
0.090631765
0.096177069
0.10088589
0.10481241
0.10802486
0.1105982
0.11260864
0.11412983
0.11523044
0.11597279
0.11641237
0.11659799
0.11657163
0.11637101
0.11602012
0.11554878
0.11498713
0.1143444
0.11363697
0.11286925
0.11206229
0.11122408
0.11036238
0.10948308
0.10859138
0.10769153
0.106787
0.10588069
0.1049749
0.10407153
0.10317209
0.10227779
0.10138956
0.10050811
0.099633972
0.098767488
0.097908882
0.097058257
0.096215626
0.095380925
0.0034726459
0.011177883
0.019490752
0.028225076
0.037164863
0.046083868
0.054766326
0.063024693
0.07071143
0.077723936
0.084003374
0.089529294
0.094312304
0.098386108
0.1018
0.1046124
0.10688574
0.1086826
0.11006307
0.11108306
0.11179346
0.11223977
0.11246189
0.1124942
0.11236719
0.11210683
0.1117334
0.11127485
0.11073243
0.11013349
0.10947455
0.10877363
0.10804016
0.10728017
0.10649968
0.10570358
0.10489589
0.10408005
0.10325885
0.10243463
0.10160933
0.10078452
0.099961508
0.099141317
0.098324764
0.097512475
0.096704916
0.095902418
0.095105207
0.094313408
0.0031737548
0.010180756
0.017724102
0.025655046
0.033800335
0.04197558
0.050000199
0.057711287
0.064974098
0.071687891
0.077787133
0.08323888
0.088037967
0.092201278
0.095761765
0.098762977
0.10125443
0.10328794
0.10491494
0.1061846
0.10714269
0.10783096
0.10828672
0.10854287
0.10862824
0.10856902
0.10838917
0.10810444
0.10772746
0.10728516
0.10678013
0.10621848
0.10561457
0.10497516
0.10430758
0.10361717
0.10290842
0.10218529
0.10145098
0.10070826
0.099959459
0.099206527
0.098451087
0.097694483
0.096937813
0.096181966
0.09542765
0.094675419
0.093925707
0.09317882
0.0029040112
0.0092865217
0.016143308
0.023354792
0.030781476
0.038273084
0.045679216
0.05285991
0.059694465
0.06608731
0.071970495
0.077303119
0.082068461
0.086270007
0.089926974
0.093069844
0.095736351
0.097968139
0.099808152
0.10129871
0.10248021
0.10339025
0.10406317
0.10452987
0.10481794
0.1049522
0.10495414
0.10484389
0.10463417
0.10434145
0.10398404
0.10355753
0.10309018
0.10257155
0.10201797
0.10143464
0.10082637
0.10019776
0.099552251
0.098893043
0.098222817
0.097543865
0.096858128
0.09616724
0.095472572
0.094775265
0.094076257
0.09337632
0.092676086
0.091976045
0.0026599433
0.0084820163
0.014724235
0.021289907
0.028066266
0.034930743
0.0417585
0.04843032
0.054839732
0.060898392
0.06653913
0.071716655
0.07640626
0.080601193
0.084309449
0.08755032
0.090351052
0.092743904
0.094763731
0.096446096
0.097825898
0.098936407
0.099808648
0.10047109
0.10094959
0.10126753
0.10144563
0.10150215
0.10145284
0.10131444
0.10109621
0.10080578
0.10046493
0.10007305
0.099634534
0.099159114
0.098652236
0.098119553
0.097564285
0.096990207
0.09640028
0.095797113
0.095182938
0.094559662
0.09392891
0.093292057
0.092650266
0.09200451
0.091355617
0.090704251
0.0024385995
0.0077561981
0.013446661
0.019431362
0.025618773
0.031908781
0.038197992
0.044385533
0.050378637
0.056097277
0.061477297
0.066471815
0.071051034
0.07520076
0.078920138
0.082219137
0.085115892
0.087634211
0.089801421
0.091646601
0.093199212
0.094488086
0.09554073
0.096382891
0.097038357
0.097528887
0.097874109
0.09809156
0.09819681
0.098204146
0.098126529
0.097972669
0.09775369
0.097482926
0.097156996
0.09679463
0.096389122
0.095953513
0.095489343
0.095001608
0.094493319
0.0939674
0.093426347
0.09287231
0.092307148
0.091732458
0.091149604
0.090559755
0.089963917
0.089362927
0.0022374533
0.0070997346
0.012293511
0.017754508
0.023408127
0.029172438
0.034961909
0.040691616
0.046281519
0.051660292
0.056768229
0.061558964
0.065999952
0.070071882
0.073767241
0.077088467
0.080045985
0.082656175
0.084939525
0.086919037
0.088618926
0.090063613
0.091276985
0.092281886
0.093099804
0.093750687
0.094252821
0.094622817
0.094875638
0.095024885
0.095082615
0.095059183
0.094966264
0.094810816
0.094597262
0.094340704
0.094039233
0.093703524
0.093330304
0.092929788
0.092504034
0.092056452
0.091589744
0.091106272
0.090608109
0.090097048
0.089574639
0.089042229
0.08850099
0.087951927
0.0020543298
0.0065046817
0.011250275
0.016238297
0.021407698
0.026691272
0.032018279
0.037317484
0.042520366
0.047564172
0.052394462
0.056966868
0.061247957
0.065215221
0.068856354
0.072167977
0.075154172
0.077824958
0.080194754
0.082280997
0.084102961
0.085680792
0.087034764
0.088184726
0.089149726
0.089947748
0.090595551
0.091108586
0.091501
0.09178566
0.091974211
0.092077097
0.092104131
0.092063898
0.091964091
0.091810421
0.091608075
0.091367995
0.091090347
0.090778084
0.090435174
0.090066621
0.089675121
0.089263203
0.088833148
0.088386918
0.08792622
0.087452563
0.086967266
0.086471505
0.0018873456
0.0059642319
0.010304537
0.014864658
0.019594422
0.024438552
0.029338521
0.034234721
0.039068843
0.043786254
0.048338117
0.052683037
0.05678808
0.060629128
0.064190637
0.067464911
0.070451031
0.073153708
0.075582111
0.077748702
0.079668206
0.081356721
0.082831005
0.084107917
0.085203994
0.086135154
0.086916488
0.087562129
0.0880852
0.088497785
0.088810927
0.089034735
0.089178513
0.089250556
0.089258015
0.089208277
0.089107161
0.088958642
0.088772406
0.088546632
0.088290079
0.088000926
0.087685107
0.087345361
0.086984198
0.086603708
0.086205715
0.085791889
0.085363639
0.084922353
0.0017348614
0.0054725176
0.009445616
0.013617991
0.017948237
0.022390758
0.026897077
0.031417389
0.035902299
0.040304638
0.044581168
0.04869403
0.052611772
0.0563099
0.059770961
0.0629842
0.065944902
0.068653523
0.071114804
0.07333687
0.075330352
0.077107607
0.078682053
0.080067632
0.081278376
0.082328088
0.0832301
0.083997112
0.084641087
0.085173195
0.08560378
0.085942385
0.086197827
0.086378107
0.086490411
0.086541459
0.086536989
0.086483205
0.086385444
0.086244415
0.086070573
0.085860069
0.085623018
0.085355621
0.085063799
0.084749649
0.08441505
0.084061888
0.083691494
0.083305649
0.0015954434
0.0050244525
0.0086642703
0.012484768
0.016451636
0.020527146
0.024671083
0.028841852
0.032997749
0.037098313
0.041105667
0.044985735
0.04870919
0.052252082
0.055596114
0.058728566
0.061641952
0.064333443
0.066804183
0.069058607
0.071103757
0.072948606
0.074603475
0.076079529
0.077388362
0.078541665
0.079550974
0.080427479
0.081181893
0.081824363
0.082364421
0.082810951
0.083172203
0.083455793
0.083668688
0.083817311
0.083907465
0.083944635
0.083933713
0.08387899
0.083785131
0.083652348
0.083490462
0.083294851
0.083075129
0.082827617
0.082556717
0.082264877
0.0819527
0.081623103
0.0014678321
0.0046156056
0.0079524646
0.011453205
0.015089284
0.018829382
0.022640068
0.026486601
0.030333841
0.034147253
0.037893942
0.041543624
0.045069468
0.048448714
0.051663042
0.054698674
0.057546244
0.060200475
0.062659701
0.064925327
0.06700132
0.068893673
0.070609898
0.07215858
0.073548991
0.074790767
0.075893652
0.076867299
0.077721114
0.078464149
0.079105025
0.07965189
0.080112377
0.080493602
0.080802182
0.081044238
0.081225401
0.08135089
0.081425439
0.081453231
0.081438418
0.081384447
0.081295399
0.081170937
0.081020047
0.080838308
0.080633688
0.080404055
0.080149455
0.079877083
0.0013509165
0.0042420989
0.0073031808
0.010512996
0.013847707
0.017281226
0.020785699
0.024332082
0.027890802
0.031432489
0.034928759
0.03835298
0.041680975
0.044891586
0.047967074
0.05089332
0.053659839
0.056259634
0.058688911
0.06094669
0.063034387
0.064955433
0.066714857
0.068318901
0.069774676
0.071089863
0.072272468
0.07333061
0.07427237
0.075105661
0.075838139
0.076477135
0.077029615
0.077502136
0.077900854
0.078231531
0.07849952
0.078709786
0.078866892
0.078974997
0.079037992
0.079059272
0.079042399
0.078990084
0.078906075
0.078789468
0.078648575
0.078480358
0.078283471
0.078071099
0.0012437128
0.0039005237
0.0067102636
0.0096550914
0.012715027
0.015868267
0.019091544
0.022360542
0.02565038
0.028936141
0.032193458
0.035399102
0.038531552
0.041571482
0.044502148
0.047309631
0.049982945
0.052514005
0.054897482
0.057130572
0.059212671
0.061145071
0.062930657
0.064573598
0.066079041
0.06745285
0.068701375
0.069831252
0.070849248
0.071762124
0.072576538
0.073298965
0.07393564
0.074492517
0.074975235
0.07538912
0.075739183
0.076030102
0.07626622
0.076451555
0.076589834
0.076684471
0.076738701
0.076755293
0.076737345
0.076686942
0.076607894
0.076498806
0.076362019
0.076205347
0.0011453471
0.0035878729
0.0061682938
0.0088715211
0.011680749
0.014577695
0.017542866
0.020555873
0.023595769
0.026641445
0.029672058
0.032667478
0.035608732
0.038478417
0.041261039
0.043943268
0.04651409
0.048964857
0.051289233
0.05348307
0.055544213
0.057472245
0.059268261
0.060934632
0.062474768
0.063892881
0.065193784
0.066382708
0.067465146
0.068446725
0.069333099
0.070129865
0.070842495
0.071476288
0.072036334
0.072527481
0.072954331
0.073321232
0.073632262
0.07389123
0.074101688
0.074266938
0.074390059
0.074473872
0.074521087
0.074533959
0.074515233
0.07446623
0.074389515
0.074285824
0.0010550428
0.0033014863
0.0056724839
0.0081552401
0.010735572
0.013398097
0.016126444
0.018903471
0.021711531
0.024532748
0.027349335
0.030143931
0.03289994
0.035601861
0.038235585
0.040788627
0.043250298
0.045611795
0.047866215
0.050008505
0.052035354
0.053945031
0.055737188
0.057412694
0.058973453
0.060422215
0.0617624
0.062997933
0.064133108
0.065172455
0.066120645
0.066982395
0.067762404
0.068465291
0.069095554
0.069657538
0.070155405
0.070593123
0.07097446
0.071302971
0.071581998
0.07181467
0.072003919
0.072152473
0.072262887
0.072337489
0.072378526
0.072387707
0.072367317
0.072318886
0.00097210755
0.0030390059
0.0052185932
0.0075000057
0.0098712347
0.012319299
0.014830403
0.017390108
0.019983518
0.022595494
0.025210877
0.027814743
0.030392659
0.032930943
0.035416906
0.037839059
0.040187277
0.042452914
0.04462885
0.046709497
0.048690748
0.050569887
0.052345457
0.054017109
0.055585487
0.057052077
0.058419066
0.0596892
0.06086566
0.061951949
0.062951791
0.063869048
0.064707646
0.065471518
0.066164555
0.066790569
0.067353261
0.067856194
0.068302786
0.068696294
0.069039818
0.06933628
0.069588432
0.069798862
0.069969993
0.070104077
0.070203218
0.070269303
0.070304222
0.070309484
0.00089591227
0.0027983251
0.0048028628
0.0069002762
0.0090803887
0.011332209
0.013644079
0.016003804
0.018398789
0.020816197
0.023243117
0.025666747
0.028074587
0.030454642
0.032795614
0.035087075
0.037319617
0.039484968
0.041576063
0.043587074
0.045513409
0.04735166
0.049099539
0.050755765
0.052319954
0.053792535
0.05517463
0.056467946
0.057674661
0.05879733
0.059838792
0.06080209
0.061690403
0.062506987
0.063255123
0.063938078
0.064559072
0.065121246
0.065627649
0.066081212
0.066484749
0.066840951
0.067152367
0.067421409
0.067650353
0.067841335
0.067996354
0.068117269
0.068205852
0.068263686
0.00082589844
0.002577558
0.0044219334
0.0063511251
0.008356485
0.010428701
0.01255789
0.014733723
0.016945528
0.019182406
0.021433354
0.023687402
0.025933756
0.028161953
0.030362008
0.032524559
0.034640994
0.03670356
0.038705437
0.040640794
0.042504799
0.044293616
0.046004367
0.047635072
0.04918456
0.050652398
0.052038821
0.053344637
0.054571147
0.055720052
0.05679338
0.057793412
0.058722617
0.059583596
0.060379034
0.061111657
0.061784196
0.062399359
0.062959806
0.063468134
0.063926849
0.064338376
0.064705038
0.065029053
0.065312527
0.065557452
0.065765711
0.065939074
0.066079221
0.066187684
0.00076156356
0.0023750248
0.0040728013
0.0058481458
0.0076936838
0.009601503
0.011563221
0.013570065
0.015612968
0.017682658
0.019769751
0.021864846
0.023958639
0.026042032
0.028106252
0.030142963
0.032144374
0.034103331
0.036013393
0.03786889
0.039664952
0.041397524
0.043063353
0.044659961
0.046185594
0.047639154
0.049020154
0.050328657
0.051565208
0.052730763
0.053826624
0.054854376
0.05581583
0.056712972
0.057547914
0.058322855
0.059040046
0.059701757
0.060310257
0.060867786
0.061376542
0.061838667
0.062256236
0.062631247
0.062965622
0.06326119
0.063519694
0.063742789
0.063932051
0.064088924
0.00070245505
0.00218922
0.0037527894
0.0053873967
0.0070867518
0.008844108
0.010652335
0.012503978
0.014391314
0.016306438
0.018241331
0.020187934
0.022138229
0.024084323
0.026018537
0.027933496
0.029822213
0.031678167
0.033495375
0.035268444
0.036992612
0.038663769
0.040278467
0.041833908
0.043327924
0.044758927
0.04612587
0.047428214
0.048665877
0.049839179
0.050948789
0.051995674
0.05298105
0.053906333
0.0547731
0.055583048
0.056337964
0.057039691
0.057690106
0.058291094
0.058844532
0.059352274
0.059816136
0.060237884
0.060619231
0.060961832
0.061267271
0.061537068
0.061772678
0.061975441
0.00064816501
0.0020187933
0.0034595017
0.0049653615
0.0065310032
0.0081506715
0.009818281
0.011527475
0.013271674
0.015044123
0.016837955
0.018646251
0.020462099
0.022278657
0.024089221
0.025887291
0.027666644
0.029421392
0.031146046
0.032835564
0.034485391
0.036091489
0.037650353
0.039159014
0.040615034
0.042016483
0.043361904
0.044650289
0.045881053
0.047053989
0.048169231
0.04922721
0.050228613
0.051174346
0.052065495
0.052903291
0.053689083
0.054424304
0.05511045
0.055749057
0.056341682
0.056889885
0.057395218
0.057859211
0.058283359
0.058669122
0.059017914
0.059331104
0.059610012
0.059855851
0.00059832568
0.0018625323
0.003190792
0.004578894
0.006022253
0.0075159545
0.009054801
0.010633357
0.012245995
0.013886939
0.015550302
0.017230127
0.01892045
0.020615337
0.022308943
0.023995557
0.025669657
0.027325964
0.028959491
0.030565582
0.032139957
0.033678735
0.03517846
0.036636109
0.038049097
0.039415273
0.040732896
0.042000615
0.043217454
0.044382787
0.045496305
0.046557989
0.047568072
0.048527009
0.049435449
0.050294199
0.051104202
0.051866508
0.052582253
0.053252635
0.053878897
0.054462313
0.055004168
0.055505749
0.055968334
0.056393182
0.056781525
0.057134569
0.057453484
0.057739331
0.00055260563
0.0017193491
0.0029447379
0.0042251789
0.0055567567
0.0069352723
0.0083562811
0.0098151304
0.011306996
0.012826917
0.014369839
0.015930634
0.017504138
0.019085204
0.020668732
0.022249709
0.023823253
0.025384652
0.026929402
0.028453251
0.029952223
0.031422653
0.032861206
0.034264895
0.035631089
0.036957513
0.038242246
0.0394837
0.040680614
0.041832038
0.042937315
0.043996055
0.045008111
0.045973554
0.046892649
0.047765828
0.048593668
0.049376869
0.050116229
0.050812632
0.051467021
0.05208039
0.052653765
0.053188194
0.053684734
0.054144441
0.054568367
0.054957548
0.05531301
0.00051070647
0.0015882675
0.002719619
0.0039016991
0.0051311671
0.0064044344
0.007717697
0.0090669664
0.0104481
0.011856832
0.013288798
0.014739576
0.016204698
0.017679684
0.01916008
0.020641488
0.022119593
0.023590202
0.025049271
0.026492935
0.027917542
0.029319671
0.030696159
0.032044115
0.033360934
0.034644302
0.035892199
0.03710289
0.038274917
0.039407096
0.040498502
0.041548453
0.042556493
0.043522374
0.044446036
0.045327585
0.046167277
0.046965497
0.047722739
0.048439593
0.049116725
0.049754864
0.050354789
0.050917314
0.051443281
0.051933548
0.052388981
0.052810452
0.053198796
0.00047236014
0.0014684139
0.0025138975
0.003606208
0.0047424976
0.0059197003