/*--------------------------------*- C++ -*----------------------------------*\
| =========                 |                                                 |
| \\      /  F ield         | OpenFOAM: The Open Source CFD Toolbox           |
|  \\    /   O peration     | Version:  2312                                  |
|   \\  /    A nd           | Website:  www.openfoam.com                      |
|    \\/     M anipulation  |                                                 |
\*---------------------------------------------------------------------------*/
FoamFile
{
    version     2.0;
    format      ascii;
    arch        "LSB;label=32;scalar=64";
    class       volScalarField;
    location    "0.08";
    object      k;
}
// * * * * * * * * * * * * * * * * * * * * * * * * * * * * * * * * * * * * * //

dimensions      [0 2 -2 0 0 0 0];

internalField   nonuniform List<scalar> 
3275
(
11.30853
12.199056
13.152648
14.172815
15.313236
16.625509
18.135639
19.82763
21.656895
23.559471
25.460991
27.310842
29.052248
30.608111
31.918121
32.924025
33.566108
33.910917
34.034005
33.99501
33.836206
33.577475
33.248937
32.868419
32.449597
32.00303
31.536917
31.057654
30.570253
30.078652
29.585952
29.094595
28.606504
28.123192
27.645841
27.17537
26.712486
26.257727
25.81149
25.374062
24.945639
24.526342
24.116233
23.715323
23.323582
22.940952
22.567351
22.202672
21.846795
21.499584
21.160897
20.830583
11.373324
12.256295
13.174566
14.179021
15.315089
16.627526
18.138572
19.829995
21.657211
23.556764
25.454995
27.301289
29.039009
30.591658
31.899006
32.902928
33.543929
33.888142
34.011123
33.972381
33.814133
33.55616
33.228493
32.848907
32.431039
31.985424
31.52024
31.041874
30.555332
30.064547
29.572619
29.081991
28.594586
28.111919
27.635173
27.16527
26.70292
26.248661
25.802895
25.365908
24.9379
24.518992
24.109249
23.708683
23.317267
22.934943
22.561631
22.197225
21.841605
21.494637
21.156179
20.826081
11.503254
12.345749
13.203518
14.185153
15.316564
16.630901
18.144034
19.83431
21.657414
23.550958
25.442667
27.281897
29.0123
30.558572
31.860622
32.86059
33.499403
33.842445
33.965244
33.927035
33.769925
33.513481
33.187568
32.809854
32.393901
31.950189
31.486866
31.010296
30.525471
30.036318
29.545935
29.056763
28.570731
28.089353
27.613819
27.145054
26.683771
26.230514
25.785688
25.349585
24.922407
24.50428
24.095271
23.695395
23.304631
22.922922
22.550188
22.186329
21.831225
21.484745
21.146747
20.817085
11.673453
12.413028
13.213886
14.181499
15.314472
16.634932
18.151292
19.839698
21.656675
23.541337
25.423415
27.252193
28.971768
30.508599
31.802769
32.796825
33.432297
33.773629
33.896229
33.858882
33.703537
33.449427
33.126172
32.751284
32.338213
31.897365
31.436837
30.962961
30.480711
29.994006
29.505938
29.018951
28.534974
28.055529
27.58181
27.114748
26.655065
26.20331
25.759894
25.325116
24.899182
24.482225
24.074316
23.675477
23.285689
22.904901
22.533036
22.169996
21.815667
21.469919
21.132612
20.803604
11.757826
12.389725
13.18512
14.160082
15.307089
16.639196
18.159174
19.844872
21.653812
23.526872
25.396382
27.211487
28.916891
30.441348
31.725133
32.711345
33.342262
33.681404
33.803872
33.76779
33.614906
33.363978
33.044318
32.67323
32.264024
31.827006
31.37021
30.899929
30.421113
29.937668
29.452684
28.968605
28.487365
28.010493
27.53919
27.074396
26.616842
26.167085
25.725546
25.29253
24.868253
24.452854
24.04641
23.648951
23.260463
22.880901
22.510193
22.148245
21.794947
21.450173
21.113788
20.785651
11.381576
12.252925
13.116321
14.124306
15.295159
16.642608
18.16678
19.848275
21.647719
23.50746
25.362541
27.16193
28.851022
30.361193
31.632917
32.609947
33.235373
33.57207
33.694578
33.660153
33.51032
33.263243
32.947889
32.581329
32.176706
31.744219
31.29183
30.825787
30.351016
29.87141
29.390054
28.909395
28.431374
27.957526
27.489063
27.026936
26.571884
26.124477
25.685144
25.2542
24.831871
24.418303
24.013583
23.617746
23.230787
22.852666
22.483318
22.122654
21.770569
21.426942
21.091641
20.76453
11.231575
12.109515
13.036623
14.084424
15.281704
16.644273
18.172628
19.849434
21.63787
23.483011
25.322329
27.104571
28.77583
30.2703
31.528711
32.495525
33.114683
33.448804
33.571581
33.539204
33.392962
33.150315
32.839866
32.478431
32.078978
31.651587
31.204146
30.742856
30.272615
29.797306
29.32001
28.843177
28.368755
27.898289
27.433001
26.973854
26.5216
26.076818
25.639951
25.211324
24.791171
24.37965
23.976857
23.582834
23.197585
22.821076
22.453249
22.094021
21.743292
21.400948
21.066859
20.740896
11.17583
11.991539
12.957828
14.04265
15.266337
16.64378
18.176028
19.847157
21.622419
23.450401
25.271534
27.034068
28.684792
30.161015
31.40391
32.358712
32.970321
33.30162
33.42502
33.395328
33.25357
33.016326
32.711801
32.356515
31.963237
31.541916
31.100354
30.644704
30.179834
29.709615
29.237125
28.76482
28.294655
27.828188
27.366656
26.911034
26.462087
26.020411
25.58646
25.160572
24.742994
24.333895
23.93338
23.541504
23.158276
22.783674
22.417646
22.060118
21.710994
21.370167
21.037514
20.71291
11.162317
11.915262
12.892804
14.004337
15.250499
16.640934
18.175627
19.839506
21.599637
23.407842
25.208157
26.948464
28.576036
30.031372
31.256485
32.197396
32.800098
33.128426
33.252952
33.226724
33.090485
32.859743
32.562271
32.214256
31.828245
31.414045
30.979367
30.530308
30.071709
29.607426
29.140539
28.673509
28.208305
27.746496
27.289337
26.837819
26.392724
25.954664
25.524108
25.10141
24.686831
24.280552
23.882691
23.493314
23.112442
22.740061
22.37613
22.02058
21.673327
21.334269
21.003289
20.680269
11.169474
11.87895
12.848307
13.973541
15.235455
16.635185
18.169963
19.82437
21.567338
23.353395
25.129956
26.845489
28.447499
29.879231
31.084208
32.009251
32.601672
32.927018
33.053347
33.031528
32.901992
32.678985
32.389814
32.050293
31.672734
31.266786
30.840067
30.398617
29.947248
29.489805
29.029369
28.56841
28.108911
27.652461
27.200331
26.753532
26.312867
25.878965
25.452314
25.033284
24.622154
24.219118
23.824311
23.437809
23.059647
22.689822
22.328303
21.975031
21.629931
21.292907
20.963854
20.642656
11.186894
11.872654
12.824851
13.951962
15.221629
16.625669
18.157164
19.79959
21.523055
23.284648
25.034669
26.722687
28.296804
29.702287
30.884632
31.791719
32.372571
32.695118
32.824125
32.807845
32.68634
32.472442
32.192939
31.863243
31.495409
31.098929
30.681318
30.248561
29.805441
29.355796
28.90271
28.448665
27.995663
27.545312
27.098906
26.657478
26.221854
25.792684
25.370477
24.955623
24.548418
24.149076
23.757744
23.374516
22.99944
22.632526
22.273754
21.923077
21.580429
21.245725
20.918865
20.599746
11.208717
11.88586
12.818923
13.938947
15.208389
16.611051
18.135252
19.762752
21.464176
23.198925
24.919767
26.57746
28.121249
29.498032
30.655133
31.541947
32.110225
32.430415
32.563194
32.553795
32.441762
32.2385
31.970155
31.651714
31.294971
30.909251
30.50197
30.079056
29.645265
29.20443
28.759643
28.313403
27.867732
27.424262
26.984313
26.548945
26.119008
25.695176
25.277983
24.867841
24.465065
24.06989
23.682481
23.302949
22.931357
22.567729
22.212059
21.864313
21.524434
21.19235
20.86797
20.551198
11.231458
11.909734
12.824981
13.931967
15.194058
16.58948
18.101989
19.71124
21.387958
23.093346
24.78235
26.40709
27.917981
29.263646
30.392946
31.25668
31.812025
32.130636
32.2685
32.267583
32.1665
31.975577
31.71999
31.41433
31.070128
30.696539
30.300877
29.889016
29.465692
29.034733
28.599245
28.161745
27.724281
27.288515
26.855794
26.427209
26.003638
25.585783
25.174203
24.769336
24.371521
23.981013
23.597999
23.222608
22.854919
22.494975
22.142782
21.79832
21.461547
21.1324
20.810801
20.496662
11.252901
11.937107
12.836859
13.927203
15.176042
16.558599
18.054847
19.642287
21.291443
22.964877
24.619369
26.208538
27.684047
28.996134
30.095059
30.932074
31.475417
31.793625
31.938071
31.947602
31.858801
31.682164
31.441026
31.149756
30.819619
30.459598
30.076908
29.67737
29.265701
28.845734
28.420589
27.992809
27.56447
27.137269
26.712584
26.291539
25.875046
25.463836
25.058499
24.6595
24.267204
23.88189
23.503766
23.132983
22.76964
22.413795
22.065474
21.724671
21.391357
21.065483
20.746981
20.435777
11.271384
11.962118
12.848277
13.920038
15.151007
16.515578
17.991032
19.552965
21.171536
22.810319
24.427649
25.978612
27.416269
28.692339
29.758381
30.565855
31.098182
31.417446
31.570194
31.592167
31.517163
31.356909
31.131935
30.856726
30.54224
30.197282
29.828967
29.443071
29.044295
28.636479
28.222763
27.805721
27.387464
26.969723
26.553916
26.141203
25.73253
25.328666
24.930229
24.537718
24.151523
23.771953
23.399239
23.033554
22.67502
22.323715
21.97968
21.642928
21.313445
20.991195
20.676125
20.368174
11.285335
11.979541
12.853185
13.905439
15.115078
16.457171
17.907488
19.440178
21.025024
22.626356
24.203853
25.714008
27.111285
28.348913
29.379737
30.156083
30.67851
31.000478
31.163413
31.199843
31.140358
30.998522
30.791506
30.534077
30.23687
29.908511
29.556017
29.18512
28.800511
28.406042
28.004878
27.599628
27.192442
26.785091
26.379034
25.975473
25.575394
25.1796
24.788749
24.40337
24.023886
23.650634
23.283872
22.923799
22.570558
22.22425
21.884936
21.552645
21.227382
20.909127
20.597841
20.293474
11.292829
11.984127
12.845752
13.878229
15.064014
16.37979
17.800916
19.30067
20.84858
22.40958
23.944523
25.411259
26.765625
27.962311
28.955645
29.700907
30.214981
30.541541
30.716609
30.769524
30.727398
30.605928
30.418695
30.180785
29.902506
29.592303
29.2571
28.902584
28.533443
28.153544
27.766083
27.373706
26.978607
26.582602
26.187196
25.793635
25.402946
25.015977
24.63342
24.255843
23.883702
23.517364
23.157118
22.80319
22.455748
22.114914
21.780773
21.453374
21.132739
20.818864
20.511728
20.211295
11.2916
11.969963
12.820299
13.833264
14.993372
16.279575
17.667791
19.131027
20.638768
22.156491
23.646108
25.066769
26.375651
27.528847
28.481952
29.198758
29.706719
30.03993
30.229126
30.300476
30.277619
30.178293
30.01268
29.796012
29.538298
29.247805
28.931363
28.594621
28.242261
27.87817
27.505579
27.127177
26.745202
26.361521
25.977688
25.594996
25.214518
24.837147
24.463616
24.094531
23.730385
23.371579
23.018434
22.671204
22.330084
21.995222
21.666725
21.344664
21.029079
20.719988
20.417384
20.121249
11.285646
11.944843
12.771361
13.765617
14.898642
16.152471
17.504396
18.927688
20.392049
21.863502
23.304962
24.67685
25.9376
27.044714
27.953978
28.648752
29.153549
29.495557
29.700799
29.792423
29.790802
29.715039
29.57291
29.379144
29.143584
28.874324
28.578093
28.260502
27.926232
27.579189
27.222642
26.859322
26.491521
26.121156
25.749832
25.378894
25.009466
24.642484
24.278728
23.918844
23.563365
23.212727
22.867285
22.527323
22.193067
21.86469
21.542324
21.226064
20.915971
20.612081
20.314407
20.022948
11.276818
11.912281
12.704146
13.670783
14.77536
15.994288
17.306853
18.686953
20.10479
21.52695
22.917354
24.23772
25.447612
26.506239
27.373911
28.051609
28.556174
28.909049
29.132058
29.245504
29.267406
29.215764
29.099194
28.929839
28.717934
28.471359
28.196741
27.899645
27.584747
27.255976
26.916635
26.569505
26.216926
25.860872
25.503002
25.144715
24.787184
24.431396
24.078178
23.728219
23.382092
23.040273
22.703151
22.371044
22.044208
21.722845
21.407114
21.097132
20.792984
20.494727
20.202394
11.266041
11.87438
12.62571
13.547447
14.619164
15.80075
17.071168
18.40501
19.773284
21.143111
22.479471
23.745542
24.901658
25.908504
26.743942
27.409285
27.916295
28.281794
28.524008
28.660597
28.707699
28.681062
28.591604
28.448054
28.26118
28.038644
27.786957
27.511635
27.217345
26.908032
26.587035
26.257182
25.920865
25.580111
25.236638
24.891896
24.547116
24.203334
23.861424
23.522122
23.186045
22.853706
22.525534
22.201881
21.883035
21.569228
21.260646
20.957433
20.659698
20.36752
20.080952
11.253836
11.832518
12.540265
13.408005
14.427465
15.567495
16.793284
18.077954
19.393794
20.708226
21.98742
23.196484
24.295746
25.258048
26.068184
26.725015
27.236592
27.616021
27.878437
28.039135
28.112554
28.112053
28.05051
27.934089
27.773461
27.576174
27.348623
27.096262
26.823741
26.535015
26.233456
25.921931
25.602887
25.278405
24.950256
24.61995
24.288769
23.957802
23.627973
23.300065
22.974739
22.65255
22.333966
22.019374
21.709097
21.403398
21.102492
20.80655
20.515706
20.230062
19.949696
11.240546
11.787688
12.450466
13.259987
14.216298
15.296753
16.469184
17.701814
18.962628
20.21856
21.437178
22.58684
23.636197
24.562348
25.352197
26.003214
26.520699
26.914757
27.197853
27.383131
27.483392
27.51051
27.476511
27.388698
27.255251
27.084241
26.88188
26.653545
26.403853
26.136762
25.855665
25.563469
25.262668
24.955394
24.643475
24.328473
24.011725
23.694373
23.377392
23.061612
22.747739
22.436371
22.128016
21.823098
21.521975
21.224943
20.932247
20.644085
20.360619
20.081975
19.808255
11.226433
11.740674
12.358096
13.108098
13.995982
15.006361
16.111609
17.279889
18.478046
19.672996
20.833262
21.929517
22.935115
23.830119
24.60268
25.249298
25.773129
26.181799
26.485445
26.69525
26.822462
26.877792
26.871494
26.81284
26.707397
26.563462
26.38716
26.18376
25.957829
25.713311
25.453613
25.181673
24.900024
24.610848
24.316022
24.017163
23.715658
23.412703
23.109322
22.806393
22.504668
22.204788
21.907301
21.61267
21.321288
21.033484
20.749536
20.46967
20.194074
19.922901
11.211714
11.692131
12.264445
12.955368
13.773196
14.70832
15.738259
16.833762
17.962832
19.093337
20.194904
21.239952
22.204575
23.070707
23.82712
24.469466
24.999133
25.421634
25.745045
25.978745
26.132506
26.215892
26.23792
26.207686
26.13116
26.014818
25.865211
25.687465
25.486068
25.264929
25.027455
24.776604
24.514939
24.244683
23.967762
23.685837
23.40035
23.112543
22.82349
22.534116
22.245219
21.957482
21.671494
21.387757
21.1067
20.828685
20.554022
20.282968
20.015739
19.752512
11.196581
11.642633
12.170502
12.803816
13.552277
14.410636
15.361377
16.379086
17.434403
18.497106
19.538347
20.532079
21.456142
22.293602
23.033432
23.670458
24.204536
24.639327
24.981055
25.237423
25.416789
25.527582
25.577922
25.57553
25.528035
25.439642
25.317128
25.165532
24.989248
24.792135
24.577573
24.348527
24.107579
23.856984
23.598706
23.334451
23.065705
22.793756
22.519725
22.244583
21.96917
21.694213
21.42034
21.148091
20.877933
20.610261
20.345417
20.083689
19.825318
19.570514
11.181205
11.59269
12.077068
12.654836
13.336044
14.118575
14.9893
15.927018
16.905812
17.898098
18.877017
19.818104
20.700513
21.508041
22.22963
22.859306
23.395555
23.840392
24.198353
24.475576
24.679062
24.816115
24.893956
24.919452
24.89966
24.839661
24.744343
24.619154
24.468348
24.295712
24.104594
23.897931
23.678314
23.448019
23.209038
22.963112
22.711767
22.456332
22.197971
21.937697
21.676392
21.414824
21.153659
20.893476
20.634775
20.377988
20.123487
19.871589
19.622567
19.376655
11.165739
11.542753
11.984809
12.509421
13.126323
13.835533
14.627577
15.485324
16.386603
17.306909
18.22175
19.108417
19.947275
20.722704
21.423548
22.043092
22.578608
23.030636
23.402173
23.697894
23.923496
24.085178
24.189256
24.241901
24.249032
24.216736
24.148629
24.049843
23.924654
23.776743
23.609409
23.425547
23.227738
23.018262
22.799126
22.572099
22.338736
22.100404
21.858303
21.613485
21.366869
21.119262
20.871368
20.6238
20.377093
20.131713
19.888061
19.646488
19.407291
19.170735
11.150319
11.493223
11.894286
12.368296
12.924281
13.563626
14.27977
15.059236
15.883544
16.731448
17.581063
18.41162
19.20477
19.945495
20.622595
21.228731
21.760124
22.216009
22.597984
22.909364
23.154606
23.338822
23.467423
23.54584
23.579348
23.573167
23.532118
23.459445
23.359756
23.236601
23.093191
22.932367
22.75668
22.568404
22.369541
22.161876
21.946985
21.726264
21.500942
21.272105
21.040706
20.807587
20.573484
20.339046
20.10484
19.871363
19.639048
19.408272
19.179363
18.952611
11.135065
11.444449
11.805972
12.231995
12.730644
13.304102
13.94804
14.652107
15.401236
16.177399
16.961423
17.734614
18.480032
19.183389
19.833571
20.422782
20.946372
21.402445
21.791353
22.115162
22.377154
22.581396
22.732395
22.834829
22.89336
22.912505
22.896926
22.850147
22.775563
22.676948
22.557389
22.41965
22.266226
22.099371
21.92107
21.733108
21.537072
21.334374
21.126268
20.913864
20.698146
20.479983
20.260143
20.039307
19.81807
19.596959
19.376437
19.156908
18.938727
18.722209
11.120081
11.396729
11.720258
12.100914
12.545843
13.057618
13.633568
14.265916
14.942614
15.648652
16.36754
17.082728
17.7788
18.442352
19.062535
19.63129
20.143296
20.595717
20.987816
21.320533
21.596059
21.817464
21.988368
22.112696
22.194478
22.237713
22.246275
22.224249
22.174301
22.099745
22.003732
21.888917
21.757718
21.612336
21.454731
21.286675
21.109754
20.925385
20.734834
20.53923
20.339578
20.136774
19.931611
19.724794
19.516948
19.308626
19.100316
18.89245
18.685408
18.47953
11.105455
11.350315
11.637468
11.975337
12.370097
12.82443
13.336857
13.901653
14.509351
15.147664
15.802648
16.459889
17.105573
17.727314
18.314719
18.859672
19.356395
19.801305
20.19275
20.530676
20.816286
21.05171
21.239722
21.383499
21.486432
21.551981
21.583571
21.584505
21.558443
21.507247
21.434239
21.341963
21.232746
21.108712
20.971777
20.823682
20.665999
20.50014
20.327376
20.148841
19.965557
19.778435
19.588291
19.395849
19.20176
19.006599
18.810878
18.615053
18.419526
18.224661
11.091261
11.305414
11.557855
11.855459
12.20348
12.604527
13.057943
13.559604
14.102183
14.675774
15.268766
15.868802
16.463693
17.042177
17.594479
18.112632
18.590607
19.024277
19.411252
19.750631
20.042739
20.28885
20.490935
20.651449
20.773148
20.858948
20.911808
20.934641
20.930442
20.901998
20.851199
20.780853
20.693163
20.590158
20.473692
20.345458
20.206993
20.059693
19.904824
19.74352
19.576805
19.405602
19.230738
19.052957
18.872926
18.69124
18.508432
18.324978
18.141301
17.957784
11.077559
11.26219
11.481614
11.7414
12.045959
12.397715
12.796552
13.239565
13.721161
14.233461
14.76693
15.311131
15.855469
16.38987
16.905298
17.394113
17.850238
18.269198
18.648039
18.985173
19.280167
19.533529
19.746494
19.920832
20.058684
20.162423
20.23454
20.277565
20.294012
20.286465
20.257155
20.207902
20.141072
20.058581
19.962199
19.853552
19.734134
19.605306
19.468312
19.324277
19.174225
19.019077
18.859668
18.696752
18.531007
18.363044
18.193412
18.022605
17.851062
17.679186
11.064396
11.220772
11.408886
11.633216
11.897421
12.203677
12.552204
12.941001
13.365851
13.820563
14.297406
14.787678
15.282305
15.772414
16.249801
16.707285
17.138915
17.540054
17.907363
18.238717
18.533058
18.79023
19.010808
19.195929
19.34715
19.466316
19.555456
19.616696
19.652198
19.664097
19.654654
19.625657
19.578812
19.516121
19.43925
19.349746
19.249038
19.138443
19.01917
18.892322
18.758907
18.619843
18.475964
18.328026
18.176713
18.022646
17.866386
17.708439
17.549259
17.389264
11.051808
11.18125
11.33976
11.530908
11.757694
12.02202
12.324288
12.663157
13.035485
13.436451
13.85986
14.298543
14.744835
15.191031
15.629807
16.054546
16.45956
16.840211
17.192942
17.515241
17.805558
18.063185
18.288119
18.48093
18.642632
18.774572
18.878325
18.955618
19.008259
19.038083
19.046912
19.036713
19.008933
18.965133
18.907016
18.836033
18.753534
18.660778
18.558925
18.449046
18.332125
18.209061
18.080681
17.947735
17.81091
17.670831
17.528063
17.38312
17.236468
17.088535
11.039821
11.143686
11.274284
11.434433
11.626562
11.852294
12.112114
12.405148
12.729071
13.080167
13.453515
13.843276
14.243048
14.646238
15.046407
15.437565
15.814394
16.172387
16.507914
16.818222
17.101398
17.356292
17.582418
17.77985
17.949115
18.091094
18.206935
18.297974
18.365672
18.411558
18.437189
18.444119
18.434047
18.408163
18.367864
18.314606
18.249652
18.174184
18.089304
17.996039
17.895335
17.788068
17.675045
17.557005
17.434628
17.308536
17.179295
17.047426
16.913396
16.777642
11.02845
11.108115
11.212466
11.343704
11.503771
11.694022
11.914952
12.166007
12.445483
12.750531
13.077273
13.420998
13.776419
14.13796
14.500043
14.857335
15.204962
15.53865
15.854814
16.150593
16.423832
16.673049
16.897372
17.096456
17.2704
17.419668
17.545011
17.647396
17.727945
17.787888
17.828515
17.851143
17.857092
17.84782
17.824329
17.787838
17.739602
17.680717
17.612216
17.535068
17.450174
17.358376
17.260452
17.157122
17.049052
16.936853
16.821088
16.702277
16.580886
16.457357
11.017709
11.074546
11.154282
11.258606
11.389045
11.546705
11.73205
11.944738
12.183521
12.446228
12.729819
13.030522
13.344012
13.665628
13.990595
14.314241
14.632175
14.940432
15.235569
15.514717
15.775597
16.016501
16.236261
16.434193
16.610037
16.763893
16.896151
17.007439
17.098561
17.170455
17.224147
17.260721
17.281289
17.28697
17.279
17.25825
17.225754
17.1826
17.129739
17.068073
16.99845
16.921666
16.838463
16.749534
16.655523
16.557026
16.454594
16.348738
16.239923
16.128589
11.007615
11.04296
11.099679
11.178993
11.282085
11.409837
11.562656
11.740335
11.941957
12.165868
12.409697
12.670441
12.944588
13.228278
13.517474
13.808135
14.096371
14.37857
14.651503
14.912381
15.158891
15.389196
15.601922
15.796126
15.971258
16.127108
16.263754
16.381516
16.480907
16.562588
16.627335
16.676002
16.709493
16.728743
16.734695
16.728387
16.710606
16.68219
16.644095
16.597145
16.542123
16.479773
16.410795
16.335845
16.255538
16.170447
16.081107
15.988013
15.891625
15.792377
10.998159
11.013377
11.048585
11.104701
11.182581
11.282912
11.40603
11.551806
11.719562
11.908035
12.115376
12.339204
12.576685
12.824648
13.079711
13.338422
13.59738
13.853355
14.103377
14.344803
14.575359
14.793163
14.996716
15.184893
15.356919
15.512334
15.650952
15.772827
15.878209
15.967508
16.041261
16.100103
16.144737
16.175917
16.194422
16.201046
16.196644
16.181955
16.157625
16.124499
16.083287
16.034673
15.979306
15.917799
15.850732
15.778649
15.702061
15.621445
15.537248
15.44989
10.989239
10.985859
11.000968
11.035552
11.090214
11.165426
11.261447
11.378188
11.515136
11.671321
11.845299
12.035184
12.238699
12.453252
12.676037
12.90413
13.134599
13.364594
13.591431
13.81266
14.026108
14.229906
14.422505
14.602668
14.769457
14.92222
15.06056
15.184304
15.293474
15.388256
15.468972
15.53605
15.590003
15.631408
15.660884
15.679079
15.686658
15.684311
15.672756
15.65245
15.624141
15.588452
15.545972
15.497266
15.442871
15.383296
15.319023
15.250505
15.17817
15.102424
10.980941
10.960079
10.956793
10.971397
11.004662
11.056885
11.128205
11.218548
11.327515
11.454348
11.597916
11.756722
11.928938
12.112457
12.304961
12.503997
12.707061
12.91167
13.115439
13.316136
13.511726
13.700413
13.880649
14.051143
14.210859
14.359006
14.495021
14.618552
14.729429
14.827645
14.913328
14.986721
15.04816
15.098055
15.136871
15.165114
15.18332
15.192041
15.191819
15.183381
15.166961
15.143286
15.112869
15.076219
15.033827
14.986162
14.933672
14.876782
14.815893
14.751393
10.973231
10.936137
10.915657
10.912103
10.925643
10.956803
11.005629
11.071997
11.155584
11.255788
11.371713
11.502166
11.645678
11.800537
11.964839
12.136537
12.313511
12.493621
12.674772
12.854963
13.03233
13.205178
13.372008
13.531526
13.682647
13.824489
13.956376
14.077812
14.188477
14.2882
14.376944
14.45479
14.521913
14.578568
14.625078
14.661813
14.689182
14.707623
14.717587
14.71955
14.714055
14.701407
14.682137
14.656709
14.62556
14.589117
14.547788
14.501964
14.45202
14.398318
10.966087
10.913964
10.877599
10.857175
10.852889
10.864758
10.893069
10.937685
10.998282
11.074371
11.165229
11.269899
11.387196
11.51573
11.653934
11.800112
11.952476
12.109199
12.268461
12.428491
12.587605
12.744241
12.896977
13.044552
13.185875
13.320021
13.446235
13.563925
13.672652
13.772117
13.862145
13.942677
14.013747
14.075476
14.128051
14.171718
14.206769
14.233529
14.252353
14.263614
14.267698
14.265017
14.255956
14.240836
14.220087
14.194095
14.163224
14.127825
14.088243
14.044811
10.959485
10.893487
10.842485
10.806563
10.785819
10.780323
10.789965
10.814807
10.854606
10.908889
10.977067
11.05836
11.151806
11.256269
11.370464
11.492982
11.622326
11.756943
11.895264
12.03574
12.17687
12.317234
12.455512
12.590505
12.721144
12.846499
12.965775
13.078316
13.1836
13.28123
13.370923
13.452503
13.525888
13.591077
13.648141
13.697211
13.73847
13.772141
13.798482
13.817774
13.830319
13.836431
13.836411
13.830722
13.819454
13.803075
13.781885
13.756197
13.72632
13.692558
10.953403
10.87463
10.810178
10.760049
10.724268
10.702836
10.695706
10.70268
10.723607
10.758206
10.805903
10.866057
10.937874
11.020423
11.112643
11.213365
11.321334
11.435238
11.553733
11.675471
11.799131
11.923438
12.047186
12.169256
12.288628
12.40439
12.515739
12.621988
12.72256
12.816989
12.904912
12.986061
13.060257
13.127399
13.187457
13.240461
13.286497
13.325693
13.358215
13.384261
13.404052
13.417828
13.42584
13.428364
13.425687
13.418047
13.405703
13.388947
13.368055
13.343295
10.947815
10.857318
10.780536
10.717417
10.667924
10.632005
10.609577
10.600494
10.604498
10.621252
10.650491
10.691574
10.743839
10.806511
10.878712
10.959467
11.047724
11.142374
11.242269
11.346245
11.453146
11.56184
11.671239
11.780315
11.888113
11.993757
12.096462
12.195533
12.290367
12.380453
12.465372
12.544789
12.618448
12.686169
12.747835
12.803393
12.852841
12.896224
12.933627
12.965169
12.990995
13.011277
13.026203
13.035978
13.040815
13.040913
13.036607
13.027946
13.015269
12.998792
10.942699
10.841471
10.753421
10.678453
10.616483
10.567422
10.531149
10.507506
10.496271
10.497159
10.509657
10.533582
10.56822
10.612927
10.666968
10.729525
10.799713
10.876591
10.959182
11.046483
11.137486
11.231195
11.326637
11.42288
11.51904
11.614297
11.707896
11.799155
11.887464
11.972293
12.053187
12.129763
12.201712
12.268788
12.33081
12.387653
12.439243
12.485551
12.526592
12.562412
12.593091
12.618735
12.63947
12.65544
12.666806
12.673734
12.676414
12.675027
12.669784
10.938028
10.827011
10.728693
10.642946
10.569653
10.508691
10.459917
10.423153
10.398181
10.384728
10.382453
10.390846
10.409623
10.438146
10.475778
10.521827
10.575542
10.636124
10.702737
10.774518
10.850592
10.930084
11.012131
11.095894
11.180568
11.265393
11.349655
11.432701
11.513931
11.592813
11.668872
11.7417
11.810948
11.876326
11.937602
11.994594
12.047169
12.095238
12.138753
12.177701
12.212101
12.241999
12.267465
12.28859
12.305482
12.318264
12.32707
12.332042
12.333332
10.933779
10.813861
10.706216
10.610693
10.527151
10.455441
10.395399
10.346836
10.309531
10.283219
10.267588
10.262268
10.266796
10.280732
10.303591
10.334731
10.373507
10.419234
10.471196
10.528646
10.590827
10.65697
10.726313
10.798106
10.871622
10.946162
11.021064
11.095709
11.169522
11.241977
11.312602
11.380973
11.446719
11.509522
11.569111
11.625262
11.677797
11.726579
11.771507
11.812518
11.849577
11.88268
11.911847
11.937119
11.958557
11.97624
11.990257
12.000713
12.007729
10.929927
10.801945
10.685856
10.581496
10.488705
10.407314
10.337144
10.277995
10.229643
10.191829
10.16426
10.146599
10.138466
10.13944
10.148949
10.166686
10.191976
10.224237
10.262849
10.307164
10.356522
10.41025
10.467674
10.528127
10.590953
10.655518
10.721212
10.787456
10.853706
10.919456
10.984242
11.04764
11.109271
11.168798
11.225927
11.280405
11.332019
11.380595
11.425991
11.468102
11.50685
11.542186
11.574087
11.602551
11.627598
11.649263
11.667599
11.682672
11.694567
10.926448
10.791188
10.667486
10.555167
10.454057
10.363975
10.284729
10.216109
10.157887
10.109811
10.071598
10.042936
10.023478
10.01284
10.010605
10.016246
10.029407
10.049525
10.076046
10.108405
10.146021
10.188303
10.234655
10.284483
10.337199
10.392227
10.44901
10.507012
10.565725
10.624668
10.683392
10.741484
10.798564
10.85429
10.908354
10.960485
11.010447
11.058037
11.103084
11.145448
11.185019
11.221709
11.25546
11.286232
11.314008
11.338788
11.360588
11.379442
11.395402
10.92332
10.781521
10.650983
10.531526
10.422965
10.32511
10.237757
10.160691
10.093681
10.036475
9.9888021
9.9503646
9.9208396
9.8998761
9.887095
9.8820882
9.8844068
9.8935797
9.9092165
9.930764
9.9577076
9.9895252
10.025688
10.065665
10.108929
10.154959
10.203247
10.253301
10.304647
10.356834
10.409436
10.462054
10.514316
10.565881
10.616439
10.665707
10.713436
10.759405
10.803421
10.845319
10.88496
10.922232
10.957042
10.989322
11.019023
11.046115
11.070582
11.092429
11.111676
10.920522
10.772876
10.636231
10.510403
10.395199
10.290422
10.195861
10.111294
10.036487
9.9711906
9.9151389
9.868047
9.8296098
9.7995009
9.7773721
9.7628535
9.7555544
9.7550752
9.760888
9.7727286
9.7900417
9.8123697
9.8392392
9.8701743
9.9046995
9.9423439
9.9826446
10.02515
10.069421
10.115038
10.161598
10.208722
10.25605
10.303251
10.350014
10.396057
10.441122
10.484978
10.527417
10.568258
10.607342
10.644534
10.679719
10.712803
10.743713
10.772391
10.798797
10.822908
10.84472
10.918032
10.765189
10.623121
10.491639
10.370547
10.25964
10.158702
10.067506
9.9858153
9.9133814
9.8499428
9.7952235
9.7489324
9.7107617
9.6803868
9.6574665
9.6416432
9.6325439
9.6297767
9.6329085
9.6415753
9.6553708
9.6738429
9.6965614
9.723096
9.753019
9.7859077
9.8213474
9.8589339
9.8982756
9.9389959
9.9807349
10.023151
10.065922
10.108746
10.151344
10.193457
10.234847
10.275302
10.314626
10.35265
10.38922
10.424207
10.457496
10.488993
10.518621
10.546317
10.572037
10.595755
10.915833
10.758404
10.611553
10.47509
10.348814
10.232515
10.125972
10.028953
9.9412214
9.8625276
9.7926137
9.7312109
9.6780382
9.6328025
9.5951971
9.5649027
9.5415868
9.5249043
9.5144984
9.5100023
9.5110344
9.5171722
9.5281311
9.5434618
9.5627723
9.5856721
9.6117741
9.6406965
9.6720659
9.7055182
9.7407013
9.7772764
9.8149191
9.8533213
9.8921916
9.9312564
9.9702606
10.008968
10.04716
10.084638
10.121223
10.156752
10.191081
10.224084
10.255651
10.285688
10.314116
10.340871
10.36591
10.913907
10.752466
10.601436
10.460624
10.329825
10.208823
10.097393
9.9953018
9.9023088
9.8181663
9.742619
9.6754033
9.6162466
9.5648666
9.5209708
9.4842565
9.4544107
9.4311107
9.4140246
9.4028124
9.3971271
9.3966194
9.4008635
9.4096279
9.4224875
9.4390837
9.4590589
9.4820602
9.507741
9.5357626
9.5657955
9.597521
9.6306324
9.664836
9.6998524
9.7354168
9.7712801
9.8072091
9.8429868
9.8784126
9.9133024
9.9474882
9.9808181
10.013156
10.044381
10.074387
10.103081
10.130387
10.156246
10.91224
10.747332
10.592693
10.448127
10.313425
10.188366
10.072723
9.9662579
9.8687307