/*--------------------------------*- C++ -*----------------------------------*\
| =========                 |                                                 |
| \\      /  F ield         | OpenFOAM: The Open Source CFD Toolbox           |
|  \\    /   O peration     | Version:  2312                                  |
|   \\  /    A nd           | Website:  www.openfoam.com                      |
|    \\/     M anipulation  |                                                 |
\*---------------------------------------------------------------------------*/
FoamFile
{
    version     2.0;
    format      ascii;
    arch        "LSB;label=32;scalar=64";
    class       volScalarField;
    location    "0.08";
    object      Ma;
}
// * * * * * * * * * * * * * * * * * * * * * * * * * * * * * * * * * * * * * //

dimensions      [0 0 0 0 0 0 0];

internalField   nonuniform List<scalar> 
3275
(
0.07240293
0.065105853
0.05591426
0.047740305
0.041067698
0.035838432
0.031738167
0.02847245
0.025846469
0.023689103
0.021934403
0.020477504
0.01926107
0.018201144
0.01729608
0.016509216
0.015818771
0.015207248
0.014661404
0.014170824
0.013727227
0.013323862
0.012955188
0.012616664
0.012304481
0.012015441
0.011746831
0.011496338
0.011261973
0.01104202
0.010834989
0.010639576
0.010454642
0.010279179
0.010112298
0.0099532083
0.0098012056
0.0096556593
0.0095160038
0.0093817301
0.0092523789
0.0091275347
0.0090068202
0.0088898896
0.0087764289
0.0086661599
0.0085588243
0.0084541771
0.0083519995
0.0082520907
0.0081542649
0.0080583501
0.071687026
0.06334287
0.05406538
0.046332171
0.040085192
0.035165335
0.031273745
0.02814413
0.025608891
0.023513356
0.02180113
0.02037416
0.019179085
0.018135456
0.017242381
0.016464714
0.015781421
0.015175555
0.014634244
0.014147341
0.01370676
0.013305893
0.012939306
0.012602541
0.012291852
0.012004089
0.011736579
0.011487038
0.011253502
0.011034274
0.010827881
0.010633032
0.010448597
0.01027358
0.010107097
0.009948365
0.0097966839
0.0096514281
0.0095120357
0.009378001
0.0092488672
0.0091242213
0.0090036882
0.0088869253
0.0087736187
0.0086634912
0.0085562858
0.008451759
0.0083496934
0.0082498889
0.0081521595
0.0080563354
0.069603159
0.059426123
0.050357124
0.043605989
0.038202132
0.033870769
0.03037414
0.027505453
0.025144656
0.023168615
0.021538866
0.020170288
0.019016975
0.018005366
0.017135888
0.016376364
0.015707203
0.015112529
0.014580198
0.014100587
0.013665991
0.013270084
0.012907647
0.01257438
0.012266663
0.011981443
0.011716122
0.011468477
0.011236593
0.011018812
0.01081369
0.010619965
0.010436528
0.010262399
0.010096711
0.0099386919
0.0097876527
0.0096429765
0.0095041091
0.0093705512
0.0092418516
0.0091176018
0.008997431
0.008881001
0.008768002
0.0086581571
0.0085512112
0.0084469249
0.0083450827
0.0082454861
0.0081479499
0.0080523054
0.064013265
0.052658413
0.044817306
0.039747788
0.035574326
0.032047787
0.029095004
0.02659
0.02447426
0.022667593
0.021155719
0.019871272
0.018778327
0.017813365
0.016978368
0.016245451
0.015597068
0.015018886
0.014499813
0.014030986
0.013605253
0.013216702
0.012860423
0.012532354
0.012229056
0.011947619
0.011685558
0.011440738
0.011211316
0.010995691
0.010792467
0.01060042
0.010418471
0.010245669
0.010081168
0.0099242139
0.0097741338
0.0096303238
0.0094922411
0.0093593959
0.0092313455
0.0091076883
0.0089880598
0.0088721275
0.0087595872
0.0086501646
0.0085436075
0.0084396813
0.0083381732
0.0082388876
0.0081416405
0.0080462646
0.049800798
0.042012274
0.037782578
0.035086696
0.032386358
0.029853534
0.027518111
0.025443817
0.02362616
0.022028147
0.020663177
0.019484827
0.018468319
0.017563058
0.016772403
0.016073856
0.015452414
0.014895682
0.0143939
0.013939168
0.013525042
0.013146141
0.012797952
0.012476721
0.012179243
0.011902794
0.011645033
0.011403944
0.011177775
0.010965001
0.010764287
0.01057446
0.010394484
0.010223439
0.010060511
0.0099049686
0.0097561602
0.0096134993
0.0094764577
0.0093445584
0.0092173697
0.0090944994
0.0089755911
0.0088603198
0.0087483882
0.0086395263
0.0085334861
0.0084300385
0.0083289744
0.0082301014
0.0081332386
0.0080382202
0.021336034
0.029615027
0.030548039
0.030392509
0.029110293
0.027522451
0.025842837
0.024197763
0.022690621
0.021315035
0.020108881
0.01904705
0.018114857
0.017276358
0.016535609
0.015875963
0.01528516
0.014752918
0.014270945
0.013832409
0.013431652
0.01306389
0.012725059
0.012411747
0.012121021
0.011850365
0.011597607
0.011360859
0.01113848
0.01092903
0.010731246
0.010544011
0.010366338
0.010197348
0.010036259
0.0098823684
0.0097350484
0.0095937326
0.0094579102
0.0093271191
0.00920094
0.0090789921
0.0089609284
0.0088464322
0.008735214
0.0086270095
0.008521576
0.00841869
0.0083181468
0.0082197581
0.0081233462
0.008028748
0.0094356288
0.02074175
0.024373735
0.026033781
0.025972781
0.025219256
0.024136384
0.022919276
0.021711411
0.020560626
0.019517076
0.018576532
0.01773246
0.016964667
0.01627718
0.015659283
0.015101529
0.014595815
0.014135376
0.013714499
0.01332836
0.012972803
0.012644246
0.012339646
0.012056357
0.011792091
0.011544855
0.011312908
0.011094723
0.010888954
0.010694416
0.010510056
0.010334939
0.01016823
0.010009184
0.0098571288
0.0097114635
0.0095716438
0.0094371779
0.0093076199
0.0091825649
0.0090616441
0.008944521
0.0088308884
0.008720465
0.0086129931
0.0085082363
0.0084059768
0.0083060148
0.0082081665
0.0081122578
0.0080181287
0.0055209228
0.014827345
0.019249909
0.021983111
0.02287457
0.022862361
0.022332649
0.021542813
0.020643258
0.019723903
0.018853501
0.018045089
0.017297417
0.016607804
0.01598001
0.015409151
0.014888863
0.014413378
0.013977582
0.013576989
0.013207691
0.012866237
0.012549578
0.012255087
0.011980444
0.011723619
0.011482824
0.011256481
0.011043197
0.010841736
0.010651
0.010470009
0.01029789
0.010133858
0.0099772107
0.0098273129
0.0096835928
0.0095455326
0.0094126626
0.0092845563
0.0091608248
0.0090411137
0.008925099
0.0088124843
0.0087029976
0.0085963896
0.008492431
0.0083909108
0.0082916349
0.0081944246
0.00809911
0.0080055349
0.0044167155
0.010948211
0.015172336
0.018382219
0.0199352
0.02052709
0.020494257
0.020097118
0.019506581
0.018819807
0.01812591
0.017457932
0.016813626
0.016207446
0.015645016
0.015125924
0.014647162
0.014205383
0.013797206
0.013419441
0.013069167
0.012743694
0.012440555
0.012157579
0.011892806
0.011644491
0.011411074
0.011191161
0.010983508
0.010787002
0.010600642
0.010423535
0.010254873
0.010093932
0.0099400559
0.0097926514
0.0096511812
0.0095151573
0.0093841353
0.0092577103
0.0091355127
0.0090172042
0.008902475
0.0087910411
0.0086826415
0.0085770364
0.0084740049
0.0083733434
0.0082748647
0.0081783958
0.0080837718
0.0079908409
0.0039608737
0.0083899529
0.012025696
0.015291413
0.017239314
0.01828249
0.018666963
0.018622944
0.018318722
0.017865306
0.017346564
0.016819081
0.016285629
0.01576612
0.015273688
0.014810445
0.014376798
0.013971897
0.013594111
0.01324159
0.012912443
0.01260478
0.012316759
0.012046694
0.011793015
0.011554286
0.011329196
0.011116553
0.010915276
0.010724386
0.010542996
0.010370302
0.010205575
0.010048153
0.0098974348
0.009752874
0.0096139717
0.0094802733
0.0093513629
0.0092268605
0.0091064174
0.0089897141
0.0088764567
0.0087663754
0.0086592215
0.0085547659
0.0084527974
0.008353121
0.0082555569
0.0081599387
0.0080661074
0.0079739162
0.0037243159
0.0067205049
0.0096591628
0.012714042
0.014834851
0.016181337
0.016892823
0.01715231
0.017107211
0.016871538
0.016528003
0.016136602
0.015717752
0.015287994
0.014868106
0.014464048
0.014078539
0.013713295
0.013368406
0.013043364
0.012737324
0.012449223
0.012177865
0.011922078
0.011680702
0.01145263
0.011236817
0.011032289
0.010838143
0.010653545
0.010477728
0.010309991
0.010149687
0.0099962257
0.0098490663
0.009707712
0.0095717078
0.0094406356
0.0093141117
0.0091917833
0.0090733255
0.0089584393
0.0088468491
0.0087383004
0.0086325587
0.0085294068
0.0084286444
0.008330086
0.0082335604
0.0081389084
0.0080459775
0.0079546269
0.0035963886
0.0056435602
0.0079186471
0.010616632
0.012741019
0.014258781
0.015207704
0.015712906
0.015895124
0.015855903
0.015679674
0.015422336
0.01511375
0.01477766
0.014431038
0.014088506
0.013753553
0.013430278
0.013120464
0.012824902
0.012543788
0.012276885
0.012023661
0.011783467
0.011555569
0.011339205
0.01113361
0.01093804
0.010751781
0.010574154
0.010404523
0.010242294
0.010086913
0.009937865
0.0097946747
0.0096569007
0.009524135
0.0093960003
0.0092721477
0.0091522544
0.0090360219
0.0089231738
0.0088134543
0.0087066266
0.0086024711
0.0085007845
0.0084013783
0.0083040775
0.0082087204
0.008115156
0.0080232388
0.0079328348
0.0035178556
0.0049482044
0.0066622295
0.0089453215
0.010955279
0.012534744
0.013637532
0.01433029
0.014701544
0.014837011
0.014812232
0.014683931
0.014482835
0.014237484
0.013966716
0.013686013
0.0134034
0.013123887
0.01285093
0.012586567
0.012331993
0.012087779
0.011854054
0.011630693
0.011417398
0.011213759
0.011019302
0.01083352
0.010655896
0.010485919
0.010323087
0.010166924
0.01001697
0.0098727956
0.0097339932
0.0096001816
0.0094710039
0.0093461267
0.0092252388
0.0091080505
0.0089942916
0.0088837106
0.0087760735
0.0086711624
0.0085687747
0.0084687219
0.0083708285
0.0082749314
0.0081808789
0.0080885294
0.0079977448
0.0079083987
0.003461602
0.0044938894
0.0057688319
0.0076379069
0.0094600475
0.011016239
0.012199523
0.013024104
0.013544977
0.013828737
0.013939515
0.013929141
0.013831552
0.013673501
0.013478184
0.013259854
0.013029991
0.012795487
0.012560732
0.012328958
0.012102294
0.011882079
0.011669084
0.011463702
0.011266065
0.011076117
0.01089368
0.010718492
0.010550239
0.010388579
0.010233157
0.010083614
0.0099395956
0.0098007574
0.0096667667
0.0095373057
0.009412072
0.0092907793
0.009173157
0.0090589508
0.0089479212
0.0088398436
0.0087345075
0.0086317159
0.0085312842
0.0084330401
0.0083368225
0.0082424811
0.0081498754
0.0080588735
0.0079693458
0.0078811739
0.0034177506
0.0041914515
0.0051404248
0.0066318521
0.0082285702
0.0097001925
0.010902996
0.01180858
0.012440486
0.012844658
0.013072406
0.013168448
0.013165877
0.013092157
0.012968776
0.012813107
0.012635854
0.012446732
0.012251075
0.012052911
0.011855248
0.01166013
0.011468939
0.011282559
0.011101543
0.010926187
0.010756604
0.010592779
0.010434606
0.010281916
0.010134501
0.0099921277
0.0098545486
0.0097215096
0.009592756
0.0094680367
0.0093471072
0.0092297308
0.0091156804
0.0090047392
0.0088967007
0.0087913689
0.0086885588
0.0085880954
0.0084898141
0.0083935597
0.0082991868
0.0082065588
0.0081155474
0.0080260314
0.00793789
0.0078510133
0.0033824555
0.0039851382
0.0047005555
0.0058687978
0.0072294757
0.008576257
0.0097505886
0.010692936
0.011399653
0.011896587
0.012221233
0.012410445
0.01249398
0.012497975
0.012444064
0.012348221
0.012223883
0.012079682
0.011923409
0.011759501
0.011591618
0.011422456
0.011253955
0.011087459
0.010923919
0.01076397
0.010608012
0.010456273
0.010308852
0.010165757
0.010026929
0.0098922614
0.0097616169
0.0096348348
0.0095117411
0.0093921545
0.0092758905
0.0091627648
0.009052596
0.0089452068
0.0088404256
0.008738087
0.0086380328
0.0085401118
0.0084441802
0.0083501019
0.0082577478
0.008166996
0.0080777316
0.0079898448
0.0079032242
0.0078177681
0.0033536622
0.0038401615
0.0043917052
0.0052967829
0.0064299574
0.007629278
0.008739624
0.0096819076
0.010430813
0.010994014
0.011395421
0.011663147
0.011822753
0.011897472
0.01190778
0.011869844
0.011795991
0.011696967
0.01157947
0.011450018
0.011312373
0.011169762
0.011024628
0.010878733
0.010733396
0.01058957
0.010447929
0.010308937
0.010172896
0.010039985
0.0099102957
0.0097838503
0.0096606213
0.0095405436
0.0094235261
0.0093094588
0.0091982198
0.009089679
0.0089837023
0.0088801541
0.0087788992
0.0086798045
0.0085827398
0.0084875793
0.0083942015
0.0083024898
0.008212333
0.008123625
0.0080362649
0.0079501552
0.0078651946
0.0077812883
0.0033299518
0.0037348056
0.004172186
0.0048712468
0.0057978627
0.0068412744
0.0078634359
0.0087764177
0.0095392509
0.01014426
0.010602795
0.01093413
0.011158598
0.011296296
0.011365282
0.011381049
0.011356112
0.011300156
0.011221625
0.011125962
0.011018675
0.010902936
0.010781615
0.010656856
0.010530301
0.010403197
0.010276474
0.010150818
0.010026724
0.0099045426
0.0097845094
0.0096667747
0.0095514211
0.0094384798
0.009327943
0.0092197737
0.0091139135
0.0090102882
0.0089088126
0.008809394
0.0087119352
0.0086163365
0.0085224974
0.0084303183
0.0083397011
0.0082505502
0.0081627729
0.0080762799
0.0079909852
0.0079068048
0.0078236483
0.0077414231
0.0033102525
0.0036554809
0.0040128275
0.0045553624
0.0053030589
0.0061929461
0.0071125529
0.007974294
0.0087275217
0.0093525272
0.0098496914
0.010229858
0.010507781
0.010699652
0.010821261
0.010886302
0.010906834
0.010892621
0.010851209
0.010789454
0.01071185
0.010623032
0.010525735
0.010422445
0.010315091
0.010205177
0.010093865
0.009982048
0.0098704028
0.0097594391
0.0096495352
0.0095409648
0.0094339192
0.0093285247
0.0092248565
0.0091229511
0.0090228142
0.0089244283
0.0088277581
0.0087327548
0.0086393603
0.0085475093
0.0084571323
0.0083681567
0.0082805089
0.0081941151
0.0081089021
0.0080247981
0.007941733
0.007859637
0.0077784309
0.0076980211
0.0032937318
0.0035936463
0.0038938307
0.0043198284
0.0049183444
0.0056647976
0.006475693
0.0072709688
0.0079958363
0.0086220432
0.0091409461
0.0095557667
0.0098756875
0.010112832
0.010280076
0.01038956
0.010451939
0.010476587
0.010471143
0.010441676
0.010393796
0.010331251
0.010257958
0.010176266
0.010088353
0.009995951
0.009900426
0.0098028536
0.0097040773
0.0096047562
0.0095054019
0.0094064069
0.0093080675
0.0092106023
0.0091141688
0.0090188757
0.008924793
0.0088319598
0.0087403912
0.0086500831
0.008561017
0.008473163
0.008386483
0.0083009325
0.0082164632
0.0081330237
0.0080505611
0.007969022
0.0078883525
0.007808496
0.0077293832
0.0032797297
0.0035438689
0.0038020404
0.0041422073
0.0046200363
0.005237985
0.0059405737
0.0066601146
0.0073424721
0.0079542676
0.0084799573
0.0089162311
0.0092670329
0.0095404139
0.0097462257
0.0098945522
0.0099947963
0.010055311
0.010083385
0.010085176
0.0100656
0.010029291
0.009979385
0.0099192194
0.0098508074
0.0097760822
0.0096965882
0.0096135579
0.0095279814
0.0094406528
0.0093522072
0.009263148
0.0091738713
0.0090846844
0.0089958236
0.0089074688
0.0088197529
0.0087327714
0.0086465892
0.0085612473
0.008476767
0.0083931541
0.0083104024
0.0082284963
0.008147413
0.0080671245
0.0079875987
0.007908801
0.0078306937
0.0077532317
0.0076763557
0.0032677272
0.0035026422
0.0037288415
0.0040059108
0.0043882646
0.0048949599
0.0054945679
0.0061342
0.0067641735
0.0073491331
0.0078687932
0.008314579
0.0086857566
0.0089865104
0.009223675
0.0094051077
0.0095386684
0.0096317056
0.0096907819
0.0097217111
0.0097294963
0.0097181719
0.0096915517
0.0096523247
0.0096032958
0.0095462522
0.0094828937
0.0094145846
0.0093424392
0.0092673699
0.0091901221
0.0091113009
0.0090313948
0.0089507945
0.0088698112
0.008788693
0.0087076338
0.0086267841
0.0085462582
0.0084661412
0.008386494
0.0083073585
0.0082287606
0.0081507135
0.0080732207
0.0079962775
0.0079198734
0.007843993
0.0077686159
0.0076937088
0.0076192207
0.0032573234
0.0034676718
0.0036686125
0.0038990181
0.0042069996
0.0046199727
0.0051252456
0.0056849676
0.0062565257
0.0068052998
0.0073083309
0.0077531332
0.0081350284
0.0084546949
0.0087160608
0.0089247169
0.0090868559
0.0092086428
0.0092958734
0.0093538007
0.0093870878
0.0093998579
0.0093954393
0.0093769657
0.0093467856
0.0093072557
0.0092599948
0.0092064596
0.0091478684
0.0090852333
0.0090193949
0.0089510481
0.0088807652
0.008809013
0.0087361725
0.0086625561
0.008588416
0.0085139553
0.0084393362
0.0083646868
0.0082901075
0.0082156752
0.0081414479
0.0080674677
0.0079937643
0.0079203568
0.0078472562
0.0077744668
0.0077019866
0.0076297947
0.0075578445
0.003248213
0.0034374344
0.0036176817
0.0038131163
0.0040637119
0.0043994508
0.0048208833
0.0053038783
0.0058143045
0.0063204113
0.0067984327
0.0072333141
0.0076172779
0.0079479596
0.0082266052
0.0084566054
0.0086424478
0.008789027
0.0089012273
0.0089836804
0.0090406306
0.0090758422
0.0090927648
0.0090941141
0.0090825127
0.0090600268
0.0090286473
0.0089898101
0.0089447813
0.0088946567
0.0088403542
0.0087826454
0.008722176
0.0086594806
0.0085950031
0.0085291154
0.008462124
0.008394282
0.0083257971
0.008256839
0.0081875456
0.0081180287
0.0080483775
0.0079786629
0.0079089403
0.0078392526
0.0077696322
0.0077001032
0.0076306806
0.0075613549
0.0032401646
0.0034109015
0.0035736397
0.0037423454
0.0039488278
0.0042220218
0.0045708403
0.0049825652
0.0054318729
0.0058913881
0.0063381341
0.006755752
0.0071342324
0.007468719
0.0077580918
0.0080036913
0.0082083343
0.0083756113
0.0085094224
0.0086136771
0.0086921066
0.0087481649
0.0087849446
0.0088052337
0.0088114838
0.0088056679
0.0087897664
0.0087653568
0.0087337826
0.0086961422
0.0086534113
0.0086064246
0.0085558908
0.0085024022
0.0084464568
0.0083884811
0.0083288309
0.0082678053
0.0082056547
0.0081425877
0.0080787788
0.0080143727
0.0079494891
0.0078842268
0.0078186665
0.0077528745
0.0076869043
0.0076207987
0.0075545866
0.0074882752
0.0032330032
0.0033873644
0.0035348911
0.0036826588
0.0038551693
0.0040783638
0.0043656551
0.0047130315
0.0051034167
0.0055146492
0.0059258074
0.0063203718
0.0066869609
0.0070188233
0.0073128522
0.0075685531
0.0077871674
0.0079709993
0.0081229333
0.0082461004
0.0083436519
0.0084186101
0.0084738285
0.0085118018
0.0085348969
0.0085451585
0.0085443123
0.0085340085
0.0085155584
0.0084902788
0.0084590619
0.008422796
0.0083822451
0.008338049
0.0082907489
0.0082408198
0.008188661
0.0081346131
0.0080789653
0.0080219625
0.0079638132
0.0079046933
0.0078447516
0.0077841135
0.0077228847
0.0076611538
0.0075989951
0.0075364696
0.0074736208
0.0074104764
0.0032265948
0.0033663224
0.0035003658
0.0036312765
0.0037774388
0.003960995
0.0041970855
0.0044877683
0.004823054
0.0051862105
0.0055592491
0.0059264645
0.0062759187
0.0065995747
0.0068927592
0.0071534063
0.007381329
0.0075776075
0.0077441191
0.0078831901
0.0079973466
0.0080891385
0.0081610511
0.0082153797
0.0082542596
0.0082796208
0.0082932578
0.0082965638
0.0082910368
0.0082777373
0.0082578827
0.008232248
0.0082016479
0.0081667614
0.0081281584
0.0080863571
0.0080417934
0.0079948435
0.0079458317
0.0078950351
0.0078426934
0.0077890118
0.0077341661
0.0076783071
0.0076215639
0.0075640467
0.0075058499
0.0074470526
0.0073877136
0.0073278813
0.0032208353
0.0033474104
0.003469331
0.0035862897
0.0037117742
0.0038640276
0.0040581103
0.0042998796
0.004584976
0.0049018006
0.0052357713
0.0055727554
0.0059009896
0.0062117463
0.0064992247
0.0067600873
0.0069929042
0.0071976338
0.0073751889
0.0075270946
0.0076552302
0.0077616378
0.0078484028
0.0079175403
0.0079709628
0.0080104695
0.0080376708
0.0080540349
0.0080609112
0.0080593734
0.008050541
0.008035343
0.0080145806
0.0079889499
0.00795903
0.0079253799
0.007888464
0.0078486878
0.0078064057
0.0077619225
0.0077155063
0.0076673883
0.0076177695
0.007566824
0.0075147028
0.0074615367
0.0074074391
0.0073525066
0.0072968137
0.0072404274
0.0032156418
0.003330353
0.0034412715
0.0035463828
0.0036553833
0.0037829063
0.0039428785
0.0041431811
0.0043835901
0.0046569872
0.0049522998
0.0052574729
0.0055615299
0.0058556037
0.0061332046
0.0063900423
0.0066236606
0.0068330301
0.007018172
0.0071798412
0.0073192717
0.0074379807
0.0075376307
0.0076199149
0.0076864956
0.0077389793
0.0077788598
0.0078074769
0.0078261031
0.0078359029
0.0078377764
0.0078327909
0.0078215914
0.0078050938
0.007783775
0.0077582376
0.007728968
0.007696392
0.0076608904
0.0076227896
0.0075823829
0.0075399241
0.0074956367
0.007449716
0.007402333
0.0073536376
0.0073037609
0.0072528163
0.0072008933
0.0071480758
0.003210947
0.003314934
0.0034158113
0.0035106391
0.0036062566
0.0037141554
0.0038466126
0.0040122576
0.004213651
0.0044473118
0.0047054778
0.0049784248
0.0052564178
0.0055309326
0.0057952067
0.0060443224
0.0062750327
0.006485479
0.0066748906
0.0068433064
0.0069913384
0.0071199796
0.0072304583
0.0073241212
0.0074023563
0.0074665497
0.0075180326
0.0075580311
0.0075877276
0.0076081843
0.0076203661
0.0076251971
0.0076233943
0.0076157411
0.0076028684
0.007585342
0.0075636611
0.0075382592
0.0075095427
0.0074778515
0.0074435013
0.0074067646
0.0073678838
0.0073270732
0.0072845216
0.0072403961
0.0071948442
0.0071479944
0.0070999509
0.0070508128
0.0032066951
0.0033009775
0.0033926644
0.003478409
0.0035629471
0.0036551492
0.0037654791
0.003902473
0.0040703636
0.0042684209
0.0044917831
0.0047330823
0.0049841107
0.005237072
0.0054853062
0.0057235837
0.0059481104
0.0061563754
0.0063469354
0.0065191891
0.0066731686
0.0068093602
0.0069285599
0.0070317568
0.0071200474
0.0071945784
0.0072564936
0.0073068854
0.0073468129
0.0073772748
0.0073991601
0.007413325
0.0074205771
0.0074215259
0.0074169035
0.0074071644
0.0073929601
0.0073746492
0.0073526744
0.0073273752
0.0072990889
0.0072681009
0.0072346701
0.0071990262
0.0071613736
0.0071218946
0.0070807509
0.0070380853
0.0069940146
0.006948652
0.0032028383
0.0032883355
0.0033716028
0.0034492196
0.0035244077
0.0036039166
0.0036964464
0.0038099373
0.00394945
0.004116181
0.004307645
0.0045186745
0.0047427115
0.0049729566
0.0052031673
0.0054280931
0.0056436337
0.0058468115
0.0060356456
0.0062089868
0.0063663458
0.0065077355
0.0066335347
0.0067443754
0.0068410545
0.006924468
0.0069955554
0.0070552548
0.0071044929
0.0071441649
0.0071750937
0.0071980848
0.0072138635
0.0072230897
0.0072264087
0.0072243012
0.0072173566
0.0072059736
0.0071906527
0.0071716811
0.0071494235
0.0071241726
0.0070962003
0.0070657487
0.0070330347
0.0069982534
0.0069615791
0.0069231664
0.0068831437
0.006841637
0.0031993358
0.0032768799
0.0033524365
0.0034227151
0.0034898716
0.0035589811
0.0036371424
0.003731444
0.0038471773
0.0039867681
0.0041495546
0.0043322891
0.0045300433
0.0047371679
0.0049480735
0.0051577418
0.0053619927
0.0055575677
0.0057420922
0.0059139741
0.0060722752
0.0062165814
0.0063468817
0.0064634631
0.0065668239
0.006657605
0.0067365328
0.006804374
0.0068619135
0.0069099275
0.0069491578
0.0069803292
0.007004123
0.0070211651
0.0070320272
0.0070372612
0.0070373749
0.0070327706
0.0070239026
0.0070111411
0.0069948343
0.0069752684
0.006952726
0.0069274589
0.0068996926
0.0068696332
0.0068374646
0.0068033515
0.0067674321
0.0067298436
0.0031961517
0.0032664978
0.0033350008
0.0033986163
0.0034587678
0.0035192341
0.003585725
0.0036643867
0.003760353
0.0038767297
0.0040141605
0.0041709716
0.0043437337
0.0045279936
0.004718967
0.0049120664
0.0051032341
0.0052891084
0.0054670665
0.0056351857
0.0057921626
0.005937214
0.006069977
0.0061904158
0.0062987406
0.00639534
0.0064807244
0.0065554798
0.0066202384
0.0066756513
0.0067223611
0.0067610071
0.0067922055
0.0068165324
0.0068345314
0.006846714
0.0068535473
0.0068554982
0.0068529155
0.006846219
0.0068357019
0.0068217263
0.0068045472
0.0067844216
0.0067615796
0.0067362368
0.0067085838
0.0066787929
0.0066470098
0.0066133821
0.0031932544
0.0032570882
0.0033191489
0.0033766951
0.0034306603
0.003483837
0.0035407685
0.0036066713
0.0036862925
0.0037830151
0.0038983429
0.0040318167
0.004181302
0.004343497
0.0045144954
0.0046902787
0.0048670762
0.0050415845
0.0052110726
0.0053734033
0.0055269972
0.005670769
0.0058040511
0.0059265164
0.0060381059
0.006138966
0.0062293937
0.0063097914
0.0063806337
0.0064424381
0.0064957402
0.0065410842
0.0065790102
0.0066100369
0.0066346622
0.006653354
0.0066665714
0.0066747218
0.0066781831
0.0066773457
0.0066724803
0.0066639639
0.006652012
0.0066369477
0.0066189735
0.0065983108
0.0065751547
0.0065496827
0.0065220456
0.0064923999
0.003190616
0.0032485596
0.0033047469
0.0033567568
0.0034052061
0.0034521479
0.0035011688
0.0035566271
0.0036227693
0.0037029796
0.003799265
0.0039120452
0.0040402419
0.0041815924
0.0043330697
0.0044913039
0.0046529313
0.0048148422
0.0049743271
0.0051291461
0.0052775365
0.0054181835
0.0055501693
0.0056729142
0.0057861167
0.0058896976
0.0059837496
0.0060684943
0.0061442473
0.0062113893
0.006270341
0.0063215476
0.0063654645
0.0064025441
0.0064332291
0.0064579452
0.0064771067
0.0064911005
0.0065002984
0.0065050322
0.0065056146
0.0065023777
0.0064955388
0.0064854213
0.0064721986
0.0064561455
0.0064374397
0.006416255
0.006392749
0.0063670829
0.0031882116
0.0032408293
0.0032916713
0.0033386304
0.0033821266
0.0034236668
0.0034660672
0.0035129275
0.0035679572
0.0036343672
0.0037144
0.0038090643
0.0039180961
0.0040401186
0.0041729282
0.0043138276
0.0044599366
0.0046084411
0.0047567647
0.0049026686
0.0050442977
0.0051801823
0.0053092139
0.0054306052
0.005543845
0.0056486512
0.0057449268
0.0058327205
0.0059121929
0.0059835875
0.0060472064
0.0061033924
0.0061525122
0.0061949435
0.0062310679
0.0062612609
0.0062858922
0.0063053166
0.0063198731
0.006329878
0.0063356413
0.0063374416
0.0063355385
0.0063302118
0.0063216422
0.0063101023
0.0062957479
0.006278783
0.0062593732
0.0062376579
0.0031860188
0.0032338215
0.0032798071
0.003322161
0.0033611876
0.0033979953
0.0034347895
0.003474519
0.0035203689
0.0035752785
0.0036415369
0.003720508
0.0038125188
0.0039169086
0.0040322018
0.0041563511
0.0042869936
0.0044216797
0.0045580517
0.0046939639
0.0048275527
0.0049572676
0.0050818704
0.0052004155
0.0053122196
0.0054168254
0.0055139662
0.0056035307
0.0056855319
0.0057600804
0.0058273597
0.0058876081
0.0059411015
0.0059881395
0.006029036
0.006064111
0.0060936854
0.0061180745
0.0061375839
0.0061525065
0.0061631253
0.0061697053
0.006172507
0.0061717631
0.0061676912
0.0061605299
0.0061504383
0.0061376058
0.0061222283
0.0061043903
0.0031840178
0.0032274675
0.0032690473
0.0033072062
0.0033421862
0.0033748086
0.0034067998
0.0034405627
0.0034787982
0.0035241303
0.0035787699
0.0036442586
0.0037213227
0.0038098503
0.0039089774
0.0040172488
0.0041328151
0.0042536278
0.0043776077
0.0045027741
0.0046273304
0.0047497139
0.0048686173
0.0049829875
0.0050920098
0.005195084
0.0052917973
0.0053818955
0.0054652563
0.0055418641
0.005611788
0.005675163
0.0057321731
0.0057830381
0.0058280016
0.0058673228
0.0059012706
0.0059301159
0.0059541272
0.0059735671
0.0059886918
0.0059997474
0.0060069718
0.0060105872
0.0060108145
0.0060078507
0.0060018824
0.0059930813
0.0059816215
0.0059676205
0.0031821907
0.0032217044
0.003259292
0.0032936336
0.0033249422
0.0033538344
0.0033816646
0.0034103857
0.003442268
0.0034796117
0.0035244757
0.0035784514
0.0036425096
0.0037169363
0.0038013558
0.0038948259
0.003995977
0.0041031678
0.0042146333
0.004328609
0.0044434252
0.0045575691
0.0046697211
0.0047787703
0.0048838129
0.0049841405
0.0050792212
0.0051686789
0.005252271
0.0053298667
0.0054014274
0.0054669888
0.0055266451
0.0055805353
0.0056288323
0.0056717322
0.0057094485
0.0057422044
0.0057702278
0.005793747
0.0058129881
0.005828173
0.0058395176
0.0058472293
0.0058515096
0.0058525467
0.0058505295
0.0058456064
0.0058379381
0.0058276842
0.0031805216
0.003216475
0.003250448
0.0032813195
0.0033092923
0.0033348389
0.0033590269
0.0033834427
0.0034099842
0.0034406417
0.0034772839
0.0035214665
0.0035742868
0.0036362995
0.0037075007
0.0037873717
0.0038749692
0.0039690408
0.0040681464
0.0041707701
0.004275413
0.0043806622
0.0044852366
0.0045880145
0.0046880449
0.0047845462
0.0048768971
0.004964623
0.0050473788
0.0051249324
0.0051971472
0.0052639663
0.0053253982
0.0053815034
0.0054323836
0.0054781721
0.0055190255
0.0055551169
0.0055866307
0.0056137578
0.0056366917
0.0056556262
0.0056707531
0.0056822601
0.0056903302
0.0056951392
0.0056968574
0.0056956345
0.0056916244
0.0056849715
0.0031789961
0.0032117278
0.003242429
0.003270148
0.0032950868
0.0033176169
0.0033385864
0.0033592862
0.0033812981
0.0034063292
0.0034360449
0.0034719121
0.003515069
0.0035662363
0.0036256774
0.003693208
0.0037682464
0.0038498929
0.0039370235
0.0040283838
0.0041226737
0.0042186173
0.0043150141
0.0044107735
0.0045049361
0.0045966823
0.0046853313
0.0047703347
0.0048512657
0.0049278066
0.004999735
0.0050669106
0.0051292624
0.0051867765
0.005239486
0.0052874616
0.0053308035
0.005369634
0.0054040922
0.005434329
0.0054605034
0.0054827786
0.0055013197
0.0055162916
0.0055278571
0.0055361755
0.0055414012
0.0055436776
0.005543137
0.0055399283
0.003177601
0.0032074154
0.0032351554
0.0032600105
0.0032821868
0.0033019851
0.0033200856
0.0033375432
0.0033556754
0.0033759383
0.0033997973
0.0034286016
0.0034634722
0.0035052168
0.0035542794
0.0036107274
0.0036742728
0.003744322
0.0038200425
0.003900438
0.0039844203
0.0040708749
0.0041587127
0.0042469097
0.0043345327
0.0044207564
0.00450487
0.0045862769
0.00466449
0.0047391236
0.0048098838
0.0048765579
0.0049390036
0.0049971388
0.0050509321
0.005100394
0.0051455694
0.0051865304
0.0052233707
0.0052561999
0.0052851405
0.0053103235
0.0053318854
0.0053499661
0.0053647063
0.0053762461
0.0053847234
0.0053902686
0.005392999
0.005393061
0.0031763248
0.0032034947
0.0032285534
0.0032508061
0.0032704632
0.0032877769
0.0033032993
0.0033178976
0.0033326711
0.0033488582
0.0033677376
0.0033905289
0.003418299
0.0034518857
0.0034918446
0.0035384227
0.003591561
0.0036509202
0.0037159256
0.0037858221
0.0038597335
0.0039367186
0.0040158208
0.0040961083
0.0041767035
0.0042568046
0.0043356975
0.0044127625
0.0044874738
0.0045593965
0.0046281806
0.0046935534
0.0047553115
0.0048133122
0.0048674652
0.0049177251
0.0049640841
0.0050065655
0.005045218
0.0050801107
0.0051113286
0.0051389692
0.0051631392
0.0051839518
0.0052015241
0.0052159752
0.0052274247
0.0052359875
0.0052417658
0.005244899
0.0031751571
0.0031999271
0.0032225548
0.0032424401
0.0032597959
0.0032748402
0.003288028
0.0033000777
0.0033119102
0.0033245787
0.0033391933
0.0033568434
0.0033785214
0.0034050561
0.0034370618
0.0034749065
0.0035187016
0.0035683113
0.0036233793
0.0036833669
0.0037475985
0.0038153076
0.0038856809
0.0039578962
0.0040311539
0.0041046991
0.0041778392
0.0042499538
0.0043204997
0.0043890113
0.0044550985
0.0045184424
0.0045787896
0.0046359457
0.0046897689
0.0047401631
0.0047870719
0.0048304726
0.0048703706
0.0049067951
0.0049397944
0.0049694323
0.0049957848
0.0050189373
0.0050389823
0.0050560167
0.0050701402
0.0050814504
0.0050900337
0.00509602
0.0031740884
0.0031966777
0.0032170975
0.0032348247
0.0032500726
0.0032630347
0.0032740921
0.0032838462
0.0032930731
0.0033026701
0.0033135995
0.0033268271