/*--------------------------------*- C++ -*----------------------------------*\
| =========                 |                                                 |
| \\      /  F ield         | OpenFOAM: The Open Source CFD Toolbox           |
|  \\    /   O peration     | Version:  2312                                  |
|   \\  /    A nd           | Website:  www.openfoam.com                      |
|    \\/     M anipulation  |                                                 |
\*---------------------------------------------------------------------------*/
FoamFile
{
    version     2.0;
    format      ascii;
    arch        "LSB;label=32;scalar=64";
    class       volScalarField;
    location    "0.08";
    object      N2;
}
// * * * * * * * * * * * * * * * * * * * * * * * * * * * * * * * * * * * * * //

dimensions      [0 0 0 0 0 0 0];

internalField   nonuniform List<scalar> 
3275
(
0.023538157
0.10427514
0.19110986
0.26595262
0.32739851
0.3763011
0.41612214
0.44900406
0.4765955
0.50000045
0.520092
0.53465313
0.54876638
0.56097197
0.57151628
0.5806944
0.58875154
0.59588861
0.60226327
0.60799888
0.61319284
0.61792391
0.62225659
0.62624341
0.62992789
0.63334643
0.63652966
0.63950363
0.64229057
0.64490963
0.64737737
0.64970822
0.65191478
0.65400815
0.65599812
0.65789337
0.65970165
0.66142987
0.66308424
0.66467036
0.66619326
0.66765754
0.66906737
0.67042651
0.67173839
0.6730062
0.6742329
0.67542123
0.67657367
0.67769257
0.67878009
0.67983829
0.036542045
0.12905969
0.21092573
0.28008225
0.33716295
0.38279787
0.42060982
0.45217159
0.47890213
0.50171447
0.52138172
0.53569334
0.54958418
0.56162597
0.57204877
0.58113465
0.58912055
0.59620172
0.60253187
0.60823157
0.6133962
0.61810306
0.62241554
0.62638534
0.63005537
0.63346154
0.6366341
0.63959881
0.64237766
0.64498962
0.64745109
0.64977637
0.65197797
0.65406689
0.65605287
0.65794452
0.65974955
0.66147481
0.66312648
0.66471013
0.66623078
0.66769299
0.66910089
0.67045827
0.67176852
0.67303484
0.67426015
0.67544719
0.67659843
0.67771621
0.6788027
0.6798599
0.073415593
0.17973903
0.24960599
0.30731555
0.35601197
0.39530415
0.42924999
0.45834473
0.4834244
0.50508724
0.52392724
0.53775217
0.55120236
0.56292284
0.57310622
0.58200992
0.58985487
0.59682528
0.60306716
0.60869557
0.61380196
0.61846069
0.62273298
0.62666893
0.63031019
0.63369172
0.63684303
0.63978928
0.64255201
0.6451498
0.64759876
0.64991293
0.65210464
0.65418471
0.65616272
0.65804719
0.65984571
0.66156507
0.66321137
0.6647901
0.66630625
0.66776432
0.66916841
0.67052227
0.67182928
0.6730926
0.67431514
0.67549959
0.67664843
0.67776397
0.67884836
0.6799036
0.15570244
0.2592359
0.30380817
0.34499158
0.3823393
0.41271484
0.44148138
0.46719933
0.48996628
0.50999698
0.52765255
0.54078054
0.5535828
0.56483766
0.5746714
0.58330787
0.59094546
0.59775257
0.60386405
0.60938698
0.61440705
0.61899437
0.62320699
0.62709261
0.63069106
0.6340359
0.63715555
0.64007429
0.64281298
0.64538964
0.64781993
0.65011753
0.65229446
0.65436129
0.65632741
0.65820115
0.65998995
0.66170049
0.66333874
0.66491013
0.66641954
0.66787143
0.66926983
0.67061842
0.67192058
0.67317941
0.67439779
0.67557837
0.67672361
0.67783579
0.67891704
0.67996933
0.32383995
0.36080566
0.37131442
0.38953997
0.41229408
0.43507785
0.456851
0.47829747
0.49826305
0.51627742
0.53245158
0.54470992
0.55667299
0.56733554
0.57671989
0.58501092
0.59237942
0.59897394
0.60491519
0.61030012
0.61520704
0.61970059
0.62383473
0.62765407
0.63119611
0.63449254
0.63757038
0.64045277
0.64315966
0.64570835
0.64811393
0.65038958
0.65254692
0.65459622
0.65654656
0.65840606
0.66018197
0.66188079
0.66350837
0.66507
0.66657047
0.66801415
0.66940498
0.6707466
0.67204231
0.67329517
0.67450801
0.67568344
0.67682389
0.6779316
0.67900866
0.68005704
0.59160046
0.46728794
0.43633647
0.43380067
0.44234569
0.45694272
0.47393797
0.49050499
0.50744769
0.52330196
0.53786309
0.54918286
0.56019534
0.57019902
0.5790775
0.58697715
0.59403928
0.60039082
0.60613686
0.61136306
0.6161395
0.62052468
0.62456795
0.62831045
0.63178696
0.63502711
0.63805628
0.64089631
0.64356612
0.64608219
0.6484589
0.6507089
0.65284335
0.65487212
0.656804
0.65864683
0.66040764
0.66209274
0.66370781
0.66525801
0.666748
0.66818204
0.66956401
0.67089744
0.67218558
0.67343143
0.67463777
0.67580716
0.67694197
0.67804443
0.67911658
0.68016036
0.68545167
0.54484974
0.49119336
0.47336429
0.47213362
0.47912622
0.49079444
0.50347975
0.51708286
0.53075716
0.54364901
0.55401574
0.56401153
0.57331707
0.58165476
0.58913362
0.59586473
0.60195264
0.6074861
0.61253892
0.61717246
0.62143868
0.62538202
0.62903984
0.63244405
0.63562201
0.63859734
0.64139046
0.64401919
0.64649905
0.64884372
0.65106523
0.65317423
0.65518019
0.65709153
0.65891581
0.66065981
0.66232961
0.66393075
0.6654682
0.66694651
0.66836982
0.66974189
0.67106619
0.67234589
0.67358392
0.674783
0.67594563
0.67707415
0.67817073
0.6792374
0.68027604
0.72171465
0.60411504
0.54110823
0.51211763
0.50199789
0.50226976
0.50835705
0.51747556
0.52788378
0.53906043
0.55013562
0.55950444
0.56837313
0.5768936
0.584624
0.59162751
0.59798258
0.60376952
0.60905927
0.61391257
0.61838115
0.62250969
0.62633707
0.62989644
0.63321644
0.63632186
0.63923429
0.64197257
0.64455317
0.64699062
0.64929771
0.65148578
0.65356489
0.65554402
0.65743121
0.65923366
0.66095786
0.66260967
0.66419438
0.66571681
0.66718135
0.66859199
0.66995239
0.67126592
0.67253565
0.67376445
0.67495495
0.6761096
0.67723069
0.67832034
0.67938052
0.68041308
0.73772987
0.64575023
0.5828821
0.54771767
0.530843
0.52529478
0.52662322
0.53190196
0.5395473
0.54815943
0.55722121
0.56558723
0.57328888
0.5809138
0.58797881
0.59445756
0.60039477
0.60584534
0.61086135
0.6154896
0.61977142
0.62374356
0.62743889
0.63088588
0.63410955
0.63713184
0.63997209
0.6426473
0.64517254
0.64756111
0.64982486
0.65197431
0.65401889
0.65596701
0.65782626
0.65960344
0.66130471
0.66293565
0.66450133
0.66600634
0.66745489
0.66885083
0.67019769
0.6714987
0.67275685
0.67397492
0.67515544
0.67630082
0.67741326
0.67849484
0.67954747
0.68057297
0.74598887
0.67460422
0.61674152
0.57924694
0.5578943
0.54772269
0.54494981
0.54677848
0.55153951
0.55799648
0.56495109
0.57205874
0.57873263
0.58535769
0.59170703
0.59761817
0.60309996
0.60818148
0.61289542
0.61727412
0.62134798
0.62514536
0.62869265
0.63201332
0.63512844
0.63805687
0.64081545
0.64341922
0.64588163
0.64821467
0.65042911
0.65253461
0.65453982
0.65645258
0.65827992
0.66002823
0.6617033
0.66331037
0.66485426
0.66633932
0.66776957
0.66914867
0.67047999
0.67176666
0.67301153
0.67421727
0.67538635
0.67652108
0.67762359
0.67869589
0.67973984
0.68075722
0.75090958
0.69477076
0.6436827
0.60652127
0.58266387
0.5691115
0.56293689
0.56176821
0.56386986
0.56813506
0.57329227
0.5788847
0.58460893
0.59023929
0.59579048
0.60109933
0.60609339
0.61077664
0.61516251
0.61926866
0.62311431
0.62671914
0.63010274
0.6332833
0.63627771
0.6391015
0.64176886
0.64429268
0.64668465
0.64895535
0.65111437
0.65317039
0.65513126
0.65700413
0.65879546
0.66051116
0.6621566
0.66373668
0.6652559
0.66671838
0.66812788
0.66948788
0.67080159
0.67207198
0.67330177
0.67449353
0.67564961
0.67677222
0.67786345
0.6789252
0.6799593
0.68096743
0.75420133
0.70916998
0.66494998
0.62972965
0.6049207
0.58912542
0.58030663
0.57655215
0.57635154
0.57847207
0.5820006
0.58618297
0.59074631
0.59554136
0.60020916
0.60488674
0.60936682
0.61362677
0.61766138
0.62147396
0.62507247
0.62846784
0.63167268
0.63469969
0.6375614
0.64026987
0.64283646
0.64527176
0.64758562
0.64978706
0.65188442
0.65388532
0.65579673
0.65762505
0.65937613
0.66105534
0.66266761
0.66421745
0.66570902
0.66714614
0.66853235
0.66987091
0.67116483
0.6724169
0.67362974
0.67480575
0.67594719
0.67705618
0.67813468
0.67918456
0.68020753
0.68120525
0.7565948
0.71973296
0.68173853
0.64927282
0.62463421
0.60756247
0.59681577
0.59096076
0.58871945
0.58899572
0.59088552
0.59379756
0.59723638
0.60108462
0.60498557
0.6089615
0.61290862
0.61672495
0.62038852
0.62388888
0.62722302
0.63039319
0.63340498
0.63626554
0.63898294
0.6415656
0.64402197
0.64636024
0.64858828
0.6507135
0.65274289
0.65468292
0.65653965
0.65831867
0.66002515
0.66166389
0.66323933
0.66475555
0.66621637
0.66762528
0.66898556
0.67030021
0.67157206
0.67280372
0.67399763
0.67515606
0.67628115
0.6773749
0.67843919
0.67947578
0.68048631
0.68147237
0.75843611
0.72770149
0.69506534
0.66563981
0.64191364
0.62433497
0.61229805
0.60481305
0.60085991
0.59950469
0.59993795
0.60156801
0.60398865
0.60687255
0.61004414
0.6133323
0.61670402
0.62006151
0.62333803
0.6265103
0.62956484
0.63249555
0.63530106
0.63798301
0.64054498
0.64299171
0.64532864
0.64756148
0.64969607
0.65173812
0.6536932
0.65556659
0.65736335
0.65908822
0.66074566
0.66233985
0.6638747
0.66535386
0.66678072
0.66815847
0.66949007
0.67077828
0.6720257
0.67323474
0.67440767
0.67554661
0.67665356
0.6777304
0.6787789
0.67980072
0.68079744
0.68177053
0.75990703
0.73387305
0.70574036
0.67932653
0.65695365
0.63944482
0.62665709
0.61797846
0.6126446
0.60988953
0.60902325
0.60948592
0.61087697
0.61290969
0.61529935
0.6179675
0.6207494
0.62362401
0.62650164
0.62933309
0.63209517
0.63477386
0.63736114
0.63985327
0.64224937
0.64455053
0.64675913
0.6488784
0.65091205
0.65286406
0.65473852
0.6565395
0.65827098
0.65993682
0.66154072
0.66308621
0.66457665
0.66601519
0.66740482
0.66874836
0.67004846
0.67130761
0.67252815
0.67371229
0.67486211
0.67597957
0.67706652
0.6781247
0.67915578
0.68016131
0.68114276
0.68210153
0.76111282
0.73876672
0.71438535
0.69078988
0.66999098
0.65295831
0.63985527
0.63036937
0.62396822
0.62005242
0.61804634
0.61745959
0.61789808
0.61908095
0.62077217
0.62277962
0.62503723
0.62740421
0.62986879
0.63235011
0.63480948
0.63722557
0.63958417
0.64187641
0.64409706
0.64624363
0.64831549
0.65031335
0.65223881
0.65409408
0.65588173
0.65760456
0.65926547
0.66086738
0.66241322
0.66390583
0.66534797
0.6667423
0.66809136
0.66939759
0.6706633
0.67189068
0.67308183
0.67423873
0.67536324
0.67645716
0.67752217
0.67855989
0.67957184
0.68055947
0.68152416
0.68246719
0.76211993
0.74272775
0.72146894
0.70042752
0.68127356
0.66498328
0.65190115
0.64193654
0.63475351
0.6299068
0.6269328
0.62541032
0.62498697
0.62538078
0.62637022
0.62778958
0.62948638
0.63140562
0.63342955
0.63555225
0.63770149
0.63984658
0.64196778
0.64405135
0.64608801
0.64807175
0.64999905
0.65186812
0.65367847
0.65543052
0.65712533
0.6587644
0.66034951
0.66188265
0.66336591
0.66480144
0.66619138
0.66753785
0.66884296
0.67010871
0.67133708
0.67252995
0.67368913
0.67481636
0.67591331
0.67698156
0.67802265
0.67903803
0.68002909
0.68099717
0.68194353
0.68286935
0.76297331
0.74599167
0.72734213
0.70857341
0.69104056
0.6756505
0.66283718
0.65266317
0.64494938
0.63938552
0.63561269
0.63328094
0.63207902
0.63175945
0.63209011
0.6329197
0.63411662
0.63555542
0.63719238
0.63892922
0.64076322
0.64263126
0.6445082
0.64637586
0.64822112
0.65003473
0.65181035
0.65354379
0.65523253
0.65687522
0.6584714
0.66002126
0.66152548
0.66298508
0.6644013
0.66577557
0.66710941
0.6684044
0.66966213
0.67088422
0.67207226
0.67322781
0.67435239
0.6754475
0.67651456
0.67755498
0.6785701
0.67956121
0.68052957
0.68147638
0.68240279
0.68330989
0.76370473
0.74872276
0.73226841
0.71550208
0.69951124
0.68509954
0.67272858
0.66255823
0.65452794
0.64844002
0.64402933
0.64101539
0.63913437
0.63815826
0.63789285
0.63816756
0.63886204
0.6398714
0.64109271
0.6424912
0.64398488
0.64557241
0.64720032
0.64884644
0.65049422
0.65213143
0.65374909
0.65534074
0.65690189
0.65842947
0.65992154
0.66137701
0.66279543
0.66417684
0.66552166
0.66683057
0.66810444
0.6693443
0.67055126
0.67172648
0.67287118
0.67398658
0.67507391
0.67613439
0.67716922
0.67817958
0.67916662
0.68013149
0.68107528
0.68199907
0.68290387
0.68379068
0.7643375
0.75103767
0.73644536
0.72143633
0.70687996
0.69346901
0.68165417
0.67165008
0.66348087
0.65703868
0.65213908
0.64856597
0.64610237
0.64454952
0.64373104
0.64350081
0.6437204
0.64429739
0.64514584
0.64618148
0.64737605
0.6486614
0.65003762
0.65145836
0.65290402
0.65435973
0.65581409
0.65725855
0.65868673
0.66009396
0.66147684
0.66283303
0.66416097
0.66545974
0.66672893
0.66796847
0.6691786
0.67035975
0.67151255
0.67263772
0.67373608
0.6748085
0.67585589
0.67687921
0.67787941
0.67885746
0.67981431
0.68075092
0.68166824
0.68256719
0.68344867
0.76488927
0.75302128
0.7400215
0.72655513
0.71331513
0.70089024
0.68969908
0.6799806
0.67181555
0.66516471
0.65991061
0.65589444
0.65294366
0.65089082
0.64958163
0.64888005
0.64866328
0.64883147
0.64930382
0.65001238
0.65088787
0.65190628
0.65301227
0.65420564
0.65544607
0.65671645
0.65800325
0.65929595
0.6605865
0.66186871
0.66313779
0.66439018
0.66562327
0.6668352
0.66802472
0.66919104
0.67033374
0.6714527
0.67254803
0.67362
0.67466903
0.67569563
0.67670042
0.67768405
0.67864723
0.67959068
0.68051518
0.68142149
0.68231039
0.68318267
0.68403906
0.76537372
0.75473684
0.74310944
0.73100048
0.71896026
0.70748382
0.69694947
0.68760019
0.67955135
0.67281387
0.66732384
0.66297161
0.65962538
0.65714828
0.65540796
0.65428228
0.65366039
0.6534485
0.65356487
0.65394302
0.65452903
0.65526528
0.65613078
0.6570812
0.65811476
0.65919739
0.66031346
0.6614508
0.66259986
0.66375303
0.66490425
0.66604879
0.66718302
0.66830419
0.66941024
0.67049967
0.67157143
0.67262483
0.67365946
0.67467515
0.67567192
0.67664993
0.67760945
0.67855086
0.67947461
0.6803812
0.68127117
0.68214512
0.68300365
0.68384738
0.68467692
0.76580158
0.75623241
0.74579589
0.73488439
0.72393438
0.71335745
0.70348886
0.69456377
0.68671625
0.67999202
0.67436851
0.66977674
0.66612072
0.66329205
0.66118008
0.6596784
0.65868831
0.65812276
0.65790577
0.65797175
0.65826501
0.65874304
0.65935783
0.66008924
0.66090448
0.66179725
0.66274069
0.66372007
0.66472461
0.66574549
0.66677539
0.66780853
0.66884033
0.66986718
0.67088626
0.67189539
0.67289288
0.6738775
0.67484833
0.67580477
0.67674643
0.6776731
0.67858475
0.67948146
0.6803634
0.68123084
0.68208413
0.68292365
0.68374983
0.68456314
0.68536405
0.76618145
0.75754519
0.74814854
0.73829631
0.72833482
0.71860353
0.70939423
0.70092706
0.69334363
0.68671256
0.68104206
0.67629575
0.67240796
0.66929619
0.6668707
0.66504124
0.66372158
0.66283296
0.66230508
0.66207641
0.66209418
0.66231074
0.66269349
0.663201
0.66381635
0.66451212
0.66527988
0.66609975
0.66695771
0.66784387
0.66874969
0.66966846
0.67059473
0.67152411
0.67245307
0.67337875
0.67429889
0.67521171
0.67611582
0.67701017
0.67789397
0.67876667
0.67962791
0.68047746
0.68131526
0.68214132
0.68295577
0.6837588
0.68455066
0.68533167
0.76652027
0.75870442
0.75022092
0.74130836
0.73224196
0.72330014
0.71473328
0.70674211
0.69946784
0.69299263
0.68734673
0.68251923
0.67846971
0.6751385
0.67245529
0.67034568
0.66873588
0.6675563
0.66674318
0.66623944
0.6659949
0.66596675
0.66611474
0.66640999
0.66682962
0.66733942
0.66792887
0.66858493
0.6692952
0.67004516
0.67082487
0.67162694
0.67244511
0.67327434
0.6741104
0.67494985
0.67578984
0.67662809
0.67746275
0.67829233
0.67911567
0.67993188
0.68074025
0.68154029
0.68233166
0.68311414
0.68388764
0.68465215
0.68540775
0.68615455
0.76682371
0.75973342
0.75205589
0.74397924
0.73572274
0.7275139
0.71956524
0.71205599
0.70512149
0.6988503
0.69328754
0.68844158
0.68429249
0.68080028
0.67791217
0.67556868
0.67370825
0.67227072
0.67119943
0.67044247
0.66995322
0.66969043
0.66961964
0.66970573
0.66992802
0.67026146
0.67068053
0.67117563
0.67173217
0.67234556
0.67299785
0.67368159
0.67438969
0.6751166
0.67585746
0.67660825
0.67736563
0.67812681
0.67888952
0.67965187
0.68041233
0.68116965
0.68192284
0.6826711
0.68341385
0.68415063
0.68488113
0.68560514
0.68632254
0.6870333
0.76709645
0.76065099
0.75368809
0.74635708
0.73883324
0.73130206
0.72394239
0.71691165
0.71033573
0.70430443
0.69887186
0.6940604
0.68986632
0.68626609
0.68322238
0.68068942
0.67861725
0.6769551
0.67565368
0.67466667
0.6739516
0.67347023
0.67318902
0.67307707
0.67311002
0.67326394
0.67352093
0.67385815
0.67427218
0.67474061
0.67526477
0.67582935
0.67642597
0.67704897
0.67769281
0.67835296
0.67902563
0.67970757
0.68039613
0.68108902
0.68178437
0.6824806
0.68317643
0.68387079
0.68456283
0.68525187
0.68593739
0.68661897
0.68729633
0.68796925
0.76734239
0.7614725
0.75514582
0.7484817
0.74162072
0.73471401
0.7279111
0.72134843
0.71514045
0.70937443
0.70410905
0.69937614
0.69518434
0.69152355
0.68836973
0.68568931
0.68344313
0.68158947
0.68008642
0.67889348
0.67797265
0.67728901
0.67681108
0.67651031
0.67636226
0.6763455
0.67643782
0.67662538
0.67689704
0.6772306
0.67762238
0.67806642
0.67855068
0.67906888
0.6796144
0.68018239
0.68076867
0.68136956
0.68198206
0.68260355
0.6832318
0.68386496
0.68450144
0.68513991
0.6857793
0.68641868
0.68705733
0.68769466
0.68833018
0.68896354
0.76756478
0.76221061
0.75645243
0.75038625
0.74412525
0.73779256
0.73151262
0.72540246
0.71956424
0.71408016
0.70901008
0.70439168
0.70024253
0.69656316
0.69334059
0.69055199
0.68816791
0.68615516
0.68447899
0.68310479
0.68199917
0.68113082
0.68047086
0.67999296
0.67967371
0.67949218
0.67942901
0.67946811
0.67959677
0.67980108
0.6800659
0.68039302
0.68075966
0.68117305
0.68161952
0.68209431
0.682593
0.68311141
0.68364632
0.68419476
0.68475422
0.68532254
0.68589789
0.68647869
0.68706362
0.68765157
0.6882416
0.68883294
0.68942493
0.69001706
0.76776639
0.76287585
0.75762735
0.75209854
0.74638093
0.74057493
0.73478376
0.72910696
0.72363441
0.71844168
0.71358733
0.70911202
0.70503939
0.70137801
0.6981239
0.69526331
0.69277545
0.69063492
0.68881378
0.68728311
0.68601425
0.68497964
0.68415331
0.68351123
0.68303152
0.68269433
0.6824816
0.68237772
0.68236972
0.68244216
0.68258669
0.68279655
0.68305388
0.68335804
0.68370474
0.68408582
0.68449629
0.68493114
0.68538733
0.68586143
0.6863507
0.68685271
0.68736539
0.68788693
0.68841581
0.68895071
0.68949051
0.69003426
0.69058114
0.69113048
0.76794958
0.76347709
0.75868685
0.75364204
0.74841695
0.74309357
0.73775735
0.73249242
0.7273769
0.722479
0.71785422
0.713544
0.7095757
0.70596367
0.70271096
0.69981135
0.69725152
0.69501305
0.69307428
0.69141177
0.69000148
0.68881963
0.68784336
0.68705105
0.68642267
0.68593977
0.68558551
0.68534489
0.68520466
0.6851519
0.68517631
0.68526914
0.68542084
0.68562059
0.68586975
0.68615325
0.68647564
0.68682613
0.68720299
0.68760182
0.68801983
0.68845436
0.68890309
0.68936405
0.68983549
0.69031591
0.69080403
0.69129873
0.69179904
0.69230415
0.76811635
0.76402181
0.75964469
0.7550367
0.75025838
0.74537684
0.74046272
0.73558678
0.73081632
0.72621193
0.72182497
0.717696
0.71385425
0.71031794
0.70709534
0.70418631
0.70158377
0.69927543
0.69724531
0.69547505
0.69394505
0.6926353
0.69152604
0.69059823
0.68983385
0.68921603
0.68872923
0.68835928
0.68809336
0.68791957
0.68782752
0.68780881
0.68785247
0.6879524
0.68810447
0.68829641
0.68852884
0.68879287
0.68909063
0.68941356
0.68975966
0.69012585
0.69050968
0.69090897
0.69132182
0.69174656
0.69218175
0.69262613
0.69307857
0.69353814
0.76826844
0.76451638
0.76051259
0.75629956
0.75192688
0.74744959
0.74292608
0.73841567
0.73397588
0.72965988
0.72551431
0.7215777
0.71787963
0.71444066
0.71127278
0.70838047
0.70576177
0.70340962
0.70131303
0.69945829
0.69782995
0.69641162
0.69518666
0.6941386
0.69325154
0.69251036
0.69190089
0.69140998
0.69102557
0.69073654
0.69053289
0.69040572
0.69034606
0.6903472
0.69040167
0.69050437
0.6906509
0.69083213
0.69104733
0.69129364
0.69156767
0.69186503
0.6921833
0.69252016
0.69287353
0.69324162
0.69362284
0.6940158
0.69441927
0.69483214
0.76840736
0.7649663
0.76130056
0.75744528
0.75344122
0.74933365
0.74517088
0.74100249
0.73687738
0.73284174
0.72893727
0.72519972
0.72165794
0.71833355
0.71524099
0.71238811
0.70977699
0.70740486
0.70526506
0.70334801
0.70164207
0.70013426
0.69881092
0.69765816
0.69666224
0.69580985
0.69508829
0.6944856
0.69399061
0.69359297
0.69328322
0.69305268
0.69289317
0.69279766
0.69275952
0.692773
0.69283248
0.69293405
0.69307023
0.6932415
0.69344083
0.69366915
0.69392156
0.69419553
0.69448883
0.69479955
0.69512602
0.69546669
0.69582027
0.69618548
0.76853441
0.76537627
0.76201724
0.75848651
0.75481773
0.75104826
0.74721808
0.74336862
0.73954123
0.73577574
0.73210896
0.72857345
0.72519658
0.72200001
0.71899956
0.71620544
0.71362273
0.71125212
0.70909055
0.70713205
0.70536835
0.70378964
0.70238507
0.70114324
0.70005257
0.69910157
0.69827908
0.6975744
0.6969774
0.69647855
0.69606902
0.69574064
0.69548574
0.69529745
0.69516941
0.6950958
0.69507213
0.69509222
0.69515177
0.69524947
0.69537722
0.69553723
0.69572147
0.69593249
0.69616543
0.69641833
0.69668951
0.69697725
0.69728029
0.69759705
0.76865077
0.7657504
0.76267012
0.75943424
0.75607069
0.75261038
0.74908647
0.74553353
0.74198645
0.73847935
0.7350444
0.73171081
0.72850395
0.72544483
0.72254977
0.71983044
0.71729411
0.71494407
0.71278021
0.71079956
0.70899685
0.7073651
0.70589605
0.70458066
0.70340943
0.70237269
0.70146083
0.70066447
0.69997457
0.69938254
0.69888025
0.69846012
0.69811504
0.69783845
0.69762429
0.69746702
0.6973617
0.6973032
0.6972879
0.69731132
0.69736967
0.69746222
0.69758134
0.69772995
0.69790047
0.69809538
0.69831109
0.69854539
0.69879762
0.6990653
0.76875742
0.76609228
0.7632657
0.76029807
0.75721262
0.75403502
0.75079285
0.74751496
0.74423073
0.74096924
0.73775838
0.73462402
0.7315893
0.72867405
0.72589442
0.72326284
0.72078798
0.71847509
0.71632631
0.71434116
0.7125169
0.71084901
0.70933161
0.70795782
0.70672012
0.7056106
0.70462118
0.70374381
0.7029706
0.70229392
0.70170644
0.70120124
0.70077178
0.70041194
0.70011602
0.69987874
0.69969524
0.6995609
0.69947172
0.69942374
0.69941389
0.69943855
0.6994944
0.69958121
0.69969206
0.69982976
0.69998807
0.70016829
0.70037024
0.70058811
0.76885528
0.76640503
0.76380968
0.76108636
0.75825451
0.7553355
0.75235231
0.74932906
0.74629045
0.74326118
0.74026529
0.73732546
0.73446249
0.7316947
0.72903764
0.72650385
0.72410284
0.72184119
0.71972274
0.71774892
0.7159191
0.71423088
0.71268045
0.7112629
0.70997252
0.70880307
0.70774797
0.70680048
0.70595387
0.70520147
0.70453684
0.70395375
0.70344626
0.70300877
0.70263599
0.70232296
0.70206507
0.70185798
0.70169775
0.70158069
0.70150351
0.70146297
0.70145649
0.70148111
0.70153385
0.70161492
0.701718
0.70184488
0.70199649
0.70216242
0.76894513
0.76669142
0.76430706
0.76180652
0.75920608
0.75652363
0.75377836
0.75099047
0.74818072
0.74537004
0.74257903
0.73982746
0.73713377
0.73451464
0.73198466
0.72955609
0.72723874
0.72504
0.72296493
0.72101641
0.71919546
0.71750144
0.71593231
0.7144849
0.71315517
0.7119384
0.71082941
0.70982275
0.7089128
0.70809392
0.70736051
0.7067071
0.7061284
0.70561934
0.7051751
0.7047911
0.70446304
0.70418686
0.7039588
0.70377537
0.70363331
0.7035296
0.70346152
0.70342638
0.70342199
0.70344594
0.70349534
0.7035707
0.70367025
0.70378774
0.76902768
0.7669539
0.76476226
0.76246503
0.76007592
0.75760994
0.75508316
0.75251251
0.74991547
0.74730975
0.74471297
0.7421422
0.73961367
0.73714236
0.73474171
0.73242337
0.73019709
0.72807065
0.72604986
0.72413868
0.72233936
0.72065268
0.71907807
0.71761385
0.71625743
0.7150055
0.71385417
0.71279919
0.71183604
0.71096004
0.71016647
0.70945063
0.70880788
0.70823374
0.70772387
0.70727413
0.70688056
0.70653942
0.70624719
0.70600056
0.70579645
0.70563196
0.70550444
0.70541137
0.70535045
0.7053195
0.70531661
0.70534001
0.70538778
0.70545888
0.76910356
0.76719462
0.76517918
0.76306767
0.76087166
0.7586038
0.75627759
0.75390725
0.75150751
0.74909336
0.7466798
0.74428155
0.74191278
0.73958678
0.73731574
0.73511054
0.73298057
0.73093364
0.72897599
0.72711226
0.72534564
0.72367795
0.72210982
0.72064082
0.7192696
0.71799407
0.71681155
0.71571886
0.71471252
0.7137888
0.7129438
0.7121736
0.71147424
0.71084182
0.71027252
0.70976264
0.70930863
0.70890707
0.70855473
0.70824853
0.70798557
0.70776315
0.7075787
0.70742984
0.70731434
0.70723014
0.70717533
0.70714819
0.70714719
0.70717046
0.76917333
0.7674155
0.76556128
0.76361953
0.76160008
0.75951359
0.75737145
0.75518565
0.75296859
0.75073298
0.74849157
0.74625703
0.74404162
0.74185708
0.73971433
0.73762333
0.73559293
0.73363074
0.73174312
0.72993511
0.72821052
0.72657195
0.72502094
0.72355804
0.72218298
0.7208947
0.71969156
0.7185714
0.71753165
0.71656946
0.71568178
0.71486538
0.71411699
0.71343331
0.71281105
0.71224696
0.71173791
0.71128084
0.71087283
0.71051106
0.71019286
0.7099157
0.70967719
0.70947509
0.70930726
0.70917175
0.70906672
0.70899046
0.7089414
0.708918
0.76923751
0.76761826
0.76591163
0.76412517
0.76226722
0.7603468
0.75837356
0.75635761
0.75430945
0.75223983
0.75015962
0.74807966
0.74601056
0.74396258
0.74194543
0.73996813
0.73803884
0.73616482
0.73435232
0.73260653
0.73093162
0.72933074
0.72780608
0.72635899
0.72499
0.72369896
0.72248511
0.72134715
0.72028339
0.71929177
0.71836999
0.71751553
0.71672576
0.71599796
0.71532937
0.71471723
0.71415882
0.71365145
0.71319252
0.71277951
0.71241001
0.71208168
0.71179234
0.71153987
0.7113223
0.71113778
0.71098454
0.71086095
0.71076548
0.71069668
0.76929654
0.76780444
0.76623298
0.76458863
0.76287845
0.76111014
0.75929184
0.75743213
0.75553991
0.7536243
0.75169456
0.74975995
0.74782965
0.74591257
0.74401729
0.74215186
0.74032375
0.73853972
0.73680575
0.73512702
0.73350784
0.73195168
0.73046122
0.72903835
0.72768425
0.72639948
0.72518402
0.72403733
0.72295845
0.72194604
0.72099849
0.72011395
0.71929037
0.71852562
0.71781744
0.71716354
0.71656162
0.71600938
0.71550456
0.71504493
0.71462836
0.71425274
0.71391608
0.71361646
0.71335206
0.71312113
0.71292203
0.71275323
0.71261324
0.71250072
0.76935084
0.76797542
0.7665278
0.76501352
0.76343861
0.76180959
0.76013341
0.75841734
0.75666893
0.75489595
0.75310628
0.75130786
0.74950859
0.7477162
0.74593822
0.74418179
0.74245367
0.74076005
0.73910657
0.73749821
0.73593929
0.73443344
0.7329836
0.73159207
0.73026051
0.72899002
0.72778117
0.72663404
0.72554831
0.72452327
0.72355792
0.72265099
0.72180102
0.72100638
0.72026532
0.719576
0.71893654
0.71834502
0.71779951
0.71729811
0.71683894
0.71642016
0.71603999
0.71569671
0.71538865
0.71511423
0.71487193
0.7146603
0.71447798
0.71432369
0.76940078
0.76813243
0.76679829
0.76540308
0.76395199
0.76245055
0.76090469
0.75932057
0.75770465
0.75606354
0.75440397
0.75273273
0.75105663
0.74938238
0.74771653
0.74606541
0.74443504
0.74283107
0.74125871
0.73972267
0.73822715
0.73677579
0.73537168
0.73401735
0.73271479
0.7314655
0.73027051
0.72913041
0.72804538
0.72701526
0.72603958
0.7251176
0.72424836
0.72343071
0.72266337
0.72194493
0.7212739
0.72064874
0.72006786
0.71952967
0.71903256
0.71857496
0.71815531
0.71777208
0.71742381
0.71710907
0.71682647
0.7165747
0.71635249
0.71615866
0.76944669
0.76827658
0.76704641
0.76576023
0.76442246
0.76303785
0.76161143
0.76014849
0.7586545
0.75713511
0.75559611
0.7540433
0.75248255
0.75091967
0.74936037
0.74781022
0.74627458
0.74475851
0.74326679
0.74180381
0.74037356
0.7389796
0.73762503
0.7363125
0.73504423
0.73382198
0.73264711
0.73152059
0.73044303
0.72941471
0.72843559
0.7275054
0.72662362
0.72578955
0.72500231
0.72426089
0.72356419
0.72291102
0.72230011
0.72173018
0.7211999
0.72070796
0.72025302
0.71983377
0.71944893
0.71909725
0.71877749
0.71848847
0.71822905
0.71799817
0.76948888
0.76840886
0.76727393
0.76608755
0.7648535
0.76357582
0.76225884
0.76090705
0.75952516
0.758118
0.7566905
0.75524768
0.75379459
0.75233626
0.75087767
0.7494237
0.74797908
0.74654838
0.74513589
0.74374567
0.74238144
0.74104661
0.73974422
0.73847695
0.73724711
0.73605664
0.73490712
0.73379981
0.73273563
0.73171522
0.7307389
0.72980678
0.72891872
0.72807441
0.72727333
0.72651485
0.72579821
0.72512254
0.72448689
0.72389027
0.72333162
0.72280988
0.72232395
0.72187273
0.72145512
0.72107005
0.72071646
0.72039329
0.72009954
0.71983429
0.76952761
0.76853017
0.76748244
0.76638737
0.76524818
0.76406835
0.76285157
0.76160168
0.76032273
0.75901885
0.75769429
0.75635337
0.75500044
0.75363987
0.752276
0.75091311
0.74955537
0.74820684
0.74687141
0.74555275
0.74425433
0.74297933
0.74173069
0.74051103
0.73932269
0.73816769
0.73704776
0.73596433
0.73491857
0.73391137
0.73294336
0.73201495
0.73112631
0.73027746
0.72946822
0.72869826
0.72796714
0.72727428
0.72661905
0.72600069
0.72541844
0.72487145
0.72435886
0.72387977
0.72343329
0.72301851
0.72263453
0.72228046
0.72195541
0.76956313
0.76864132
0.76767336
0.76666177
0.7656093
0.76451892
0.76339379
0.76223723
0.76105268
0.75984371
0.75861399
0.75736723
0.75610721
0.75483773
0.75356255
0.75228545
0.75101009
0.74974009
0.74847892
0.74722992
0.74599625
0.74478089
0.74358661
0.74241592
0.74127114
0.7401543
0.7390672
0.7380114
0.7369882
0.7359987
0.73504374
0.73412397
0.73323984
0.73239161
0.73157939
0.73080313
0.73006264
0.72935765
0.72868774
0.72805245
0.72745122
0.72688346
0.7263485
0.72584566
0.72537423
0.72493348
0.72452266
0.72414102
0.72378785
0.76959567
0.76874303
0.76784796
0.7669126
0.76593932
0.76493063
0.76388926
0.76281803
0.76171993
0.76059804
0.7594555
0.75829556
0.75712147
0.75593654
0.75474407
0.75354737
0.75234967
0.75115418
0.749964
0.74878215
0.74761151
0.74645482
0.74531466
0.74419344
0.74309336
0.74201644
0.7409645
0.73993915
0.73894178
0.73797362
0.73703567
0.73612876
0.73525354
0.73441049
0.73359994
0.73282206
0.73207692
0.73136446
0.73068452
0.73003683
0.72942108
0.72883686
0.72828373
0.72776119
0.72726869
0.72680569
0.7263716
0.72596581
0.72558775
0.76962542
0.76883593
0.76800737
0.76714153
0.76624044
0.76530625
0.76434128
0.76334798
0.76232891
0.76128672
0.76022416
0.75914402
0.75804916
0.75694246
0.7558268
0.75470508
0.75358018
0.75245494
0.75133213
0.75021446
0.74910455
0.74800491
0.74691793
0.74584587
0.74479082
0.74375475
0.74273943
0.7417465
0.74077739
0.73983339
0.73891562
0.73802504
0.73716244
0.73632847
0.73552364
0.73474831
0.73400275
0.73328708
0.73260135
0.7319455
0.7313194
0.73072283
0.73015554
0.72961719
0.72910743
0.72862585
0.72817202
0.72774548
0.7273458
0.76965255
0.76892061
0.76815259
0.76735003
0.76651462
0.76564822
0.76475282
0.76383051
0.76288351
0.76191412
0.76092472
0.75991775
0.75889569
0.75786108
0.75681644
0.75576434
0.75470732
0.75364789
0.75258855
0.75153173
0.7504798
0.74943505
0.74839969
0.74737582
0.74636542
0.74537035
0.74439234
0.74343299
0.74249375
0.74157596
0.74068077
0.73980924
0.73896226