/*--------------------------------*- C++ -*----------------------------------*\
| =========                 |                                                 |
| \\      /  F ield         | OpenFOAM: The Open Source CFD Toolbox           |
|  \\    /   O peration     | Version:  2312                                  |
|   \\  /    A nd           | Website:  www.openfoam.com                      |
|    \\/     M anipulation  |                                                 |
\*---------------------------------------------------------------------------*/
FoamFile
{
    version     2.0;
    format      ascii;
    arch        "LSB;label=32;scalar=64";
    class       volScalarField;
    location    "0.08";
    object      O2;
}
// * * * * * * * * * * * * * * * * * * * * * * * * * * * * * * * * * * * * * //

dimensions      [0 0 0 0 0 0 0];

internalField   nonuniform List<scalar> 
3275
(
0.0036606389
0.010653694
0.015017229
0.017754652
0.020279628
0.023154426
0.026676006
0.03090046
0.035812394
0.041278027
0.047122218
0.052141397
0.057786449
0.06330476
0.068575266
0.073557906
0.078242349
0.082637693
0.086759849
0.090626692
0.094256126
0.09766597
0.10087355
0.10389473
0.10674413
0.10943518
0.11198018
0.11439032
0.11667582
0.11884599
0.12090931
0.12287349
0.1247456
0.12653207
0.12823877
0.12987109
0.13143396
0.1329319
0.13436905
0.13574926
0.13707602
0.13835259
0.13958198
0.14076696
0.14191005
0.14301366
0.14408003
0.14511124
0.14610923
0.1470758
0.14801266
0.14892142
0.0060643382
0.014086761
0.017792274
0.019939219
0.022077668
0.024666009
0.027979471
0.032028816
0.03679754
0.042135344
0.047862458
0.052797471
0.058351905
0.063792267
0.068996832
0.073923718
0.078561115
0.082916747
0.087005313
0.090843659
0.094448823
0.097837906
0.10102765
0.10403341
0.10686944
0.10954885
0.11208364
0.11448481
0.1167624
0.11892555
0.12098263
0.12294124
0.12480836
0.12659035
0.12829301
0.12992168
0.13148123
0.13297616
0.13441058
0.13578827
0.13711274
0.13838721
0.13961466
0.14079784
0.14193928
0.14304137
0.14410634
0.14513625
0.14613302
0.14709846
0.14803427
0.14894203
0.01295948
0.021823645
0.023770236
0.024528757
0.025799451
0.027755569
0.030599894
0.034297573
0.038771827
0.043848422
0.049338926
0.054105181
0.05947698
0.064762481
0.069835984
0.074652095
0.079196045
0.083472801
0.087494648
0.091276372
0.094833301
0.098181109
0.10133536
0.10431047
0.10711989
0.10977609
0.11229057
0.11467388
0.11693569
0.11908486
0.1211295
0.12307701
0.12493417
0.12670721
0.12840181
0.13002319
0.13157614
0.13306505
0.13449399
0.13586668
0.13718656
0.13845682
0.1396804
0.14086
0.14199816
0.14309721
0.14415935
0.14518664
0.14618098
0.14714416
0.14807785
0.14898364
0.029911806
0.035951355
0.033686484
0.031832855
0.031603487
0.032498303
0.034571576
0.037716594
0.041729012
0.046403841
0.051536361
0.056050353
0.06114659
0.066203143
0.071082621
0.075734744
0.080140362
0.084300333
0.088223352
0.091921152
0.095406542
0.098693088
0.10179463
0.10472418
0.10749403
0.11011572
0.11259995
0.11495665
0.11719496
0.11932328
0.12134936
0.1232803
0.12512261
0.1268823
0.12856486
0.13017534
0.13171841
0.13319835
0.1346191
0.1359843
0.13729733
0.13856129
0.13977907
0.14095334
0.14208657
0.14318106
0.14423898
0.14526235
0.14625305
0.14721283
0.14814335
0.14904617
0.070888841
0.059600178
0.048178326
0.042182759
0.039609621
0.039005366
0.039960954
0.042284842
0.045652885
0.049778765
0.054430776
0.058611355
0.063339047
0.06809653
0.072722104
0.077159649
0.081384251
0.085391346
0.089184899
0.092772664
0.096164161
0.099370227
0.10240246
0.10527203
0.10798976
0.11056594
0.11301028
0.11533185
0.1175391
0.11963987
0.12164141
0.12355041
0.12537307
0.12711507
0.12878168
0.13037773
0.1319077
0.13337572
0.13478561
0.13614088
0.13744481
0.13870042
0.1399105
0.14107768
0.14220436
0.14329279
0.1443451
0.14536326
0.1463491
0.14730437
0.14823067
0.14912956
0.15536948
0.0906621
0.066282106
0.054908909
0.049088425
0.046563182
0.046362426
0.047660834
0.05022988
0.053697302
0.057782277
0.061576707
0.065871973
0.070286149
0.074619803
0.078810695
0.082827175
0.086658383
0.090302829
0.093763704
0.09704679
0.10015981
0.10311181
0.10591188
0.10856913
0.11109246
0.1134904
0.11577109
0.11794218
0.12001084
0.12198376
0.12386718
0.12566688
0.12738822
0.12903618
0.13061535
0.13213
0.13358408
0.13498125
0.13632489
0.13761816
0.13886397
0.14006505
0.14122391
0.14234291
0.14342424
0.14446996
0.14548199
0.14646215
0.14741211
0.14833346
0.14922772
0.19278922
0.1197395
0.085749084
0.068548181
0.05969617
0.055202052
0.053452828
0.053648545
0.055279199
0.058007369
0.061460649
0.064833124
0.068651238
0.07269066
0.076705898
0.080627846
0.084417278
0.088056421
0.091537837
0.094859779
0.098023986
0.10103483
0.1038986
0.10662215
0.10921273
0.11167773
0.11402443
0.11625992
0.11839099
0.12042408
0.12236528
0.12422032
0.12599454
0.12769294
0.12932018
0.13088059
0.13237821
0.13381678
0.13519979
0.13653048
0.13781187
0.13904678
0.14023781
0.1413874
0.14249784
0.14357124
0.14460961
0.14561482
0.14658861
0.14753265
0.14844848
0.14933758
0.20771345
0.14588691
0.10696446
0.084626285
0.071968994
0.065118847
0.061689411
0.060557689
0.061151612
0.062990211
0.065705306
0.068595358
0.071867639
0.075473649
0.079123673
0.082737222
0.086266037
0.089684398
0.092978082
0.096139746
0.099166563
0.10205911
0.10482057
0.10745523
0.10996827
0.11236533
0.11465228
0.11683499
0.11891929
0.12091077
0.12281484
0.12463662
0.12638097
0.12805245
0.12965537
0.13119373
0.13267132
0.13409165
0.135458
0.13677345
0.13804086
0.13926291
0.14044211
0.14158078
0.14268112
0.14374517
0.14477486
0.14577201
0.14673831
0.14767536
0.14858466
0.14946765
0.21434077
0.16541213
0.12688766
0.10142556
0.085588503
0.076083875
0.070866265
0.068318737
0.067768033
0.068628319
0.070491101
0.072841719
0.075526831
0.078631275
0.081872361
0.085140142
0.088376233
0.091546084
0.094627976
0.097608402
0.10047951
0.1032377
0.10588273
0.10841606
0.11084053
0.11315988
0.11537837
0.11750056
0.11953113
0.12147478
0.12333611
0.12511958
0.12682948
0.12846991
0.13004473
0.13155763
0.13301206
0.13441128
0.13575835
0.13705615
0.13830736
0.13951451
0.14067998
0.14180598
0.1428946
0.1439478
0.14496742
0.1459552
0.14691278
0.1478417
0.14874342
0.14961932
0.21780888
0.1792028
0.14398914
0.11763607
0.099613391
0.08792065
0.080737993
0.076780405
0.075023111
0.074867784
0.075822292
0.077502346
0.0796139
0.082153697
0.084945848
0.087833835
0.090747482
0.093642777
0.096489982
0.099268999
0.1019666
0.10457469
0.10708933
0.10950893
0.11183382
0.11406562
0.11620685
0.11826063
0.12023041
0.12211985
0.12393268
0.12567264
0.12734337
0.12894845
0.13049127
0.13197514
0.13340315
0.13477828
0.13610333
0.13738095
0.13861364
0.13980375
0.1409535
0.14206499
0.14314018
0.14418094
0.14518902
0.14616606
0.14711364
0.14803324
0.14892625
0.149794
0.21992403
0.18895542
0.15793094
0.13235845
0.11330459
0.099996889
0.091182558
0.085698002
0.082806303
0.081590464
0.081645438
0.082552904
0.084078979
0.086038997
0.088332059
0.090811059
0.093375913
0.095973019
0.09856437
0.10112304
0.10363018
0.10607304
0.10844372
0.11073745
0.11295185
0.11508632
0.1171415
0.11911893
0.12102076
0.12284952
0.124608
0.12629911
0.12792585
0.12949116
0.13099796
0.13244911
0.13384733
0.13519527
0.13649545
0.13775026
0.138962
0.14013282
0.14126479
0.14235984
0.14341982
0.14444647
0.14544145
0.14640631
0.14734254
0.14825155
0.14913466
0.14999317
0.22137993
0.19600725
0.16906646
0.14519436
0.12609503
0.11183989
0.10176234
0.094973012
0.090918648
0.088709075
0.087848667
0.087989607
0.088848668
0.09026461
0.092014662
0.094059917
0.096253948
0.098532385
0.10084902
0.1031701
0.10547106
0.10773441
0.10994822
0.11210436
0.11419767
0.11622519
0.11818562
0.12007882
0.12190554
0.12366711
0.12536531
0.1270022
0.12858
0.13010104
0.1315677
0.13298235
0.1343473
0.13566485
0.1369372
0.13816649
0.13935476
0.14050396
0.14161598
0.14269259
0.14373549
0.14474629
0.14572654
0.1466777
0.14760117
0.14849826
0.14937024
0.15021832
0.22247079
0.20125402
0.17793699
0.1561335
0.13766702
0.12307731
0.11216407
0.104383
0.09920605
0.096061046
0.094351398
0.093724034
0.093921053
0.094747282
0.095988775
0.097563568
0.099370209
0.10131335
0.10333929
0.10540767
0.10748833
0.10955909
0.11160395
0.11361143
0.1155735
0.11748481
0.119342
0.12114322
0.12288773
0.12457564
0.12620764
0.12778487
0.12930877
0.13078099
0.13220331
0.13357758
0.13490571
0.13618959
0.13743108
0.13863203
0.13979423
0.14091941
0.14200923
0.14306531
0.14408918
0.14508233
0.14604616
0.14698204
0.14789125
0.14877504
0.14963459
0.15047103
0.22333496
0.20527344
0.18504626
0.16536347
0.14792218
0.13347427
0.12213004
0.11362882
0.10758752
0.10352382
0.1010375
0.099686723
0.099228606
0.099464227
0.10020445
0.10131316
0.10270963
0.10430528
0.1060279
0.10783105
0.10967924
0.11154583
0.11341082
0.1152594
0.11708071
0.11886698
0.12061279
0.12231452
0.12396992
0.12557779
0.12713772
0.12864989
0.13011491
0.13153371
0.13290745
0.13423745
0.13552514
0.13677199
0.13797953
0.13914927
0.14028272
0.14138138
0.1424467
0.14348009
0.14448292
0.14545653
0.14640219
0.14732113
0.14821455
0.14908359
0.14992934
0.15075286
0.22404476
0.20843757
0.19080225
0.17313409
0.15690435
0.14292481
0.13148724
0.12253785
0.11584219
0.11104872
0.10779745
0.10579428
0.10471433
0.10438206
0.10461281
0.10527799
0.10625954
0.10749447
0.10890499
0.11043335
0.1120392
0.11369179
0.11536734
0.11704784
0.1187197
0.12037274
0.12199948
0.12359455
0.12515417
0.12667582
0.12815794
0.12959972
0.13100092
0.13236173
0.13368265
0.13496445
0.13620804
0.13741448
0.13858491
0.1397205
0.14082249
0.14189208
0.14293052
0.143939
0.14491872
0.14587084
0.14679651
0.14769682
0.14857285
0.14942563
0.15025616
0.15106543
0.22464213
0.21098942
0.19551884
0.17969075
0.16472828
0.15141791
0.14014292
0.13098715
0.12384234
0.11847343
0.11460155
0.11195436
0.11031649
0.10944984
0.10919117
0.10940937
0.11000112
0.11086735
0.1119582
0.11320546
0.11456171
0.11599249
0.11747062
0.11897515
0.12048981
0.12200218
0.12350278
0.12498449
0.126442
0.1278715
0.12927026
0.13063648
0.13196903
0.13326733
0.13453124
0.1357609
0.13695675
0.13811937
0.1392495
0.14034799
0.14141572
0.14245366
0.14346279
0.1444441
0.14539857
0.14632722
0.14723102
0.14811093
0.14896791
0.14980288
0.15061674
0.15141039
0.22515371
0.21309118
0.19943271
0.18524968
0.17153324
0.15900038
0.14806761
0.138903
0.13149432
0.12570316
0.12132763
0.11814851
0.11595832
0.1146202
0.11389741
0.11368955
0.11388899
0.1144117
0.11517413
0.11613625
0.11723843
0.11844182
0.11971637
0.12103842
0.12238932
0.12375449
0.12512258
0.12648479
0.12783434
0.12916611
0.13047624
0.13176191
0.13302112
0.13425252
0.13545528
0.13662894
0.13777341
0.13888882
0.13997548
0.14103386
0.14206455
0.14306822
0.14404557
0.14499739
0.14592446
0.14682759
0.1477076
0.14856531
0.14940154
0.1502171
0.15101277
0.15178936
0.22559769
0.21485391
0.20272138
0.1899924
0.17745841
0.16574817
0.15527498
0.14625301
0.13873764
0.13266612
0.12790403
0.12428358
0.12162452
0.11983328
0.11869405
0.11808274
0.11790882
0.11808631
0.11854452
0.11921299
0.12005927
0.12103208
0.12209883
0.12323351
0.12441535
0.12562785
0.12685791
0.12809516
0.12933143
0.13056033
0.13177689
0.13297731
0.13415871
0.13531897
0.13645657
0.13757046
0.13865998
0.13972481
0.14076483
0.14178014
0.14277099
0.14373774
0.14468084
0.14560083
0.14649829
0.14737383
0.14822809
0.14906176
0.1498755
0.15066999
0.15144593
0.152204
0.22598707
0.21635538
0.20551841
0.19406777
0.18263188
0.17174793
0.16180444
0.15303534
0.14554032
0.13931306
0.13427499
0.13030637
0.1272704
0.12505115
0.12352982
0.12255832
0.12202961
0.12187934
0.12203236
0.12242972
0.12301248
0.12375406
0.12461089
0.12555502
0.12656392
0.12761942
0.12870689
0.12981451
0.13093281
0.13205422
0.1331727
0.1342835
0.1353829
0.13646799
0.13753659
0.13858704
0.13961816
0.14062912
0.14161939
0.14258869
0.14353691
0.14446411
0.14537048
0.1462563
0.14712192
0.14796777
0.14879431
0.14960205
0.15039152
0.15116328
0.15191789
0.15265594
0.22633145
0.2176509
0.20792412
0.19759645
0.18716668
0.17708665
0.16770862
0.15926858
0.1518926
0.14561455
0.14040006
0.13617083
0.13282609
0.13026542
0.12837649
0.12707466
0.12622475
0.12576414
0.12562759
0.12575351
0.12609309
0.12659723
0.12724414
0.12799635
0.12882991
0.12972536
0.13066672
0.13164091
0.13263728
0.13364717
0.13466356
0.13568079
0.1366943
0.13770047
0.13869645
0.13967999
0.14064938
0.14160329
0.14254078
0.14346118
0.14436403
0.14524908
0.14611625
0.14696554
0.14779711
0.14861116
0.14940798
0.15018791
0.15095132
0.15169863
0.1524303
0.22663821
0.21878077
0.21001396
0.20067524
0.19116021
0.18184631
0.17304526
0.16498367
0.15780069
0.15155735
0.14625288
0.14184305
0.13825753
0.13541592
0.13322831
0.13161071
0.13045686
0.12971801
0.12930736
0.12917533
0.12927222
0.12955695
0.12998901
0.13054976
0.13120713
0.13194079
0.13273366
0.13357158
0.13444286
0.1353379
0.13624874
0.1371689
0.13809305
0.13901687
0.13993688
0.14085025
0.14175474
0.14264857
0.14353036
0.14439906
0.14525387
0.14609423
0.14691975
0.14773022
0.14852553
0.14930568
0.15007077
0.15082098
0.15155652
0.15227767
0.15298474
0.2269131
0.21977509
0.21184508
0.20338076
0.19469508
0.18610149
0.17787228
0.17021806
0.16328146
0.15714054
0.15181902
0.14729972
0.14353782
0.14047284
0.13803328
0.13614488
0.13472472
0.13371075
0.1330517
0.13267561
0.13254121
0.13260807
0.13284097
0.13320655
0.13368839
0.13425991
0.13490309
0.1356029
0.13634681
0.13712438
0.13792686
0.13874698
0.13957874
0.14041716
0.14125815
0.14209835
0.14293501
0.1437659
0.14458923
0.14540356
0.14620776
0.14700094
0.14778245
0.14855181
0.14930868
0.15005285
0.15078424
0.15150283
0.15220869
0.15290194
0.15358279
0.22716072
0.22065681
0.21346152
0.20577323
0.19783939
0.1899182
0.18224504
0.17501184
0.16835836
0.16237202
0.15709362
0.15252655
0.14864684
0.14541198
0.14276676
0.14064942
0.13899317
0.13774
0.13683485
0.13623586
0.13588338
0.13574187
0.13577818
0.13596177
0.13626603
0.13667595
0.13716949
0.13773042
0.13834558
0.13900388
0.13969586
0.14041358
0.14115041
0.14190079
0.14266009
0.14342443
0.14419058
0.1449559
0.14571817
0.14647561
0.14722673
0.14797037
0.14870558
0.14943162
0.15014793
0.15085409
0.15154981
0.1522349
0.15290928
0.15357292
0.1542259
0.22738476
0.22144374
0.2148977
0.20790063
0.20064839
0.19335241
0.18621385
0.17940478
0.17305825
0.16726553
0.16207857
0.15751593
0.15357005
0.15021404
0.14740726
0.14510058
0.14324005
0.14177442
0.14065459
0.13983463
0.13928087
0.13894441
0.13879162
0.13879684
0.13893404
0.13918243
0.13952654
0.13994889
0.14043486
0.14097294
0.14155301
0.14216659
0.14280651
0.1434667
0.14414203
0.14482816
0.14552143
0.14621878
0.14691762
0.14761582
0.14831159
0.14900343
0.14969015
0.15037076
0.15104445
0.15171061
0.15236876
0.15301852
0.15365964
0.15429197
0.22758825
0.22214996
0.2161809
0.20980163
0.2031675
0.19645093
0.18982215
0.18343323
0.17740789
0.17183717
0.16677962
0.16226459
0.15829728
0.15486392
0.15193662
0.14947799
0.14744508
0.14579432
0.14448284
0.14346968
0.14271678
0.14219759
0.14186993
0.14170185
0.14167696
0.14177212
0.14196885
0.1422523
0.14260959
0.14302741
0.14349493
0.14400328
0.14454488
0.14511324
0.14570277
0.14630874
0.14692708
0.14755437
0.14818767
0.1488245
0.14946279
0.15010076
0.15073694
0.1513701
0.15199922
0.15262348
0.1532422
0.15385484
0.15446098
0.15506031
0.22777369
0.22278672
0.21733302
0.21150771
0.2054344
0.19925334
0.19310744
0.18712934
0.18143193
0.17610308
0.17120434
0.16677235
0.16282195
0.1593501
0.15633984
0.15376426
0.1515901
0.14978148
0.14830187
0.14711543
0.14618816
0.14548862
0.14499555
0.14466686
0.14448511
0.14443189
0.1444876
0.14463647
0.14486394
0.14516244
0.14551753
0.14592029
0.14636278
0.14683821
0.1473406
0.14786487
0.14840662
0.14896207
0.14952798
0.15010157
0.15068047
0.15126266
0.1518464
0.15243025
0.15301296
0.15359351
0.15417104
0.15474484
0.15531433
0.15587905
0.22794316
0.22336318
0.21837182
0.21304474
0.20748063
0.20179344
0.1961024
0.1905219
0.18515325
0.18007918
0.1753615
0.17104122
0.16714023
0.16366402
0.16060478
0.15794468
0.15565904
0.15371932
0.15209512
0.15075577
0.14967144
0.14881414
0.14815929
0.14767475
0.14734857
0.14715329
0.1470718
0.14709032
0.14719512
0.14737264
0.14761611
0.1479136
0.14825683
0.14863883
0.14905325
0.14949474
0.14995862
0.15044081
0.15093781
0.15144655
0.15196442
0.15248913
0.15301873
0.15355154
0.15408614
0.15462129
0.15515597
0.1556893
0.15622054
0.15674909
0.22809842
0.22388686
0.2193119
0.21443416
0.20933279
0.20410032
0.19883576
0.19363684
0.18859319
0.1837811
0.17926066
0.17507491
0.17125056
0.16779962
0.16472177
0.16200691
0.15963787
0.15759283
0.15584727
0.15437552
0.15315185
0.15215143
0.15135071
0.15072447
0.15025375
0.14992567
0.14971404
0.14960596
0.14959065
0.14965393
0.14978605
0.14997864
0.15022305
0.15051174
0.1508379
0.15119601
0.15158118
0.15198908
0.15241598
0.15285857
0.153314
0.15377978
0.15425373
0.15473399
0.15521893
0.15570715
0.15619744
0.15668877
0.15718026
0.15767117
0.22824096
0.22436401
0.22016534
0.21569391
0.21101343
0.20619914
0.20133293
0.19649768
0.1917717
0.18722415
0.18291198
0.17887845
0.17515316
0.17175291
0.16868331
0.16594072
0.16351441
0.16138861
0.15954427
0.15796044
0.15661542
0.1554876
0.1545558
0.15379886
0.15319869
0.15273957
0.15240118
0.15217564
0.15204399
0.1519958
0.15202113
0.15211213
0.15225682
0.15245307
0.15269115
0.15296579
0.15327188
0.15360486
0.15396083
0.1543363
0.1547282
0.15513385
0.15555089
0.15597727
0.15641119
0.15685109
0.15729559
0.15774353
0.15819388
0.15864578
0.22837206
0.22479988
0.22094228
0.21683908
0.21254184
0.20811178
0.2036165
0.19912583
0.1947075
0.19042328
0.186326
0.18245783
0.17884971
0.17552166
0.17248381
0.16973776
0.16727823
0.16509479
0.16317332
0.16149732
0.16004894
0.15880981
0.15776149
0.1568858
0.15616605
0.15558673
0.15513158
0.15478783
0.15454732
0.15439214
0.15431354
0.15430489
0.15435522
0.15445863
0.15460906
0.15480064
0.15502778
0.1552856
0.15557025
0.15587797
0.15620556
0.15655017
0.15690929
0.1572807
0.15766245
0.15805282
0.15845031
0.15885361
0.15926156
0.15967318
0.22849282
0.2251989
0.22165127
0.21788251
0.21393456
0.20985734
0.20570657
0.2015408
0.19741813
0.19339299
0.18951357
0.18581994
0.18234316
0.17910517
0.17611934
0.17339137
0.17092053
0.16870095
0.16672292
0.16497399
0.16343996
0.16210563
0.16095534
0.15997346
0.15914504
0.15845581
0.15789177
0.15744075
0.15709226
0.15683244
0.15665655
0.15655146
0.15650916
0.15652357
0.15658867
0.1566966
0.15684548
0.15702826
0.15724163
0.15748134
0.15774418
0.15802715
0.1583276
0.1586432
0.15897185
0.1593117
0.15966114
0.16001871
0.16038314
0.16075334
0.22860421
0.22556488
0.22229958
0.21883517
0.21520589
0.21145257
0.20762113
0.20376046
0.19992004
0.19614735
0.19248567
0.1889723
0.18563749
0.18250403
0.17958741
0.17689644
0.17443398
0.17219804
0.17018274
0.16837928
0.16677684
0.16536321
0.16412544
0.16305028
0.16212466
0.16133586
0.16067154
0.16012037
0.15967185
0.15931495
0.15904087
0.15884488
0.15871348
0.15864097
0.15862235
0.15865063
0.15872159
0.15882917
0.1589719
0.15914366
0.15934168
0.15956272
0.15980408
0.16006329
0.16033816
0.16062673
0.16092725
0.16123819
0.16155815
0.16188596
0.22870706
0.2259011
0.22289349
0.21970649
0.21636824
0.21291221
0.20937625
0.20580111
0.20222866
0.19869996
0.19525337
0.19192301
0.18873763
0.18572003
0.18288692
0.18024923
0.17781266
0.17557834
0.17354367
0.17170308
0.17004877
0.16857136
0.16726044
0.16610503
0.16509396
0.16421615
0.16346075
0.16281747
0.1622765
0.16182834
0.16146462
0.16117824
0.16095921
0.16080495
0.1607053
0.16065503
0.16065077
0.16068608
0.16075768
0.16086167
0.16099524
0.16115439
0.16133654
0.16153907
0.16175974
0.16199649
0.16224748
0.16251108
0.16278582
0.1630704
0.22880212
0.2262104
0.22343839
0.22050466
0.21743244
0.21424927
0.21098638
0.20767766
0.20435842
0.20106388
0.19782767
0.19468055
0.19164929
0.18875603
0.18601795
0.18344735
0.18105194
0.17883538
0.17679776
0.17493627
0.17324583
0.17171962
0.17034959
0.16912689
0.16804223
0.16708616
0.16624927
0.16552242
0.16489676
0.1643638
0.16391573
0.1635453
0.16324485
0.16300889
0.16282969
0.16270514
0.16262771
0.1625918
0.16259503
0.16263285
0.16270162
0.16279917
0.16292233
0.1630682
0.16323454
0.16341918
0.16362025
0.16383602
0.16406497
0.1643057
0.22889005
0.22649526
0.22393899
0.22123681
0.21840799
0.21547527
0.21246447
0.20940376
0.20632281
0.20325164
0.20021949
0.19725371
0.19437882
0.19161579
0.18898171
0.18648957
0.18414848
0.18196392
0.17993819
0.1780708
0.17635901
0.17479828
0.17338273
0.17210548
0.17095905
0.16993557
0.16902704
0.16822551
0.16752315
0.16691241
0.16638612
0.16593749
0.16555983
0.16524727
0.16499365
0.16479396
0.16464642
0.16454198
0.16447828
0.16445104
0.16445751
0.1644945
0.16455838
0.16464785
0.16476004
0.16489255
0.16504358
0.16521126
0.16539408
0.16559052
0.22897142
0.22675787
0.22439942
0.22190919
0.21930325
0.21660045
0.21382218
0.21099187
0.20813438
0.2052752
0.20243953
0.19965145
0.19693307
0.19430391
0.19178043
0.18937584
0.18710007
0.1849599
0.18295929
0.18109965
0.17938022
0.17779845
0.17635038
0.17503097
0.1738344
0.17275433
0.17178413
0.17091702
0.17014623
0.16946512
0.16886725
0.16834642
0.16789666
0.16751238
0.16718817
0.1669193
0.16670184
0.16652958
0.16640213
0.16631214
0.16625744
0.16623481
0.16624166
0.16627557
0.16633335
0.16641391
0.16651508
0.16663461
0.16677124
0.16692312
0.22904677
0.22700017
0.2248233
0.22252729
0.2201256
0.21763392
0.21507001
0.21245338
0.20980483
0.20714592
0.20449825
0.20188282
0.19931933
0.19682563
0.19441725
0.19210717
0.18990568
0.18782041
0.18585651
0.18401686
0.18230233
0.18071207
0.1792438
0.17789412
0.17665874
0.17553276
0.17451084
0.17358736
0.17275659
0.1720128
0.17135031
0.17076361
0.17024733
0.16979638
0.16940587
0.16907129
0.16878848
0.16855295
0.16836164
0.16820955
0.16809648
0.16801624
0.16796701
0.16794611
0.16795147
0.16798092
0.168032
0.16810335
0.16819416
0.16830134
0.22911656
0.22722388
0.22521386
0.223096
0.22088162
0.21858383
0.21621743
0.21379869
0.21134501
0.20887457
0.20640581
0.20395689
0.20154518
0.19918678
0.19689608
0.1946855
0.19256533
0.19054364
0.18862639
0.18681753
0.18511922
0.18353199
0.18205503
0.18068635
0.17942307
0.17826158
0.17719776
0.17622711
0.1753449
0.17454629
0.17382641
0.17318042
0.17260358
0.17209131
0.17163921
0.1712431
0.17089899
0.17060302
0.17035176
0.17014155
0.16996989
0.16983259
0.16972969
0.1696558
0.16960958
0.16958851
0.16959119
0.16961524
0.16966045
0.16972244
0.22918123
0.22743052
0.22557396
0.22361963
0.22157713
0.21945746
0.21727299
0.2150373
0.21276497
0.21047131
0.20817198
0.20588261
0.20361839
0.20139366
0.19922153
0.19711367
0.19508005
0.19312887
0.19126656
0.18949781
0.18782573
0.18625198
0.18477693
0.18339982
0.18211898
0.180932
0.17983587
0.17882713
0.17790201
0.17705654
0.17628663
0.17558814
0.17495694
0.17438901
0.1738804
0.17342732
0.17302613
0.1726733
0.17236556
0.17209969
0.17187287
0.17168208
0.17152525
0.17139881
0.17130306
0.17123315
0.17118836
0.17116599
0.1711657
0.17118444
0.22924115
0.22762148
0.22590613
0.22410204
0.22221736
0.22026135
0.2182444
0.21617788
0.214074
0.21194566
0.20980613
0.20766879
0.20554683
0.20345289
0.20139879
0.19939526
0.19745177
0.19557638
0.19377571
0.19205492
0.19041778
0.18886678
0.18740324
0.18602745
0.18473877
0.18353583
0.18241662
0.18137864
0.18041903
0.17953464
0.17872212
0.17797804
0.17729888
0.17668116
0.17612141
0.17561626
0.17516243
0.17475675
0.17439617
0.17407778
0.17379884
0.17355671
0.17334903
0.17317327
0.17302775
0.17290937
0.17281871
0.17275132
0.17270697
0.17268285
0.22929668
0.227798
0.22621267
0.22454668
0.22280697
0.22100139
0.21913866
0.21722834
0.21528069
0.21330656
0.21131719
0.209324
0.20733837
0.20537135
0.20343348
0.2015345
0.19968322
0.19788738
0.19615355
0.19448711
0.19289226
0.19137209
0.18992864
0.18856302
0.18727547
0.1860655
0.18493199
0.18387331
0.18288741
0.1819719
0.18112419
0.18034147
0.17962085
0.17895937
0.17835406
0.17780198
0.17730023
0.17684598
0.17643647
0.17606907
0.17574123
0.17545053
0.17519471
0.17497153
0.17477905
0.17461513
0.17447841
0.1743662
0.17427928
0.17421356
0.22934814
0.22796117
0.22649563
0.22495665
0.22335017
0.22168285
0.21996208
0.21819589
0.21639293
0.21456234
0.21271363
0.21085652
0.20900079
0.20715606
0.2053316
0.20353618
0.20177787
0.20006393
0.19840072
0.19679364
0.19524713
0.19376465
0.19234877
0.19100122
0.18972294
0.18851419
0.18737461
0.18630332
0.18529901
0.18436001
0.18348437
0.18266993
0.18191437
0.18121526
0.18057011
0.17997642
0.17943166
0.17893337
0.17847909
0.17806646
0.17769319
0.17735705
0.17705594
0.17678783
0.17655082
0.17634305
0.17616289
0.17600855
0.17587891
0.17577165
0.22939581
0.22811203
0.22675685
0.22533472
0.22385071
0.22231051
0.22072038
0.21908711
0.217418
0.21572076
0.21400343
0.2122743
0.21054173
0.20881406
0.20709939
0.20540553
0.20373977
0.20210882
0.20051871
0.19897471
0.19748129
0.19604216
0.19466021
0.19333762
0.19207589
0.19087585
0.18973779
0.18866147
0.18764623
0.18669103
0.18579453
0.18495516
0.18417113
0.18344052
0.18276132
0.18213143
0.18154874
0.18101112
0.18051643
0.1800626
0.17964759
0.17926939
0.1789261
0.17861586
0.17833689
0.17808751
0.17786613
0.17767118
0.1775013
0.17735501
0.22943996
0.22825147
0.226998
0.22568339
0.224312
0.22288868
0.22141876
0.219908
0.21836257
0.21678899
0.2151941
0.21358491
0.2119686
0.21035234
0.20874321
0.20714807
0.20557346
0.2040255
0.20250979
0.20103136
0.19959461
0.1982033
0.19686054
0.19556879
0.19432993
0.19314528
0.19201561
0.19094124
0.18992206
0.18895756
0.18804698
0.18718923
0.18638306
0.18562702
0.18491953
0.18425892
0.18364344
0.18307132
0.18254074
0.18204991
0.18159706
0.18118041
0.18079825
0.18044892
0.18013081
0.17984236
0.17958209
0.17934859
0.17914051
0.17895659
0.22948083
0.22838034
0.2272206
0.22600493
0.2247371
0.22342124
0.22206191
0.220664
0.21923275
0.2177737
0.21629263
0.21479554
0.21328854
0.2117778
0.21026947
0.20876957
0.20728389
0.20581795
0.2043769
0.20296544
0.20158779
0.20024767
0.19894825
0.19769219
0.1964816
0.19531815
0.194203
0.19313689
0.19212016
0.19115281
0.1902345
0.18936466
0.18854245
0.18776688
0.18703678
0.18635087
0.18570777
0.18510603
0.18454418
0.18402069
0.18353403
0.1830827
0.1826652
0.18228003
0.18192577
0.18160102
0.18130443
0.1810347
0.18079058
0.18057093
0.22951866
0.2284994
0.22742601
0.22630139
0.22512877
0.22391171
0.22265408
0.22136007
0.22003414
0.21868099
0.21730555
0.21591292
0.21450834
0.21309711
0.21168453
0.21027587
0.20887624
0.20749057
0.20612353
0.20477944
0.20346231
0.20217569
0.20092276
0.19970622
0.19852835
0.19739102
0.19629569
0.19524343
0.19423494
0.19327061
0.1923505
0.19147443
0.19064199
0.18985256
0.18910536
0.18839947
0.18773386
0.18710739
0.1865189
0.18596714
0.18545084
0.18496873
0.18451952
0.18410194
0.18371472
0.18335663
0.18302645
0.18272303
0.18244522
0.18219199
0.22955363
0.22860932
0.22761548
0.22657462
0.22548952
0.22436325
0.22319912
0.22200072
0.22077184
0.2195165
0.2182389
0.2169434
0.21563448
0.21431669
0.21299462
0.21167285
0.21035587
0.20904806
0.2077536
0.20647645
0.20522032
0.20398858
0.20278429
0.20161015
0.2004685
0.19936135
0.19829032
0.19725673
0.19626158
0.19530553
0.19438901
0.19351215
0.1926749
0.19187698
0.19111794
0.19039721
0.18971405
0.18906766
0.18845713
0.1878815
0.18733975
0.18683083
0.18635368
0.18590721
0.18549034
0.18510201
0.18474116
0.18440675
0.18409777
0.1838133
0.22958594
0.22871072
0.22779012
0.22682628
0.22582161
0.22477874
0.22370053
0.22259003
0.2214505
0.22028538
0.21909825
0.21789284
0.21667301
0.21544266
0.21420577
0.21296629
0.21172818
0.21049529
0.20927137
0.20805999
0.20686453
0.20568817
0.2045338
0.20340404
0.20230123
0.20122741
0.20018435
0.19917349
0.19819604
0.19725291
0.19634476
0.19547203
0.19463494
0.19383351
0.1930676
0.1923369
0.19164098
0.19097932
0.19035126
0.1897561
0.18919306
0.18866132
0.18816001
0.18768826
0.18724516
0.18682981
0.1864413
0.18607875
0.18574126
0.18542805
0.22961576
0.22880419
0.22795095
0.22705789
0.22612708
0.22516078
0.22416145
0.2231317
0.22207435
0.22099233
0.21988871
0.21876671
0.21762962
0.21648082
0.21532373
0.21416182
0.21299852
0.21183724
0.21068128
0.20953388
0.2083981
0.20727686
0.20617288
0.20508864
0.20402644
0.20298831
0.20197605
0.2009912
0.2000351
0.19910882
0.19821323
0.19734899
0.19651653
0.19571614
0.19494791
0.1942118
0.19350764
0.19283513
0.19219388
0.19158341
0.19100317
0.19045254
0.18993086
0.18943745
0.18897157
0.18853248
0.18811943
0.18773167
0.18736844
0.22964323
0.22889023
0.2280989
0.22727082
0.22640777
0.2255117
0.22458472
0.22362909
0.22264722
0.22164162
0.22061496
0.21956999
0.21850955
0.21743656
0.21635399
0.21526484
0.21417212
0.21307882
0.21198788
0.21090217
0.20982448
0.20875746
0.20770362
0.20666532
0.20564473
0.20464384
0.20366444
0.20270813
0.20177628
0.20087011
0.19999061
0.1991386
0.1983147
0.1975194
0.19675299
0.19601566
0.19530743
0.19462824
0.19397791
0.19335616
0.19276265
0.19219696
0.19165862
0.19114712
0.19066189
0.19020237
0.18976794
0.18935798
0.18897191
0.22966851
0.22896931
0.22823478
0.22746627
0.22666532
0.22583359
0.2249729
0.2240852
0.22317255
0.22223714
0.22128125
0.22030727
0.21931765
0.21831491
0.21730164
0.21628046
0.21525399
0.21422486
0.21319567
0.212169
0.21114732
0.21013306
0.20912852
0.20813589
0.20715721
0.20619441
0.20524921
0.20432321
0.20341783
0.20253432
0.20167379
0.20083714
0.20002516
0.19923847
0.19847754
0.19774271
0.19703422
0.19635217
0.19569656
0.19506732
0.19446428
0.19388719
0.19333578
0.19280967
0.19230848
0.19183177
0.19137909
0.19094996
0.19054391
0.22969173
0.22904185
0.22835934
0.22764536
0.22690122
0.22612833
0.22532828
0.22450272
0.22365345
0.22278235
0.22189141
0.22098268
0.22005831
0.21912047
0.21817143
0.21721345
0.21624886
0.21527996
0.21430906
0.21333844
0.21237033
0.21140691
0.2104503
0.20950249
0.20856542
0.20764088
0.20673056
0.20583598
0.20495859
0.20409964
0.20326029
0.20244153
0.20164422
0.20086911
0.20011679
0.19938774
0.19868235
0.19800087
0.19734346
0.19671021
0.19610111
0.19551607
0.19495497
0.19441759
0.19390369
0.19341297
0.19294512
0.19249978
0.19207662
0.22971298
0.22910822
0.22847325
0.22780907
0.22711677
0.22639759
0.22565287
0.22488405
0.22409267
0.22328037
0.22244888