/*--------------------------------*- C++ -*----------------------------------*\
| =========                 |                                                 |
| \\      /  F ield         | OpenFOAM: The Open Source CFD Toolbox           |
|  \\    /   O peration     | Version:  2312                                  |
|   \\  /    A nd           | Website:  www.openfoam.com                      |
|    \\/     M anipulation  |                                                 |
\*---------------------------------------------------------------------------*/
FoamFile
{
    version     2.0;
    format      ascii;
    arch        "LSB;label=32;scalar=64";
    class       volScalarField;
    location    "0.08";
    object      p;
}
// * * * * * * * * * * * * * * * * * * * * * * * * * * * * * * * * * * * * * //

dimensions      [1 -1 -2 0 0 0 0];

internalField   nonuniform List<scalar> 
3275
(
100002.61
100001.3
100009.38
100012.03
100013.31
100013.32
100012.35
100011.23
100010.01
100008.61
100008.25
100007.48
100005.82
100005.2
100004.55
100004.01
100003.57
100003.21
100002.93
100002.69
100002.5
100002.34
100002.2
100002.09
100002
100001.92
100001.85
100001.79
100001.74
100001.7
100001.67
100001.64
100001.61
100001.59
100001.58
100001.56
100001.55
100001.55
100001.54
100001.54
100001.54
100001.54
100001.54
100001.55
100001.55
100001.56
100001.57
100001.58
100001.59
100001.6
100001.61
100001.62
100001.97
99997.874
100007.27
100010.11
100012
100012.49
100011.76
100010.82
100009.72
100008.4
100008.09
100007.36
100005.74
100005.14
100004.5
100003.97
100003.54
100003.19
100002.91
100002.68
100002.49
100002.33
100002.2
100002.09
100001.99
100001.91
100001.85
100001.79
100001.74
100001.7
100001.67
100001.64
100001.61
100001.59
100001.58
100001.57
100001.56
100001.55
100001.54
100001.54
100001.54
100001.54
100001.55
100001.55
100001.55
100001.56
100001.57
100001.58
100001.59
100001.6
100001.61
100001.62
100008.62
99992.075
100002.77
100006.25
100009.53
100010.93
100010.63
100010.01
100009.15
100008.01
100007.77
100007.11
100005.59
100005.01
100004.4
100003.9
100003.48
100003.15
100002.87
100002.65
100002.47
100002.31
100002.18
100002.07
100001.98
100001.91
100001.84
100001.78
100001.74
100001.7
100001.66
100001.64
100001.61
100001.59
100001.58
100001.56
100001.56
100001.55
100001.54
100001.54
100001.54
100001.54
100001.55
100001.55
100001.56
100001.56
100001.57
100001.58
100001.59
100001.6
100001.61
100001.62
100020.12
99981.476
99995.215
100000.61
100006.14
100008.71
100009.05
100008.88
100008.33
100007.44
100007.31
100006.75
100005.37
100004.83
100004.27
100003.79
100003.4
100003.08
100002.82
100002.61
100002.43
100002.28
100002.16
100002.06
100001.97
100001.89
100001.83
100001.78
100001.73
100001.69
100001.66
100001.63
100001.61
100001.59
100001.57
100001.56
100001.55
100001.55
100001.54
100001.54
100001.54
100001.54
100001.55
100001.55
100001.56
100001.56
100001.57
100001.58
100001.59
100001.6
100001.61
100001.62
99946.547
99950.843
99983.852
99994.172
100002.09
100005.9
100007.24
100007.55
100007.33
100006.72
100006.73
100006.3
100005.09
100004.59
100004.09
100003.65
100003.29
100003
100002.76
100002.56
100002.39
100002.25
100002.13
100002.03
100001.95
100001.88
100001.82
100001.76
100001.72
100001.68
100001.65
100001.62
100001.6
100001.59
100001.57
100001.56
100001.55
100001.54
100001.54
100001.54
100001.54
100001.54
100001.54
100001.55
100001.55
100001.56
100001.57
100001.58
100001.59
100001.6
100001.61
100001.62
99742.292
99899.408
99972.169
99988.106
99998.117
100002.9
100005.21
100006.18
100006.26
100005.93
100006.08
100005.8
100004.77
100004.32
100003.88
100003.49
100003.16
100002.9
100002.68
100002.49
100002.34
100002.21
100002.1
100002
100001.92
100001.86
100001.8
100001.75
100001.71
100001.67
100001.64
100001.62
100001.6
100001.58
100001.56
100001.55
100001.55
100001.54
100001.54
100001.54
100001.54
100001.54
100001.54
100001.55
100001.55
100001.56
100001.57
100001.58
100001.59
100001.6
100001.61
100001.62
99836.398
99895.142
99965.029
99982.973
99994.345
100000.1
100003.22
100004.74
100005.2
100005.11
100005.39
100005.25
100004.44
100004.02
100003.65
100003.31
100003.03
100002.79
100002.59
100002.42
100002.28
100002.16
100002.06
100001.97
100001.9
100001.83
100001.78
100001.73
100001.69
100001.66
100001.63
100001.61
100001.59
100001.57
100001.56
100001.55
100001.54
100001.54
100001.53
100001.53
100001.53
100001.53
100001.54
100001.54
100001.55
100001.56
100001.57
100001.58
100001.59
100001.6
100001.6
100001.62
99912.263
99908.456
99962.214
99979.209
99991.093
99997.548
100001.23
100003.2
100004.07
100004.28
100004.63
100004.64
100004.07
100003.7
100003.4
100003.12
100002.87
100002.67
100002.49
100002.34
100002.21
100002.1
100002.01
100001.93
100001.86
100001.8
100001.75
100001.71
100001.67
100001.64
100001.62
100001.59
100001.58
100001.56
100001.55
100001.54
100001.53
100001.53
100001.53
100001.53
100001.53
100001.53
100001.53
100001.54
100001.55
100001.55
100001.56
100001.57
100001.58
100001.59
100001.6
100001.61
99932.542
99920.431
99961.762
99976.814
99988.464
99995.231
99999.307
100001.64
100002.87
100003.41
100003.84
100003.98
100003.65
100003.35
100003.12
100002.89
100002.7
100002.53
100002.38
100002.25
100002.14
100002.04
100001.96
100001.89
100001.83
100001.77
100001.73
100001.69
100001.65
100001.62
100001.6
100001.58
100001.56
100001.55
100001.54
100001.53
100001.52
100001.52
100001.52
100001.52
100001.52
100001.52
100001.53
100001.53
100001.54
100001.55
100001.56
100001.57
100001.58
100001.59
100001.6
100001.61
99937.072
99929.628
99962.252
99975.429
99986.398
99993.182
99997.505
100000.14
100001.66
100002.49
100003.05
100003.3
100003.17
100002.99
100002.81
100002.65
100002.5
100002.37
100002.25
100002.15
100002.05
100001.97
100001.9
100001.84
100001.78
100001.74
100001.7
100001.66
100001.63
100001.6
100001.58
100001.56
100001.55
100001.54
100001.53
100001.52
100001.51
100001.51
100001.51
100001.51
100001.51
100001.52
100001.52
100001.53
100001.54
100001.54
100001.55
100001.56
100001.57
100001.58
100001.59
100001.6
99941.841
99937.764
99963.321
99974.802
99984.853
99991.446
99995.868
99998.717
100000.47
100001.54
100002.25
100002.61
100002.64
100002.6
100002.5
100002.39
100002.29
100002.2
100002.12
100002.03
100001.96
100001.89
100001.84
100001.78
100001.74
100001.7
100001.66
100001.63
100001.6
100001.58
100001.56
100001.54
100001.53
100001.52
100001.51
100001.51
100001.5
100001.5
100001.5
100001.5
100001.5
100001.51
100001.51
100001.52
100001.53
100001.54
100001.55
100001.56
100001.57
100001.58
100001.59
100001.6
99947.537
99945.195
99964.861
99974.775
99983.792
99990.043
99994.436
99997.404
99999.343
100000.6
100001.44
100001.93
100002.1
100002.18
100002.18
100002.11
100002.07
100002.02
100001.97
100001.91
100001.86
100001.81
100001.76
100001.72
100001.68
100001.65
100001.62
100001.59
100001.57
100001.55
100001.54
100001.52
100001.51
100001.5
100001.5
100001.49
100001.49
100001.49
100001.49
100001.49
100001.49
100001.5
100001.5
100001.51
100001.52
100001.53
100001.54
100001.55
100001.56
100001.57
100001.58
100001.59
99953.013
99951.766
99966.724
99975.206
99983.16
99988.966
99993.226
99996.229
99998.292
99999.688
100000.65
100001.25
100001.56
100001.74
100001.83
100001.83
100001.83
100001.83
100001.81
100001.78
100001.75
100001.72
100001.68
100001.65
100001.63
100001.6
100001.58
100001.56
100001.54
100001.52
100001.51
100001.5
100001.49
100001.48
100001.48
100001.48
100001.47
100001.47
100001.48
100001.48
100001.48
100001.49
100001.49
100001.5
100001.51
100001.52
100001.53
100001.54
100001.55
100001.56
100001.57
100001.59
99957.999
99957.461
99968.768
99975.968
99982.89
99988.193
99992.24
99995.209
99997.333
99998.831
99999.889
100000.6
100001.02
100001.3
100001.46
100001.55
100001.6
100001.63
100001.64
100001.64
100001.63
100001.62
100001.6
100001.58
100001.56
100001.55
100001.53
100001.51
100001.5
100001.49
100001.48
100001.47
100001.47
100001.46
100001.46
100001.46
100001.46
100001.46
100001.46
100001.46
100001.47
100001.48
100001.48
100001.49
100001.5
100001.51
100001.52
100001.53
100001.54
100001.55
100001.57
100001.58
99962.527
99962.381
99970.888
99976.954
99982.916
99987.693
99991.473
99994.349
99996.483
99998.042
99999.177
99999.972
100000.49
100000.85
100001.1
100001.25
100001.36
100001.42
100001.47
100001.49
100001.51
100001.51
100001.51
100001.5
100001.5
100001.49
100001.48
100001.47
100001.46
100001.45
100001.45
100001.44
100001.44
100001.44
100001.44
100001.44
100001.44
100001.44
100001.44
100001.45
100001.46
100001.46
100001.47
100001.48
100001.49
100001.5
100001.51
100001.52
100001.53
100001.55
100001.56
100001.57
99966.62
99966.643
99973.011
99978.084
99983.177
99987.431
99990.911
99993.649
99995.75
99997.335
99998.521
99999.385
99999.988
100000.42
100000.73
100000.95
100001.11
100001.22
100001.29
100001.34
100001.38
100001.4
100001.42
100001.42
100001.43
100001.43
100001.42
100001.42
100001.42
100001.42
100001.41
100001.41
100001.41
100001.41
100001.41
100001.42
100001.42
100001.42
100001.43
100001.43
100001.44
100001.45
100001.46
100001.47
100001.48
100001.49
100001.5
100001.51
100001.52
100001.53
100001.55
100001.56
99970.286
99970.345
99975.089
99979.299
99983.619
99987.371
99990.537
99993.106
99995.139
99996.718
99997.93
99998.843
99999.512
100000.01
100000.38
100000.65
100000.86
100001.01
100001.11
100001.19
100001.25
100001.29
100001.32
100001.34
100001.35
100001.36
100001.37
100001.37
100001.37
100001.38
100001.38
100001.38
100001.38
100001.38
100001.39
100001.39
100001.4
100001.4
100001.41
100001.42
100001.42
100001.43
100001.44
100001.45
100001.46
100001.48
100001.49
100001.5
100001.51
100001.52
100001.53
100001.55
99973.541
99973.569
99977.086
99980.554
99984.197
99987.478
99990.329
99992.71
99994.647
99996.194
99997.412
99998.355
99999.071
99999.62
100000.04
100000.36
100000.61
100000.8
100000.94
100001.04
100001.11
100001.17
100001.21
100001.25
100001.27
100001.29
100001.3
100001.32
100001.32
100001.33
100001.34
100001.34
100001.35
100001.35
100001.36
100001.37
100001.37
100001.38
100001.39
100001.4
100001.41
100001.42
100001.43
100001.44
100001.45
100001.46
100001.47
100001.49
100001.5
100001.51
100001.52
100001.53
99976.418
99976.383
99978.981
99981.817
99984.872
99987.722
99990.266
99992.449
99994.272
99995.764
99996.967
99997.924
99998.673
99999.261
99999.723
100000.09
100000.37
100000.59
100000.75
100000.88
100000.98
100001.05
100001.11
100001.16
100001.19
100001.22
100001.24
100001.26
100001.27
100001.29
100001.3
100001.31
100001.31
100001.32
100001.33
100001.34
100001.35
100001.36
100001.37
100001.38
100001.39
100001.4
100001.41
100001.42
100001.43
100001.45
100001.46
100001.47
100001.49
100001.5
100001.51
100001.52
99978.951
99978.848
99980.757
99983.063
99985.614
99988.073
99990.327
99992.309
99994.005
99995.426
99996.599
99997.554
99998.32
99998.936
99999.43
99999.825
100000.14
100000.38
100000.57
100000.72
100000.84
100000.93
100001
100001.06
100001.11
100001.14
100001.17
100001.2
100001.22
100001.24
100001.25
100001.27
100001.28
100001.29
100001.3
100001.31
100001.32
100001.33
100001.34
100001.36
100001.37
100001.38
100001.39
100001.4
100001.42
100001.43
100001.44
100001.46
100001.47
100001.48
100001.49
99981.179
99981.015
99982.409
99984.273
99986.396
99988.507
99990.49
99992.276
99993.839
99995.178
99996.307
99997.245
99998.017
99998.649
99999.165
99999.583
99999.918
100000.19
100000.4
100000.57
100000.7
100000.81
100000.9
100000.97
100001.02
100001.07
100001.11
100001.14
100001.16
100001.19
100001.21
100001.22
100001.24
100001.25
100001.27
100001.28
100001.29
100001.31
100001.32
100001.33
100001.35
100001.36
100001.37
100001.39
100001.4
100001.41
100001.43
100001.44
100001.46
100001.47
100001.48
99983.139
99982.926
99983.935
99985.435
99987.197
99989.001
99990.737
99992.335
99993.764
99995.013
99996.087
99996.998
99997.763
99998.401
99998.928
99999.361
99999.714
100000
100000.23
100000.42
100000.57
100000.69
100000.79
100000.87
100000.93
100000.99
100001.04
100001.07
100001.11
100001.13
100001.16
100001.18
100001.2
100001.22
100001.23
100001.25
100001.26
100001.28
100001.29
100001.31
100001.32
100001.34
100001.35
100001.37
100001.38
100001.4
100001.41
100001.43
100001.44
100001.45
100001.46
99984.866
99984.617
99985.339
99986.54
99987.999
99989.537
99991.049
99992.472
99993.768
99994.924
99995.936
99996.811
99997.558
99998.19
99998.721
99999.162
99999.527
99999.826
100000.07
100000.27
100000.44
100000.57
100000.68
100000.78
100000.85
100000.91
100000.96
100001.01
100001.05
100001.08
100001.11
100001.14
100001.16
100001.18
100001.2
100001.22
100001.23
100001.25
100001.27
100001.28
100001.3
100001.31
100001.33
100001.35
100001.36
100001.38
100001.39
100001.41
100001.42
100001.43
100001.45
99986.39
99986.119
99986.625
99987.582
99988.788
99990.095
99991.41
99992.67
99993.841
99994.902
99995.848
99996.678
99997.398
99998.017
99998.543
99998.986
99999.357
99999.666
99999.922
100000.13
100000.31
100000.46
100000.58
100000.68
100000.76
100000.83
100000.89
100000.94
100000.99
100001.03
100001.06
100001.09
100001.11
100001.14
100001.16
100001.18
100001.2
100001.22
100001.24
100001.26
100001.27
100001.29
100001.31
100001.32
100001.34
100001.36
100001.37
100001.39
100001.4
100001.42
99987.739
99987.457
99987.802
99988.559
99989.554
99990.663
99991.803
99992.916
99993.967
99994.936
99995.812
99996.593
99997.28
99997.878
99998.393
99998.833
99999.205
99999.519
99999.783
100000
100000.19
100000.34
100000.47
100000.58
100000.68
100000.76
100000.82
100000.88
100000.93
100000.97
100001.01
100001.04
100001.07
100001.1
100001.12
100001.15
100001.17
100001.19
100001.21
100001.23
100001.25
100001.26
100001.28
100001.3
100001.32
100001.34
100001.35
100001.37
100001.38
100001.4
99988.937
99988.652
99988.877
99989.472
99990.29
99991.228
99992.214
99993.194
99994.135
99995.014
99995.821
99996.55
99997.2
99997.772
99998.271
99998.703
99999.073
99999.388
99999.656
99999.883
100000.07
100000.24
100000.38
100000.49
100000.59
100000.68
100000.75
100000.81
100000.86
100000.91
100000.95
100000.99
100001.02
100001.05
100001.08
100001.11
100001.13
100001.15
100001.18
100001.2
100001.22
100001.24
100001.26
100001.28
100001.29
100001.31
100001.33
100001.35
100001.36
100001.38
99990.004
99989.723
99989.858
99990.322
99990.992
99991.784
99992.634
99993.495
99994.333
99995.128
99995.867
99996.543
99997.153
99997.696
99998.176
99998.595
99998.958
99999.272
99999.541
99999.771
99999.968
100000.14
100000.28
100000.4
100000.51
100000.6
100000.68
100000.75
100000.8
100000.86
100000.9
100000.94
100000.98
100001.01
100001.04
100001.07
100001.1
100001.12
100001.14
100001.17
100001.19
100001.21
100001.23
100001.25
100001.27
100001.29
100001.31
100001.33
100001.34
100001.36
99990.958
99990.685
99990.753
99991.112
99991.659
99992.325
99993.056
99993.809
99994.554
99995.27
99995.944
99996.567
99997.135
99997.648
99998.105
99998.509
99998.863
99999.171
99999.439
99999.67
99999.87
100000.04
100000.19
100000.32
100000.43
100000.52
100000.61
100000.68
100000.74
100000.8
100000.85
100000.89
100000.93
100000.97
100001
100001.03
100001.06
100001.09
100001.11
100001.13
100001.16
100001.18
100001.2
100001.22
100001.24
100001.26
100001.28
100001.3
100001.32
100001.34
99991.813
99991.551
99991.57
99991.844
99992.288
99992.847
99993.474
99994.131
99994.791
99995.433
99996.044
99996.616
99997.144
99997.624
99998.056
99998.443
99998.785
99999.086
99999.35
99999.58
99999.78
99999.954
100000.1
100000.24
100000.35
100000.45
100000.54
100000.61
100000.68
100000.74
100000.79
100000.84
100000.88
100000.92
100000.96
100000.99
100001.02
100001.05
100001.08
100001.1
100001.13
100001.15
100001.17
100001.19
100001.22
100001.24
100001.26
100001.28
100001.29
100001.31
99992.582
99992.333
99992.315
99992.521
99992.881
99993.348
99993.884
99994.456
99995.038
99995.612
99996.165
99996.687
99997.174
99997.621
99998.028
99998.395
99998.724
99999.015
99999.273
99999.5
99999.699
99999.874
100000.03
100000.16
100000.28
100000.38
100000.47
100000.55
100000.62
100000.68
100000.74
100000.79
100000.84
100000.88
100000.91
100000.95
100000.98
100001.01
100001.04
100001.07
100001.09
100001.12
100001.14
100001.17
100001.19
100001.21
100001.23
100001.25
100001.27
100001.29
99993.275
99993.04
99992.996
99993.148
99993.436
99993.825
99994.282
99994.778
99995.29
99995.802
99996.3
99996.775
99997.222
99997.638
99998.019
99998.365
99998.678
99998.959
99999.209
99999.431
99999.627
99999.801
99999.954
100000.09
100000.21
100000.31
100000.41
100000.49
100000.56
100000.63
100000.69
100000.74
100000.79
100000.83
100000.87
100000.91
100000.94
100000.97
100001
100001.03
100001.06
100001.09
100001.11
100001.13
100001.16
100001.18
100001.2
100001.22
100001.24
100001.26
99993.901
99993.681
99993.618
99993.726
99993.956
99994.279
99994.667
99995.095
99995.545
99995.999
99996.446
99996.877
99997.287
99997.67
99998.025
99998.351
99998.647
99998.916
99999.157
99999.372
99999.565
99999.736
99999.888
100000.02
100000.14
100000.25
100000.34
100000.43
100000.5
100000.57
100000.63
100000.69
100000.74
100000.78
100000.83
100000.87
100000.9
100000.93
100000.97
100001
100001.02
100001.05
100001.08
100001.1
100001.13
100001.15
100001.17
100001.2
100001.22
100001.24
99994.468
99994.263
99994.187
99994.26
99994.442
99994.708
99995.036
99995.406
99995.799
99996.201
99996.601
99996.991
99997.364
99997.716
99998.046
99998.35
99998.63
99998.885
99999.116
99999.324
99999.511
99999.679
99999.829
99999.964
100000.08
100000.19
100000.29
100000.37
100000.45
100000.52
100000.58
100000.64
100000.69
100000.74
100000.78
100000.82
100000.86
100000.9
100000.93
100000.96
100000.99
100001.02
100001.04
100001.07
100001.1
100001.12
100001.14
100001.17
100001.19
100001.21
99994.982
99994.792
99994.708
99994.754
99994.895
99995.114
99995.39
99995.707
99996.05
99996.404
99996.761
99997.112
99997.451
99997.774
99998.079
99998.362
99998.625
99998.866
99999.086
99999.286
99999.467
99999.63
99999.777
99999.91
100000.03
100000.14
100000.23
100000.32
100000.4
100000.47
100000.53
100000.59
100000.64
100000.69
100000.74
100000.78
100000.82
100000.86
100000.89
100000.92
100000.95
100000.98
100001.01
100001.04
100001.06
100001.09
100001.11
100001.14
100001.16
100001.18
99995.45
99995.273
99995.185
99995.209
99995.318
99995.495
99995.727
99995.999
99996.296
99996.608
99996.925
99997.24
99997.547
99997.842
99998.122
99998.385
99998.63
99998.857
99999.065
99999.256
99999.43
99999.588
99999.732
99999.862
99999.979
100000.09
100000.18
100000.27
100000.35
100000.42
100000.48
100000.54
100000.6
100000.65
100000.69
100000.74
100000.78
100000.81
100000.85
100000.88
100000.92
100000.95
100000.98
100001
100001.03
100001.06
100001.08
100001.1
100001.13
100001.15
99995.875
99995.712
99995.621
99995.628
99995.711
99995.854
99996.048
99996.279
99996.536
99996.809
99997.09
99997.372
99997.649
99997.917
99998.174
99998.417
99998.645
99998.857
99999.054
99999.235
99999.402
99999.554
99999.693
99999.819
99999.934
100000.04
100000.13
100000.22
100000.3
100000.37
100000.44
100000.5
100000.55
100000.6
100000.65
100000.69
100000.74
100000.77
100000.81
100000.85
100000.88
100000.91
100000.94
100000.97
100001
100001.02
100001.05
100001.07
100001.09
100001.12
99996.264
99996.113
99996.022
99996.016
99996.076
99996.191
99996.352
99996.547
99996.769
99997.007
99997.255
99997.506
99997.756
99997.999
99998.233
99998.457
99998.668
99998.866
99999.051
99999.223
99999.381
99999.526
99999.66
99999.783
99999.895
99999.997
100000.09
100000.18
100000.25
100000.33
100000.39
100000.45
100000.51
100000.56
100000.61
100000.65
100000.69
100000.73
100000.77
100000.81
100000.84
100000.87
100000.9
100000.93
100000.96
100000.99
100001.01
100001.04
100001.06
100001.08
99996.618
99996.479
99996.389
99996.373
99996.416
99996.507
99996.639
99996.804
99996.994
99997.202
99997.42
99997.642
99997.866
99998.085
99998.299
99998.504
99998.699
99998.883
99999.056
99999.217
99999.367
99999.506
99999.634
99999.752
99999.86
99999.96
100000.05
100000.14
100000.21
100000.28
100000.35
100000.41
100000.47
100000.52
100000.57
100000.61
100000.65
100000.69
100000.73
100000.77
100000.8
100000.83
100000.87
100000.9
100000.92
100000.95
100000.98
100001
100001.03
100001.05
99996.942
99996.815
99996.727
99996.703
99996.731
99996.802
99996.91
99997.049
99997.211
99997.391
99997.582
99997.779
99997.978
99998.175
99998.369
99998.556
99998.735
99998.906
99999.067
99999.218
99999.359
99999.491
99999.613
99999.726
99999.831
99999.927
100000.02
100000.1
100000.17
100000.24
100000.31
100000.37
100000.43
100000.48
100000.53
100000.57
100000.61
100000.65
100000.69
100000.73
100000.76
100000.8
100000.83
100000.86
100000.89
100000.92
100000.94
100000.97
100000.99
100001.02
99997.239
99997.122
99997.037
99997.008
99997.024
99997.078
99997.166
99997.282
99997.42
99997.574
99997.741
99997.914
99998.091
99998.268
99998.443
99998.613
99998.778
99998.935
99999.084
99999.225
99999.358
99999.482
99999.598
99999.705
99999.806
99999.899
99999.985
100000.07
100000.14
100000.21
100000.27
100000.33
100000.39
100000.44
100000.49
100000.53
100000.58
100000.62
100000.65
100000.69
100000.73
100000.76
100000.79
100000.82
100000.85
100000.88
100000.91
100000.93
100000.96
100000.98
99997.511
99997.404
99997.322
99997.29
99997.296
99997.337
99997.407
99997.503
99997.619
99997.752
99997.896
99998.048
99998.205
99998.363
99998.52
99998.675
99998.824
99998.969
99999.106
99999.237
99999.361
99999.478
99999.587
99999.69
99999.785
99999.875
99999.958
100000.04
100000.11
100000.17
100000.24
100000.3
100000.35
100000.4
100000.45
100000.49
100000.54
100000.58
100000.62
100000.65
100000.69
100000.72
100000.75
100000.78
100000.81
100000.84
100000.87
100000.9
100000.92
100000.95
99997.761
99997.663
99997.585
99997.55
99997.549
99997.578
99997.633
99997.712
99997.81
99997.923
99998.048
99998.181
99998.319
99998.459
99998.6
99998.739
99998.875
99999.007
99999.134
99999.255
99999.37
99999.479
99999.582
99999.679
99999.77
99999.855
99999.934
100000.01
100000.08
100000.14
100000.2
100000.26
100000.32
100000.37
100000.41
100000.46
100000.5
100000.54
100000.58
100000.61
100000.65
100000.68
100000.72
100000.75
100000.78
100000.8
100000.83
100000.86
100000.88
100000.91
99997.991
99997.901
99997.827
99997.791
99997.784
99997.803
99997.847
99997.91
99997.992
99998.088
99998.195
99998.31
99998.431
99998.556
99998.681
99998.806
99998.929
99999.049
99999.165
99999.277
99999.383
99999.485
99999.581
99999.672
99999.758
99999.839
99999.915
99999.986
100000.05
100000.12
100000.18
100000.23
100000.28
100000.33
100000.38
100000.42
100000.46
100000.5
100000.54
100000.58
100000.61
100000.65
100000.68
100000.71
100000.74
100000.77
100000.8
100000.82
100000.85
100000.87
99998.203
99998.12
99998.051
99998.014
99998.002
99998.014
99998.047
99998.098
99998.165
99998.246
99998.337
99998.437
99998.543
99998.652
99998.763
99998.875
99998.986
99999.094
99999.2
99999.302
99999.401
99999.495
99999.585
99999.67
99999.75
99999.827
99999.899
99999.967
100000.03
100000.09
100000.15
100000.2
100000.25
100000.3
100000.35
100000.39
100000.43
100000.47
100000.51
100000.54
100000.58
100000.61
100000.64
100000.67
100000.7
100000.73
100000.76
100000.78
100000.81
100000.84
99998.399
99998.323
99998.258
99998.22
99998.206
99998.211
99998.235
99998.275
99998.33
99998.398
99998.475
99998.561
99998.652
99998.748
99998.846
99998.946
99999.045
99999.143
99999.238
99999.332
99999.422
99999.509
99999.592
99999.671
99999.747
99999.819
99999.887
99999.951
100000.01
100000.07
100000.12
100000.18
100000.23
100000.27
100000.32
100000.36
100000.4
100000.44
100000.47
100000.51
100000.54
100000.57
100000.61
100000.64
100000.67
100000.69
100000.72
100000.75
100000.77
100000.8
99998.58
99998.511
99998.449
99998.412
99998.395
99998.395
99998.411
99998.443
99998.487
99998.543
99998.608
99998.681
99998.76
99998.843
99998.929
99999.017
99999.105
99999.193
99999.28
99999.364
99999.447
99999.526
99999.603
99999.677
99999.747
99999.814
99999.878
99999.939
99999.997
100000.05
100000.1
100000.15
100000.2
100000.25
100000.29
100000.33
100000.37
100000.4
100000.44
100000.48
100000.51
100000.54
100000.57
100000.6
100000.63
100000.66
100000.68
100000.71
100000.74
100000.76
99998.748
99998.685
99998.627
99998.59
99998.571
99998.567
99998.577
99998.601
99998.636
99998.682
99998.736
99998.798
99998.865
99998.937
99999.013
99999.09
99999.168
99999.246
99999.324
99999.4
99999.475
99999.547
99999.618
99999.686
99999.751
99999.813
99999.873
99999.93
99999.984
100000.04
100000.09
100000.13
100000.18
100000.22
100000.26
100000.3
100000.34
100000.38
100000.41
100000.44
100000.48
100000.51
100000.54
100000.57
100000.59
100000.62
100000.65
100000.67
100000.7
100000.73
99998.904
99998.846
99998.792
99998.756
99998.736
99998.728
99998.733
99998.75
99998.778
99998.815
99998.859
99998.911
99998.968
99999.03
99999.095
99999.163
99999.231
99999.301
99999.37
99999.438
99999.506
99999.572
99999.636
99999.698
99999.758
99999.816
99999.871
99999.925
99999.976
100000.02
100000.07
100000.12
100000.16
100000.2
100000.24
100000.28
100000.31
100000.35
100000.38
100000.41
100000.44
100000.48
100000.5
100000.53
100000.56
100000.59
100000.61
100000.64
100000.66
100000.69
99999.05
99998.997
99998.946
99998.911
99998.889
99998.879
99998.88
99998.892
99998.912
99998.941
99998.978
99999.021
99999.069
99999.122
99999.177
99999.236
99999.296
99999.357
99999.418
99999.479
99999.54
99999.599
99999.657
99999.714
99999.769
99999.822
99999.874
99999.923
99999.97
100000.02
100000.06
100000.1
100000.14
100000.18
100000.22
100000.25
100000.29
100000.32
100000.35
100000.39
100000.42
100000.45
100000.47
100000.5
100000.53
100000.55
100000.58
100000.6
100000.63
99999.187
99999.138
99999.09
99999.056
99999.034
99999.021
99999.019
99999.025
99999.04
99999.063
99999.092
99999.127
99999.167
99999.211
99999.259
99999.309
99999.361
99999.414
99999.468
99999.522
99999.576
99999.63
99999.682
99999.733
99999.783
99999.832
99999.879
99999.925
99999.969
100000.01
100000.05
100000.09
100000.13
100000.17
100000.2
100000.24
100000.27
100000.3
100000.33
100000.36
100000.39
100000.42
100000.44
100000.47
100000.5
100000.52
100000.55
100000.57
100000.6
99999.316
99999.27
99999.225
99999.192
99999.169
99999.155
99999.149
99999.152
99999.162
99999.178
99999.201
99999.229
99999.262
99999.299
99999.339
99999.382
99999.427
99999.473
99999.52
99999.568
99999.615
99999.663
99999.71
99999.756
99999.801
99999.845
99999.888
99999.93
99999.97
100000.01
100000.05
100000.08
100000.12
100000.15
100000.19
100000.22
100000.25
100000.28
100000.31
100000.34
100000.37
100000.39
100000.42
100000.44
100000.47
100000.49
100000.52
100000.54
100000.57
99999.437
99999.394
99999.351
99999.319
99999.296
99999.28
99999.272
99999.271
99999.277
99999.289
99999.306
99999.328
99999.355
99999.385
99999.419
99999.455
99999.493
99999.533
99999.574
99999.615
99999.657
99999.699
99999.74
99999.782
99999.822
99999.862
99999.901
99999.939
99999.976
100000.01
100000.05
100000.08
100000.11
100000.15
100000.18
100000.21
100000.24
100000.26
100000.29
100000.32
100000.34
100000.37
100000.39
100000.42
100000.44
100000.46
100000.49
100000.51
100000.54
99999.551
99999.511
99999.47
99999.439
99999.416
99999.399
99999.389
99999.385
99999.387
99999.395
99999.407
99999.424
99999.445
99999.47
99999.497
99999.528
99999.56
99999.593
99999.628
99999.664
99999.701
99999.737
99999.774
99999.811
99999.847
99999.882
99999.917
99999.952
99999.985
100000.02
100000.05
100000.08
100000.11
100000.14
100000.17
100000.2
100000.22
100000.25
100000.28
100000.3
100000.33
100000.35
100000.37
100000.39
100000.42
100000.44
100000.46
100000.49
100000.51
99999.66
99999.622
99999.583
99999.552
99999.529
99999.511
99999.499
99999.493
99999.492
99999.496
99999.504
99999.517
99999.533
99999.553
99999.575
99999.6
99999.626
99999.655
99999.685
99999.715
99999.747
99999.779
99999.811
99999.843
99999.875
99999.906
99999.937
99999.968
99999.998
100000.03
100000.06
100000.08
100000.11
100000.14
100000.17
100000.19
100000.22
100000.24
100000.26
100000.29
100000.31
100000.33
100000.35
100000.37
100000.4
100000.42
100000.44
100000.46
100000.49
99999.763
99999.727
99999.69
99999.659
99999.635
99999.617
99999.604
99999.595
99999.592
99999.592
99999.597
99999.606
99999.618
99999.634
99999.651
99999.671
99999.693
99999.717
99999.742
99999.768
99999.795
99999.822
99999.85
99999.878
99999.906
99999.933
99999.961
99999.988
100000.02
100000.04
100000.07
100000.09
100000.12
100000.14
100000.17
100000.19
100000.21
100000.23
100000.26
100000.28
100000.3
100000.32
100000.34
100000.36
100000.38
100000.4
100000.42
100000.44
100000.47
99999.862
99999.827
99999.791
99999.761
99999.736
99999.717
99999.703
99999.692
99999.687
99999.685
99999.687
99999.693
99999.701
99999.713
99999.727
99999.743
99999.761
99999.78
99999.801
99999.823
99999.845
99999.869
99999.892
99999.916
99999.94
99999.964
99999.988
100000.01
100000.04
100000.06
100000.08
100000.11
100000.13
100000.15
100000.17
100000.19
100000.21
100000.23
100000.25
100000.27
100000.29
100000.31
100000.33
100000.34
100000.36
100000.38
100000.4
100000.42
100000.45
99999.956
99999.923
99999.886
99999.856
99999.832
99999.812
99999.796
99999.785
99999.778
99999.774
99999.774
99999.777
99999.782
99999.791
99999.801
99999.814
99999.828
99999.844
99999.861
99999.879
99999.898
99999.917
99999.937
99999.958
99999.978
99999.999
100000.02
100000.04
100000.06
100000.08
100000.1
100000.12
100000.14
100000.16
100000.18
100000.2
100000.22
100000.23
100000.25
100000.27
100000.29
100000.3
100000.32
100000.33
100000.35
100000.37
100000.39
100000.41
100000.43
100000.05
100000.01
99999.977
99999.947
99999.922
99999.901
99999.885
99999.873
99999.864
99999.859
99999.857
99999.858
99999.861
99999.867
99999.875
99999.884
99999.896
99999.908
99999.922
99999.937
99999.952
99999.968
99999.985
100000
100000.02
100000.04
100000.05
100000.07
100000.09
100000.11
100000.12
100000.14
100000.16
100000.17
100000.19
100000.21
100000.22
100000.24
100000.25
100000.27
100000.28
100000.3
100000.31
100000.33
100000.34
100000.36
100000.38
100000.4
100000.42
100000.13
100000.1
100000.06
100000.03
100000.01
99999.985
99999.968
99999.955
99999.946
99999.94