/*--------------------------------*- C++ -*----------------------------------*\
| =========                 |                                                 |
| \\      /  F ield         | OpenFOAM: The Open Source CFD Toolbox           |
|  \\    /   O peration     | Version:  2312                                  |
|   \\  /    A nd           | Website:  www.openfoam.com                      |
|    \\/     M anipulation  |                                                 |
\*---------------------------------------------------------------------------*/
FoamFile
{
    version     2.0;
    format      ascii;
    arch        "LSB;label=32;scalar=64";
    class       surfaceScalarField;
    location    "0.08";
    object      phi;
}
// * * * * * * * * * * * * * * * * * * * * * * * * * * * * * * * * * * * * * //

dimensions      [1 0 -1 0 0 0 0];

oriented        oriented;

internalField   nonuniform List<scalar> 
6433
(
8.3109979e-07
3.3340645e-08
7.5670051e-07
7.4401457e-08
6.756683e-07
8.1036019e-08
6.0215799e-07
7.3515605e-08
5.4113645e-07
6.1028294e-08
4.918435e-07
4.9301179e-08
4.519778e-07
3.9875467e-08
4.1953538e-07
3.2453867e-08
3.9286033e-07
2.6688276e-08
3.7068931e-07
2.2186083e-08
3.5193443e-07
1.8771782e-08
3.3599992e-07
1.5953035e-08
3.2239292e-07
1.362797e-08
3.1058339e-07
1.1832437e-08
3.0022794e-07
1.0380249e-08
2.9105308e-07
9.2014906e-09
2.8285037e-07
8.2311216e-09
2.7546122e-07
7.4192739e-09
2.687624e-07
6.7306029e-09
2.6265545e-07
6.1403098e-09
2.5705972e-07
5.6306099e-09
2.5190838e-07
5.1876463e-09
2.4714584e-07
4.8001688e-09
2.4272525e-07
4.459449e-09
2.3860677e-07
4.1584469e-09
2.3475632e-07
3.8914127e-09
2.3114453e-07
3.6536113e-09
2.2774595e-07
3.4411126e-09
2.2453841e-07
3.2506324e-09
2.2150251e-07
3.0794086e-09
2.1862116e-07
2.9251046e-09
2.1587925e-07
2.7857329e-09
2.1326338e-07
2.6595946e-09
2.107616e-07
2.5452304e-09
2.0836322e-07
2.4413817e-09
2.0605862e-07
2.3469584e-09
2.0383917e-07
2.2610128e-09
2.0169705e-07
2.1827169e-09
1.9962518e-07
2.1113442e-09
1.9761713e-07
2.0462518e-09
1.9566706e-07
1.9868653e-09
1.9376962e-07
1.9326558e-09
1.9191992e-07
1.8831288e-09
1.9011336e-07
1.8379451e-09
1.8834583e-07
1.7970476e-09
1.8661384e-07
1.7598674e-09
1.8491375e-07
1.7259353e-09
1.8324234e-07
1.6950332e-09
1.8159666e-07
1.666939e-09
1.79974e-07
1.6414824e-09
1.7837182e-07
1.6185009e-09
1.5976009e-09
8.2166911e-07
7.6105379e-08
7.3987656e-07
1.5619317e-07
6.5896805e-07
1.6194368e-07
5.8903254e-07
1.4345033e-07
5.3162509e-07
1.1843514e-07
4.8504126e-07
9.588467e-08
4.4707852e-07
7.7838304e-08
4.1594412e-07
6.3588916e-08
3.9017613e-07
5.2457565e-08
3.6864004e-07
4.3724175e-08
3.503411e-07
3.7073451e-08
3.3473698e-07
3.1560545e-08
3.2137299e-07
2.6996804e-08
3.0974529e-07
2.3465982e-08
2.9952929e-07
2.0603099e-08
2.9046337e-07
1.8275283e-08
2.8234719e-07
1.6356215e-08
2.7502779e-07
1.4748661e-08
2.6838587e-07
1.3383592e-08
2.6232584e-07
1.2212498e-08
2.5676915e-07
1.120055e-08
2.5165059e-07
1.0320562e-08
2.4691578e-07
9.5504195e-09
2.4251882e-07
8.8729455e-09
2.3842061e-07
8.2742706e-09
2.3458765e-07
7.7430559e-09
2.3099104e-07
7.2699532e-09
2.2760571e-07
6.8471983e-09
2.2440979e-07
6.4682973e-09
2.2138411e-07
6.1277845e-09
2.1851181e-07
5.8210328e-09
2.1577794e-07
5.5441033e-09
2.1316923e-07
5.2936255e-09
2.1067386e-07
5.0667021e-09
2.0828122e-07
4.8608299e-09
2.0598181e-07
4.6738379e-09
2.0376703e-07
4.5038343e-09
2.0162914e-07
4.3491641e-09
1.9956112e-07
4.2083719e-09
1.9755657e-07
4.0801717e-09
1.9560968e-07
3.963419e-09
1.9371514e-07
3.8570846e-09
1.918681e-07
3.7602386e-09
1.9006402e-07
3.6720656e-09
1.8829877e-07
3.5920404e-09
1.8656887e-07
3.5195835e-09
1.848707e-07
3.4536914e-09
1.8320107e-07
3.3939105e-09
1.8155705e-07
3.339788e-09
1.7993594e-07
3.2909301e-09
1.7833517e-07
3.2469942e-09
3.20742e-09
7.9812093e-07
1.4247578e-07
7.0255986e-07
2.5175338e-07
6.2513675e-07
2.3936593e-07
5.6347081e-07
2.051155e-07
5.1328929e-07
1.6861608e-07
4.7186038e-07
1.3731329e-07
4.3753939e-07
1.1215945e-07
4.0893606e-07
9.2192989e-08
3.8492054e-07
7.647451e-08
3.6461431e-07
6.4032562e-08
3.4720263e-07
5.4488045e-08
3.3224295e-07
4.6523822e-08
3.1935437e-07
3.9890486e-08
3.0808428e-07
3.4742228e-08
2.9814309e-07
3.0551482e-08
2.8929221e-07
2.713441e-08
2.8134713e-07
2.4310627e-08
2.7416581e-07
2.1940418e-08
2.6763665e-07
1.9924294e-08
2.6166969e-07
1.8192141e-08
2.5619052e-07
1.669352e-08
2.5113708e-07
1.5388937e-08
2.4645741e-07
1.4246153e-08
2.4210745e-07
1.3240086e-08
2.3804959e-07
1.2350437e-08
2.3425145e-07
1.1560583e-08
2.3068508e-07
1.0856797e-08
2.2732614e-07
1.0227661e-08
2.2415336e-07
9.663612e-09
2.2114808e-07
9.1565904e-09
2.1829382e-07
8.699766e-09
2.1557597e-07
8.287318e-09
2.1298155e-07
7.9142608e-09
2.1049896e-07
7.5763034e-09
2.081178e-07
7.2697354e-09
2.0582871e-07
6.9913347e-09
2.0362326e-07
6.7382903e-09
2.0149382e-07
6.5081401e-09
1.9943346e-07
6.2987176e-09
1.9743588e-07
6.1081071e-09
1.9549535e-07
5.9346064e-09
1.9360663e-07
5.7766935e-09
1.917649e-07
5.6330058e-09
1.8996572e-07
5.5023131e-09
1.8820502e-07
5.3836422e-09
1.8647926e-07
5.2761517e-09
1.8478492e-07
5.1785873e-09
1.8311884e-07
5.0902018e-09
1.8147812e-07
5.0102958e-09
1.7986008e-07
4.9382468e-09
1.7826215e-07
4.8735122e-09
4.8153986e-09
7.4355096e-07
2.6351546e-07
6.3785598e-07
3.5744745e-07
5.7366749e-07
3.0355353e-07
5.2685061e-07
2.5193162e-07
4.8735571e-07
2.0811042e-07
4.5304727e-07
1.7162144e-07
4.2386768e-07
1.4133929e-07
3.9883283e-07
1.1722868e-07
3.7729636e-07
9.8012506e-08
3.5874304e-07
8.2588168e-08
3.426062e-07
7.062794e-08
3.2857602e-07
6.0557755e-08
3.1637597e-07
5.2095821e-08
3.0562833e-07
4.5496226e-08
2.9608979e-07
4.0097429e-08
2.8755482e-07
3.5677869e-08
2.7986167e-07
3.2013363e-08
2.7288408e-07
2.8928714e-08
2.6652161e-07
2.6298601e-08
2.6069239e-07
2.4034329e-08
2.5532812e-07
2.2071906e-08
2.5037131e-07
2.0361005e-08
2.4577353e-07
1.886034e-08
2.4149345e-07
1.7537704e-08
2.3749559e-07
1.6366959e-08
2.337493e-07
1.5326643e-08
2.3022796e-07
1.4398991e-08
2.2690835e-07
1.3569195e-08
2.2377008e-07
1.2824829e-08
2.2079522e-07
1.2155403e-08
2.1796787e-07
1.1552012e-08
2.1527395e-07
1.1007056e-08
2.1270086e-07
1.0514016e-08
2.1023736e-07
1.0067277e-08
2.0787333e-07
9.6619727e-09
2.0559967e-07
9.293876e-09
2.0340816e-07
8.9592931e-09
2.0129134e-07
8.6549854e-09
1.9924244e-07
8.3781001e-09
1.9725529e-07
8.1261135e-09
1.9532427e-07
7.8967827e-09
1.9344423e-07
7.6881064e-09
1.9161047e-07
7.4982951e-09
1.8981862e-07
7.3257327e-09
1.8806468e-07
7.1690366e-09
1.8634512e-07
7.0270205e-09
1.8465651e-07
6.8982509e-09
1.8299573e-07
6.7816869e-09
1.8135994e-07
6.6763822e-09
1.7974649e-07
6.5814871e-09
1.781528e-07
6.4962523e-09
6.4198442e-09
6.116538e-07
5.1581625e-07
5.3890977e-07
4.301905e-07
5.0799257e-07
3.3446984e-07
4.8140639e-07
2.7851704e-07
4.5554225e-07
2.3397404e-07
4.3028176e-07
1.9688173e-07
4.0687442e-07
1.6474691e-07
3.8608331e-07
1.3802073e-07
3.6758857e-07
1.1650889e-07
3.5121313e-07
9.8966017e-08
3.3667711e-07
8.5167155e-08
3.2381957e-07
7.3419173e-08
3.1249528e-07
6.3425565e-08
3.0241855e-07
5.5579494e-08
2.9339955e-07
4.9124025e-08
2.8527368e-07
4.3812416e-08
2.7790786e-07
3.9388965e-08
2.7119571e-07
3.5651763e-08
2.6505094e-07
3.2455416e-08
2.5940201e-07
2.9696438e-08
2.5418838e-07
2.7299862e-08
2.4935846e-07
2.5206397e-08
2.4486835e-07
2.3367074e-08
2.4068025e-07
2.1743561e-08
2.3676147e-07
2.0304629e-08
2.3308357e-07
1.902455e-08
2.2962169e-07
1.7881962e-08
2.2635404e-07
1.6859008e-08
2.2326139e-07
1.5940667e-08
2.2032676e-07
1.5114229e-08
2.1753504e-07
1.436888e-08
2.1487278e-07
1.3695377e-08
2.1232795e-07
1.3085775e-08
2.0988974e-07
1.2533218e-08
2.0754842e-07
1.203176e-08
2.0529523e-07
1.1576225e-08
2.031222e-07
1.1162086e-08
2.0102212e-07
1.0785366e-08
1.9898842e-07
1.044256e-08
1.9701512e-07
1.0130564e-08
1.9509672e-07
9.8466182e-09
1.9322823e-07
9.5882594e-09
1.9140504e-07
9.3532844e-09
1.8962291e-07
9.1397074e-09
1.8787794e-07
8.9457737e-09
1.8616662e-07
8.7699436e-09
1.8448562e-07
8.6106033e-09
1.8283189e-07
8.4664353e-09
1.8120264e-07
8.3362526e-09
1.7959527e-07
8.2189824e-09
1.7800723e-07
8.1136681e-09
8.0193248e-09
3.0080296e-07
3.0486892e-07
3.7730608e-07
3.5368643e-07
3.8910663e-07
3.2266846e-07
3.8461966e-07
2.8300335e-07
3.7324701e-07
2.4534625e-07
3.5921623e-07
2.109124e-07
3.4416008e-07
1.7980342e-07
3.2948394e-07
1.5269774e-07
3.1592614e-07
1.3006827e-07
3.0350163e-07
1.1139279e-07
2.9217594e-07
9.6495797e-08
2.8192826e-07
8.3670407e-08
2.7276473e-07
7.2594074e-08
2.6450794e-07
6.3842236e-08
2.5704157e-07
5.6597276e-08
2.5025766e-07
5.0604167e-08
2.4406599e-07
4.5589466e-08
2.3839162e-07
4.1335942e-08
2.3317196e-07
3.7685897e-08
2.2835383e-07
3.4526406e-08
2.2389129e-07
3.1775252e-08
2.1974451e-07
2.936704e-08
2.1587914e-07
2.7247331e-08
2.1226525e-07
2.5373338e-08
2.0887669e-07
2.371008e-08
2.056905e-07
2.2228615e-08
2.0268647e-07
2.0904835e-08
1.9984674e-07
1.9718527e-08
1.9715547e-07
1.8652638e-08
1.9459859e-07
1.7692705e-08
1.9216351e-07
1.6826395e-08
1.89839e-07
1.6043141e-08
1.8761494e-07
1.5333847e-08
1.8548224e-07
1.4690648e-08
1.8343268e-07
1.4106714e-08
1.8145881e-07
1.3576086e-08
1.7955389e-07
1.3093548e-08
1.7771176e-07
1.2654514e-08
1.7592682e-07
1.2254933e-08
1.7419394e-07
1.1891216e-08
1.7250843e-07
1.1560169e-08
1.7086598e-07
1.1258939e-08
1.6926264e-07
1.0984972e-08
1.6769477e-07
1.0735969e-08
1.6615901e-07
1.0509869e-08
1.6465231e-07
1.0304842e-08
1.631718e-07
1.0119095e-08
1.6171485e-07
9.9510827e-09
1.6027904e-07
9.799415e-09
1.5886214e-07
9.6628283e-09
1.574619e-07
9.5401714e-09
9.430339e-09
2.0645465e-07
1.9084158e-07
3.0506886e-07
2.5507115e-07
3.4257894e-07
2.8515752e-07
3.5425542e-07
2.7132622e-07
3.5343355e-07
2.4616775e-07
3.4655743e-07
2.177885e-07
3.3662666e-07
1.8973464e-07
3.2543188e-07
1.6389348e-07
3.1430776e-07
1.4119416e-07
3.0370226e-07
1.2200075e-07
2.937127e-07
1.0648854e-07
2.844118e-07
9.2975104e-08
2.7591645e-07
8.1094707e-08
2.6816274e-07
7.1602226e-08
2.6106187e-07
6.3705394e-08
2.5454534e-07
5.7128934e-08
2.4854974e-07
5.1594306e-08
2.4301859e-07
4.6877356e-08
2.3790229e-07
4.281349e-08
2.3315717e-07
3.9283869e-08
2.2874435e-07
3.6201447e-08
2.2462932e-07
3.3496489e-08
2.2078174e-07
3.1110381e-08
2.1717476e-07
2.8996817e-08
2.137846e-07
2.7117771e-08
2.1059014e-07
2.5441616e-08
2.075726e-07
2.3941909e-08
2.0471524e-07
2.2596388e-08
2.0200312e-07
2.1386212e-08
1.9942283e-07
2.029535e-08
1.9696237e-07
1.9310094e-08
1.9461091e-07
1.841867e-08
1.9235869e-07
1.7610919e-08
1.9019689e-07
1.6878039e-08
1.8811751e-07
1.6212371e-08
1.8611327e-07
1.5607223e-08
1.8417756e-07
1.5056723e-08
1.8230432e-07
1.4555704e-08
1.8048804e-07
1.4099593e-08
1.7872366e-07
1.3684336e-08
1.7700652e-07
1.3306318e-08
1.7533236e-07
1.2962309e-08
1.7369726e-07
1.2649414e-08
1.7209758e-07
1.2365023e-08
1.7052999e-07
1.2106789e-08
1.6899143e-07
1.1872601e-08
1.6747903e-07
1.1660471e-08
1.6599018e-07
1.1468639e-08
1.6452245e-07
1.1295512e-08
1.6307359e-07
1.1139638e-08
1.6164137e-07
1.0999679e-08
1.0874391e-08
1.6958495e-07
1.1631176e-07
2.53383e-07
1.7127189e-07
3.0067092e-07
2.378687e-07
3.2361335e-07
2.4838317e-07
3.3192814e-07
2.3785265e-07
3.3185627e-07
2.1786045e-07
3.2707881e-07
1.9451269e-07
3.1974897e-07
1.712245e-07
3.1130726e-07
1.4963777e-07
3.0269042e-07
1.306203e-07
2.9425248e-07
1.1492994e-07
2.8608227e-07
1.0114942e-07
2.7838962e-07
8.8792946e-08
2.7125715e-07
7.8741369e-08
2.646204e-07
7.0349815e-08
2.5845251e-07
6.3305507e-08
2.5272042e-07
5.7336111e-08
2.4738875e-07
5.2219796e-08
2.4242299e-07
4.7791092e-08
2.3779058e-07
4.3929177e-08
2.3346109e-07
4.0544909e-08
2.2940638e-07
3.7566247e-08
2.2560098e-07
3.4931904e-08
2.2202182e-07
3.259316e-08
2.1864805e-07
3.0509773e-08
2.1546087e-07
2.8648076e-08
2.1244331e-07
2.6979773e-08
2.0958006e-07
2.5480937e-08
2.0685732e-07
2.4131232e-08
2.0426259e-07
2.2913288e-08
2.0178459e-07
2.1812205e-08
1.9941309e-07
2.0815143e-08
1.9713879e-07
1.9910996e-08
1.9495326e-07
1.9090115e-08
1.9284879e-07
1.8344085e-08
1.9081837e-07
1.7665538e-08
1.8885557e-07
1.7047996e-08
1.8695451e-07
1.6485748e-08
1.851098e-07
1.5973731e-08
1.8331648e-07
1.550745e-08
1.8156999e-07
1.5082891e-08
1.7986613e-07
1.4696463e-08
1.7820103e-07
1.4344941e-08
1.765711e-07
1.4025419e-08
1.7497304e-07
1.3735273e-08
1.734038e-07
1.3472129e-08
1.7186057e-07
1.3233799e-08
1.7034072e-07
1.301831e-08
1.6884184e-07
1.2823876e-08
1.6736169e-07
1.2648862e-08
1.6589802e-07
1.2491749e-08
1.2351142e-08
1.499609e-07
6.4054126e-08
2.1560815e-07
1.0562331e-07
2.6425063e-07
1.892253e-07
2.9410183e-07
2.1853137e-07
3.0966388e-07
2.2229039e-07
3.1580036e-07
2.117242e-07
3.1595114e-07
1.9436267e-07
3.1252178e-07
1.7465527e-07
3.0702095e-07
1.5514078e-07
3.0051437e-07
1.3712983e-07
2.9378454e-07
1.2166356e-07
2.869333e-07
1.0800526e-07
2.8016634e-07
9.5565697e-08
2.7375704e-07
8.515781e-08
2.6768112e-07
7.6433894e-08
2.6194365e-07
6.9052177e-08
2.5654396e-07
6.2746064e-08
2.5147004e-07
5.7305069e-08
2.467042e-07
5.2569379e-08
2.422265e-07
4.8420416e-08
2.3801617e-07
4.4769892e-08
2.3405245e-07
4.1545717e-08
2.3031559e-07
3.8685623e-08
2.2678698e-07
3.613972e-08
2.2344929e-07
3.3866503e-08
2.2028648e-07
3.1831003e-08
2.1728377e-07
3.0003642e-08
2.1442763e-07
2.8359272e-08
2.1170565e-07
2.6876408e-08
2.0910648e-07
2.5536619e-08
2.0661975e-07
2.4324025e-08
2.0423597e-07
2.3224898e-08
2.0194646e-07
2.2227319e-08
1.9974327e-07
2.1320906e-08
1.9761911e-07
2.0496578e-08
1.9556728e-07
1.9746361e-08
1.9358164e-07
1.9063234e-08
1.9165654e-07
1.8440986e-08
1.8978675e-07
1.7874107e-08
1.8796749e-07
1.7357691e-08
1.861943e-07
1.6887353e-08
1.8446309e-07
1.6459162e-08
1.8277008e-07
1.6069585e-08
1.8111176e-07
1.571543e-08
1.7948487e-07
1.5393812e-08
1.7788641e-07
1.5102111e-08
1.763136e-07
1.4837936e-08
1.7476386e-07
1.4599115e-08
1.732348e-07
1.4383673e-08
1.717242e-07
1.4189795e-08
1.7022981e-07
1.4015792e-08
1.3860113e-08
1.3687456e-07
2.7588987e-08
1.87174e-07
5.5322428e-08
2.334211e-07
1.4297727e-07
2.6675797e-07
1.8519397e-07
2.8760434e-07
2.0144391e-07
2.9898775e-07
2.0034119e-07
3.03705e-07
1.8964643e-07
3.0399851e-07
1.7436343e-07
3.0151597e-07
1.5762579e-07
2.9731547e-07
1.4133364e-07
2.9232867e-07
1.2665448e-07
2.8692127e-07
1.1341777e-07
2.812331e-07
1.0126003e-07
2.7563625e-07
9.0762309e-08
2.7021395e-07
8.1864896e-08
2.6498705e-07
7.4288862e-08
2.5998872e-07
6.7755289e-08
2.5523179e-07
6.2074019e-08
2.5071676e-07
5.7097549e-08
2.4643752e-07
5.2713931e-08
2.4238401e-07
4.8838813e-08
2.3854382e-07
4.5402466e-08
2.3490365e-07
4.2343478e-08
2.3145004e-07
3.9612154e-08
2.2816969e-07
3.7166789e-08
2.2504981e-07
3.4971931e-08
2.2207821e-07
3.299737e-08
2.1924344e-07
3.1217239e-08
2.1653477e-07
2.9609306e-08
2.1394222e-07
2.8154392e-08
2.1145654e-07
2.6835895e-08
2.0906914e-07
2.5639397e-08
2.0677209e-07
2.4552332e-08
2.0455806e-07
2.3563715e-08
2.0242027e-07
2.2663904e-08
2.0035245e-07
2.1844413e-08
1.9834879e-07
2.1097743e-08
1.9640394e-07
2.0417247e-08
1.9451292e-07
1.9797012e-08
1.9267113e-07
1.9231764e-08
1.908743e-07
1.8716778e-08
1.8911849e-07
1.8247813e-08
1.8740001e-07
1.7821046e-08
1.8571545e-07
1.7433023e-08
1.8406166e-07
1.7080614e-08
1.824357e-07
1.6760972e-08
1.8083484e-07
1.6471507e-08
1.7925656e-07
1.6209856e-08
1.776985e-07
1.5973865e-08
1.7615848e-07
1.5761548e-08
1.7463426e-07
1.5571054e-08
1.5400671e-08
1.2824266e-07
2.5371698e-09
1.6601203e-07
1.7551498e-08
2.079535e-07
1.0103488e-07
2.4221305e-07
1.5093398e-07
2.6649902e-07
1.77158e-07
2.8201615e-07
1.8482468e-07
2.9073411e-07
1.8092976e-07
2.9452145e-07
1.7057813e-07
2.9493895e-07
1.5721112e-07
2.9312016e-07
1.4315616e-07
2.8996557e-07
1.2981358e-07
2.8605536e-07
1.1733366e-07
2.8158881e-07
1.0573336e-07
2.7689247e-07
9.5466716e-08
2.7219609e-07
8.657061e-08
2.6755574e-07
7.8939662e-08
2.6302636e-07
7.2296287e-08
2.5864547e-07
6.6467679e-08
2.5443277e-07
6.1324194e-08
2.5039683e-07
5.6764973e-08
2.465392e-07
5.2712719e-08
2.4285657e-07
4.9102557e-08
2.393428e-07
4.5875868e-08
2.3599015e-07
4.29846e-08
2.3278991e-07
4.0387988e-08
2.2973293e-07
3.8050999e-08
2.2681002e-07
3.5943497e-08
2.2401212e-07
3.4039459e-08
2.2133046e-07
3.2316352e-08
2.1875665e-07
3.0754607e-08
2.1628277e-07
2.9337185e-08
2.1390131e-07
2.8049208e-08
2.1160524e-07
2.6877654e-08
2.0938796e-07
2.5811085e-08
2.0724331e-07
2.4839426e-08
2.0516555e-07
2.3953777e-08
2.0314929e-07
2.3146247e-08
2.0118953e-07
2.2409822e-08
1.9928162e-07
2.1738245e-08
1.9742121e-07
2.1125919e-08
1.9560424e-07
2.0567822e-08
1.9382694e-07
2.0059433e-08
1.9208579e-07
1.9596671e-08
1.9037752e-07
1.9175841e-08
1.8869908e-07
1.8793589e-08
1.8704762e-07
1.844686e-08
1.854205e-07
1.8132876e-08
1.8381527e-07
1.7849097e-08
1.8222963e-07
1.7593197e-08
1.8066144e-07
1.7363033e-08
1.7910849e-07
1.7156595e-08
1.6972012e-08
1.2290513e-07
-1.4317602e-08
1.5072338e-07
-1.0268398e-08
1.87425e-07
6.4332395e-08
2.2077279e-07
1.175859e-07
2.4688188e-07
1.5104919e-07
2.6541517e-07
1.662923e-07
2.774349e-07
1.6891166e-07
2.8436077e-07
1.6365471e-07
2.875089e-07
1.5406629e-07
2.880172e-07
1.4265206e-07
2.8678754e-07
1.3104837e-07
2.843937e-07
1.1973369e-07
2.8121035e-07
1.0892418e-07
2.775298e-07
9.9156003e-08
2.7361208e-07
9.0498262e-08
2.6962865e-07
8.2934317e-08
2.6563266e-07
7.6304711e-08
2.6168544e-07
7.0428525e-08
2.578262e-07
6.5198279e-08
2.5407877e-07
6.052844e-08
2.504569e-07
5.6351854e-08
2.4696695e-07
5.2610977e-08
2.4361054e-07
4.9251964e-08
2.4038613e-07
4.6229899e-08
2.3729005e-07
4.3506152e-08
2.3431725e-07
4.1047063e-08
2.3146185e-07
3.882333e-08
2.287175e-07
3.680938e-08
2.2607765e-07
3.4982868e-08
2.2353577e-07
3.3324228e-08
2.2108542e-07
3.1816299e-08
2.1872037e-07
3.0444007e-08
2.1643463e-07
2.9194077e-08
2.1422247e-07
2.8054796e-08
2.1207847e-07
2.7015797e-08
2.0999748e-07
2.6067881e-08
2.0797465e-07
2.5202864e-08
2.0600543e-07
2.4413444e-08
2.040855e-07
2.3693087e-08
2.0221084e-07
2.3035932e-08
2.0037767e-07
2.2436702e-08
1.9858244e-07
2.1890638e-08
1.9682182e-07
2.1393433e-08
1.9509271e-07
2.094118e-08
1.9339219e-07
2.0530326e-08
1.9171756e-07
2.015763e-08
1.9006626e-07
1.9820139e-08
1.8843594e-07
1.951515e-08
1.8682438e-07
1.9240184e-08
1.8522951e-07
1.8992945e-08
1.8364916e-07
1.8771281e-08
1.8573156e-08
1.1991379e-07
-2.5242469e-08
1.4004556e-07
-3.0401873e-08
1.712695e-07
3.3107684e-08
2.0249544e-07
8.6359865e-08
2.2910255e-07
1.2444263e-07
2.4959591e-07
1.4580019e-07
2.6419108e-07
1.5431855e-07
2.7379292e-07
1.540558e-07
2.7945241e-07
1.4841064e-07
2.8216559e-07
1.3994366e-07
2.8282553e-07
1.3039423e-07
2.8201424e-07
1.205519e-07
2.8012576e-07
1.1082077e-07
2.7752458e-07
1.0176669e-07
2.7447202e-07
9.3561454e-08
2.7119132e-07
8.6227138e-08
2.6778832e-07
7.9721078e-08
2.6432961e-07
7.3901834e-08
2.6087353e-07
6.8670212e-08
2.5745937e-07
6.3959716e-08
2.5411328e-07
5.97163e-08
2.5085175e-07
5.5892126e-08
2.476845e-07
5.2440082e-08
2.4461663e-07
4.9319881e-08
2.416499e-07
4.6496242e-08
2.3878369e-07
4.3937861e-08
2.3601574e-07
4.161706e-08
2.3334272e-07
3.9509363e-08
2.3076057e-07
3.7593131e-08
2.2826479e-07
3.5849223e-08
2.2585067e-07
3.4260703e-08
2.235134e-07
3.281258e-08
2.2124818e-07
3.1491562e-08
2.190503e-07
3.0285852e-08
2.1691517e-07
2.9184947e-08
2.1483837e-07
2.8179483e-08
2.1281565e-07
2.726109e-08
2.1084296e-07
2.6422271e-08
2.0891645e-07
2.5656289e-08
2.0703245e-07
2.4957082e-08
2.0518749e-07
2.4319176e-08
2.0337832e-07
2.3737617e-08
2.0160183e-07
2.3207912e-08
1.9985513e-07
2.2725973e-08
1.9813547e-07
2.2288077e-08
1.9644031e-07
2.1890821e-08
1.9476722e-07
2.1531098e-08
1.9311397e-07
2.120606e-08
1.9147843e-07
2.0913087e-08
1.898586e-07
2.0649751e-08
1.8825239e-07
2.0413764e-08
2.0202928e-08
1.1865124e-07
-3.188529e-08
1.329238e-07
-4.4676175e-08
1.588743e-07
7.1565536e-09
1.8726706e-07
5.7967261e-08
2.1335096e-07
9.8359627e-08
2.3486685e-07
1.2428599e-07
2.5131984e-07
1.3786811e-07
2.6310454e-07
1.4227458e-07
2.7096644e-07
1.4055323e-07
2.7573151e-07
1.3518409e-07
2.7818895e-07
1.2794336e-07
2.7893996e-07
1.1980863e-07
2.7838041e-07
1.1138931e-07
2.7689474e-07
1.0326264e-07
2.7477682e-07
9.5691005e-08
2.7224782e-07
8.8769098e-08
2.6948e-07
8.2503316e-08
2.6656011e-07
7.683743e-08
2.6355437e-07
7.1692955e-08
2.6051683e-07
6.7015558e-08
2.5748603e-07
6.2766701e-08
2.5448868e-07
5.8910384e-08
2.5154283e-07
5.5408124e-08
2.486605e-07
5.2225707e-08
2.4584913e-07
4.9332391e-08
2.4311284e-07
4.6700208e-08
2.4045328e-07
4.4303914e-08
2.3787038e-07
4.2120791e-08
2.3536277e-07
4.0130452e-08
2.3292823e-07
3.8314623e-08
2.3056394e-07
3.6656961e-08
2.2826669e-07
3.5142859e-08
2.2603302e-07
3.3759262e-08
2.2385936e-07
3.2494494e-08
2.2174208e-07
3.1338092e-08
2.1967756e-07
3.0280671e-08
2.1766227e-07
2.9313795e-08
2.1569274e-07
2.8429873e-08
2.1376563e-07
2.7622054e-08
2.118777e-07
2.6884143e-08
2.1002588e-07
2.6210531e-08
2.0820721e-07
2.5596122e-08
2.0641888e-07
2.5036279e-08
2.0465824e-07
2.4526773e-08
2.0292276e-07
2.4063742e-08
2.0121006e-07
2.3643649e-08
1.995179e-07
2.3263255e-08
1.9784417e-07
2.2919589e-08
1.9618686e-07
2.2609909e-08
1.9454408e-07
2.2331672e-08
1.929138e-07
2.2082475e-08
2.1859957e-08
1.1871365e-07
-3.5487872e-08
1.2853771e-07
-5.4501962e-08
1.4965483e-07
-1.3961025e-08
1.7486948e-07
3.2753087e-08
1.996901e-07
7.3540334e-08
2.2143871e-07
1.0253959e-07
2.390779e-07
1.2023208e-07
2.5254323e-07
1.2881342e-07
2.6226097e-07
1.3084072e-07
2.6886175e-07
1.2858964e-07
2.7300858e-07
1.2380401e-07
2.7525175e-07
1.1757413e-07
2.7601733e-07
1.1063371e-07
2.7566859e-07
1.0362269e-07
2.7451746e-07
9.685475e-08
2.7280273e-07
9.0497943e-08
2.7070548e-07
8.4616033e-08
2.6836401e-07
7.9195853e-08
2.6585196e-07
7.4223295e-08
2.6323215e-07
6.9655029e-08
2.6055483e-07
6.5465013e-08
2.5785683e-07
6.1630724e-08
2.5516457e-07
5.8124075e-08
2.5249704e-07
5.4918265e-08
2.4986759e-07
5.1988215e-08
2.4728525e-07
4.9310243e-08
2.4475581e-07
4.6862343e-08
2.4228264e-07
4.4624222e-08
2.398673e-07
4.2577291e-08
2.3751001e-07
4.0704607e-08
2.3521002e-07
3.8990798e-08
2.3296586e-07
3.7421962e-08
2.3077557e-07
3.5985546e-08
2.2863683e-07
3.4670217e-08
2.2654708e-07
3.346574e-08
2.2450364e-07
3.2362863e-08
2.2250374e-07
3.1353219e-08
2.205446e-07
3.0429232e-08
2.1862344e-07
2.958403e-08
2.1673756e-07
2.8811369e-08
2.1488428e-07
2.8105569e-08
2.1306104e-07
2.7461451e-08
2.1126535e-07
2.6874283e-08
2.0949484e-07
2.6339738e-08
2.0774723e-07
2.5853852e-08
2.0602036e-07
2.5412983e-08
2.0431218e-07
2.501379e-08
2.0262073e-07
2.4653199e-08
2.0094418e-07
2.4328371e-08
1.9928073e-07
2.4036669e-08
1.9762843e-07
2.37756e-08
2.3542655e-08
1.1979942e-07
-3.6988103e-08
1.2625439e-07
-6.0958614e-08
1.4308527e-07
-3.0792139e-08
1.6503149e-07
1.0807712e-08
1.8808931e-07
5.0484342e-08
2.0943625e-07
8.1195471e-08
2.2766153e-07
1.0201067e-07
2.4231825e-07
1.1416166e-07
2.5353004e-07
1.1963503e-07
2.6171439e-07
1.2041256e-07
2.6739724e-07
1.1812966e-07
2.7105569e-07
1.1392545e-07
2.7309213e-07
1.0860836e-07
2.7388117e-07
1.0284614e-07
2.7371481e-07
9.7034979e-08
2.7284692e-07
9.1381127e-08
2.714722e-07
8.6007565e-08
2.6973604e-07
8.0950247e-08
2.6775384e-07
7.6225262e-08
2.6558952e-07
7.1840515e-08
2.6330181e-07
6.7775286e-08
2.6093711e-07
6.4019379e-08
2.5852999e-07
6.0556547e-08
2.5610641e-07
5.7368609e-08
2.536856e-07
5.4437169e-08
2.5128165e-07
5.1743719e-08
2.4890462e-07
4.9270257e-08
2.4656147e-07
4.6999564e-08
2.4425685e-07
4.4915403e-08
2.4199357e-07
4.3002617e-08
2.397731e-07
4.1247193e-08
2.3759588e-07
3.9636263e-08
2.3546155e-07
3.8158052e-08
2.3336916e-07
3.6801808e-08
2.3131734e-07
3.5557716e-08
2.2930443e-07
3.4416827e-08
2.2732853e-07
3.3370983e-08
2.2538762e-07
3.2412742e-08
2.2347957e-07
3.1535314e-08
2.2160222e-07
3.0732493e-08
2.1975342e-07
2.9998601e-08
2.1793101e-07
2.9328441e-08
2.1613289e-07
2.8717241e-08
2.1435701e-07
2.8160623e-08
2.1260137e-07
2.7654559e-08
2.1086406e-07
2.719534e-08
2.0914327e-07
2.6779551e-08
2.0743723e-07
2.6404042e-08
2.0574426e-07
2.6065903e-08
2.0406272e-07
2.5762428e-08
2.0239073e-07
2.5491067e-08
2.5249205e-08
1.216681e-07
-3.7081094e-08
1.2558245e-07
-6.4874575e-08
1.3870531e-07
-4.3914962e-08
1.5746286e-07
-7.9485401e-09
1.7845381e-07
2.9495821e-08
1.989133e-07
6.0739523e-08
2.1720992e-07
8.371874e-08
2.3260159e-07
9.8775867e-08
2.4494374e-07
1.0729998e-07
2.5444392e-07
1.1092074e-07
2.6147769e-07
1.1110555e-07
2.6644015e-07
1.08974e-07
2.6969011e-07
1.0537082e-07
2.7157511e-07
1.0097494e-07
2.7239798e-07
9.6227377e-08
2.7239396e-07
9.1401897e-08
2.7177139e-07
8.6648366e-08
2.7068414e-07
8.2057316e-08
2.6925314e-07
7.7677559e-08
2.6757696e-07
7.3539588e-08
2.6571204e-07
6.9664505e-08
2.6371266e-07
6.6044519e-08
2.6162107e-07
6.2675356e-08
2.5946992e-07
5.9548446e-08
2.5728427e-07
5.6652953e-08
2.5508324e-07
5.3976326e-08
2.5288119e-07
5.1505285e-08
2.5068881e-07
4.9226297e-08
2.485139e-07
4.7126007e-08
2.4636202e-07
4.5191491e-08
2.4423698e-07
4.3410482e-08
2.4214122e-07
4.1771476e-08
2.400761e-07
4.0263757e-08
2.3804218e-07
3.8877397e-08
2.3603936e-07
3.7603205e-08
2.3406708e-07
3.6432709e-08
2.3212442e-07
3.5358108e-08
2.3021016e-07
3.4372224e-08
2.2832292e-07
3.3468456e-08
2.2646117e-07
3.2640728e-08
2.2462329e-07
3.1883448e-08
2.2280761e-07
3.1191466e-08
2.2101245e-07
3.0560034e-08
2.1923611e-07
2.998477e-08
2.1747696e-07
2.9461629e-08
2.1573335e-07
2.8986873e-08
2.1400372e-07
2.8557045e-08
2.1228654e-07
2.8168951e-08
2.1058033e-07
2.7819631e-08
2.0888359e-07
2.750634e-08
2.0719455e-07
2.7226506e-08
2.6977486e-08
1.2412957e-07
-3.6269413e-08
1.2614075e-07
-6.6887259e-08
1.3611881e-07
-5.3892668e-08
1.518756e-07
-2.3703508e-08
1.7064832e-07
1.0726202e-08
1.8986822e-07
4.1523996e-08
2.0781137e-07
6.5781226e-08
2.2352769e-07
8.3066491e-08
2.3664945e-07
9.4186473e-08
2.4719008e-07
1.0038972e-07
2.5537491e-07
1.0293172e-07
2.6150246e-07
1.0285886e-07
2.6588203e-07
1.0100514e-07
2.6882078e-07
9.8051541e-08
2.7060039e-07
9.4464599e-08
2.7146734e-07
9.0553328e-08
2.7161195e-07
8.6523699e-08
2.7119995e-07
8.2490809e-08
2.7035731e-07
7.8543352e-08
2.691868e-07
7.4734835e-08
2.6777399e-07
7.1103579e-08
2.661693e-07
6.7676978e-08
2.6442184e-07
6.4452118e-08
2.6257047e-07
6.1430649e-08
2.6064584e-07
5.8609943e-08
2.5867195e-07
5.5984064e-08
2.5666747e-07
5.3545084e-08
2.546468e-07
5.1283724e-08
2.5262097e-07
4.9189997e-08
2.5059834e-07
4.7253638e-08
2.4858514e-07
4.54645e-08
2.4658593e-07
4.3812764e-08
2.446039e-07
4.2289061e-08
2.4264116e-07
4.0884527e-08
2.4069902e-07
3.9590804e-08
2.3877808e-07
3.8400076e-08
2.3687847e-07
3.7305052e-08
2.3499988e-07
3.6298952e-08
2.3314172e-07
3.5375477e-08
2.3130314e-07
3.4528783e-08
2.2948313e-07
3.3753448e-08
2.2768056e-07
3.3044443e-08
2.2589421e-07
3.2397106e-08
2.2412281e-07
3.1807109e-08
2.2236507e-07
3.1270438e-08
2.2061969e-07
3.0783366e-08
2.1888538e-07
3.0342433e-08
2.1716087e-07
2.9944427e-08
2.1544492e-07
2.9586367e-08
2.1373622e-07
2.9265478e-08
2.1203308e-07
2.8979161e-08
2.8724836e-08
1.2703827e-07
-3.4907567e-08
1.2763642e-07
-6.7486775e-08
1.3499006e-07
-6.1245574e-08
1.47997e-07
-3.6708053e-08
1.6451538e-07
-5.7882935e-09
1.8225844e-07
2.3786241e-08
1.9951115e-07
4.8535238e-08
2.1519552e-07
6.7390261e-08
2.2877023e-07
8.0621341e-08
2.40079e-07
8.9091987e-08
2.4920507e-07
9.381815e-08
2.5634665e-07
9.5731272e-08
2.6174726e-07
9.5620072e-08
2.6567461e-07
9.4141288e-08
2.6838063e-07
9.1777225e-08
2.7009363e-07
8.8860543e-08
2.7101298e-07
8.5626209e-08
2.712893e-07
8.2237981e-08
2.7105842e-07
7.8799348e-08
2.7042572e-07
7.5394401e-08
2.6947978e-07
7.2077955e-08
2.6829591e-07
6.8890878e-08
2.6691881e-07
6.5860843e-08
2.6539291e-07
6.2989786e-08
2.6375402e-07
6.0283662e-08
2.6203084e-07
5.7743632e-08
2.6024618e-07
5.5367676e-08
2.5841808e-07
5.3151252e-08
2.5656079e-07
5.1088178e-08
2.5468551e-07
4.9171235e-08
2.5280095e-07
4.7392742e-08
2.5091383e-07
4.5744882e-08
2.4902923e-07
4.4219902e-08
2.4715093e-07
4.2810249e-08
2.4528167e-07
4.1508599e-08
2.4342334e-07
4.0307974e-08
2.4157715e-07
3.9201753e-08
2.3974378e-07
3.8183687e-08
2.3792349e-07
3.7247901e-08
2.3611617e-07
3.6388883e-08
2.343215e-07
3.5601471e-08
2.325389e-07
3.4880837e-08
2.3076768e-07
3.4222471e-08
2.2900703e-07
3.3622161e-08
2.2725605e-07
3.3075972e-08
2.2551382e-07
3.2580235e-08
2.2377937e-07
3.2131523e-08
2.2205171e-07
3.1726642e-08
2.2032987e-07
3.1362612e-08
2.1861275e-07
3.1036616e-08
2.1689883e-07
3.0745788e-08
1.3028634e-07
-3.3239595e-08
1.298477e-07
-6.7049343e-08
1.3503935e-07
-6.6436087e-08
1.4557726e-07
-4.724292e-08
1.5988869e-07
-2.0094976e-08
1.7601301e-07
7.668277e-09
1.9231967e-07
3.2236519e-08
2.0767216e-07
5.204727e-08
2.214049e-07
6.6899676e-08
2.3322121e-07
7.7288307e-08
2.4307617e-07
8.3977401e-08
2.5106887e-07
8.7754366e-08
2.5737309e-07
8.933326e-08
2.6220453e-07
8.9328892e-08
2.6578611e-07
8.8216329e-08
2.6832195e-07
8.6347032e-08
2.6999603e-07
8.3976125e-08
2.7096786e-07
8.1291879e-08
2.7136021e-07
7.8434436e-08
2.7128602e-07
7.5497728e-08
2.7083508e-07
7.2559813e-08
2.7008489e-07
6.9673618e-08
2.6910134e-07
6.6878602e-08
2.6792437e-07
6.4202663e-08
2.6659437e-07
6.1651256e-08
2.6514437e-07
5.9232861e-08
2.6360106e-07
5.6951811e-08
2.6198601e-07
5.4808706e-08
2.6031659e-07
5.2801534e-08
2.586068e-07
5.092645e-08
2.5686784e-07
4.9178559e-08
2.5510862e-07
4.7552329e-08
2.5333618e-07
4.6041889e-08
2.5155598e-07
4.4641227e-08
2.4977228e-07
4.3344255e-08
2.4798828e-07
4.2145009e-08
2.4620637e-07
4.1037694e-08
2.4442827e-07
4.0016732e-08
2.4265513e-07
3.9076793e-08
2.4088766e-07
3.8212801e-08
2.3912624e-07
3.7419948e-08
2.3737094e-07
3.6693687e-08
2.3562162e-07
3.6029733e-08
2.3387796e-07
3.5424048e-08
2.3213952e-07
3.4872836e-08
2.3040577e-07
3.437253e-08
2.2867609e-07
3.391978e-08
2.2694982e-07
3.3511444e-08
2.2522626e-07
3.3144577e-08
2.2350452e-07
3.2816304e-08
3.2523142e-08
1.3379566e-07
-3.1428778e-08
1.3260828e-07
-6.5862968e-08
1.3603818e-07
-6.9864395e-08
1.4439388e-07
-5.5594874e-08
1.5660298e-07
-3.2298384e-08
1.7104316e-07
-6.7643824e-09
1.862206e-07
1.7068376e-08
2.0099732e-07
3.7281576e-08
2.1462941e-07
5.3280334e-08
2.2671103e-07
6.5221119e-08
2.3708683e-07
7.3617724e-08
2.4576285e-07
7.9096154e-08
2.5284185e-07
8.2273775e-08
2.5848489e-07
8.3707083e-08
2.6287484e-07
8.3849344e-08