/*--------------------------------*- C++ -*----------------------------------*\
| =========                 |                                                 |
| \\      /  F ield         | OpenFOAM: The Open Source CFD Toolbox           |
|  \\    /   O peration     | Version:  2312                                  |
|   \\  /    A nd           | Website:  www.openfoam.com                      |
|    \\/     M anipulation  |                                                 |
\*---------------------------------------------------------------------------*/
FoamFile
{
    version     2.0;
    format      ascii;
    arch        "LSB;label=32;scalar=64";
    class       volScalarField;
    location    "0.08";
    object      Qdot;
}
// * * * * * * * * * * * * * * * * * * * * * * * * * * * * * * * * * * * * * //

dimensions      [1 -1 -3 0 0 0 0];

internalField   nonuniform List<scalar> 
3275
(
74789123
5.0917193e+08
8.1444084e+08
8.8505013e+08
8.5367034e+08
7.9496836e+08
7.3378263e+08
6.7299256e+08
6.110713e+08
5.4583109e+08
4.7725707e+08
4.2021843e+08
3.6092882e+08
3.0701793e+08
2.597465e+08
2.1916702e+08
1.8480197e+08
1.5592477e+08
1.3176298e+08
1.1158756e+08
94748866
80683940
68915840
59048103
50752742
43759679
37847044
32832706
28567095
24927241
21811860
19137353
16834549
14846064
13124163
11629025
10327331
9191130.1
8196899.6
7324791.2
6558008.8
5882299.8
5285536.9
4757370.4
4288978.7
3872798.9
3502248.1
3171713.5
2876341.2
2611926.7
2374821.2
2161849.5
1.9428851e+08
8.2037711e+08
1.0618921e+09
1.0425706e+09
9.5017308e+08
8.5458128e+08
7.7010115e+08
6.9417525e+08
6.2261111e+08
5.5132392e+08
4.7919595e+08
4.2044349e+08
3.6018729e+08
3.0588077e+08
2.5852136e+08
2.1800556e+08
1.8376735e+08
1.5503393e+08
1.3101072e+08
1.1095938e+08
94227481
80252452
68559041
58752898
50508130
43556557
37677946
32691535
28448890
24827961
21728217
19066665
16774626
14795115
13080715
11591867
10295464
9163726.5
8173272.3
7304368.5
6540313.3
5866931.9
5272161.9
4745711.6
4278792.2
3863861.3
3494397.8
3164805.8
2870251.2
2606547.5
2370060.9
2157633
7.6977077e+08
1.667671e+09
1.6296427e+09
1.3715715e+09
1.1412732e+09
9.7030765e+08
8.3855519e+08
7.336346e+08
6.4367242e+08
5.6101792e+08
4.823121e+08
4.2040712e+08
3.5845102e+08
3.0347136e+08
2.5600245e+08
2.1565001e+08
1.8168425e+08
1.5324781e+08
1.2950618e+08
1.0970484e+08
93187114
79391839
67847515
58164182
50020229
43151304
37340458
32409675
28212777
24629558
21560979
18925258
16654692
14693084
12993658
11517372
10231540
9108723.2
8125820.8
7263327.9
6504730.6
5836008.9
5245228.2
4722204.1
4258228.9
3845827.2
3478552.5
3150857.2
2857949.4
2595678.2
2360440.3
2149105.3
3.1154337e+09
3.469194e+09
2.5881662e+09
1.8590197e+09
1.4052636e+09
1.1296706e+09
9.2982857e+08
7.8497394e+08
6.7005356e+08
5.7234814e+08
4.8514258e+08
4.1919044e+08
3.5525552e+08
2.9954798e+08
2.5207209e+08
2.1204892e+08
1.7853516e+08
1.5056536e+08
1.2725569e+08
1.0783301e+08
91637235
78110944
66789067
57288642
49294660
42548596
36838448
31990312
27861381
24334191
21311927
18714601
16475959
14540978
12863829
11406236
10136139
9026607.3
8054953.9
7202013.7
6451551.3
5789776.5
5204944.4
4687027.4
4227444.4
3818826.1
3454823
3129963.2
2839517.8
2579389.6
2346020.7
2136320
1.1992073e+10
6.4462267e+09
3.6989401e+09
2.4026719e+09
1.7057962e+09
1.2882426e+09
1.0257426e+09
8.3806373e+08
6.9558516e+08
5.8172945e+08
4.8570838e+08
4.155593e+08
3.4999197e+08
2.9379744e+08
2.4658139e+08
2.0714008e+08
1.7430166e+08
1.4698912e+08
1.2427079e+08
1.0535838e+08
89592416
76423119
65395368
56136205
48339740
41755336
36177615
31438137
27398559
23945035
20983674
18436849
16240210
14340273
12692452
11259480
10010115
8918092.6
7961270.9
7120930.2
6381201.2
5728595.2
5151616.2
4640442.5
4186662.1
3783047.5
3423371.7
3102263
2815076.3
2557785.2
2326891.2
2119354.6
1.8637821e+10
7.8034231e+09
4.3171642e+09
2.769061e+09
1.9302496e+09
1.4162189e+09
1.09059e+09
8.7722416e+08
7.1230441e+08
5.8512483e+08
4.8220281e+08
4.0867397e+08
3.4251684e+08
2.8637417e+08
2.3981023e+08
2.0123538e+08
1.6928307e+08
1.4278737e+08
1.2078341e+08
1.0247738e+08
87217088
74465129
63779820
54800814
47233327
40836143
35411701
30797962
26861779
23493509
20602649
18114301
15966318
14106990
12493170
11088754
9863444.5
8791748.1
7852151
7026448.7
6299195.2
5657250.1
5089405.6
4586078.1
4139052.7
3741266.9
3386633.7
3069897.5
2786510.6
2532528.6
2304522.5
2099511.5
1.308716e+09
5.0419168e+09
3.9392951e+09
2.7497896e+09
1.9784046e+09
1.4707439e+09
1.1183029e+09
8.8791502e+08
7.1510273e+08
5.8000095e+08
4.7355627e+08
3.9801703e+08
3.3270235e+08
2.7734171e+08
2.3189909e+08
1.9449629e+08
1.6363625e+08
1.3810161e+08
1.1691634e+08
99294315
84598719
72309816
62002862
53332552
46016931
39825464
34569346
30093654
26270987
22996329
20182901
17758803
15664300
13849628
12273214
10900227
9701408
8652104.8
7731493
6921933.1
6208442.9
5578264.4
5020505.9
4525845.5
4086285.4
3694944.7
3345889.3
3033991.4
2754810.7
2504493
2279686
2077473.4
18324346
1.5818182e+09
2.616894e+09
2.3320192e+09
1.8267061e+09
1.41298e+09
1.0985527e+09
8.6629973e+08
6.9731007e+08
5.6383231e+08
4.5818494e+08
3.8216459e+08
3.1945393e+08
2.65887e+08
2.2220518e+08
1.8640848e+08
1.569471e+08
1.3259697e+08
1.1239776e+08
95587679
81556164
69808486
59941997
51630132
44606498
38653296
33592046
29276147
25584890
22418630
19694900
17345262
15312769
13549904
12016910
10680428
9512392.1
8489126.6
7590602.6
6799832.9
6102372.1
5485904.7
4939904.7
4455353.5
4024505.2
3640689.7
3298149.9
2991906.4
2717643.1
2471611.2
2250547.2
2051610.1
235863.15
2.8029236e+08
1.2348948e+09
1.6130283e+09
1.4947022e+09
1.2442537e+09
1.0087492e+09
8.1218388e+08
6.5529758e+08
5.3349208e+08
4.351429e+08
3.6047552e+08
3.0211172e+08
2.5180217e+08
2.1062105e+08
1.7691879e+08
1.4919093e+08
1.2626335e+08
1.0722465e+08
91357631
78090743
66962650
57598498
49694445
43002529
37319796
32479680
28345115
24803017
21759846
19138021
16873027
14911070
13207175
11723637
10428763
9295838.8
8302291.7
7428994.3
6659699.1
5980569
5379790.5
4847253.1
4374282.8
3953420.5
3578236
3243173.1
2943421.3
2674806.5
2433699.9
2216939.1
2021769.5
5289.3986
35800909
4.3079005e+08
9.04021e+08
1.0593078e+09
9.9663717e+08
8.5948041e+08
7.1983823e+08
5.9375058e+08
4.8701521e+08
4.0274432e+08
3.3400149e+08
2.8042856e+08
2.3501339e+08
1.9712839e+08
1.6602995e+08
1.4037972e+08
1.1911568e+08
1.0141176e+08
86617284
74213441
63781152
54979281
47530776
41208973
35827852
31234306
27301973
23926298
21020541
18512559
16342196
14459159
12821297
11393186
10144980
9051470.7
8091310.5
7246376
6501243.4
5842753.8
5259653.8
4742296.7
4282393.8
3872806.8
3507373.7
3180763.7
2888355.3
2626133.7
2390604.5
2178719.5
1987820.6
244.61096
4061389
1.1954358e+08
4.1715113e+08
6.4833468e+08
7.1618875e+08
6.7833893e+08
5.9836181e+08
5.1291954e+08
4.297294e+08
3.606611e+08
3.0294398e+08
2.5496728e+08
2.1537866e+08
1.8182969e+08
1.5381806e+08
1.3057267e+08
1.1120062e+08
94995855
81395476
69946773
60281466
52097841
45149487
39233746
34183476
29860461
26150124
22957260
20202570
17819856
15753719
13957692
12392703
11025820
9829218.9
8779335.3
7856163.8
7042681
6324366.1
5688804.9
5125359.3
4624892.7
4179540.6
3782518.6
3427960.5
3110783.9
2826576.1
2571498.7
2342206
2135776.1
1949658.2
22.031235
475946.83
28539759
1.634415e+08
3.4540858e+08
4.610933e+08
4.9148493e+08
4.6683492e+08
4.1949606e+08
3.6480784e+08
3.1212959e+08
2.6661626e+08
2.2727575e+08
1.9316165e+08
1.6494678e+08
1.4044503e+08
1.1988439e+08
1.0260179e+08
88039163
75739111
65326397
56490835
48975061
42566620
37089185
32396158
28365445
24895176
21900204
19309227
17062424
15109506
13408109
11922471
10622339
9482062.7
8479849
7597140.2
6818099.8
6129183.3
5518781.9
4976924.4
4495027.4
4065687.1
3682503.5
3339932.7
3033162.8
2758008.8
2510824.6
2288427.1
2088032.6
1907207.8
3.3973742
63238.523
6293559.7
56409827
1.627181e+08
2.6717562e+08
3.2671422e+08
3.4039701e+08
3.2479356e+08
2.9519839e+08
2.6104619e+08
2.2736935e+08
1.9720797e+08
1.6988548e+08
1.4658746e+08
1.261658e+08
1.0848871e+08
93442666
80631498
69714666
60402190
52447055
45639808
39804352
34792401
30479148
26759544
23545131
20761366
18345373
16244056
14412513
12812713
11412393
10184132
9104585.7
8153838.6
7314871.7
6573111.3
5916053.6
5332949.3
4814539.7
4352833.7
3940921.2
3572814.9
3243317.1
2947906.7
2682644.3
2444090.8
2229239
2035454.3
1860430.8
0.78801754
9969.3569
1359605
17799957
69145691
1.405945e+08
1.9980262e+08
2.3137494e+08
2.3781679e+08
2.2770774e+08
2.0951656e+08
1.8803041e+08
1.6627226e+08
1.4600805e+08
1.2752555e+08
1.1117603e+08
96615786
83885910
72890219
63408404
55238511
48198749
42129178
36891202
32365461
28449609
25056167
22110502
19549013
17317527
15369900
13666814
12174732
10865027
9713228.7
8698395.8
7802577.6
7010365.5
6308510.7
5685602.7
5131797.5
4638587.6
4198607.7
3805470
3453624.8
3138241.7
2855109
2600548.2
2371341.2
2164668.2
1978054.2
1809329.7
0.24720653
1889.1928
300846.94
5315829.3
27081482
67993299
1.1303789e+08
1.468885e+08
1.6428295e+08
1.6746118e+08
1.6122522e+08
1.4999132e+08
1.3634685e+08
1.2211464e+08
1.086306e+08
95929980
84489300
74128290
64957497
56924877
49913383
43804924
38488257
33861924
29835349
26328625
23271873
20604354
18273492
16233909
14446510
12877644
11498357
10283735
9212330
8265666.3
7427815.8
6685031
6025433.1
5438744.9
4916062.1
4449659.2
4032823.5
3659713
3325235.9
3024946.9
2754959.2
2511869.1
2292691.1
2094803
1915898.7
1753953.3
0.096827149
427.85975
70305.807
1548521.5
9987210.1
30627290
59608714
87415855
1.0718229e+08
1.1718351e+08
1.1901754e+08
1.1525007e+08
1.0826364e+08
99527324
90219873
81131970
72382560
64369652
56994549
50383458
44516401
39333675
34769308
30756981
27233636
24140987
21426240
19042224
16947189
15104431
13481841
12051410
10788762
9672704.7
8684830.8
7809155.7
7031797.9
6340697.5
5725371.1
5176698.7
4686738.6
4248568.2
3856146.2
3504193.5
3188091.6
2903794.4
2647752
2416846.3
2208334.3
2019800.1
1849113.7
1694401.6
0.044692959
114.07883
17678.463
451045.1
3538260.1
13029453
29556902
49010596
66197870
78073917
84138773
85354641
83110385
78763875
73146491
66988060
60827156
54786013
49165704
43912923
39145279
34859935
31030293
27621571
24595816
21914746
19541562
17441919
15584386
13940595
12485189
11195650
10052076
9036932.8
8134816
7332209.8
6617269.9
5979622.6
5410183.6
4900997
4445092.8
4036360.7
3669440.8
3339627.4
3042784.9
2775275
2533893.8
2315816.4
2118549.4
1939889.5
1777888.5
1630830.1
0.023330131
35.150381
4828.0055
133896.92
1225987
5306789.6
13910124
26040496
38832029
49600009
56977821
60832461
61711553
60434384
57707309
54061188
49955433
45766667
41589010
37642804
33901127
30462335
27332735
24504152
21960291
19680503
17642347
15823157
14201016
12755321
11467069
10318947
9295324.5
8382188
7567033
6838744.4
6187468.7
5604487.2
5082095
4613488.6
4192663.2
3814318.9
3473777.6
3166908.8
2890063.1
2640014.3
2413908.4
2209218.1
2023703.9
1855379.3
1702481.2
1563452.5
0.013377137
12.2853
1435.8495
41070.061
421847.48
2095905.3
6272347.8
13196672
21722206
30112692
36993817
41722468
44269349
44960099
44236453
42520015
40138333
37396009
34544947
31654501
28883114
26219304
23738998
21454528
19367008
17470433
15754612
14207057
12814282
11562670
10439008
9430777.1
8526323.5
7714929.8
6986833.7
6333203.8
5746092.6
5218374.9
4743681.2
4316328.9
3931256.4
3583959.2
3270431
2987110.2
2730830
2498774.6
2288439.3
2097595.3
1924257.9
1766658.9
1623221.1
1492540.2
0.0082515139
4.7889619
464.32981
13134.06
145939.1
811974
2734850.9
6421363.4
11639365
17518538
23061052
27549494
30663556
32402933
32946273
32549480
31468123
29916927
28086731
26147203
24149187
22204652
20309148
18521581
16855809
15317072
13904992
12615479
11442169
10377475
9413269.7
8541307.6
7753518
7042190.2
6400085.7
5820494.1
5297251.5
4824735
4397841.9
4011959.8
3662932.1
3347021.5
3060872.9
2801478.3
2566143
2352453.6
2158249.7
1981597.3
1820764.6
1674200.4
1540512.7
0.0053934201
2.0515956
162.67747
4402.5104
51248.599
311654.21
1162938.6
3020001.6
6002273.5
9796641.2
13827552
17527610
20510537
22607087
23817703
24247590
24043277
23375187
22371286
21154103
19837878
18460194
17097661
15750803
14464584
13251931
12119692
11070228
10102840
9214883.1
8402506.2
7661121.7
6985777
6371413.9
5813048.7
5305887.1
4845392.7
4427325.3
4047757.4
3703076.6
3389977.9
3105450
2846757.8
2611423.3
2397205.1
2202079.1
2024218.6
1861976.8
1713869
1578557.8
1454843.8
0.0036930791
0.95377227
61.457021
1551.175
18395.848
119500.01
486018.94
1381507.6
2993200.1
5283660.5
7991811.3
10756952
13253649
15266437
16700813
17558606
17900803
17819221
17416266
16774163
15969942
15080721
14134190
13181761
12227384
11304031
10423352
9592179.3
8813955.7
8089823.9
7419340.2
6800897.5
6232140.2
5710260.1
5232219
4794898.9
4395205.3
4030136.5
3696828.2
3392580.6
3114872.1
2861364.4
2629900.9
2418500.9
2225351.7
2048798.2
1887332.5
1739583
1604302.9
1480361.1
1366740.3
0.0026284826
0.47603024
24.90678
575.23511
6784.8443
46083.876
200977.71
618324.62
1450153.5
2757760.8
4462491.3
6376841.3
8279013.5
9979647.4
11355451
12352476
12971530
13249443
13240860
13008248
12605197
12079242
11482173
10835667
10171792
9498466.2
8837900.3
8200365.3
7591947.6
7016431.6
6475907.9
5971042.3
5501526.9
5066370.9
4664144.3
4293141.3
3951501.5
3637297.9
3348600.2
3083519.1
2840235.7
2617021.1
2412246.2
2224388
2052030.2
1893861.7
1748673.3
1615352.5
1492878
1380312.9
1276804.9
0.00193052
0.25275916
10.771683
224.5473
2581.5534
17975.735
82721.139
272226.18
685613.47
1397737.6
2413256.5
3657363.4
5003944.3
6317583.3
7486721.7
8439322
9143292
9598587.8
9826357.4
9859132.6
9734856.3
9489171.3
9149864.4
8752956.5
8313407.3
7853657.2
7381497.6
6911100.7
6451301.7
6007456.4
5583380.1
5181304.6
4802421.3
4447115
4115216.1
3806153.9
3519080
3252965.9
3006673.5
2779011.1
2568772.2
2374764.2
2195827.7
2030850.2
1878774.4
1738603
1609400.8
1490295.2
1380474.3
1279181.8
0.0014565442
0.14168486
4.9459022
92.199062
1016.2869
7127.3865
34075.699
118503.77
317720.6
690358.03
1267318.2
2033328.8
2930083.2
3875667.5
4787468.3
5598894.5
6266796.2
6771317.8
7111384.5
7298807.1
7352832.3
7296520
7152734.3
6939941
6675325.4
6381395
6065711
5737226.4
5403907.6
5073707.5
4751498.3
4440385.3
4142550.4
3859321.2
3591449
3339220.7
3102575.2
2881199.5
2674600.4
2482163.6
2303198
2136968.5
1982721.5
1839703
1707172.3
1584411.3
1470731.1
1365476
1268025.8
1177800.1
0.0011236144
0.083300291
2.3993489
39.76633
414.77611
2884.6726
14120.327
51266.432
144974.27
333545.09
648227.85
1098248.2
1664815.3
2306413.9
2970816.7
3607450.1
4175935.4
4649762.1
5016067.6
5273190.8
5427457.9
5490134.2
5474807.8
5396009.7
5264799.8
5094898.2
4899772
4685074.8
4458536.3
4223570.4
3988160.8
3755578.2
3528576.5
3309015.9
3098258.4
2897184.2
2706299.8
2525829.1
2355774.7
2195978.6
2046165
1905974.6
1774992.1
1652766.4
1538828
1432700.4
1333910
1241992.7
1156499.1
1077002.8
0.0008844671
0.051080623
1.2242212
17.985055
175.71148
1195.8456
5913.1412
22149.394
65436.972
158274.66
324014.23
577786.29
919604.51
1333209.1
1790441.3
2258300.4
2705605
3107455.9
3447138.7
3716010.4
3912199.4
4038836.9
4102240.7
4110333.6
4071997.6
3995870.7
3889496
3762591.1
3617312.9
3462636.7
3299102
3132465.4
2965829.2
2801184.6
2640252.7
2484264.5
2334090.1
2190323
2053318.3
1923256.5
1800178.6
1684019.3
1574633
1471815.1
1375319.6
1284872.6
1200182.9
1120950.9
1046874.7
977660.77
0.00070705763
0.032516566
0.65422945
8.5121709
77.307457
509.15177
2512.6621
9601.2665
29351.652
74072.415
158832.78
296937.46
494948.66
749804.51
1049187.8
1374522.2
1705010.6
2021249.3
2307621.9
2553343.7
2752439.1
2903056.8
3006477.7
3066102.3
3086626.7
3073606.3
3033000.9
2969331.5
2886647.9
2792079.5
2687294.8
2574692.3
2458100.7
2339574.8
2221054.1
2103899.5
1989163.1
1877662.6
1769971.8
1666501.1
1567515.4
1473164.3
1383505.8
1298525.6
1218154.3
1142280.5
1070762.2
1003435.7
940123.22
880643.05
0.00057408897
0.021398446
0.3647861
4.206907
35.326169
223.10598
1087.2204
4193.6322
13141.79
34334.247
76646.341
149545.11
260230.49
411101.51
598674.02
814231.88
1045712.7
1279993.6
1504877.1
1710412.5
1889500.8
2037919.3
2153971.5
2237962.6
2291661.7
2317856.9
2319819.7
2301211
2264826.1
2214315
2153638
2082894.4
2007532.3
1926554.5
1843163.6
1758616.4
1673995.9
1590233.1
1507995.5
1427831.3
1350144.5
1275227.4
1203279.5
1134423.8
1068721.9
1006186.5
946791.68
890481.86
837179.01
786793.06
0.00047200202
0.014506646
0.21148045
2.1662661
16.75964
100.76554
480.45288
1852.7937
5898.4055
15828.965
36551.79
74058.071
134040.98
220244.22
333234.12
470051.68
624768.79
789620.4
956297.86
1117056.6
1265465.9
1396774.2
1507957
1597555.8
1665410.1
1712363.1
1739931.3
1750029.7
1744710.9
1726569.6
1697293.8
1658451.9
1613537
1562978.3
1507885.3
1449948.8
1390236.9
1329739.5
1269088.4
1208905.9
1149658.8
1091719.9
1035374.4
980834.29
928250.57
877723.69
829312.64
783042.9
738913.19
696905.09
0.00039219552
0.010101146
0.12706665
1.1596236
8.2494521
46.954029
217.36031
830.85523
2664.3886
7288.1432
17294.406
36192.998
67850.81
115597.52
181320.24
264886.18
364067.23
474926.61
592489.96
711473.61
826914.7
934607.07
1031331
1114909
1184140.5
1238663.9
1278776.6
1305247.2
1319157.3
1321863.4
1314779.1
1299091.7
1276321
1248217.8
1214820
1178407.8
1138654
1097157
1054331.1
1010867.1
967220.57
923794.68
880913.48
838836.02
797765.86
757858.78
719230.13
681961.63
646107.02
611700.79
0.00032925285
0.0072044098
0.078901329
0.64389961
4.2089164
22.585263
100.86274
379.28995
1215.6904
3364.5794
8150.5763
17520.022
33865.463
59612.166
96679.042
145996.19
207237.41
278829.65
358201.72
442171.58
527366.29
610579.83
689035.21
760532.95
823502.72
876981.63
920542
954194.1
978285.2
993430.07
1000386.8
999943.42
993214.2
980944.85
963726.5
943052.74
919019.98
892727.33
864155.42
834309.91
803525.28
772209.44
740685.98
709226.77
678057.2
647360.66
617284
587943.16
559427.36
531807.07
0.00027899934
0.0052497559
0.050495195
0.3700694
2.2233768
11.215998
48.075403
176.70549
562.1189
1563.1491
3840.8068
8431.9
16724.511
30298.209
50650.047
78882.307
115448.26
160027.98
211555.08
268368.58
328436.79
389596.12
449764.09
507094.43
560076.45
607576.88
648837.5
683442.37
711269.74
732437.6
747242.23
756101.2
759570.18
758183.05
752553.91
743183.76
730556.1
715548.06
698334.7
679280.69
658787.87
637307.91
615125.29
592499.23
569653.28
546776.08
524025.22
501532.53
479405.61
457736.44
0.00023809414
0.0039024397
0.033229023
0.21968943
1.2145347
5.7496872
23.560948
84.188126
264.15417
733.33966
1816.3677
4049.5476
8201.4152
15227.283
26149.688
41887.399
63078.188
89944.488
122234.55
159245.66
199914.01
242943.37
286943.23
330553.44
372540.62
411864.42
447707.39
479483.37
506825.51
529561.76
547681.99
561309.21
570678.03
576076.31
577839.55
576338.48
571952.25
564989.83
556022.9
545096.18
532749.7
519021.73
504303.69
488830.99
472808.99
456414.67
439799.9
423098.4
406421.35
389871.36
0.00020465107
0.0029524397
0.022433532
0.13444102
0.68513811
3.041345
11.879892
41.084437
126.46726
348.482
865.03088
1947.7986
4007.8808
7593.2335
13346.034
21921.546
33884.97
49611.529
69214.515
92516.21
119063.63
148180.49
179040.93
210749.66
242416.06
273214.27
302425.45
329462.58
353879.48
375370.15
393754.37
408964.47
421030
430050.8
436183.13
439627.32
440572.42
439320.47
436116.79
431066.27
424636.67
416776.52
407945
398089.57
387505
376344.84
364742.07
352824.38
340692.02
328453.5
0.00017711225
0.002269831
0.015508266
0.084650327
0.39857601
1.6589514
6.1646877
20.56177
61.813233
168.19222
416.18622
941.52792
1958.6659
3769.8795
6755.4516
11340.936
17945.039
26918.505
38487.611
52714.794
69483.343
88506.772
109358.29
131512.89
154393.9
177417.34
200029.25
221733.66
242110.78
260826.12
277632.08
292363.91
304932.75
315314.82
323540.25
329681.74
333840.94
336164.73
336774.79
335848.21
333554.17
329953.33
325382.11
319773.96
313460.91
306401.71
298776.1
290709.64
282269.41
273579.57
0.00015407219
0.0017715014
0.010957318
0.054742701
0.23877449
0.93241285
3.2922667
10.562676
30.895056
82.642039
202.87094
458.85351
960.51349
1869.8847
3402.6901
5818.1675
9396.2678
14405.24
21065.668
29518.218
39801.506
51843.399
65466.034
80402.207
96319.24
112846.07
129599.82
146209.04
162332.21
177670.67
191976.36
205055.01
216765.37
227016
235760.62
242991.41
248732.26
253037.15
255972.41
257629.04
258085.49
257460.37
255868.47
253341.77
250114.21
246137.46
241625.55
236578.71
231039.98
225203.22
0.00013468885
0.001400898
0.007898668
0.036296694
0.14709462
0.53950453
1.8091197
5.572504
15.811085
41.421295
100.44573
226.1269
474.18266
929.70187
1711.2363
2969.5583
4879.4624
7624.7345
11378.353
16281.324
22424.023
29833.383
38467.563
48218.322
58919.91
70362.503
82307.907
94505.475
106706.62
118676.85
130204.91
141108.86
151239.35
160480.31
168748.29
175990.4
182180.86
187318.06
191418.74
194517.03
196655.88
197895.57
198285.53
197905.43
196834.29
195087.52
192826.45
190038.42
186728.38
183151.12
0.00011829002
0.001121995
0.0058013659
0.024634493
0.093049565
0.3210419
1.0224563
3.0199481
8.293009
21.211679
50.626318
112.986
236.36908
464.84429
862.0794
1512.8185
2520.9799
4003.7483
6081.9879
8868.2597
12454.303
16900.082
22226.145
28410.151
35387.766
43057.331
51287.339
59925.483
68808.17
77769.518
86649.191
95298.669
103585.81
111397.74
118642.14
125247.68
131163.36
136356.93
140812.56
144529.17
147517.45
149799.5
151402.89
152367.61
152723.81
152525.86
151830.59
150646.04
149015.03
147066.23
0.00010412982
0.00090859989
0.004335907
0.017089758
0.060358133
0.19626417
0.59398483
1.6812189
4.4608662
11.112374
26.023051
57.373392
119.29646
234.4312
436.4298
771.75104
1299.992
2092.162
3226.6795
4783.3793
6836.2805
9446.1295
12653.869
16475.953
20901.996
25894.902
31393.212
37315.183
43563.965
50033.237
56612.765
63193.436
69671.509
75951.918
81950.629
87596.017
92829.639
97606.27
101893.21
105669.38
108924.17
111656.38
113872.45
115586.35
116815.37
117586.06
117915.83
117840.19
117386.85
116586.78
9.2246147e-05
0.0007433523
0.0032918269
0.012100665
0.040096009
0.12313048
0.35444902
0.96125382
2.4617408
5.9611883
13.662646
29.667955
61.110957
119.58428
222.69904
395.48304
671.22778
1091.3906
1704.2714
2562.4004
3718.8351
5222.791
7115.1615
9424.5648
12164.407
15331.249
18904.591
22847.968
27111.116
31632.895
36344.594
41173.332
46045.267
50888.425
55635.045
60223.383
64598.937
68715.248
72534.234
76026.135
79169.104
81948.749
84357.404
86393.539
88060.55
89366.881
90322.727
90944.75
91240.766
91242.066
8.2029427e-05
0.00061396967
0.0025361102
0.0087334899
0.027239223
0.079182939
0.21708892
0.56426205
1.3939189
3.2767348
7.3354345
15.649235
31.84164
61.854908
114.86125
204.19208
348.10176
570.14608
898.97099
1367.38
2010.669
2864.3523
3961.5134
5330.0895
6990.4468
8953.5037
11219.585
13778.087
16607.914
19678.595
22951.885
26383.694
29926.131
33529.532
37144.317
40722.614
44219.584
47594.416
50811.034
53838.549
56651.472
59229.571
61557.743
63625.711
65427.559
66961.373
68228.389
69233.206
69981.589
70486.454
7.3144219e-05
0.00051185153
0.0019814681
0.0064173131
0.01890247
0.052141109
0.13634628
0.33988514
0.80979396
1.8463266
4.0310933
8.4319604
16.906446
32.514865
60.032615
106.51875
181.86137
299.19011
475.03404
729.11901
1083.7419
1562.7243
2190.0204
2988.102
3976.2989
5169.2929
6575.9022
8198.2744
10031.541
12063.936
14277.323
16648.061
19148.099
21746.195
24409.171
27103.124
29794.518
32451.134
35042.838
37542.143
39924.686
42169.475
44258.94
46178.956
47918.724
49470.584
50829.726
51994.015
52963.544
53741.64
6.5391849e-05
0.00042986961
0.0015681874
0.0047952662
0.013384004
0.03511648
0.087737248
0.20995637
0.48255875
1.0666385
2.2688373
4.6458879
9.1612436
17.403489
31.867663
56.28667
95.981077
158.17726
252.2297
389.68078
584.1022
850.68796
1205.6033
1665.1312
2244.6828
2957.7764
3815.09
4823.6668
5986.3465
7301.4602
8762.7998
10359.842
12078.19
13900.181
15805.601
17772.451
19777.719
21798.106
23810.683
25793.468
27725.85
29589.015
31366.161
33042.666
34606.148
36046.468
37355.674
38527.911
39559.294
40448.304
5.8567929e-05
0.00036391331
0.0012559625
0.0036397795
0.0096567369
0.024164297
0.057791626
0.13291603
0.29484993
0.63177884
1.3084051
2.6198208
5.0727339
9.5005701
17.216001
30.198403
51.305223
84.485931
134.96787
209.37703
315.757
463.45638
662.86925
925.03218
1261.0995
1681.7336
2196.473
2813.1295
3537.2651
4371.7925
5316.7257
6369.0917
7523
8769.8522
10098.667
11496.488
12948.845
14440.235
15954.598
17475.766
18987.864
20475.652
21924.833
23322.259
24656.123
25916.02
27093.032
28179.734
29170.193
30060.285
5.2608876e-05
0.00031041595
0.0010165436
0.002804501
0.0070942528
0.01697176
0.03892872
0.086169274
0.18464206
0.38360577
0.77326603
1.5128454
2.8730384
5.2968144
9.4816356
16.483669
27.841019
45.707625
72.984202
113.4277
171.71814
253.46227
365.11788
513.83061
707.18505
952.88038
1258.3539
1630.386
2074.7134
2595.6833
3195.9736
3876.3974
4635.8032
5471.0709
6377.1973
7347.4608
8373.6469
9446.318
10555.11
11689.035
12836.782
13986.995
15128.529
16250.664
17343.3
18397.101
19403.596
20355.26
21245.573
22069.323
4.7475617e-05
0.00026630969
0.00083245521
0.0021907259
0.0053000732
0.012154609
0.026795028
0.057166528
0.11843997
0.23870649
0.46836447
0.89496236
1.6656186
3.0193468
5.331352
9.1705141
15.369708
25.106163
39.986288
62.126236
94.217336
139.56408
202.0831
286.25411
397.01814
539.62351
719.4246
941.64864
1211.1459
1532.1407
1908.0005
2341.0415
2832.3801
3381.8406
3987.9208
4647.8151
5357.4896
6111.8009
6904.6503
7729.1604
8577.8669
9442.9131
10316.241
11189.772
12055.559
12905.95
13733.688
14532.031
15294.813
16016.748
4.2886446e-05
0.00022993272
0.0006871116
0.0017341251
0.0040231434
0.0088669954
0.018826527
0.038779593
0.077776741
0.15217663
0.29071879
0.54249757
0.98896772
1.7612748
3.0642449
5.2080243
8.6477793
14.030784
22.248746
34.491742
52.298355
77.595463
112.72065
160.4204
223.81914
306.35598
411.68896
543.57015
705.69989
901.56763
1134.2901
1406.4577
1719.9981
2076.0668
2474.9694
2916.1183
3398.0265
3918.335
4473.8708
5060.7308
5674.3855
6309.7957
6961.5383
7623.9325
8291.1626
8957.396
9616.8876
10264.077
10893.673
11500.904
3.8764915e-05
0.00019988853
0.00057315899
0.0013897919
0.0031014291
0.0065853609
0.013493239
0.026879674
0.052256996
0.099344857
0.18488876
0.33698745
0.60162593
1.0520975
1.8020859
3.0231613
4.9670999
7.9931222
12.599321
19.456885
29.444668
43.680767
63.547308
90.704122
127.08747
174.89075
236.52523
314.56022
411.64543
530.41873
673.40415
842.90599
1040.9056
1268.9672
1528.1568
1818.9806
2141.3438
2494.5316
2877.2132
3287.4657
3722.8173
4180.3058
4656.5479
5147.8185
5650.1319
6159.3265
6671.1469
7181.3146
7685.6007
3.5213924e-05
0.0001745723
0.00048241811
0.0011263466
0.0024263576
0.0049739284
0.009858077
0.019024455
0.035900337
0.066389722
0.1204498
0.21450764
0.37507347
0.64391465
1.0852992
1.7957285
2.9165408
4.6495708
7.2757696
11.176291
16.854977
24.960772
36.307944
51.891841
72.897609
100.69955
136.84922
183.05085
241.12415
312.95536
400.43844
505.40903
629.57476
774.44567
941.26846
1130.9681
1344.0999
1580.8138
1840.8325
2123.4445
2427.5102
2751.482
3093.4348
3451.1072
3821.9487
4203.1729
4591.8136
4984.7842
5379.014
3.1978001e-05
0.00015332913
0.0004098024
0.0009242211
0.0019241189
0.0038193116
0.007334943
0.013739935
0.025205275
0.045393834
0.080358398
0.13991739
0.23967573
0.4039433
0.66978669
1.0924992
1.7527875
2.7657776
4.292003
6.5501912
9.8314408
14.514194
21.078906
30.121276
42.362451
58.654787
79.98169
107.45023
142.27586
185.75893
239.25364
304.13002
381.73088
473.32551
580.06236
702.92332
842.68152
999.86493
1174.7273
1367.2274
1577.0178
1803.4426
2045.5442
2302.0788
2571.5387
2852.1807
3142.0605
3439.072
3741.0481
2.9147231e-05
0.00013554594
0.00035046767
0.0007662972
0.0015464318
0.002978546
0.0055557901
0.010119412
0.018076565
0.031745419
0.054891828
0.093506838
0.15699897
0.25982235
0.42381923
0.68132901
1.079324
1.6846383
2.5904669
3.924057
5.855543
8.607586
12.465443
17.786747
25.010243
34.662624
47.362391
63.819958
84.833112
111.27741
144.09121
184.25563
232.76982
290.62245
358.76063
438.05761
529.2807
633.06087
749.86549
879.97528
1023.4665
1180.1988
1349.8096
1531.7141
1725.1117
1928.9976
2142.1801
2363.303
2590.9131
2.6701239e-05
0.0001201492
0.00030210528
0.00064208751
0.0012595243
0.0023589036
0.0042822374
0.0075977326
0.013236118
0.022699028
0.038378909
0.064026276
0.10543486
0.17140844
0.27511101
0.43588108
0.68164153
1.0519751
1.6019967
2.4069958
3.5678851
5.2173676
7.5265738
10.711899
15.041633
20.84188
28.501124
38.472984
51.276352
67.49262
87.759555
112.76162
143.21682
179.86038
223.4256
274.6228
334.11693
402.50499
480.29409
567.88114
665.5349
773.38133
891.39249
1019.3796
1156.9901
1303.7096
1458.8668
1621.6448
1791.1248
2.4463099e-05
0.00010734566
0.00026298405
0.00054372656
0.0010391336
0.001896305
0.0033569037
0.0058126447
0.0098928859
0.01659005
0.027463913
0.044913108
0.07259837
0.11601295
0.1832857
0.28625621
0.44191278
0.67423197
1.0164921
1.5141296
2.2281077
3.238812
4.6503893
6.5953899
9.239486
12.786054
17.480196
23.611925
31.518074
41.582472
54.234231
69.943712
89.216177
112.583
140.59065
173.78769
212.71023
257.8663
309.71972
368.67421
435.0583
509.11145
590.97238
680.66944
778.11385
883.09582
995.28368
1114.2269
1239.3835
2.2484322e-05
9.6366729e-05
0.00023016377
0.00046467853
0.00086795424
0.0015470262
0.0026752085
0.0045303039
0.0075461747
0.012393189
0.020113547
0.032279823
0.051266282
0.080587567
0.12539015
0.19311871
0.29436898
0.44401493
0.66264134
0.9782927
1.4285831
2.0631858
2.9466491
4.1614907
5.8114953
8.0250497
10.958292
14.797985
19.763699
26.109147
34.122395
44.124715
56.467883
71.529892
89.708954
111.4159
137.06518
167.06462
201.80433
241.64512
286.90682
337.85699
394.70037
457.56953
526.51696
601.50903
682.42199
769.0407
861.07525
2.0705034e-05
8.7122615e-05
0.00020359807
0.0004023834
0.00073435281
0.0012804188
0.0021690992
0.003598456
0.0058742314
0.0094629097
0.015075859
0.02377454
0.037136437
0.057475587
0.088142306
0.13394105
0.20166259
0.30079334
0.44439426
0.65022166
0.94205947
1.3513167
1.9188828
2.697192
3.7524803
5.1671525
7.042164
9.499303
12.683152
16.762693
21.932209