/*--------------------------------*- C++ -*----------------------------------*\
| =========                 |                                                 |
| \\      /  F ield         | OpenFOAM: The Open Source CFD Toolbox           |
|  \\    /   O peration     | Version:  2312                                  |
|   \\  /    A nd           | Website:  www.openfoam.com                      |
|    \\/     M anipulation  |                                                 |
\*---------------------------------------------------------------------------*/
FoamFile
{
    version     2.0;
    format      ascii;
    arch        "LSB;label=32;scalar=64";
    class       volScalarField;
    location    "0.08";
    object      T;
}
// * * * * * * * * * * * * * * * * * * * * * * * * * * * * * * * * * * * * * //

dimensions      [0 0 0 1 0 0 0];

internalField   nonuniform List<scalar> 
3275
(
998.59928
988.011
970.31946
948.37002
924.3992
900.50057
877.11311
854.61591
833.13881
812.78727
793.55391
778.47942
762.87113
748.51645
735.42792
723.4819
712.54576
702.48981
693.20212
684.58896
676.57208
669.08437
662.06786
655.47344
649.25881
643.38735
637.82712
632.55021
627.53206
622.75096
618.18769
613.8251
609.64789
605.64233
601.79606
598.09791
594.53779
591.10652
587.79575
584.59785
581.50583
578.51329
575.61433
572.80349
570.07591
567.42712
564.85249
562.34806
559.91009
557.53509
555.21977
552.96101
997.92056
984.49641
965.91979
943.88145
920.30637
897.13729
874.34693
852.35809
831.2785
811.24996
792.28471
777.38288
761.94933
747.73464
734.75772
722.90208
712.03982
702.0448
692.80782
684.23721
676.25633
668.79934
661.80922
655.23765
649.04293
643.1889
637.64405
632.38075
627.37472
622.60446
618.05093
613.69712
609.52785
605.5295
601.6898
597.99765
594.44303
591.01682
587.71071
584.5171
581.42907
578.44022
575.54471
572.73711
570.01254
567.36645
564.79439
562.29238
559.85667
557.48379
555.17046
552.9136
995.654
976.4064
956.40196
934.52022
911.94465
890.40929
868.87281
847.86887
827.5762
808.19013
789.75746
775.19664
760.11464
746.17682
733.42142
721.74538
711.03001
701.15621
692.02012
683.53423
675.62506
668.22925
661.29172
654.76567
648.61061
642.79136
637.27715
632.04101
627.05915
622.31051
617.77639
613.44009
609.28667
605.30271
601.47611
597.79594
594.2523
590.83617
587.53935
584.35433
581.27424
578.29276
575.4041
572.60292
569.8843
567.24372
564.67683
562.17967
559.74851
557.3799
555.07058
552.81753
989.43026
960.61116
940.57321
919.79425
899.14531
880.4491
860.77336
841.21749
822.08821
803.65206
786.00522
771.94222
757.38998
743.8588
731.43072
720.02075
709.5233
699.8295
690.84339
682.48352
674.6811
667.37642
660.51728
654.05912
647.96324
642.19587
636.72742
631.53183
626.58608
621.86976
617.36466
613.05453
608.9248
604.96235
601.15536
597.49311
593.96589
590.56485
587.28193
584.10975
581.04155
578.07111
575.1927
572.40107
569.69137
567.05908
564.49995
562.01006
559.58573
557.22354
554.92025
552.6729
969.44918
933.22888
914.76803
899.12709
882.8834
866.46973
849.96707
832.51035
814.89452
797.69785
781.07542
767.64972
753.80658
740.80248
728.80211
717.7409
707.52961
698.07249
689.28383
681.09007
673.42849
666.24417
659.48865
653.12029
647.10274
641.40409
635.99626
630.85443
625.95658
621.28311
616.81652
612.54114
608.44286
604.50899
600.72804
597.0896
593.5842
590.20322
586.93879
583.78368
580.73129
577.77551
574.91074
572.13182
569.43395
566.81271
564.26392
561.78371
559.36848
557.01483
554.71959
552.47982
890.51073
884.57553
881.22664
874.17576
864.27673
851.49499
837.02793
822.42047
806.61067
790.83179
775.38277
762.66487
749.65683
737.25285
725.74384
715.08459
705.20378
696.02051
687.46069
679.45974
671.96188
664.91765
658.28285
652.01922
646.0931
640.47473
635.13777
630.05881
625.217
620.59371
616.17224
611.93756
607.87616
603.97579
600.22538
596.61487
593.13508
589.77764
586.53491
583.39985
580.36601
577.42746
574.57871
571.8147
569.13075
566.52249
563.98586
561.51705
559.11251
556.76892
554.48314
552.25229
736.58195
823.31996
843.55213
846.99547
843.0357
834.74071
823.30216
811.0548
797.54158
783.29748
769.13523
757.15811
745.08093
733.33094
722.35974
712.14121
702.62343
693.74148
685.43387
677.64577
670.3289
663.43971
656.93867
650.79121
644.96657
639.43738
634.1792
629.17018
624.39075
619.82333
615.4521
611.26279
607.24249
603.37948
599.66315
596.0838
592.63259
589.30143
586.08292
582.97025
579.95715
577.03783
574.20697
571.45962
568.79122
566.19749
563.67445
561.21838
558.82581
556.49346
554.21827
551.9974
600.49175
750.4378
798.24074
814.97893
818.52717
815.26621
807.86173
798.0097
786.87151
774.59081
761.92571
750.74671
739.74608
728.75786
718.40698
708.69742
699.5998
691.06735
683.05291
675.51269
668.40695
661.69893
655.35439
649.34299
643.63736
638.21284
633.0472
628.12039
623.41434
618.91268
614.60063
610.46477
606.49292
602.67397
598.99783
595.45524
592.03777
588.73764
585.54775
582.46151
579.4729
576.57632
573.76661
571.03896
568.38893
565.81237
563.30542
560.86442
558.48601
556.16697
553.90431
551.69525
507.25682
677.8376
749.20016
779.46146
791.36187
793.64403
790.35123
783.66549
774.71618
764.64407
753.79286
743.43917
733.59434
723.5202
713.87002
704.73679
696.11617
687.98159
680.30173
673.04506
666.18132
659.68129
653.51673
647.66204
642.09363
636.78993
631.73121
626.89948
622.27834
617.85285
613.60937
609.53549
605.61983
601.85202
598.22254
594.72267
591.34439
588.08033
584.9237
581.86822
578.9081
576.03797
573.25286
570.54814
567.91951
565.36295
562.87472
560.4513
558.08937
555.78584
553.53778
551.34249
447.40219
612.70281
699.47249
741.85922
762.05945
770.18563
771.14682
767.78836
761.51008
753.37891
744.59324
735.4277
726.60402
717.60745
708.73779
700.2461
692.15821
684.4694
677.16552
670.22831
663.63787
657.37323
651.41271
645.73595
640.32358
635.15744
630.22059
625.49734
620.97317
616.63472
612.46968
608.46672
604.61542
600.9062
597.33021
593.87932
590.54601
587.32334
584.2049
581.18473
578.25734
575.41761
572.66077
569.9824
567.37838
564.84483
562.37815
559.97493
557.63198
555.3463
553.11506
550.93562
408.80609
558.09452
651.72896
703.5618
731.35429
745.21752
750.57548
750.55931
747.1018
741.19917
734.25845
726.69973
718.8425
710.95737
703.0048
695.21588
687.71428
680.518
673.63096
667.04901
660.76331
654.76173
649.02972
643.55258
638.31556
633.30422
628.5047
623.90381
619.48914
615.24907
611.17275
607.25008
603.47168
599.82886
596.31354
592.91822
589.63596
586.4603
583.38524
580.40522
577.51503
574.70986
571.98519
569.33681
566.76079
564.25344
561.81129
559.43108
557.10976
554.84442
552.63232
550.47096
383.24979
514.00379
607.83534
665.87879
700.03262
719.21219
728.85611
732.2783
731.57737
728.1434
722.99995
717.02667
710.49278
703.54407
696.66578
689.64064
682.77584
676.11697
669.68657
663.49508
657.54535
651.83455
646.3557
641.10018
636.05818
631.21929
626.57296
622.10875
617.81654
613.6866
609.70968
605.87705
602.18047
598.61222
595.16507
591.83224
588.60741
585.48466
582.45846
579.52365
576.6754
573.90918
571.22079
568.60623
566.06181
563.58402
561.16957
558.81535
556.51844
554.27607
552.08563
549.94468
365.76422
478.97523
568.75672
629.88522
668.85771
692.67093
706.31949
713.10222
715.1962
714.12093
710.99993
706.54445
701.37336
695.57975
689.64865
683.52006
677.33772
671.25856
665.3229
659.55608
653.97298
648.58039
643.37932
638.36754
633.54044
628.89192
624.41498
620.10213
615.94568
611.93799
608.07153
604.33904
600.73354
597.24837
593.87722
590.6141
587.45336
584.3897
581.41809
578.53382
575.73246
573.00984
570.36204
567.78536
565.27632
562.83164
560.44823
558.12314
555.85361
553.63701
551.47083
549.35279
353.38736
451.21452
534.71701
596.33755
638.50309
666.0877
683.31122
693.25543
698.08371
699.33845
698.19377
695.42429
691.55649
687.01931
682.02573
676.8088
671.39821
665.93794
660.53291
655.22343
650.03664
644.98912
640.09016
635.34412
630.75186
626.31179
622.02065
617.87408
613.86701
609.99398
606.24935
602.62742
599.12257
595.72929
592.44227
589.25637
586.16669
583.16856
580.25754
577.42939
574.68012
572.00594
569.40327
566.86871
564.39904
561.99123
559.64237
557.34972
555.11069
552.92279
550.78366
548.69115
344.33148
429.09278
505.45745
565.66544
609.50573
639.91546
660.17411
672.98696
680.39713
683.925
684.71801
683.6209
681.18666
677.81014
673.89351
669.52172
664.93616
660.15356
655.31216
650.49066
645.72846
641.05198
636.47888
632.02026
627.68263
623.46907
619.38024
615.41504
611.57116
607.84547
604.23428
600.73361
597.33925
594.04695
590.85246
587.75156
584.74015
581.81427
578.97006
576.20385
573.5121
570.89145
568.33866
565.85067
563.42455
561.05752
558.74691
556.49019
554.28493
552.12883
550.01968
547.95546
337.4961
411.29301
480.47293
538.01936
582.24501
614.53955
637.22953
652.54531
662.32265
668.0002
670.69083
671.22558
670.22421
668.0947
665.18196
661.76864
657.93423
653.89585
649.65911
645.35369
641.04251
636.76178
632.53741
628.38734
624.32378
620.35462
616.48455
612.71585
609.04908
605.48353
602.01762
598.6491
595.37532
592.19333
589.10001
586.09213
583.16646
580.31976
577.54885
574.85062
572.22204
569.66018
567.16223
564.72546
562.34727
560.02513
557.75665
555.5395
553.37146
551.25041
549.1743
547.14128
332.18865
396.80295
459.17693
513.34436
556.94607
590.26151
614.76155
632.16712
644.04715
651.70945
656.20319
658.34011
658.73254
657.84495
656.01026
653.48377
650.50084
647.13323
643.57038
639.81098
635.97498
632.11311
628.25918
624.43791
620.66731
616.96009
613.32502
609.76787
606.29213
602.89961
599.59089
596.36558
593.22263
590.16047
587.17717
584.27056
581.43829
578.67794
575.98701
573.363
570.80345
568.30589
565.86793
563.48722
561.1615
558.88855
556.66623
554.49247
552.36526
550.28266
548.24281
546.24403
327.96294
384.86044
440.9959
491.45456
533.70059
567.29394
593.00587
612.06715
625.75075
635.19836
641.36917
645.0343
646.79724
647.1094
646.35306
644.77134
642.57514
639.96762
637.00871
633.86252
630.52442
627.10259
623.63926
620.16597
616.7064
613.27809
609.89389
606.56309
603.29218
600.08554
596.94597
593.875
590.87325
587.94057
585.07631
582.27937
579.54836
576.8817
574.27763
571.73431
569.24982
566.82223
564.4496
562.12998
559.86147
557.64217
555.47022
553.34383
551.2612
549.2206
547.22036
545.25896
324.52534
374.89719
425.41315
472.09448
512.49632
545.76509
572.14424
592.43064
607.60001
618.60803
626.30345
631.39802
634.46778
635.96555
636.24794
635.60869
634.24857
632.34395
630.06785
627.47008
624.69224
621.72904
618.67462
615.56706
612.43556
609.30234
606.18434
603.09432
600.04179
597.03372
594.07518
591.16967
588.31952
585.52607
582.78996
580.11123
577.48949
574.92402
572.41385
569.95782
567.55462
565.20285
562.90105
560.64771
558.4413
556.28027
554.16308
552.08818
550.05405
548.05917
546.10203
544.18116
321.67774
366.49138
411.98831
454.98288
493.24803
525.73006
552.30403
573.40861
589.7426
602.07059
611.11802
617.52277
621.8208
624.44841
625.75834
626.02761
625.50146
624.34241
622.69909
620.71845
618.44286
615.99365
613.36427
610.63851
607.85082
605.02789
602.19065
599.35529
596.53428
593.73719
590.97138
588.24235
585.55417
582.9097
580.3109
577.75899
575.25462
572.79797
570.38887
568.02688
565.71133
563.44138
561.21608
559.03436
556.89511
554.79713
552.7392
550.72009
548.73851
546.79319
544.88279
319.28276
359.32711
400.35813
439.84279
475.82485
507.1854
533.5622
555.11614
572.30359
585.70544
595.91894
603.49843
608.92944
612.62102
614.91237
616.0816
616.36302
615.94551
614.97255
613.56602
611.85088
609.86499
607.70949
605.37956
602.94988
600.45122
597.90835
595.34081
592.76391
590.18981
587.62812
585.08639
582.57041
580.0846
577.63226
575.21581
572.83695
570.49681
568.19604
565.93495
563.71353
561.53152
559.38851
557.2839
555.21698
553.18696
551.19297
549.23405
547.30922
545.41745
543.55776
317.24263
353.16508
390.22728
426.42102
460.0726
490.08427
515.95201
537.63332
555.3836
569.61655
580.80359
589.41097
595.86625
600.54389
603.76441
605.79854
606.87507
607.18058
606.87273
606.07365
604.88292
603.40774
601.68295
599.7914
597.73237
595.57046
593.33442
591.04694
588.72605
586.38634
584.03976
581.69581
579.36205
577.04442
574.74759
572.47518
570.22998
568.01406
565.82894
563.67567
561.55493
559.46709
557.41225
555.39033
553.40106
551.44404
549.51875
547.62457
545.76081
543.92669
542.12153
315.48605
347.82188
381.3557
414.49594
445.83527
474.35199
499.47133
521.00825
539.05862
553.89075
565.85854
575.34045
582.7024
588.27915
592.36692
595.22261
597.06649
598.0831
598.42678
598.22753
597.59103
596.59778
595.33971
593.85224
592.19774
590.38552
588.4674
586.47118
584.41729
582.32267
580.20158
578.06547
575.9236
573.78343
571.65098
569.53108
567.4276
565.34358
563.28141
561.24291
559.22946
557.24205
555.28136
553.3478
551.44157
549.56268
547.71098
545.88619
544.08792
542.31565
540.56882
313.95983
343.1552
373.54796
403.87497
432.96631
459.90371
484.09499
505.26298
523.38172
538.5978
551.15947
561.36152
569.50786
575.88989
580.77477
584.4008
586.97638
588.68017
589.66398
590.05576
589.96285
589.47866
588.66597
587.6066
586.33125
584.89341
583.30758
581.61259
579.83566
577.99585
576.10994
574.19116
572.25043
570.29665
568.33718
566.37805
564.4242
562.47966
560.54768
558.63087
556.73131
554.85063
552.99009
551.15061
549.33287
547.53731
545.76417
544.01351
542.28526
540.57912
312.62348
339.05332
366.6444
394.39167
421.32976
446.65296
469.7873
490.4044
508.3907
523.795
536.77386
547.5448
556.35125
563.43951
569.04461
573.38259
576.64695
579.00729
580.61035
581.58175
582.0283
582.03939
581.69603
581.05541
580.16305
579.08785
577.84914
576.47205
574.9808
573.40434
571.76245
570.06977
568.33886
566.57994
564.80168
563.01129
561.21477
559.41712
557.62245
555.83416
554.05503
552.28735
550.53295
548.7933
547.06955
545.36256
543.67299
542.00127
540.34765
538.71226
311.4456
335.42751
360.51401
385.90282
410.80088
434.51326
456.50569
476.42974
494.11371
509.53146
522.76297
533.95673
543.29899
550.99107
557.23413
562.21948
566.12315
569.10309
571.29859
572.83097
573.80492
574.31026
574.42075
574.2085
573.71593
572.99445
572.09628
571.03976
569.85421
568.54797
567.15808
565.69942
564.18637
562.6302
561.04089
559.42683
557.79502
556.15142
554.50098
552.84789
551.19563
549.54713
547.90483
546.27072
544.64643
543.03328
541.43233
539.84437
538.27002
536.70978
310.40145
332.20651
355.04875
378.28533
401.26638
423.39972
444.20202
463.32697
480.56888
495.84731
509.1809
520.65868
530.41453
538.60648
545.40138
550.96441
555.4522
559.00893
561.76446
563.83395
565.31833
566.30522
566.86942
567.07749
566.98216
566.63333
566.06824
565.33493
564.43914
563.42795
562.2974
561.07956
559.7917
558.44542
557.05225
555.62161
554.16149
552.67877
551.17922
549.66778
548.14865
546.6254
545.10103
543.57809
542.0587
540.54463
539.03732
537.53798
536.04754
534.56687
309.47126
329.33251
350.15898
371.43351
392.62407
413.2304
432.8242
451.07585
467.76453
482.77334
496.07394
507.70614
517.75749
526.34564
533.60401
539.67111
544.68301
548.76854
552.04646
554.62418
556.59744
558.05064
559.05733
559.68219
559.97974
559.99715
559.78193
559.36351
558.76538
558.03506
557.17954
556.21105
555.15512
554.02492
552.83433
551.59364
550.31165
548.99624
547.65388
546.29027
544.91029
543.51814
542.1174
540.71115
539.302
537.89215
536.48348
535.07754
533.67565
532.27899
308.63901
326.75812
345.76987
365.2565
384.78233
403.92734
422.31776
439.64932
455.69988
470.33094
483.48012
495.148
505.38275
514.26561
521.89841
528.39341
533.86563
538.42752
542.18549
545.23788
547.67398
549.57381
551.00832
552.04017
552.72378
553.1069
553.23258
553.1366
552.84637
552.3922
551.80691
551.08593
550.27883
549.36931
548.38705
547.34214
546.2441
545.10194
543.92262
542.71263
541.4775
540.22204
538.95041
537.66618
536.37245
535.07188
533.76672
532.45893
531.15016
529.84192
307.89159
324.44417
341.81863
359.67604
377.65935
395.41727
412.62732
429.01494
444.36614
458.5325
471.4289
483.02604
493.3398
502.41978
510.33893
517.18445
523.05052
528.03277
532.22439
535.71363
538.58228
540.90495
542.74887
544.17415
545.23395
545.97539
546.44035
546.66463
546.67753
546.51343
546.19077
545.72437
545.15364
544.47965
543.71175
542.86775
541.95857
540.99513
539.98412
538.93309
537.84812
536.73461
535.59725
534.44015
533.26683
532.0804
530.88352
529.67849
528.46733
527.25185
307.21814
322.35796
338.25216
354.62461
371.1822
387.63189
403.69779
419.13632
433.74766
447.38214
459.94132
471.37449
481.67202
490.85706
498.97699
506.09589
512.2879
517.63189
522.20743
526.09199
529.35902
532.07686
534.30814
536.10968
537.53251
538.62233
539.41988
539.9608
540.27609
540.3955
540.34253
540.13693
539.80028
539.35662
538.80297
538.17277
537.45597
536.67649
535.83822
534.95097
534.02097
533.05425
532.05601
531.0308
529.98263
528.91499
527.83094
526.73314
525.62393
524.50545
306.60958
320.47202
335.02537
350.04374
365.28601
380.50807
395.47533
409.97447
423.82317
436.87662
449.03047
460.21995
470.4163
479.62122
487.86037
495.17712
501.62693
507.27247
512.17971
516.415
520.04286
523.12468
525.71777
527.87497
529.64446
531.06989
532.19054
533.04142
533.6536
534.05551
534.27162
534.32144
534.23033
534.01234
533.67699
533.25185
532.73575
532.14862
531.48591
530.76685
529.99604
529.18045
528.32571
527.43681
526.51817
525.57369
524.60678
523.62046
522.61736
521.59997
306.05826
318.76303
332.09969
345.88265
359.91311
373.98777
387.90804
401.48893
414.56698
427.00628
438.70204
449.58156
459.60267
468.7504
477.03251
484.47452
491.11499
497.00141
502.18657
506.72564
510.67397
514.08549
517.01165
519.50071
521.5974
523.34278
524.77424
525.92558
526.82726
527.50676
527.98847
528.29379
528.44412
528.45507
528.34429
528.12378
527.80366
527.40473
526.92884
526.38286
525.77451
525.11385
524.40649
523.65785
522.87276
522.05546
521.2097
520.33882
519.44576
518.53334
305.55769
317.21113
329.44196
342.0971
355.01217
368.01782
380.94643
393.63876
405.95022
417.75608
428.95511
439.47141
449.2543
458.27663
466.5319
474.0307
480.79691
486.86417
492.27284
497.06724
501.2935
504.99789
508.22557
511.01979
513.42132
515.46816
517.19538
518.63511
519.81662
520.76652
521.5087
522.06476
522.4548
522.69586
522.80405
522.79272
522.67542
522.46186
522.16867
521.79573
521.35877
520.85643
520.29974
519.69478
519.04675
518.36026
517.63927
516.8875
516.1081
515.30425
305.1023
315.79926
327.02355
338.64841
350.53754
362.54975
374.54377
386.3833
397.94177
409.10668
419.78292
429.895
439.38772
448.22567
456.39159
463.88398
470.7143
476.90405
482.4822
487.48282
491.94306
495.90148
499.3968
502.46692
505.1483
507.47547
509.48078
511.19428
512.64368
513.85441
514.84962
515.65041
516.27617
516.74418
517.07028
517.26872
517.35004
517.32972
517.21779
517.01824
516.74902
516.40643
516.00821
515.54971
515.04174
514.48921
513.89618
513.26683
512.60425
511.91233
304.68731
314.51266
324.81957
335.50265
346.44856
357.53939
368.65622
379.6828
390.50923
401.03538
411.17381
420.85193
430.01315
438.61712
446.63895
454.06779
460.90492
467.16151
472.85647
478.01443
482.66403
486.83635
490.56363
493.87829
496.81221
499.39616
501.65946
503.62973
505.33278
506.79254
508.03113
509.06883
509.92431
510.61456
511.15511
511.55996
511.84141
512.01252
512.08151
512.06014
511.95728
511.77575
511.53217
511.22162
510.8606
510.44478
509.98223
509.47836
508.9351
508.3582
304.30856
313.33853
322.80831
332.62996
342.70895
352.94663
363.24289
373.49885
383.61963
393.51706
403.11206
412.33658
421.13497
429.46457
437.29559
444.61037
451.40215
457.67357
463.43491
468.70244
473.49696
477.84244
481.76481
485.29104
488.44829
491.26341
493.7624
495.97021
497.91045
499.60532
501.07556
502.34042
503.41771
504.32382
505.07383
505.68151
506.1594
506.51937
506.77146
506.92607
506.9899
506.97302
506.8831
506.72202
506.50447
506.22614
505.9003
505.52539
505.10235
504.64383
303.96245
312.2657
320.97077
330.00401
339.28634
348.73506
358.26583
367.79469
377.24008
386.52498
395.57876
404.33889
412.75227
420.77595
428.37748
435.5346
442.23458
448.47322
454.25364
459.58493
464.48088
468.9589
473.03899
476.74276
480.09272
483.11166
485.82218
488.24631
490.40528
492.31929
494.0075
495.48786
496.77717
497.891
498.84383
499.649
500.31883
500.86472
501.29697
501.62524
501.85781
502.00348
502.06767
502.05906
501.98437
501.84483
501.65323
501.40782
501.10726
500.77326
303.6458
311.28436
319.29021
327.60147
336.15177
344.87164
353.68996
362.53545
371.33826
380.03146
388.55261
396.84514
404.85949
412.55395
419.89513
426.85805
433.42582
439.58906
445.34511
450.69705
455.65266
460.22351
464.42406
468.27091
471.78204
474.97623
477.8726
480.49016
482.84759
484.96295
486.85359
488.53598
490.0257
491.3374
492.48473
493.48044
494.3364
495.06362
495.67222
496.17157
496.57021
496.87622
497.09651
497.23862
497.3068
497.30876
497.25055
497.13325
496.96046
496.7457
303.35584
310.38588
317.75186
325.40162
333.27933
341.32645
349.48293
357.68829
365.88275
374.00846
382.01064
389.83868
397.44715
404.79656
411.85393
418.59305
424.99442
431.04497
436.7376
442.07051
447.04647
451.67197
455.95658
459.91224
463.55266
466.89276
469.94821
472.73499
475.26912
477.56642
479.64228
481.51155
483.18844
484.68644
486.01832
487.19607
488.23092
489.1334
489.91329
490.57968
491.14097
491.60499
491.97887
492.26943
492.48248
492.62452
492.69879
492.71195
492.66767
492.57059
303.09012
309.56263
316.34263
323.38606
330.64577
338.07236
345.61502
353.22239
360.84338
368.42813
375.92884
383.30065
390.50248
397.49769
404.25464
410.74702
416.95398
422.86007
428.45499
433.73314
438.69318
443.33741
447.67112
451.70213
455.44021
458.89666
462.0838
465.01466
467.70261
470.16112
472.40357
474.44306
476.29231
477.96355
479.46848
480.81822
482.02328
483.09355
484.03835
484.86639
485.5858
486.20415
486.72849
487.16537
487.52083
487.80061
488.00954
488.15313
488.23348
488.25777
302.84646
308.80786
315.05092
321.53835
328.23025
335.08481
342.05896
349.10903
356.19139
363.26312
370.28269
377.21062
384.01015
390.64779
397.09384
403.32275
409.31331
415.04875
420.51661
425.70854
430.61999
435.24981
439.59976
443.67405
447.47899
451.02252
454.31387
457.3632
460.1813
462.77932
465.16858
467.36038
469.36584
471.19586
472.86095
474.37124
475.73641
476.96564
478.06765
479.05067
479.92246
480.69027
481.3609
481.94072
482.43564
482.85121
483.19246
483.46423
483.67055
483.81667
302.62291
308.11554
313.8664
319.84383
326.01404
332.34154
338.78977
345.32153
351.89955
358.48692
365.04765
371.54718
377.95286
384.23446
390.36457
396.31896
402.07679
407.62079
412.93727
418.016
422.85007
427.43562
431.77152
435.85902
439.70138
443.30359
446.67204
449.81423
452.73849
455.45372
457.9692
460.2944
462.43885
464.41198
466.22309
467.88122
469.39511
470.77316
472.02341
473.15352
474.17074
475.08196
475.89365
476.61191
477.24246
477.79065
478.26146
478.65956
478.98924
479.25489
302.41776
307.4803
312.77983
318.2894
323.9803
329.82242
335.78463
341.83521
347.94227
354.07409
360.19953
366.28843
372.31199
378.24314
384.05692
389.73075
395.24471
400.58166
405.72736
410.67048
415.40247
419.91747
424.21207
428.2851
432.13732
435.77115
439.19049
442.40042
445.40697
448.21692
450.83758
453.27663
455.54199
457.64165
459.58359
461.37574
463.02583
464.54139
465.92972
467.19783
468.35241
469.39986
470.34628
471.19743
471.95875
472.63538
473.23214
473.75354
474.20383
474.5872
302.22946
306.89733
311.78291
316.86325
322.1139
327.50923
333.02272
338.62729
344.29561
350.00041
355.71476
361.41241
367.06805
372.65762
378.15858
383.55023
388.81383
393.93287
398.89312
403.68269
408.29206
412.71397
416.94333
420.97706
424.81389
428.45412
431.89949
435.15295
438.21847
441.10087
443.80562
446.33868
448.70639
450.9153
452.97212
454.88357
456.65637
458.29713
459.81234
461.20828
462.49105
463.66651
464.74028
465.71773
466.60399
467.4039
468.12204
468.76277
469.33017
469.82829
302.05662
306.36234
310.86826
315.55482
320.40118
325.38547
330.48507
335.67683
340.9373
346.243
351.57067
356.89747
362.2012
367.4606
372.65548
377.76702
382.7779
387.67248
392.43695
397.05936
401.52968
405.8398
409.98345
413.95611
417.75494
421.37855
424.82688
428.10104
431.20321
434.13645
436.90453
439.51182
441.96316
444.26371
446.41891
448.43432
450.3156
452.06842
453.6984
455.2111
456.61193
457.90618
459.09895
460.19517
461.19955
462.11663
462.95071
463.70588
464.38605
464.9951
301.89802
305.87147
310.02922
314.3546
318.82983
323.43623
328.15444
332.96464
337.84671
342.78042
347.74565
352.72252
357.69163
362.6342
367.53228
372.36888
377.12816
381.79555
386.3579
390.80354
395.12234
399.30573
403.34672
407.2398
410.98093
414.56741
417.99773
421.27151
424.3894
427.3529
430.16429
432.82648
435.34293
437.71749
439.95438
442.05803
444.03305
445.88417
447.61616
449.23377
450.74174
452.14472
453.44727
454.65381
455.76864
456.79591
457.73958
458.60348
459.39124
460.10658
301.75253
305.42126
309.25985
313.25408
317.38878
321.64799
326.01512
330.47317
335.00483
339.59266
344.21925
348.8673
353.51985
358.16036
362.7729
367.34222
371.85396
376.29471
380.65213
384.91505
389.07354
393.11892
397.04379
400.84204
404.50878
408.04033
411.43409
414.68849
417.80287
420.77746
423.61323
426.31181
428.8754
431.30667
433.60867
435.78477
437.83858
439.7739
441.59464
443.30477
444.90832
446.40928
447.81165
449.11932
450.33613
451.46581
452.51195
453.47805
454.36745
455.18362
301.61917
305.00862
308.5548
312.2456
316.06808
320.00858
324.0529
328.18641
332.3942
336.6612
340.97234
345.31257
349.66704
354.02119
358.36092
362.67261
366.94329
371.16071
375.31345
379.39098
383.38375
387.28322
391.08187
394.77325
398.35198
401.81365
405.15488
408.37315
411.46682
414.43504
417.27769
419.9953
422.58896
425.06026
427.41123
429.64424
431.76195
433.76728
435.6633
437.45322
439.14036
440.72808
442.21974
443.61873
444.92839
446.15201
447.29279
448.35387
449.33827
301.49703
304.63075
307.90927
311.3223
314.85879
318.50706
322.25492
326.0898
329.99883
333.96898
337.98713
342.0402
346.11519
350.1993
354.28002
358.34522
362.38324
366.38296
370.33388
374.2262
378.05087
381.79964
385.4651
389.0407
392.52076
395.90046
399.17584
402.34371
405.40166
408.34801
411.18174
413.90244
416.51029
419.00593
421.39047
423.66538
425.83246
427.8938
429.85168
431.70859
433.46714
435.13006
436.70013
438.18018
439.57306
440.88161
442.10862
443.25689
444.32933
301.38532
304.28516
307.31898
310.47804
313.7529
317.13359
320.60963
324.17021
327.80422
331.50034
335.24719
339.03332
342.84735
346.67802
350.51426
354.34524
358.16052
361.95002
365.70416
369.41389
373.07072
376.66682
380.195
383.64879
387.02242
390.31084
393.50973
396.61544
399.625
402.5361
405.347
408.05657
410.66418
413.16971
415.57344
417.87608
420.07864
422.18244
424.18908
426.10033
427.91816
429.64467
431.28208
432.83269
434.29883
435.68291
436.9873
438.21442
439.36688
301.28331
303.96962
306.7801
309.70732
312.74325
315.87936
319.10666
322.41582
325.79724
329.24111
332.73748
336.27636
339.84773
343.44168
347.04839
350.65824
354.26184
357.85011
361.4143
364.94611
368.43765
371.88156
375.27096
378.59959
381.86171
385.05221
388.16658
391.20088
394.15177
397.01645
399.79268
402.47873
405.07337
407.57579
409.98563
412.3029
414.52795
416.66143
418.70428
420.65765
422.5229
424.30156
425.9953
427.6059
429.13522
430.58521
431.95784
433.25513
434.47935
301.19037
303.68216
306.28922
309.00527
311.82348
314.73654
317.73676
320.81607
323.96616
327.1785
330.4444
333.7551
337.1018
340.47571
343.86813
347.27047
350.67433
354.07149
357.45402
360.8143
364.14505
367.43938
370.69081
373.89331
377.04133
380.12978
383.15408
386.11017
388.99445
391.80383
394.53567
397.18782
399.75854
402.24652
404.65086
406.97098
409.20667
411.358
413.42534
415.40927
417.31061
419.13037
420.8697
422.5299
424.11238
425.61864
427.05026
428.40888
429.69643
301.10594
303.42104
305.84336
308.36761
310.98798
313.69824
316.49176
319.3616
322.30053
325.30113
328.35579
331.4568
334.59641
337.76682
340.96029
344.16914
347.38581
350.60292
353.81324
357.00979
360.18588
363.33509
366.45134
369.52891
372.56245
375.54702
378.47806
381.35146
384.16351
386.91092
389.59081
392.20069
394.73849
397.20248
399.59132
401.904
404.13981
406.29834
408.37947
410.3833
412.31016
414.16058
415.93525
417.63504
419.26092
420.81399
422.29545
423.70658
425.04896
301.02953
303.18473
305.4399
307.79059
310.23187
312.75842
315.36455
318.04424
320.79122
323.59901
326.46092
329.37017
332.31987
335.30313
338.313
341.34262
344.38518
347.43397
350.48246
353.52426
356.55318
359.56329
362.5489
365.50462
368.42533
371.30628
374.143
376.93143
379.66781
382.34875
384.97122
387.53254
390.03035
392.46265
394.82777
397.12431
399.3512
401.50764
403.59308
405.60721
407.54995
409.42141
411.22188
412.95183
414.61183
416.20264
417.72507
419.18006
420.5689
300.96072
302.97193
305.0766
307.27099
309.55095
311.91191
314.34898
316.85695
319.43036
322.06351
324.75054
327.48543
330.26207
333.0743
335.91591
338.78071
341.66256
344.55538
347.45319
350.35015
353.24057
356.11895
358.97997
361.81855
364.62987
367.40934
370.15267
372.85585
375.51517
378.12721
380.68886
383.19731
385.65004
388.04483
390.37977
392.65319
394.86372
397.01024
399.09186
401.10794
403.05805
404.94193
406.75953
408.51097
410.19649
411.81649
413.37147
414.86207
416.28927
300.89916
302.78154
304.75158
306.80614
308.94171
311.15438
313.43994
315.79386
318.21136
320.68743
323.21689
325.79439
328.41449
331.07165
333.76029
336.47483
339.20968
341.9593
344.71824
347.48113
350.2427
352.99786
355.74165
358.4693
361.17623
363.85808
366.51071
369.13025
371.71304
374.25568
376.75506
379.20828
381.61274
383.96607
386.26619
388.51123
390.6996
392.82994
394.90109
396.91212
398.86233
400.75116
402.57827
404.34347
406.04671
407.6881
409.26785
410.78633
412.24424
300.84455
302.61268
304.46332
306.39386
308.40131
310.48234
312.63329
314.85021
317.12891
319.46496
321.85375
324.29051
326.77034
329.28827
331.83925
334.4182
337.02004
339.63969
342.27214
344.91243
347.5557
350.1972
352.83229
355.45649
358.06547
360.65509
363.22137
365.76056
368.26912
370.7437
373.18118
375.57867
377.93352
380.24327
382.50572
384.71888
386.88098
388.99048
391.04602
393.04647
394.99086
396.87844
398.70859
400.48089
402.19503
403.85087
405.44839
406.9877
408.46928
300.79669
302.46467
304.21067
306.03249
307.92761
309.89314
311.92591
314.02245
316.17905
318.39177