/*--------------------------------*- C++ -*----------------------------------*\
| =========                 |                                                 |
| \\      /  F ield         | OpenFOAM: The Open Source CFD Toolbox           |
|  \\    /   O peration     | Version:  2312                                  |
|   \\  /    A nd           | Website:  www.openfoam.com                      |
|    \\/     M anipulation  |                                                 |
\*---------------------------------------------------------------------------*/
FoamFile
{
    version     2.0;
    format      ascii;
    arch        "LSB;label=32;scalar=64";
    class       volVectorField;
    location    "0.08";
    object      U;
}
// * * * * * * * * * * * * * * * * * * * * * * * * * * * * * * * * * * * * * //

dimensions      [0 1 -1 0 0 0 0];

internalField   nonuniform List<vector> 
3275
(
(54.963027 0.36561046 0)
(48.116395 0.8666366 0)
(39.997406 0.90574324 0)
(33.073635 0.7735337 0)
(27.616823 0.60143545 0)
(23.46969 0.45650265 0)
(20.292909 0.3486114 0)
(17.813795 0.26913783 0)
(15.852863 0.21081814 0)
(14.267075 0.16759537 0)
(12.989596 0.1360745 0)
(11.970166 0.11200819 0)
(11.11005 0.092620969 0)
(10.37169 0.078067794 0)
(9.7476682 0.066672793 0)
(9.2110639 0.057678963 0)
(8.7449587 0.050462607 0)
(8.3359755 0.044568304 0)
(7.9740238 0.039679501 0)
(7.6512599 0.035575716 0)
(7.3615124 0.032099566 0)
(7.0998066 0.02913132 0)
(6.8620997 0.026576847 0)
(6.6451058 0.024364066 0)
(6.4460968 0.022435996 0)
(6.2628003 0.020747019 0)
(6.0933048 0.019260262 0)
(5.9359912 0.017945665 0)
(5.7894791 0.016778524 0)
(5.652584 0.015738396 0)
(5.5242838 0.014808245 0)
(5.4036918 0.013973792 0)
(5.2900347 0.013223002 0)
(5.1826349 0.012545679 0)
(5.0808964 0.011933144 0)
(4.9842923 0.011377981 0)
(4.8923554 0.010873826 0)
(4.8046699 0.010415192 0)
(4.7208641 0.0099973178 0)
(4.6406054 0.0096160387 0)
(4.5635946 0.009267649 0)
(4.4895624 0.0089486734 0)
(4.4182651 0.0086557726 0)
(4.3494807 0.0083881804 0)
(4.2830089 0.0081466706 0)
(4.2186715 0.0079220486 0)
(4.1563025 0.0077166029 0)
(4.0957475 0.0075276535 0)
(4.0368681 0.007353701 0)
(3.9795372 0.0071938471 0)
(3.9236381 0.007047083 0)
(3.8690626 0.0069106822 0)
(54.202397 1.2084082 0)
(46.350561 2.6475308 0)
(38.293272 2.6769894 0)
(31.825437 2.2532751 0)
(26.772747 1.7488985 0)
(22.910362 1.3327557 0)
(19.916903 1.0220024 0)
(17.554525 0.79203578 0)
(15.669329 0.62231514 0)
(14.134072 0.4959277 0)
(12.890743 0.40340751 0)
(11.894358 0.33250366 0)
(11.051001 0.27523642 0)
(10.32508 0.23216997 0)
(9.7100951 0.19837926 0)
(9.1803111 0.17166998 0)
(8.719435 0.1502135 0)
(8.3145343 0.13267022 0)
(7.9558169 0.11810753 0)
(7.6356493 0.10587501 0)
(7.3480103 0.095507874 0)
(7.0880357 0.086652079 0)
(6.8517641 0.079028877 0)
(6.6359706 0.072424646 0)
(6.437974 0.066670363 0)
(6.2555376 0.061630602 0)
(6.086778 0.057195824 0)
(5.930098 0.053276662 0)
(5.7841348 0.049799635 0)
(5.6477177 0.046703883 0)
(5.5198361 0.043938661 0)
(5.3996122 0.041461395 0)
(5.2862803 0.039236158 0)
(5.1791692 0.037232467 0)
(5.0776877 0.035424327 0)
(4.9813135 0.03378946 0)
(4.8895829 0.032308689 0)
(4.802083 0.030965426 0)
(4.7184449 0.029745254 0)
(4.638338 0.028635569 0)
(4.561465 0.027625276 0)
(4.4875582 0.026704477 0)
(4.4163754 0.025864261 0)
(4.3476966 0.025097312 0)
(4.2813214 0.024399283 0)
(4.2170722 0.023763107 0)
(4.1547844 0.023180905 0)
(4.0943043 0.022648424 0)
(4.0354943 0.02216155 0)
(3.9782279 0.02171682 0)
(3.9223882 0.021311094 0)
(3.8678686 0.020939316 0)
(52.00019 2.6173889 0)
(42.5336 4.5777395 0)
(34.933927 4.2978261 0)
(29.442108 3.525789 0)
(25.171832 2.7362874 0)
(21.844499 2.1051145 0)
(19.194842 1.627924 0)
(17.053163 1.2713747 0)
(15.312325 1.0054295 0)
(13.874125 0.80541069 0)
(12.696787 0.65784565 0)
(11.74516 0.54391872 0)
(10.934508 0.45143078 0)
(10.232938 0.38161938 0)
(9.6356947 0.32662802 0)
(9.119335 0.28303627 0)
(8.6687717 0.24793378 0)
(8.2719353 0.21917535 0)
(7.9196154 0.19526252 0)
(7.6045893 0.17514718 0)
(7.3211304 0.15807861 0)
(7.0645904 0.1434833 0)
(6.8311685 0.13090841 0)
(6.6177602 0.12000627 0)
(6.4217762 0.11050126 0)
(6.2410507 0.10217219 0)
(6.0737554 0.094839858 0)
(5.9183369 0.088357897 0)
(5.7734666 0.082605791 0)
(5.6380019 0.07748362 0)
(5.5109541 0.072907981 0)
(5.3914639 0.068808835 0)
(5.2787805 0.065127017 0)
(5.1722447 0.061812283 0)
(5.071276 0.058821738 0)
(4.9753602 0.056118587 0)
(4.884041 0.053671112 0)
(4.7969114 0.051451854 0)
(4.7136078 0.049436924 0)
(4.6338037 0.047605435 0)
(4.5572058 0.045939031 0)
(4.4835494 0.04442147 0)
(4.412595 0.043038333 0)
(4.3441256 0.041776781 0)
(4.2779431 0.040627026 0)
(4.2138703 0.039580387 0)
(4.1517444 0.038623897 0)
(4.0914141 0.037750256 0)
(4.0327427 0.03695256 0)
(3.975605 0.036224671 0)
(3.9198846 0.035561261 0)
(3.8654756 0.034955523 0)
(46.367029 5.3552543 0)
(36.179442 6.5940114 0)
(30.087181 5.5625701 0)
(26.159814 4.4435733 0)
(22.980939 3.4766233 0)
(20.369321 2.7198913 0)
(18.181768 2.1307109 0)
(16.341809 1.6832226 0)
(14.800908 1.3441456 0)
(13.498789 1.0851621 0)
(12.414939 0.89176659 0)
(11.527259 0.74080311 0)
(10.763701 0.61730269 0)
(10.097384 0.52353 0)
(9.5259442 0.44925145 0)
(9.0291924 0.39011751 0)
(8.593741 0.34232822 0)
(8.208753 0.30305719 0)
(7.8658541 0.27031991 0)
(7.558414 0.24272195 0)
(7.2811325 0.21926095 0)
(7.0296759 0.1991678 0)
(6.8004767 0.18183253 0)
(6.5906066 0.16678549 0)
(6.3976108 0.15365331 0)
(6.2194277 0.14213556 0)
(6.0543102 0.13198834 0)
(5.9007688 0.12301198 0)
(5.7575259 0.11504181 0)
(5.6234798 0.10794105 0)
(5.4976749 0.10159537 0)
(5.3792787 0.095908624 0)
(5.2675624 0.090799487 0)
(5.1618853 0.086198812 0)
(5.0616818 0.082047499 0)
(4.9664504 0.07829479 0)
(4.8757455 0.074896892 0)
(4.7891691 0.071815842 0)
(4.706365 0.069018586 0)
(4.6270135 0.066476214 0)
(4.5508266 0.064163313 0)
(4.4775445 0.062057453 0)
(4.4069318 0.06013878 0)
(4.3387751 0.058389567 0)
(4.27288 0.05679495 0)
(4.2090712 0.055342219 0)
(4.1471878 0.054015981 0)
(4.0870815 0.052805388 0)
(4.0286175 0.051700608 0)
(3.9716721 0.050692887 0)
(3.9161302 0.049774544 0)
(3.8618869 0.048937071 0)
(33.59728 6.723529 0)
(26.999091 7.7758984 0)
(24.197578 6.1259337 0)
(22.344183 4.891432 0)
(20.423402 3.9164617 0)
(18.61295 3.1406588 0)
(16.950394 2.5085863 0)
(15.463373 2.0116264 0)
(14.160998 1.62656 0)
(13.024016 1.3265949 0)
(12.055277 1.0989125 0)
(11.247282 0.91857396 0)
(10.543028 0.76947904 0)
(9.9214525 0.65533967 0)
(9.3829761 0.56429339 0)
(8.9114156 0.49139665 0)
(8.4954671 0.43220103 0)
(8.1258268 0.38335995 0)
(7.7951697 0.34250649 0)
(7.4976136 0.30796714 0)
(7.2283992 0.27853291 0)
(6.9835942 0.2532707 0)
(6.7599301 0.23143589 0)
(6.5547047 0.212453 0)
(6.3656369 0.19586272 0)
(6.1907995 0.18129424 0)
(6.0285507 0.16844555 0)
(5.8774843 0.15706877 0)
(5.7363891 0.14695893 0)
(5.6042162 0.13794542 0)
(5.4800536 0.12988531 0)
(5.3631038 0.12265821 0)
(5.252667 0.11616211 0)
(5.1481263 0.11031014 0)
(5.0489359 0.10502794 0)
(4.9546111 0.10025156 0)
(4.8647201 0.095925752 0)
(4.7788769 0.092002568 0)
(4.6967352 0.088440216 0)
(4.6179838 0.085202108 0)
(4.5423422 0.082256073 0)
(4.4695567 0.079573718 0)
(4.3993975 0.077129917 0)
(4.331656 0.07490227 0)
(4.2661421 0.07287127 0)
(4.2026836 0.071019992 0)
(4.1411225 0.069330673 0)
(4.0813139 0.067789153 0)
(4.0231252 0.066382733 0)
(3.9664353 0.065100058 0)
(3.9111306 0.063931068 0)
(3.8571074 0.062865528 0)
(10.762912 7.3428587 0)
(17.395566 6.9028342 0)
(18.583974 5.7554757 0)
(18.683084 4.8439288 0)
(17.893108 4.0424302 0)
(16.821872 3.3433147 0)
(15.660485 2.7367135 0)
(14.522899 2.2357943 0)
(13.464669 1.8331582 0)
(12.500483 1.5124249 0)
(11.654343 1.2645041 0)
(10.932482 1.0647431 0)
(10.29317 0.89738971 0)
(9.7211075 0.76799415 0)
(9.2194211 0.6639674 0)
(8.7761703 0.58011427 0)
(8.3822647 0.51162928 0)
(8.030053 0.45485132 0)
(7.7133538 0.40716682 0)
(7.4271056 0.36671383 0)
(7.1671478 0.33213872 0)
(6.9299943 0.3023895 0)
(6.7127115 0.27662017 0)
(6.512851 0.25417381 0)
(6.3283279 0.23452379 0)
(6.1573672 0.21724306 0)
(5.9984469 0.20198257 0)
(5.8502553 0.18845485 0)
(5.7116571 0.17642146 0)
(5.5816646 0.16568343 0)
(5.4594149 0.15607365 0)
(5.3441511 0.14745105 0)
(5.2352067 0.13969584 0)
(5.1319923 0.13270585 0)
(5.033985 0.12639344 0)
(4.9407195 0.12068316 0)
(4.8517799 0.11550969 0)
(4.766794 0.1108163 0)
(4.6854272 0.10655345 0)
(4.6073782 0.10267775 0)
(4.5323749 0.099150993 0)
(4.4601709 0.095939459 0)
(4.390543 0.093013268 0)
(4.3232878 0.090345804 0)
(4.2582205 0.087913542 0)
(4.1951724 0.085695746 0)
(4.1339894 0.083672316 0)
(4.0745298 0.081826159 0)
(4.0166642 0.080142004 0)
(3.9602738 0.078606118 0)
(3.9052472 0.07720619 0)
(3.8514827 0.075930367 0)
(4.1242371 3.0938871 0)
(11.5254 4.5607947 0)
(14.1659 4.8303499 0)
(15.468442 4.4762329 0)
(15.544406 3.9470862 0)
(15.095595 3.3845095 0)
(14.383084 2.8478876 0)
(13.569751 2.3762211 0)
(12.746155 1.9781379 0)
(11.953025 1.651858 0)
(11.230466 1.3948671 0)
(10.596689 1.1839202 0)
(10.024669 1.0045848 0)
(9.5045352 0.86415682 0)
(9.0417771 0.75041714 0)
(8.6286906 0.65803222 0)
(8.2584146 0.58209157 0)
(7.9249805 0.5187948 0)
(7.6233838 0.46539662 0)
(7.3494155 0.41992385 0)
(7.099541 0.3809314 0)
(6.8707452 0.34728745 0)
(6.6604485 0.31807358 0)
(6.4664735 0.29257269 0)
(6.2869448 0.2702071 0)
(6.1202513 0.25050599 0)
(5.9649996 0.23308294 0)
(5.8199807 0.21761847 0)
(5.6841412 0.20384672 0)
(5.5565597 0.19154512 0)
(5.4364273 0.18052626 0)
(5.3230311 0.17063149 0)
(5.2157409 0.16172585 0)
(5.1139976 0.15369393 0)
(5.0173034 0.1464366 0)
(4.925214 0.13986832 0)
(4.8373314 0.13391496 0)
(4.7532983 0.128512 0)
(4.6727931 0.12360306 0)
(4.5955252 0.11913865 0)
(4.5212321 0.1150752 0)
(4.4496755 0.11137419 0)
(4.3806389 0.10800143 0)
(4.3139255 0.10492651 0)
(4.2493554 0.10212233 0)
(4.1867647 0.099564812 0)
(4.1260031 0.097231495 0)
(4.0669327 0.095102693 0)
(4.0094274 0.093160788 0)
(3.9533711 0.09138988 0)
(3.8986549 0.08977553 0)
(3.8451791 0.088304366 0)
(2.4419298 1.2050382 0)
(7.9179268 2.6574195 0)
(10.722784 3.7431873 0)
(12.617386 3.9016079 0)
(13.31286 3.6791709 0)
(13.379055 3.2948826 0)
(13.070003 2.8626186 0)
(12.564316 2.4465256 0)
(11.972074 2.0737476 0)
(11.353851 1.7557074 0)
(10.760776 1.4990507 0)
(10.22086 1.2840992 0)
(9.7214953 1.098444 0)
(9.2582759 0.95033966 0)
(8.8386958 0.82953239 0)
(8.4593021 0.73050752 0)
(8.1156142 0.64847456 0)
(7.8034367 0.57966254 0)
(7.5190231 0.52130163 0)
(7.2590868 0.4713775 0)
(7.0207771 0.42840166 0)
(6.8015974 0.39119707 0)
(6.5993611 0.35879788 0)
(6.412193 0.33044488 0)
(6.2384531 0.30552266 0)
(6.0767144 0.28352661 0)
(5.9257297 0.26404045 0)
(5.7844064 0.24671839 0)
(5.6517845 0.23127151 0)
(5.5270183 0.21745701 0)
(5.4093607 0.20506976 0)
(5.2981496 0.1939356 0)
(5.1927966 0.18390594 0)
(5.0927773 0.17485344 0)
(4.997623 0.16666844 0)
(4.9069137 0.15925613 0)
(4.8202722 0.15253417 0)
(4.7373585 0.14643079 0)
(4.6578658 0.14088315 0)
(4.5815165 0.13583604 0)
(4.5080588 0.13124074 0)
(4.437264 0.12705415 0)
(4.3689237 0.12323798 0)
(4.3028481 0.11975811 0)
(4.2388638 0.11658407 0)
(4.176812 0.11368863 0)
(4.1165471 0.11104687 0)
(4.0579358 0.1086366 0)
(4.0008555 0.10643794 0)
(3.9451934 0.10443287 0)
(3.8908435 0.10260491 0)
(3.8377084 0.10093906 0)
(1.9187731 0.57974225 0)
(5.6343206 1.4673164 0)
(8.1413897 2.7490316 0)
(10.205861 3.2437037 0)
(11.280919 3.2961449 0)
(11.73506 3.1003145 0)
(11.764481 2.7906799 0)
(11.535681 2.4490689 0)
(11.161929 2.118939 0)
(10.715067 1.8226787 0)
(10.252918 1.5749919 0)
(9.8101541 1.3630731 0)
(9.3868183 1.1771507 0)
(8.9841748 1.0250426 0)
(8.6113031 0.89995866 0)
(8.2686174 0.79640888 0)
(7.9541419 0.70983383 0)
(7.6654859 0.63666401 0)
(7.4001992 0.57421905 0)
(7.1559606 0.52051763 0)
(6.9306444 0.47407943 0)
(6.722309 0.43372013 0)
(6.5291922 0.39845438 0)
(6.3497472 0.36750114 0)
(6.1825914 0.34022245 0)
(6.0265009 0.3160914 0)
(5.8803896 0.29467058 0)
(5.7432943 0.27559461 0)
(5.6143592 0.25855662 0)
(5.4928234 0.24329759 0)
(5.378009 0.2295978 0)
(5.2693109 0.21727002 0)
(5.1661881 0.20615398 0)
(5.0681553 0.19611194 0)
(4.9747769 0.18702494 0)
(4.8856605 0.17878989 0)
(4.8004523 0.17131704 0)
(4.7188322 0.16452801 0)
(4.6405104 0.15835402 0)
(4.5652238 0.15273454 0)
(4.4927332 0.14761609 0)
(4.4228205 0.14295127 0)
(4.3552869 0.1386979 0)
(4.2899506 0.13481836 0)
(4.2266453 0.13127898 0)
(4.1652185 0.12804954 0)
(4.1055301 0.12510271 0)
(4.0474515 0.12241391 0)
(3.9908646 0.11996108 0)
(3.9356603 0.11772413 0)
(3.8817357 0.11568466 0)
(3.8289965 0.11382595 0)
(1.6667034 0.27327214 0)
(4.1631644 0.74144682 0)
(6.2491031 1.9275157 0)
(8.2337622 2.5902112 0)
(9.4926072 2.8518795 0)
(10.209204 2.8292055 0)
(10.503719 2.6462501 0)
(10.511057 2.3902867 0)
(10.335111 2.1151752 0)
(10.049825 1.8522645 0)
(9.7154287 1.621939 0)
(9.3705338 1.419488 0)
(9.0246288 1.2390009 0)
(8.684663 1.0870269 0)
(8.3611668 0.96047336 0)
(8.0576195 0.85466156 0)
(7.7745638 0.76524846 0)
(7.5114163 0.68901204 0)
(7.2670137 0.62347725 0)
(7.040014 0.56677149 0)
(6.8290377 0.51747556 0)
(6.6327217 0.47443794 0)
(6.4497503 0.43668373 0)
(6.2789252 0.4034321 0)
(6.1191392 0.37403929 0)
(5.9693868 0.34796888 0)
(5.8287566 0.32477214 0)
(5.6964258 0.30407168 0)
(5.5716528 0.28554861 0)
(5.4537696 0.26893227 0)
(5.3421746 0.25399199 0)
(5.2363258 0.24053034 0)
(5.1357345 0.22837768 0)
(5.039959 0.21738764 0)
(4.9486005 0.20743349 0)
(4.8612975 0.198405 0)
(4.7777222 0.19020602 0)
(4.697577 0.18275228 0)
(4.6205911 0.17596975 0)
(4.5465177 0.1697931 0)
(4.4751317 0.16416449 0)
(4.4062272 0.15903259 0)
(4.339616 0.15435163 0)
(4.2751255 0.15008073 0)
(4.2125973 0.14618323 0)
(4.1518861 0.14262619 0)
(4.092858 0.13937987 0)
(4.0353899 0.13641748 0)
(3.9793684 0.13371483 0)
(3.9246889 0.13124992 0)
(3.8712522 0.12900249 0)
(3.8189672 0.1269541 0)
(1.5160463 0.078498499 0)
(3.2145053 0.29020518 0)
(4.8843882 1.2809209 0)
(6.6613435 1.990992 0)
(7.9612866 2.3895745 0)
(8.8303193 2.5097523 0)
(9.3165317 2.4460217 0)
(9.5144424 2.2791618 0)
(9.5097402 2.0664481 0)
(9.3714775 1.8453605 0)
(9.1576283 1.6400696 0)
(8.908331 1.4528682 0)
(8.6395312 1.2826287 0)
(8.3627921 1.1352133 0)
(8.0902754 1.0101156 0)
(7.8276525 0.90429789 0)
(7.5777401 0.81385348 0)
(7.3417496 0.73594877 0)
(7.1197544 0.66841586 0)
(6.911372 0.60956598 0)
(6.7159699 0.55809353 0)
(6.532771 0.51292033 0)
(6.3609189 0.47311291 0)
(6.1995762 0.43791377 0)
(6.047924 0.40669118 0)
(5.9051868 0.37891303 0)
(5.7706387 0.35412998 0)
(5.643607 0.33196097 0)
(5.5234724 0.31208167 0)
(5.4096673 0.29421496 0)
(5.3016726 0.2781233 0)
(5.199015 0.26360234 0)
(5.1012625 0.25047566 0)
(5.0080216 0.23859044 0)
(4.9189336 0.22781381 0)
(4.8336708 0.21802984 0)
(4.7519347 0.20913705 0)
(4.6734519 0.20104628 0)
(4.597973 0.19367895 0)
(4.5252691 0.18696558 0)
(4.4551309 0.18084449 0)
(4.387366 0.17526084 0)
(4.3217979 0.17016564 0)
(4.2582643 0.16551504 0)
(4.196616 0.16126968 0)
(4.1367152 0.15739408 0)
(4.0784353 0.1538563 0)
(4.0216592 0.15062744 0)
(3.966279 0.14768135 0)
(3.9121948 0.14499419 0)
(3.8593116 0.14254397 0)
(3.8075421 0.14031054 0)
(1.4184953 -0.042357901 0)
(2.5982841 0.010269884 0)
(3.908615 0.7883843 0)
(5.4308054 1.4698505 0)
(6.6785164 1.9408494 0)
(7.6120711 2.1674665 0)
(8.2229311 2.2072696 0)
(8.5652331 2.1261898 0)
(8.7021468 1.9786665 0)
(8.6926132 1.8045356 0)
(8.5889879 1.630129 0)
(8.4302859 1.4633994 0)
(8.2364749 1.3074621 0)
(8.0221884 1.1686857 0)
(7.8010254 1.048204 0)
(7.5803717 0.94451226 0)
(7.364818 0.85487043 0)
(7.1572456 0.77676894 0)
(6.9589025 0.70840477 0)
(6.7703168 0.64834248 0)
(6.5915813 0.59544083 0)
(6.4224957 0.54873435 0)
(6.2626652 0.50736189 0)
(6.1116172 0.4706126 0)
(5.9688281 0.43788518 0)
(5.8337601 0.40866626 0)
(5.7058803 0.38251724 0)
(5.5846734 0.35906236 0)
(5.4696492 0.33797892 0)
(5.3603462 0.31898901 0)
(5.2563337 0.30185272 0)
(5.1572113 0.28636242 0)
(5.0626089 0.27233785 0)
(4.9721842 0.25962208 0)
(4.8856219 0.24807807 0)
(4.8026317 0.23758576 0)
(4.7229459 0.22803962 0)
(4.6463185 0.21934667 0)
(4.5725228 0.21142467 0)
(4.5013499 0.2042007 0)
(4.4326075 0.19760988 0)
(4.3661184 0.19159434 0)
(4.3017188 0.18610231 0)
(4.239258 0.18108733 0)
(4.1785963 0.17650762 0)
(4.1196051 0.17232548 0)
(4.0621652 0.16850691 0)
(4.0061664 0.16502111 0)
(3.9515068 0.16184014 0)
(3.8980917 0.15893845 0)
(3.8458309 0.15629242 0)
(3.7946412 0.15388025 0)
(1.3510535 -0.11292574 0)
(2.1912261 -0.16118138 0)
(3.2116403 0.4224165 0)
(4.4800314 1.0336249 0)
(5.6222706 1.5263763 0)
(6.5558261 1.823239 0)
(7.2345499 1.9463126 0)
(7.6778364 1.9424675 0)
(7.9259484 1.8587588 0)
(8.0246964 1.7335562 0)
(8.0186156 1.5938626 0)
(7.9433784 1.451791 0)
(7.8206122 1.3136969 0)
(7.6668002 1.1869899 0)
(7.4962149 1.0741053 0)
(7.3177104 0.9747363 0)
(7.1372107 0.88764724 0)
(6.9588979 0.81084169 0)
(6.7851348 0.74286141 0)
(6.6172928 0.68257098 0)
(6.4561464 0.62903999 0)
(6.3020455 0.58145283 0)
(6.1550475 0.53905015 0)
(6.0150404 0.50119049 0)
(5.8817958 0.46732121 0)
(5.7550169 0.43696229 0)
(5.6343677 0.40969753 0)
(5.5194951 0.38516581 0)
(5.4100424 0.36305352 0)
(5.3056593 0.34308799 0)
(5.2060073 0.32503181 0)
(5.1107637 0.30867796 0)
(5.019623 0.29384557 0)
(4.932298 0.28037623 0)
(4.8485199 0.26813084 0)
(4.7680376 0.25698696 0)
(4.6906175 0.24683652 0)
(4.6160423 0.23758387 0)
(4.5441103 0.22914413 0)
(4.4746342 0.22144176 0)
(4.4074402 0.21440939 0)
(4.3423672 0.2079867 0)
(4.2792658 0.20211962 0)
(4.2179974 0.1967595 0)
(4.1584333 0.19186252 0)
(4.1004544 0.18738905 0)
(4.0439499 0.18330327 0)
(3.9888172 0.17957269 0)
(3.9349609 0.17616778 0)
(3.8822921 0.17306145 0)
(3.8307256 0.17022862 0)
(3.7801829 0.16764582 0)
(1.3020922 -0.1522601 0)
(1.916885 -0.26461384 0)
(2.7116446 0.15549581 0)
(3.7510609 0.6787125 0)
(4.763749 1.1574959 0)
(5.654062 1.492631 0)
(6.3557151 1.6773171 0)
(6.8617255 1.7388271 0)
(7.1917397 1.7140496 0)
(7.377684 1.6370984 0)
(7.4549256 1.534014 0)
(7.4543645 1.4193679 0)
(7.3972762 1.3019898 0)
(7.3006601 1.1901274 0)
(7.1789374 1.0873491 0)
(7.0419187 0.99458296 0)
(6.8965508 0.91172507 0)
(6.7479181 0.83764039 0)
(6.5993206 0.77126789 0)
(6.4529088 0.71176412 0)
(6.3100779 0.65844051 0)
(6.1716863 0.61066389 0)
(6.038222 0.56780428 0)
(5.9099193 0.52931077 0)
(5.7868396 0.49469678 0)
(5.6689241 0.46352986 0)
(5.5560345 0.43542783 0)
(5.4479813 0.41005364 0)
(5.3445443 0.38711048 0)
(5.2454868 0.36633711 0)
(5.1505661 0.34750373 0)
(5.0595397 0.33040813 0)
(4.9721701 0.31487221 0)
(4.8882276 0.30073891 0)
(4.8074923 0.2878694 0)
(4.7297551 0.27614079 0)
(4.654818 0.26544404 0)
(4.5824948 0.25568217 0)
(4.5126101 0.24676878 0)
(4.4449998 0.23862666 0)
(4.3795101 0.23118667 0)
(4.3159973 0.22438676 0)
(4.2543271 0.21817109 0)
(4.1943744 0.21248932 0)
(4.1360223 0.20729596 0)
(4.0791619 0.20254981 0)
(4.0236916 0.19821352 0)
(3.969517 0.19425319 0)
(3.9165498 0.19063787 0)
(3.8647075 0.18733918 0)
(3.8139101 0.18433074 0)
(3.7640845 0.18158746 0)
(1.2656483 -0.17232099 0)
(1.7282685 -0.32524192 0)
(2.350243 -0.036284886 0)
(3.1941627 0.39610511 0)
(4.0723749 0.83845371 0)
(4.8936247 1.1860759 0)
(5.5849767 1.4117072 0)
(6.1218351 1.5250999 0)
(6.5071056 1.5519303 0)
(6.7596659 1.5203202 0)
(6.9054114 1.4539125 0)
(6.9695655 1.3681282 0)
(6.9716202 1.2733647 0)
(6.9278976 1.1784371 0)
(6.8524481 1.0878863 0)
(6.7555124 1.0037612 0)
(6.6446855 0.9268205 0)
(6.525697 0.85678669 0)
(6.4025091 0.79319216 0)
(6.2779344 0.73549101 0)
(6.1539275 0.68323061 0)
(6.0318037 0.63598091 0)
(5.9124466 0.59326614 0)
(5.7964146 0.55464484 0)
(5.6840452 0.5197123 0)
(5.5755109 0.48809696 0)
(5.4708668 0.45946186 0)
(5.3700859 0.43350326 0)
(5.2730844 0.40994877 0)
(5.1797407 0.3885549 0)
(5.089909 0.36910465 0)
(5.0034293 0.35140492 0)
(4.9201339 0.33528401 0)
(4.8398529 0.32058914 0)
(4.7624172 0.30718424 0)
(4.6876615 0.29494803 0)
(4.6154253 0.2837722 0)
(4.5455548 0.27355992 0)
(4.4779028 0.26422445 0)
(4.4123296 0.25568793 0)
(4.3487025 0.24788034 0)
(4.2868965 0.24073862 0)
(4.2267936 0.23420579 0)
(4.1682828 0.22823033 0)
(4.1112599 0.22276555 0)
(4.0556272 0.21776905 0)
(4.0012929 0.21320232 0)
(3.9481713 0.20903028 0)
(3.8961819 0.20522088 0)
(3.845249 0.20174467 0)
(3.7952983 0.19857421 0)
(3.7462623 0.19568292 0)
(1.2381723 -0.18017211 0)
(1.5960027 -0.35844075 0)
(2.0864912 -0.17200673 0)
(2.7688547 0.17488608 0)
(3.5189758 0.56868551 0)
(4.2584546 0.90961281 0)
(4.9167176 1.1580345 0)
(5.4592803 1.3096759 0)
(5.8767434 1.3794038 0)
(6.176794 1.3885192 0)
(6.3763752 1.3572231 0)
(6.494708 1.3004792 0)
(6.5485042 1.2292737 0)
(6.5525889 1.1526745 0)
(6.5200687 1.0760141 0)
(6.4611462 1.0021937 0)
(6.3836802 0.93272762 0)
(6.2937895 0.86805864 0)
(6.1959019 0.80831995 0)
(6.0932903 0.75339309 0)
(5.9883837 0.70304823 0)
(5.8829038 0.65705258 0)
(5.778084 0.61510146 0)
(5.6747771 0.57687923 0)
(5.5735766 0.54207689 0)
(5.4748732 0.51039565 0)
(5.378908 0.481554 0)
(5.2858116 0.45529027 0)
(5.1956342 0.43136386 0)
(5.1083682 0.40955519 0)
(5.0239652 0.38966525 0)
(4.9423481 0.37151443 0)
(4.8634204 0.35494104 0)
(4.7870727 0.33979969 0)
(4.7131886 0.32595964 0)
(4.6416475 0.31330334 0)
(4.5723283 0.30172509 0)
(4.5051107 0.2911297 0)
(4.439877 0.28143142 0)
(4.3765129 0.27255283 0)
(4.3149082 0.264424 0)
(4.2549573 0.25698159 0)
(4.1965596 0.25016822 0)
(4.1396191 0.24393176 0)
(4.0840452 0.23822482 0)
(4.0297517 0.23300424 0)
(3.9766577 0.22823068 0)
(3.9246865 0.22386823 0)
(3.8737662 0.21988404 0)
(3.8238282 0.21624788 0)
(3.7748043 0.21293157 0)
(3.7266325 0.20990728 0)
(1.2172111 -0.18026855 0)
(1.5013403 -0.37374235 0)
(1.8918297 -0.26623622 0)
(2.4432783 0.0042666304 0)
(3.0774861 0.34474754 0)
(3.7316328 0.66584175 0)
(4.3426478 0.92215816 0)
(4.8721825 1.0993076 0)
(5.3027841 1.202718 0)
(5.6333062 1.2468286 0)
(5.8728268 1.2477751 0)
(6.0347413 1.2190848 0)
(6.1324132 1.1715125 0)
(6.1786113 1.1139712 0)
(6.1850947 1.0523111 0)
(6.161531 0.9900805 0)
(6.1157334 0.92938366 0)
(6.0539283 0.87130903 0)
(5.9808311 0.81647631 0)
(5.9000278 0.76520879 0)
(5.8142647 0.71759342 0)
(5.7256105 0.67357217 0)
(5.6356019 0.63300834 0)
(5.5453503 0.59572314 0)
(5.4556784 0.56151476 0)
(5.3671776 0.53016727 0)
(5.2802626 0.50146363 0)
(5.1952139 0.47519209 0)
(5.1122106 0.45115069 0)
(5.0313562 0.42914961 0)
(4.952698 0.40901282 0)
(4.8762412 0.39057848 0)
(4.8019603 0.37369857 0)
(4.7298073 0.35823819 0)
(4.6597187 0.34407451 0)
(4.5916199 0.33109601 0)
(4.5254297 0.31920141 0)
(4.4610626 0.30829883 0)
(4.3984311 0.29830484 0)
(4.3374475 0.28914366 0)
(4.2780249 0.28074641 0)
(4.2200782 0.27305039 0)
(4.1635246 0.26599851 0)
(4.1082843 0.25953866 0)
(4.0542804 0.25362331 0)
(4.0014397 0.248209 0)
(3.949692 0.24325598 0)
(3.8989708 0.23872786 0)
(3.8492128 0.23459128 0)
(3.8003574 0.23081558 0)
(3.7523427 0.22737226 0)
(3.7051115 0.22423318 0)
(1.2009734 -0.17559002 0)
(1.4321044 -0.37726126 0)
(1.7463248 -0.32987237 0)
(2.1929006 -0.12544023 0)
(2.7256118 0.16174973 0)
(3.2967619 0.45488566 0)
(3.8530553 0.70761453 0)
(4.3565 0.89909015 0)
(4.7852173 1.0271666 0)
(5.1316696 1.0999674 0)
(5.3984737 1.1293646 0)
(5.5937413 1.1267795 0)
(5.7273189 1.1020901 0)
(5.8095894 1.0637166 0)
(5.8506813 1.017648 0)
(5.859373 0.96786187 0)
(5.8430974 0.91694732 0)
(5.8079665 0.8664939 0)
(5.7587765 0.81755513 0)
(5.6993053 0.7707999 0)
(5.6325019 0.72664805 0)
(5.5606603 0.68528754 0)
(5.4855711 0.64672504 0)
(5.4085706 0.61091566 0)
(5.3306784 0.57777163 0)
(5.2526638 0.54716802 0)
(5.1750996 0.5189598 0)
(5.0984049 0.49299191 0)
(5.0228802 0.469107 0)
(4.9487348 0.44715032 0)
(4.8761082 0.42697349 0)
(4.8050861 0.40843652 0)
(4.7357129 0.39140859 0)
(4.6680015 0.37576835 0)
(4.6019412 0.3614035 0)
(4.5375037 0.34821073 0)
(4.474648 0.33609516 0)
(4.4133241 0.32496984 0)
(4.3534754 0.3147551 0)
(4.2950415 0.30537801 0)
(4.2379594 0.29677178 0)
(4.1821651 0.28887527 0)
(4.1275945 0.28163243 0)
(4.0741844 0.2749919 0)
(4.0218727 0.26890656 0)
(3.970599 0.26333315 0)
(3.920305 0.25823195 0)
(3.8709347 0.25356646 0)
(3.822434 0.24930317 0)
(3.7747507 0.2454112 0)
(3.7278298 0.24186212 0)
(3.6816166 0.23862754 0)
(1.1881608 -0.16814068 0)
(1.3802898 -0.37302209 0)
(1.6360159 -0.37100418 0)
(1.9990919 -0.22248167 0)
(2.4448551 0.014318148 0)
(2.9387897 0.27523505 0)
(3.4377682 0.51607418 0)
(3.9067862 0.71257815 0)
(4.322359 0.85700929 0)
(4.6728033 0.95208694 0)
(4.9557789 1.0055743 0)
(5.1748844 1.0264267 0)
(5.3365908 1.0231796 0)
(5.4487941 1.0034668 0)
(5.5198028 0.97310171 0)
(5.557282 0.93622197 0)
(5.5680324 0.89577521 0)
(5.5578074 0.85374846 0)
(5.5313263 0.81152786 0)
(5.4924068 0.77008982 0)
(5.4441164 0.73010361 0)
(5.3888879 0.69201739 0)
(5.3286605 0.65603829 0)
(5.2649653 0.62223249 0)
(5.1989868 0.59062119 0)
(5.1316462 0.56117475 0)
(5.0636548 0.53382633 0)
(4.9955563 0.50848298 0)
(4.927762 0.48503697 0)
(4.86058 0.46337312 0)
(4.7942372 0.44337489 0)
(4.7288962 0.42492784 0)
(4.6646689 0.40792171 0)
(4.6016277 0.39225159 0)
(4.5398138 0.37781823 0)
(4.4792449 0.36452874 0)
(4.4199202 0.35229655 0)
(4.361825 0.34104129 0)
(4.3049343 0.33068849 0)
(4.2492151 0.32116931 0)
(4.1946288 0.31242017 0)
(4.141133 0.30438237 0)
(4.0886831 0.29700178 0)
(4.0372326 0.29022845 0)
(3.9867347 0.2840163 0)
(3.9371427 0.27832281 0)
(3.8884104 0.27310876 0)
(3.8404926 0.26833794 0)
(3.7933451 0.26397695 0)
(3.7469244 0.25999479 0)
(3.7011826 0.2563617 0)
(3.6560661 0.25304731 0)
(1.1778462 -0.15924428 0)
(1.3405899 -0.36373172 0)
(1.5511098 -0.39560816 0)
(1.8478314 -0.29365854 0)
(2.2201954 -0.10281777 0)
(2.6444143 0.12442035 0)
(3.0868341 0.34780584 0)
(3.516827 0.54198788 0)
(3.9113105 0.69548207 0)
(4.2563439 0.80668342 0)
(4.5460733 0.87965465 0)
(4.7804665 0.92079062 0)
(4.9629675 0.93701228 0)
(5.0990635 0.93491758 0)
(5.1951864 0.91988756 0)
(5.2577505 0.8960238 0)
(5.2927346 0.86642783 0)
(5.3053702 0.833372 0)
(5.3001149 0.79851398 0)
(5.2807137 0.7630626 0)
(5.2502389 0.72790611 0)
(5.2112044 0.69367707 0)
(5.1656263 0.66079759 0)
(5.1151489 0.62949316 0)
(5.0610952 0.59987093 0)
(5.0045134 0.57199058 0)
(4.9462316 0.54586685 0)
(4.8869005 0.52147315 0)
(4.8270299 0.49875516 0)
(4.7670172 0.47764084 0)
(4.7071702 0.458049 0)
(4.6477235 0.43989404 0)
(4.5888533 0.42308921 0)
(4.5306886 0.40754876 0)
(4.4733211 0.39318883 0)
(4.4168132 0.37992906 0)
(4.3612039 0.36769304 0)
(4.3065135 0.35640858 0)
(4.2527481 0.34600788 0)
(4.1999025 0.33642743 0)
(4.1479626 0.32760794 0)
(4.096908 0.31949413 0)
(4.0467135 0.31203461 0)
(3.9973501 0.30518158 0)
(3.9487865 0.29889065 0)
(3.9009901 0.29312059 0)
(3.853927 0.28783315 0)
(3.8075634 0.28299285 0)
(3.7618651 0.27856675 0)
(3.716797 0.2745236 0)
(3.6723179 0.27082995 0)
(1.1693696 -0.14975647 0)
(1.3094452 -0.35124092 0)
(1.4847158 -0.40809725 0)
(1.7286434 -0.34447274 0)
(2.0396249 -0.19450804 0)
(2.4022024 -0.00049248507 0)
(2.790956 0.20209611 0)
(3.1801423 0.38844003 0)
(3.548375 0.54487607 0)
(3.8809284 0.6665701 0)
(4.1697113 0.75444567 0)
(4.4119548 0.81244861 0)
(4.6085475 0.84577448 0)
(4.7627717 0.85982581 0)
(4.8792549 0.85935435 0)
(4.9630967 0.84825354 0)
(5.0193207 0.82961445 0)
(5.0525315 0.80583271 0)
(5.0667974 0.77877207 0)
(5.0656507 0.74982708 0)
(5.0520882 0.72004972 0)
(5.0286156 0.69023085 0)
(4.997292 0.66093826 0)
(4.9598129 0.63257378 0)
(4.9175729 0.60536861 0)
(4.8717274 0.57944995 0)
(4.8232009 0.5549098 0)
(4.772732 0.53178946 0)
(4.720914 0.51009062 0)
(4.6682227 0.48978697 0)
(4.6150382 0.4708354 0)
(4.5616613 0.45318178 0)
(4.5083277 0.43676547 0)
(4.4552197 0.42152224 0)
(4.4024769 0.40738572 0)
(4.3502046 0.39429002 0)
(4.2984802 0.38217062 0)
(4.2473583 0.37096512 0)
(4.1968756 0.36061372 0)
(4.1470543 0.35105949 0)
(4.0979049 0.34224849 0)
(4.0494288 0.33412987 0)
(4.0016203 0.32665577 0)
(3.9544682 0.31978131 0)
(3.907957 0.31346444 0)
(3.8620681 0.3076658 0)
(3.8167806 0.30234863 0)
(3.772072 0.29747863 0)
(3.7279184 0.29302381 0)
(3.6842918 0.2889535 0)
(3.6411587 0.28523263 0)
(1.1622635 -0.14021231 0)
(1.2844415 -0.33682367 0)
(1.4319658 -0.41174648 0)
(1.6337533 -0.37931014 0)
(1.893664 -0.26504723 0)
(2.2025285 -0.10256832 0)
(2.5417355 0.077598508 0)
(2.8903514 0.25220712 0)
(3.2294103 0.40665835 0)
(3.544466 0.5338977 0)
(3.8262456 0.63233543 0)
(4.0700761 0.70372058 0)
(4.2748102 0.75153838 0)
(4.4418241 0.7799417 0)
(4.5740962 0.79292882 0)
(4.6754085 0.79401486 0)
(4.7497826 0.78614687 0)
(4.8011149 0.77172707 0)
(4.8330014 0.75270418 0)
(4.8486642 0.7306127 0)
(4.8509224 0.70663549 0)
(4.8422077 0.68168264 0)
(4.8245654 0.65644017 0)
(4.7997084 0.6314271 0)
(4.7690576 0.60701316 0)
(4.7338195 0.58342434 0)
(4.6949999 0.56081284 0)
(4.6534072 0.53928249 0)
(4.6097016 0.51889105 0)
(4.5644249 0.49965938 0)
(4.51802 0.4815845 0)
(4.4708463 0.46464573 0)
(4.4231933 0.44881049 0)
(4.3752922 0.43403816 0)
(4.3273269 0.42028154 0)
(4.2794434 0.40749095 0)
(4.2317555 0.39561535 0)
(4.1843509 0.38460354 0)
(4.1372959 0.37440508 0)
(4.0906393 0.36497074 0)
(4.0444158 0.35625303 0)
(3.9986484 0.3482064 0)
(3.953351 0.34078743 0)
(3.9085297 0.33395485 0)
(3.8641851 0.32766963 0)
(3.8203128 0.32189486 0)
(3.7769048 0.31659578 0)
(3.7339505 0.31173972 0)
(3.6914362 0.3072962 0)
(3.6493417 0.30323654 0)
(3.6076394 0.29952749 0)
(1.1561983 -0.13093062 0)
(1.2639269 -0.32135907 0)
(1.3893905 -0.4089937 0)
(1.5574094 -0.40165131 0)
(1.7749367 -0.31812299 0)
(2.0374343 -0.18478735 0)
(2.3317785 -0.027405251 0)
(2.6414215 0.13293472 0)
(2.9501117 0.28161016 0)
(3.2443852 0.41020753 0)
(3.5146048 0.51524611 0)
(3.7549219 0.5966128 0)
(3.9626743 0.656212 0)
(4.1376737 0.6969701 0)
(4.2814431 0.72205468 0)
(4.3965232 0.73448266 0)
(4.4859436 0.73694259 0)
(4.5528557 0.7317413 0)
(4.6003189 0.7208211 0)
(4.6311831 0.70577173 0)
(4.6480198 0.68787203 0)
(4.653106 0.668128 0)
(4.6484259 0.64731704 0)
(4.6356616 0.6260459 0)
(4.6162404 0.60477097 0)
(4.5913824 0.58383263 0)
(4.5621287 0.56346854 0)
(4.5293426 0.54383056 0)
(4.4937368 0.52502668 0)
(4.4559051 0.50712407 0)
(4.4163431 0.49016107 0)
(4.3754598 0.47415166 0)