/*--------------------------------*- C++ -*----------------------------------*\
| =========                 |                                                 |
| \\      /  F ield         | OpenFOAM: The Open Source CFD Toolbox           |
|  \\    /   O peration     | Version:  2312                                  |
|   \\  /    A nd           | Website:  www.openfoam.com                      |
|    \\/     M anipulation  |                                                 |
\*---------------------------------------------------------------------------*/
FoamFile
{
    version     2.0;
    format      ascii;
    arch        "LSB;label=32;scalar=64";
    class       volScalarField;
    location    "0.03";
    object      alphat;
}
// * * * * * * * * * * * * * * * * * * * * * * * * * * * * * * * * * * * * * //

dimensions      [1 -1 -1 0 0 0 0];

internalField   nonuniform List<scalar> 
3272
(
0.028921092
0.028895791
0.028877711
0.028866978
0.028863745
0.028868089
0.028880035
0.028899673
0.028927082
0.028962335
0.029005497
0.029056632
0.029115803
0.029183066
0.029258478
0.029342095
0.029433973
0.029534178
0.02964276
0.029759769
0.029885256
0.030019265
0.030161844
0.030313039
0.030472888
0.03064143
0.030818696
0.031004708
0.031199479
0.031403006
0.031615273
0.031836242
0.032065852
0.032304017
0.03255062
0.032805514
0.033068513
0.033339396
0.033617902
0.033903727
0.034196523
0.034495901
0.034801427
0.03511262
0.035428959
0.035749877
0.03607477
0.036402993
0.036733872
0.037066709
0.03740081
0.037735409
0.038069657
0.027093325
0.027051675
0.027016258
0.026987295
0.026964884
0.026949401
0.026940318
0.026937835
0.026942061
0.026953056
0.026970877
0.026995581
0.027027223
0.027065879
0.027111585
0.027164413
0.027224436
0.027291727
0.027366433
0.027448548
0.027538193
0.027635417
0.027740302
0.027852938
0.027973408
0.028101777
0.028238126
0.028382534
0.02853505
0.028695722
0.02886458
0.029041638
0.029226888
0.029420301
0.029621817
0.02983135
0.030048779
0.03027395
0.030506672
0.030746714
0.030993804
0.031247632
0.031507842
0.031774037
0.03204578
0.032322589
0.032603943
0.032889282
0.033178006
0.033469468
0.033762965
0.034057823
0.034353371
0.025531328
0.025479756
0.025433275
0.02539237
0.025357095
0.025328197
0.025304571
0.025286299
0.02527369
0.025266781
0.025265608
0.02527021
0.025280628
0.025296931
0.025319156
0.025347343
0.025381579
0.025421943
0.025468523
0.025521582
0.025580933
0.025646854
0.025719325
0.025798477
0.025884428
0.025977284
0.026077154
0.026184104
0.026298275
0.026419734
0.026548554
0.026684792
0.02682849
0.026979669
0.027138328
0.027304441
0.027477954
0.027658783
0.027846811
0.028041885
0.028243819
0.028452387
0.028667322
0.028888322
0.029115042
0.029347098
0.029584069
0.029825494
0.030070877
0.030319687
0.030571366
0.030825335
0.031080953
0.024183139
0.024126117
0.024072962
0.024024559
0.023980903
0.023943146
0.023909781
0.023880401
0.023855725
0.023835757
0.023820507
0.023809991
0.023804236
0.023803291
0.023807207
0.023815963
0.023829665
0.023848374
0.023872152
0.023901394
0.023935955
0.023975737
0.024021229
0.024072191
0.02412887
0.024191397
0.024259895
0.024334485
0.024415291
0.02450237
0.024595911
0.024695961
0.02480261
0.024915917
0.02503593
0.025162676
0.025296158
0.025436355
0.025583217
0.025736667
0.025896594
0.026062853
0.026235267
0.026413618
0.026597654
0.026787088
0.026981599
0.027180827
0.027384382
0.027591841
0.027802756
0.028016649
0.028232953
0.023007871
0.022948277
0.022891416
0.022838557
0.022789611
0.02274598
0.022706243
0.022669115
0.022635831
0.022606359
0.022580684
0.022558803
0.022540724
0.022526493
0.022516134
0.022509611
0.022507028
0.022508445
0.022513932
0.022523582
0.022537876
0.022556384
0.02257951
0.022607169
0.022639392
0.022676452
0.022718478
0.022765601
0.022817954
0.022875668
0.022938846
0.0230076
0.023082101
0.023162397
0.023248583
0.023340724
0.023438872
0.023543059
0.023653293
0.023769559
0.023891813
0.024019985
0.024153971
0.024293637
0.024438806
0.024589263
0.024744794
0.024905135
0.025069989
0.025239033
0.025411917
0.025588267
0.025767617
0.021977332
0.02191686
0.021858252
0.021803044
0.021751207
0.02170284
0.021659201
0.021616772
0.02157733
0.021540881
0.021507407
0.021476894
0.021449336
0.021424793
0.021403194
0.021384575
0.021369009
0.021356549
0.021347261
0.021341228
0.021338549
0.021339773
0.021344262
0.021352643
0.021364622
0.021380373
0.02140015
0.021424097
0.021452356
0.021485071
0.021522383
0.02156443
0.021611308
0.021663155
0.021720121
0.021782272
0.021849705
0.021922493
0.022000695
0.022084347
0.022173463
0.022268036
0.022368034
0.022473406
0.022584088
0.022699978
0.022820882
0.022946601
0.023076915
0.023211581
0.023350329
0.023492857
0.02363874
0.021073886
0.021013362
0.020954136
0.020897656
0.020843686
0.020793679
0.020746896
0.020700565
0.020656579
0.020614902
0.0205755
0.020538346
0.020503455
0.020470822
0.020440357
0.020412134
0.020386181
0.020362541
0.020341272
0.020322445
0.020306151
0.020292504
0.020282187
0.020274163
0.020269521
0.020267563
0.020268699
0.02027316
0.020281093
0.020292647
0.020307968
0.020327206
0.020350514
0.020378044
0.020409904
0.020446254
0.020487232
0.02053293
0.020583457
0.020638885
0.020699273
0.020764658
0.020835054
0.020910446
0.020990783
0.021076004
0.021166034
0.021260758
0.02136003
0.021463678
0.02157151
0.021683304
0.021798695
0.020287652
0.020227539
0.02016847
0.020111572
0.020056678
0.020006195
0.019957279
0.019908272
0.019861068
0.019815586
0.019771765
0.019729581
0.019689013
0.019649932
0.019612396
0.019576419
0.019542023
0.019509244
0.019478126
0.019448728
0.019421111
0.01939533
0.019372248
0.019350922
0.019332044
0.019315422
0.01930085
0.019288872
0.019279633
0.019273283
0.019269977
0.019269874
0.019273135
0.019279917
0.019290377
0.019304671
0.019322911
0.01934527
0.019371852
0.019402772
0.019438131
0.019478013
0.01952248
0.019571578
0.019625334
0.019683762
0.019746815
0.01981443
0.019886519
0.019962976
0.020043679
0.020128478
0.020217024
0.019612802
0.019553491
0.019495196
0.019438621
0.019383608
0.019332852
0.019282377
0.019231655
0.019182182
0.019133895
0.019086767
0.019040709
0.018995615
0.018951503
0.018908358
0.018866183
0.018824995
0.018784819
0.018745695
0.018707674
0.018670824
0.018635235
0.018601052
0.018569104
0.018538066
0.018509154
0.018481712
0.018455979
0.018432331
0.018410922
0.018391918
0.018375483
0.018361786
0.018350998
0.018343287
0.01833882
0.018337761
0.018340271
0.018346465
0.018356543
0.018370602
0.018388764
0.01841113
0.018437783
0.018468778
0.018504137
0.018543893
0.018588045
0.018636568
0.018689419
0.018746548
0.018807834
0.018872553
0.019043654
0.01898539
0.0189283
0.018872575
0.01881805
0.01876738
0.018715711
0.018663911
0.018612914
0.018562723
0.018513154
0.018464152
0.018415676
0.018367682
0.018320145
0.018273081
0.018226498
0.018180412
0.018134853
0.018089866
0.018045507
0.018001841
0.017958928
0.017917798
0.01787739
0.017837696
0.01779992
0.01776287
0.017727284
0.017693377
0.017661318
0.017631282
0.017603443
0.017577979
0.017555072
0.0175349
0.017517644
0.017503478
0.017492574
0.017485096
0.017481196
0.017481035
0.017484737
0.01749242
0.017504182
0.017520101
0.017540236
0.017564626
0.017593296
0.017626267
0.017663589
0.018573646
0.018516777
0.018461028
0.018406385
0.01835293
0.018302657
0.018250417
0.018198249
0.018146559
0.01809502
0.018043636
0.01799239
0.017941254
0.017890211
0.01783926
0.017788411
0.017737623
0.017686895
0.017636253
0.017585736
0.017535389
0.017485298
0.01743557
0.017386373
0.017338593
0.01729058
0.017244094
0.017198044
0.017152726
0.017108625
0.017065912
0.017024762
0.016985355
0.016947876
0.016912513
0.016879456
0.016848897
0.016821026
0.016796031
0.016774097
0.016755414
0.016740123
0.01672841
0.016720414
0.016716266
0.016716079
0.016719946
0.016727946
0.016740142
0.016756586
0.016777146
0.01819473
0.018139615
0.018085254
0.018031466
0.017980902
0.017930062
0.017877589
0.017825321
0.017773064
0.017720781
0.017668403
0.017615846
0.017563054
0.017509982
0.01745658
0.017402764
0.017348598
0.017294116
0.017239352
0.017184357
0.017129221
0.017074024
0.017018797
0.016963606
0.016909626
0.016855177
0.016801562
0.016748479
0.016695388
0.016643134
0.016591896
0.01654185
0.016493178
0.01644607
0.01640072
0.016357325
0.016316088
0.016277209
0.016240892
0.016207337
0.01617674
0.016149308
0.016125182
0.016104562
0.016087597
0.016074429
0.016065183
0.016059966
0.016058883
0.016062027
0.016069257
0.017897937
0.017844583
0.017791815
0.017739784
0.017690631
0.017639447
0.017587354
0.01753514
0.017482711
0.017429974
0.017376846
0.017323255
0.017269144
0.01721447
0.017159207
0.01710335
0.017046879
0.016989803
0.016932145
0.016873936
0.016815194
0.016755951
0.016696319
0.016636363
0.016577255
0.016517907
0.016458104
0.016399409
0.016340417
0.016281764
0.016223827
0.016166787
0.01611083
0.016056152
0.016002953
0.015951426
0.015901789
0.015854255
0.015809037
0.015766349
0.0157264
0.015689396
0.015655551
0.015625014
0.015597989
0.015574634
0.015555098
0.015539516
0.01552802
0.015520739
0.015517564
0.017672677
0.017620978
0.01756937
0.017520641
0.017471693
0.017420293
0.017368675
0.017316707
0.01726428
0.017211301
0.017157689
0.017103375
0.017048304
0.016992434
0.016935738
0.016878201
0.016819818
0.016760597
0.016700562
0.016639752
0.016578226
0.01651605
0.016453296
0.016390079
0.016326603
0.016263774
0.016199734
0.016136471
0.016072867
0.016009111
0.015945841
0.015883243
0.01582151
0.015760857
0.015701503
0.015643649
0.015587497
0.015533261
0.01548116
0.015431416
0.01538425
0.015339882
0.015298522
0.015260374
0.015225608
0.015194424
0.01516699
0.01514346
0.015123989
0.015108726
0.015097613
0.017508211
0.017458222
0.017408619
0.017361564
0.017312079
0.01726143
0.017210325
0.01715865
0.017106304
0.017053198
0.016999254
0.016944409
0.016888608
0.016831813
0.016773998
0.016715148
0.016655262
0.01659435
0.016532438
0.016469565
0.016405785
0.016341165
0.016275786
0.016209739
0.016143127
0.01607717
0.016009886
0.015943044
0.015876122
0.01580861
0.015741411
0.015674709
0.01560869
0.015543526
0.015479427
0.015416638
0.015355392
0.015295919
0.01523845
0.015183215
0.015130455
0.015080403
0.015033273
0.014989319
0.014948666
0.014911542
0.014878127
0.014848592
0.014823105
0.014801834
0.014784767
0.01739382
0.017345084
0.017298798
0.017251505
0.017202063
0.017152075
0.01710143
0.017050026
0.016997767
0.01694457
0.016890363
0.016835084
0.016778686
0.016721133
0.016662399
0.016602474
0.016541359
0.016479066
0.016415623
0.01635107
0.016285461
0.016218863
0.016151354
0.016083027
0.016013979
0.015945522
0.01587582
0.015805572
0.015735955
0.015665508
0.015595118
0.015525097
0.015455646
0.015386981
0.01531931
0.015252848
0.015187825
0.015124473
0.015063027
0.01500372
0.014946769
0.014892402
0.014840867
0.01479245
0.014747289
0.014705614
0.01466763
0.01463352
0.01460347
0.014577658
0.014556111
0.017320197
0.017273165
0.017228266
0.017180528
0.017131796
0.017082344
0.017032065
0.016980861
0.016928644
0.016875337
0.016820872
0.016765194
0.016708258
0.016650031
0.016590492
0.016529634
0.016467459
0.016403984
0.016339237
0.016273261
0.016206111
0.016137853
0.016068567
0.015998344
0.015927284
0.015856725
0.015784948
0.015712257
0.015640256
0.015567451
0.015494476
0.015421782
0.015349573
0.01527806
0.015207463
0.015138005
0.015069917
0.015003436
0.014938803
0.014876259
0.014816055
0.014758425
0.014703603
0.01465183
0.014603345
0.014558304
0.014516946
0.014479456
0.014446004
0.014416782
0.014391866
0.017278035
0.017234106
0.01718827
0.017140852
0.017092669
0.01704361
0.016993577
0.016942476
0.016890225
0.016836753
0.016781996
0.016725904
0.016668437
0.016609565
0.016549273
0.016487553
0.016424414
0.016359873
0.016293963
0.016226727
0.016158221
0.016088513
0.016017684
0.015945823
0.01587303
0.01580065
0.015727126
0.015652427
0.015578379
0.015503625
0.015428486
0.015353569
0.015279077
0.015205223
0.01513223
0.015060325
0.014989746
0.014920732
0.014853528
0.014788381
0.01472554
0.01466525
0.014607754
0.014553289
0.014502129
0.014454405
0.014410371
0.014370224
0.014334163
0.014302374
0.014274944
0.017262196
0.017218272
0.017172142
0.017125242
0.017077442
0.017028631
0.016978715
0.016927606
0.016875228
0.016821513
0.016766405
0.016709857
0.016651834
0.016592309
0.016531271
0.016468716
0.016404655
0.016339109
0.016272113
0.016203711
0.016133964
0.01606294
0.015990721
0.015917394
0.01584305
0.015769021
0.015693977
0.015617527
0.015541656
0.015465241
0.015388228
0.015311397
0.015234949
0.015159099
0.015084071
0.015010099
0.014937422
0.014866284
0.014796933
0.014729622
0.014664601
0.014602121
0.01454243
0.014485769
0.014432432
0.014382539
0.014336347
0.014294069
0.014255905
0.014222078
0.0172645
0.017219924
0.017174326
0.017127793
0.017080223
0.017031518
0.016981589
0.016930357
0.016877751
0.016823708
0.016768176
0.016711114
0.016652489
0.016592281
0.01653048
0.016467086
0.016402113
0.016335585
0.01626754
0.016198024
0.016127101
0.016054843
0.015981335
0.015906668
0.015830913
0.015755259
0.015678862
0.015600864
0.015523244
0.015445371
0.015366699
0.015288167
0.015209985
0.015132371
0.015055554
0.01497977
0.014905261
0.014832276
0.014761066
0.014691888
0.014624996
0.014560645
0.014499086
0.014440564
0.014385381
0.01433367
0.014285675
0.014241623
0.014201719
0.014166147
0.017279718
0.017235432
0.017190163
0.017143829
0.017096337
0.017047599
0.016997533
0.016946065
0.016893129
0.016838669
0.016782637
0.016724996
0.016665717
0.016604783
0.016542188
0.016477935
0.016412041
0.016344533
0.01627545
0.016204844
0.01613278
0.016059335
0.015984606
0.015908707
0.015831796
0.015754159
0.015676642
0.015597424
0.015517811
0.015438661
0.015358551
0.015278465
0.015198699
0.015119479
0.015041036
0.014963612
0.014887451
0.014812806
0.014739933
0.014669089
0.014600535
0.014534527
0.014471324
0.014411179
0.014354346
0.014301065
0.014251506
0.014205922
0.014164524
0.014127484
0.017305147
0.017261112
0.017215991
0.017169697
0.01712214
0.017073239
0.017022917
0.016971106
0.016917745
0.016862783
0.016806176
0.016747891
0.016687902
0.016626197
0.016562772
0.016497633
0.016430799
0.0163623
0.016292179
0.016220489
0.016147299
0.016072691
0.015996764
0.015919634
0.015841441
0.01576233
0.01568349
0.015602957
0.015521818
0.015441268
0.015359798
0.015278249
0.015197
0.01511628
0.015036325
0.014957378
0.01487969
0.014803515
0.014729111
0.014656741
0.014586666
0.01451915
0.014454452
0.014392828
0.014334527
0.014279824
0.014228864
0.01418191
0.014139181
0.014100849
0.017338051
0.017294105
0.017248976
0.017202578
0.017154827
0.017105643
0.017054957
0.017002705
0.016948832
0.016893289
0.016836038
0.016777049
0.016716299
0.016653779
0.016589487
0.016523433
0.016455638
0.016386135
0.016314968
0.016242195
0.016167885
0.016092123
0.016015008
0.015936654
0.015857189
0.015776736
0.015696569
0.015614736
0.015532203
0.015450276
0.015367501
0.015284551
0.015201888
0.015119743
0.015038356
0.014957972
0.014878845
0.014801231
0.014725393
0.014651595
0.014580104
0.014511183
0.014445097
0.014382102
0.014322451
0.014266437
0.01421419
0.014165985
0.014122055
0.017376216
0.017332219
0.017286946
0.017240318
0.017192255
0.017142684
0.017091538
0.017038759
0.016984296
0.016928104
0.016870147
0.0168104
0.016748843
0.016685468
0.016620277
0.016553283
0.016484508
0.016413987
0.016341767
0.016267907
0.016192479
0.016115569
0.016037275
0.01595771
0.015876995
0.015795256
0.015713788
0.015630687
0.015546815
0.015463547
0.015379517
0.015295213
0.015211188
0.015127677
0.01504492
0.014963164
0.014882666
0.014803685
0.014726485
0.014651336
0.014578504
0.014508258
0.014440864
0.014376582
0.014315666
0.014258424
0.014204978
0.014155605
0.014110526
0.017417956
0.01737378
0.017328245
0.017281277
0.017232802
0.017182751
0.017131062
0.017077682
0.017022561
0.016965661
0.016906948
0.016846398
0.016783995
0.016719734
0.016653618
0.016585662
0.016515892
0.016444343
0.016371064
0.016296117
0.016219574
0.016141522
0.01606206
0.015981299
0.015899359
0.015816369
0.015733631
0.015649292
0.015564119
0.015479541
0.015394302
0.015308684
0.015223344
0.015138515
0.015054439
0.014971366
0.014889553
0.014809262
0.014730762
0.014654322
0.014580214
0.014508707
0.014440071
0.014374568
0.014312454
0.014254051
0.014199474
0.014149001
0.014102851
0.017461979
0.017417513
0.017371612
0.01732421
0.017275236
0.017224628
0.017172327
0.017118283
0.017062451
0.017004794
0.016945282
0.016883893
0.016820614
0.016755442
0.016688382
0.016619451
0.016548675
0.016476093
0.016401755
0.016325723
0.016248071
0.016168888
0.01608827
0.016006331
0.015923191
0.015838981
0.015755006
0.015669462
0.01558302
0.015497154
0.01541075
0.015323859
0.015237246
0.015151144
0.015065797
0.014981455
0.014898377
0.01481683
0.014737082
0.014659407
0.014584077
0.014511366
0.014441545
0.014374879
0.014311626
0.014252115
0.014196468
0.014144951
0.014097793
0.017507295
0.017462442
0.017416089
0.017368173
0.01731863
0.0172674
0.01721443
0.017159671
0.017103084
0.017044632
0.016984289
0.016922035
0.016857859
0.016791759
0.016723742
0.016653828
0.016582043
0.016508428
0.016433034
0.016355925
0.016277176
0.016196874
0.01611512
0.016032025
0.015947711
0.015862314
0.015777134
0.015690424
0.015602746
0.015515597
0.015428073
0.015339952
0.01525211
0.015164781
0.015078207
0.014992643
0.01490835
0.014825595
0.014744649
0.014665789
0.014589289
0.014515426
0.014444474
0.014376699
0.01431236
0.014251786
0.014195126
0.014142628
0.017553141
0.017507822
0.017460944
0.017412449
0.017362278
0.017310376
0.017256691
0.01720118
0.017143804
0.01708453
0.017023333
0.016960195
0.016895108
0.016828072
0.016759094
0.016688195
0.016615404
0.016540762
0.016464322
0.016386148
0.016306316
0.016224915
0.016142045
0.016057819
0.015972362
0.01588581
0.015799466
0.015711637
0.01562278
0.015534294
0.0154457
0.015356413
0.015267388
0.015178876
0.015091122
0.015004382
0.01491892
0.014835005
0.01475291
0.014672914
0.014595294
0.014520329
0.014448295
0.014379463
0.014314102
0.014252483
0.014194872
0.014141424
0.017598932
0.01755308
0.017505618
0.017456494
0.01740565
0.017353036
0.017298604
0.017242311
0.017184123
0.017124008
0.017061943
0.016997912
0.016931909
0.016863933
0.016793996
0.016722117
0.016648329
0.016572672
0.0164952
0.016415978
0.016335084
0.016252606
0.016168646
0.016083318
0.015996748
0.015909076
0.015821608
0.015732719
0.015642843
0.015552779
0.015463221
0.015372857
0.015282698
0.015193049
0.015104161
0.015016292
0.014929708
0.01484468
0.014761485
0.014680401
0.014601709
0.014525691
0.014452623
0.014382782
0.014316435
0.014253846
0.014195319
0.014140975
0.017644212
0.017597776
0.017549686
0.017499893
0.017448343
0.017394989
0.017339786
0.017282693
0.017223678
0.017162712
0.017099773
0.017034848
0.016967929
0.016899019
0.01682813
0.016755282
0.01668051
0.016603854
0.016525369
0.016445121
0.016363188
0.01627966
0.016194639
0.01610824
0.016020592
0.015931835
0.015843275
0.015753344
0.015662373
0.015571072
0.015480437
0.01538903
0.015297779
0.015207038
0.015117062
0.015028111
0.014940453
0.01485436
0.014770112
0.014687989
0.014608273
0.014531249
0.014457196
0.01438639
0.014319103
0.014255598
0.014196195
0.014141002
0.017688632
0.017641574
0.017592823
0.017542332
0.017490054
0.017435941
0.017379953
0.017322051
0.017262203
0.017200383
0.017136572
0.017070755
0.017002928
0.016933094
0.016861266
0.016787467
0.016711728
0.016634094
0.01655462
0.016473371
0.016390427
0.016305878
0.016219828
0.016132392
0.0160437
0.015953895
0.015864277
0.015773329
0.015681287
0.015588874
0.015497174
0.015404756
0.015312455
0.015220667
0.015129649
0.015039663
0.014950977
0.014863868
0.014778614
0.0146955
0.014614808
0.014536825
0.014461833
0.01439011
0.014321928
0.014257554
0.014197318
0.014141319
0.017731924
0.017684216
0.01763478
0.017583576
0.017530555
0.017475674
0.017418894
0.01736018
0.017299501
0.017236832
0.017172155
0.017105457
0.017036735
0.016965993
0.016893245
0.016818513
0.016741831
0.016663244
0.016582807
0.016500586
0.016416662
0.016331125
0.016244079
0.016155642
0.016065943
0.015975127
0.015884488
0.01579256
0.015699487
0.015606031
0.015513306
0.015419918
0.015326608
0.015233818
0.015141804
0.015050829
0.014961164
0.014873085
0.014786874
0.014702816
0.014621196
0.014542301
0.014466416
0.014393821
0.01432479
0.014259591
0.014198564
0.014141803
0.017773881
0.017725506
0.017675374
0.017623445
0.017569676
0.017514026
0.017456456
0.017396934
0.017335431
0.017271923
0.017206393
0.01713883
0.017069231
0.016997601
0.016923954
0.016848314
0.016770715
0.016691203
0.016609832
0.016526672
0.0164418
0.01635531
0.016267305
0.016177904
0.016087237
0.015995449
0.015903829
0.015810958
0.0157169
0.015622456
0.01552875
0.015434435
0.015340162
0.015246415
0.015153451
0.015061534
0.014970937
0.014881936
0.014794815
0.014709859
0.014627358
0.014547598
0.014470865
0.014397443
0.014327607
0.014261626
0.01419985
0.014142369
0.017814349
0.017765299
0.017714466
0.017661812
0.017607297
0.017550881
0.017492529
0.01743221
0.017369896
0.017305564
0.017239198
0.017170789
0.017100335
0.01702784
0.01695332
0.0168768
0.016798313
0.016717906
0.016635635
0.016551567
0.016465784
0.016378376
0.01628945
0.016199124
0.01610753
0.01601481
0.01592225
0.015828478
0.015733481
0.015638097
0.015543457
0.015448261
0.015353069
0.01525841
0.015164542
0.015071731
0.014980247
0.014890371
0.014802387
0.014716581
0.014633244
0.014552664
0.01447513
0.014400924
0.014330326
0.014263606
0.01420112
0.014142962
0.017853216
0.017803489
0.017751956
0.017698583
0.017643329
0.017586159
0.017527038
0.017465936
0.017402828
0.017337692
0.017270513
0.017201281
0.017129996
0.017056664
0.0169813
0.016903929
0.016824586
0.016743317
0.016660179
0.01657524
0.016488581
0.016400295
0.016310487
0.016219275
0.016126793
0.016033184
0.015939727
0.015845096
0.015749205
0.015652928
0.015557399
0.015461369
0.015365303
0.015269778
0.015175052
0.015081392
0.014989069
0.014898365
0.014809563
0.014722953
0.014638825
0.01455747
0.014479177
0.014404231
0.014332913
0.014265495
0.014202337
0.014143543
0.017890401
0.017840001
0.017787778
0.017733695
0.017677716
0.017619806
0.017559933
0.017498069
0.017434188
0.017368271
0.017300303
0.017230275
0.017158188
0.017084047
0.01700787
0.01692968
0.016849514
0.016767418
0.016683449
0.016597676
0.01651018
0.016421053
0.016330403
0.016238347
0.016145019
0.016050562
0.015956251
0.015860802
0.015764063
0.01566694
0.015570567
0.015473749
0.015376853
0.015280508
0.01518497
0.015090506
0.01499739
0.014905902
0.014816329
0.014728959
0.014644085
0.014561997
0.014482988
0.014407344
0.014335348
0.014267274
0.014203473
0.014144085
0.017925852
0.017874788
0.017821887
0.017767111
0.017710424
0.017651793
0.01759119
0.017528586
0.017463957
0.017397285
0.017328555
0.01725776
0.017184901
0.017109983
0.017033025
0.01695405
0.016873096
0.016790209
0.016705446
0.016618876
0.016530581
0.016440654
0.016349201
0.016256342
0.016162209
0.016066947
0.015971825
0.015875601
0.015778058
0.015680133
0.015582962
0.0154854
0.015387721
0.0152906
0.015194294
0.015099072
0.015005207
0.01491298
0.01482268
0.014734594
0.014649017
0.014566239
0.014486554
0.014410251
0.014337617
0.014268936
0.014204507
0.014144573
0.018103766
0.018057472
0.018009409
0.017959526
0.017907822
0.017854261
0.01779881
0.017741436
0.017682108
0.017620798
0.01755748
0.017492131
0.017424732
0.01735527
0.017283739
0.017210139
0.017134478
0.017056772
0.016977048
0.016895342
0.0168117
0.01672618
0.016638852
0.016549797
0.016459109
0.016366894
0.016273273
0.016178377
0.016082353
0.015986463
0.015889504
0.015791202
0.01569252
0.015594593
0.015496333
0.015397914
0.015300061
0.015203032
0.015107095
0.015012525
0.014919604
0.014828619
0.01473986
0.014653621
0.014570195
0.014489874
0.014412949
0.01433971
0.014270449
0.014205452
0.014144999
0.018137426
0.018090564
0.018041904
0.017991421
0.017939093
0.017884893
0.017828789
0.017770752
0.017710753
0.017648764
0.017584759
0.017518718
0.017450623
0.017380461
0.017308226
0.017233918
0.017157547
0.01707913
0.016998692
0.016916269
0.01683191
0.016745672
0.016657624
0.016567848
0.016476439
0.016383503
0.01628916
0.016193544
0.016096798
0.016000184
0.015902531
0.015803513
0.015704117
0.015605478
0.015506562
0.015407446
0.015308905
0.015211196
0.015114587
0.015019355
0.014925781
0.014834153
0.014744763
0.014657904
0.014573868
0.014492948
0.014415437
0.014341627
0.014271818
0.014206298
0.014145359
0.01816925
0.018121837
0.018072605
0.018021536
0.017968607
0.01791379
0.01785706
0.017798386
0.017737742
0.017675102
0.017610441
0.017543739
0.017474979
0.017404149
0.017331243
0.017256263
0.017179217
0.017100123
0.017019007
0.016935906
0.016850867
0.016763948
0.016675219
0.016584762
0.016492671
0.016399054
0.01630403
0.016207733
0.016110308
0.016013011
0.015914705
0.015815014
0.015714946
0.015615636
0.015516105
0.015416335
0.015317147
0.0152188
0.015121562
0.015025709
0.014931524
0.014839295
0.014749314
0.014661873
0.014577266
0.014495785
0.014417721
0.014343372
0.014273047
0.014207044
0.014145654
0.018199243
0.018151301
0.01810152
0.018049887
0.017996379
0.017940972
0.017883641
0.017824359
0.0177631
0.017699839
0.017634553
0.017567222
0.01749783
0.017426365
0.017352823
0.017277204
0.017199519
0.017119784
0.017038026
0.016954283
0.016868601
0.01678104
0.016691668
0.016600568
0.016507835
0.016413576
0.016317911
0.016220975
0.016122912
0.016024972
0.015926052
0.015825731
0.015725031
0.015625089
0.015524983
0.015424602
0.015324809
0.015225865
0.015128037
0.015031604
0.014936847
0.014844056
0.014753523
0.01466554
0.0145804
0.014498393
0.014419811
0.014344953
0.014274145
0.014207699
0.01414589
0.018227422
0.018178974
0.018128668
0.018076496
0.018022436
0.017966466
0.017908563
0.017848702
0.017786859
0.017723008
0.017657129
0.017589201
0.01751921
0.017447144
0.017373
0.017296778
0.017218488
0.017138148
0.017055786
0.016971437
0.01688515
0.016796983
0.016707006
0.016615302
0.016521965
0.016427104
0.016330837
0.0162333
0.016134639
0.016036098
0.015936602
0.015835693
0.015734401
0.015633863
0.015533221
0.015432268
0.015331911
0.015232409
0.015134032
0.015037056
0.014941766
0.014848452
0.014757404
0.014668916
0.01458328
0.014500786
0.014421721
0.014346388
0.014275132
0.01420828
0.014146076
0.018253816
0.018204886
0.018154082
0.018101396
0.018046812
0.017990308
0.017931863
0.017871454
0.017809056
0.017744648
0.017678207
0.017609716
0.01753916
0.017466527
0.017391815
0.017315024
0.017236166
0.017155257
0.017072325
0.016987407
0.016900552
0.016811816
0.016721272
0.016629001
0.016535098
0.016439672
0.016342842
0.016244744
0.016145522
0.016046419
0.015946386
0.01584493
0.015743086
0.015641981
0.015540839
0.015439358
0.015338475
0.015238454
0.015139564
0.015042084
0.014946299
0.014852497
0.014760972
0.014672016
0.014585921
0.014502976
0.014423469
0.014347703
0.018278463
0.018229076
0.0181778
0.018124629
0.018069548
0.01801254
0.017953583
0.017892656
0.017829736
0.017764802
0.017697833
0.017628812
0.017557723
0.017484558
0.017409312
0.017331987
0.017252595
0.017171152
0.017087687
0.017002236
0.016914847
0.01682558
0.016734505
0.016641704
0.016547272
0.016451318
0.016353962
0.016255339
0.016155596
0.016055969
0.015955436
0.015853476
0.015751121
0.015649465
0.015547861
0.015445895
0.015344524
0.015244021
0.015144656
0.015046708
0.014950462
0.014856209
0.01476424
0.014674851
0.014588333
0.014504977
0.014425075
0.018301406
0.01825159
0.018199868
0.01814624
0.018090693
0.018033209
0.017973771
0.017912357
0.017848947
0.017783519
0.017716054
0.017646535
0.017574947
0.017501283
0.017425537
0.017347713
0.017267821
0.017185879
0.017101914
0.017015966
0.01692808
0.016838316
0.016746745
0.01665345
0.016558525
0.016462079
0.016364233
0.016265123
0.016164895
0.016064782
0.015963786
0.015861363
0.015758551
0.015656329
0.015554311
0.015451903
0.015350081
0.015249132
0.015149327
0.015050946
0.014954274
0.014859602
0.014767225
0.014677436
0.01459053
0.014506801
0.014426544
0.018322697
0.018272477
0.018220338
0.018166281
0.018110296
0.018052367
0.017992477
0.017930608
0.017866738
0.017800848
0.01773292
0.017662935
0.017590882
0.017516751
0.017440539
0.017362249
0.01728189
0.017199483
0.017115054
0.017028641
0.016940292
0.016850067
0.016758035
0.01666428
0.016568896
0.016471994
0.016373693
0.016274131
0.016173453
0.01607289
0.015971467
0.015868625
0.015765452
0.015662559
0.01556021
0.015457405
0.01535517
0.01525381
0.015153598
0.015054816
0.014957751
0.014862694
0.014769939
0.014679783
0.01459252
0.014508453
0.014427874
0.018342387
0.018291794
0.018239264
0.018184806
0.018128412
0.018070067
0.018009756
0.017947462
0.017883164
0.017816843
0.017748483
0.017678065
0.017605578
0.017531013
0.017454367
0.017375643
0.017294852
0.017212012
0.017127152
0.017040308
0.01695153
0.016860876
0.016768416
0.016674235
0.016578427
0.016481101
0.01638238
0.016282399
0.016181306
0.016080326
0.015978511
0.015875281
0.015771741
0.015668294
0.015565596
0.015462429
0.015359814
0.015258076
0.01515749
0.015058339
0.014960912
0.014865499
0.014772398
0.014681904
0.014594315
0.014509937
0.014429062
0.018360552
0.018309593
0.018256704
0.018201874
0.018145098
0.018086367
0.018025665
0.017962975
0.017898279
0.017831559
0.017762797
0.017691977
0.017619088
0.01754412
0.017467072
0.017387947
0.017306754
0.017223514
0.017138254
0.017051012
0.016961836
0.016870786
0.016777931
0.016683356
0.016587156
0.01648944
0.016390331
0.016289964
0.016188488
0.016087125
0.015984946
0.015881356
0.015777454
0.015673552
0.015570505
0.015467
0.015364037
0.015261952
0.015161023
0.015061533
0.014963773
0.014868035
0.014774615
0.014683811
0.014595923
0.01451126
0.014430111
0.01837724
0.018325937
0.018272718
0.018217542
0.018160414
0.018101324
0.018040259
0.017977203
0.017912139
0.017845049
0.017775916
0.017704725
0.017631464
0.017556125
0.017478705
0.017399208
0.017317646
0.017234037
0.017148408
0.017060799
0.016971256
0.016879841
0.016786622
0.016691684
0.016595123
0.016497048
0.016397582
0.016296861
0.016195033
0.016093316
0.015990804
0.015886879
0.015782635
0.015678344
0.015574963
0.015471145
0.015367863
0.01526546
0.015164216
0.015064417
0.014966352
0.014870315
0.014776604
0.014685517
0.014597355
0.014512429
0.014431028
0.018392504
0.018340907
0.018287364