/*--------------------------------*- C++ -*----------------------------------*\
| =========                 |                                                 |
| \\      /  F ield         | OpenFOAM: The Open Source CFD Toolbox           |
|  \\    /   O peration     | Version:  2312                                  |
|   \\  /    A nd           | Website:  www.openfoam.com                      |
|    \\/     M anipulation  |                                                 |
\*---------------------------------------------------------------------------*/
FoamFile
{
    version     2.0;
    format      ascii;
    arch        "LSB;label=32;scalar=64";
    class       volScalarField;
    location    "0.03";
    object      CO2;
}
// * * * * * * * * * * * * * * * * * * * * * * * * * * * * * * * * * * * * * //

dimensions      [0 0 0 0 0 0 0];

internalField   nonuniform List<scalar> 
3272
(
0.0024403322
0.0024897212
0.0025376129
0.0025837721
0.002627948
0.0026700202
0.0027099553
0.0027475778
0.0027827236
0.0028152369
0.0028449701
0.0028717835
0.0028955454
0.0029161323
0.0029334295
0.0029473322
0.0029577459
0.0029645781
0.0029677645
0.0029672526
0.0029630005
0.0029549691
0.0029431393
0.0029275089
0.0029081155
0.0028849833
0.0028581565
0.0028276958
0.0027936874
0.0027562324
0.002715448
0.0026714683
0.0026244431
0.0025745368
0.0025219271
0.0024668041
0.0024093682
0.0023498291
0.0022884039
0.0022253154
0.0021607908
0.0020950596
0.0020283522
0.0019608984
0.0018929255
0.0018246571
0.0017563111
0.0016880986
0.0016202227
0.0015528768
0.0014862441
0.001420498
0.0013558007
0.0077229025
0.0078855084
0.0080438712
0.0081970404
0.008344431
0.0084847396
0.0086189324
0.0087461477
0.0088657388
0.008977193
0.0090800187
0.0091737453
0.0092579236
0.0093321275
0.0093959553
0.0094490328
0.009491017
0.0095215987
0.0095404283
0.0095473805
0.0095422593
0.0095249063
0.0094951742
0.0094530203
0.0093984329
0.0093316853
0.0092527022
0.0091616152
0.0090587094
0.0089442756
0.008818651
0.0086822415
0.0085355039
0.0083789483
0.008213133
0.0080386606
0.0078561736
0.0076663494
0.0074698946
0.0072675399
0.0070600344
0.0068481398
0.0066326247
0.006414259
0.0061938081
0.0059720276
0.0057496571
0.0055274157
0.0053059965
0.0050860629
0.0048682447
0.0046531384
0.0044413129
0.013053281
0.013333
0.013606761
0.013872314
0.014128741
0.014372995
0.014607658
0.014831757
0.015043584
0.01524228
0.015427015
0.015596982
0.015751401
0.015889521
0.016010622
0.016114025
0.01619909
0.016265228
0.016311899
0.016338439
0.016344765
0.016330499
0.016295266
0.016238843
0.016161164
0.01606223
0.01594207
0.015801589
0.015640012
0.015458225
0.015256619
0.015035838
0.014796565
0.014539597
0.01426582
0.013976204
0.013671801
0.013353731
0.013023178
0.012681378
0.012329611
0.01196919
0.011601452
0.011227747
0.010849426
0.010467835
0.010084299
0.0097001155
0.0093165428
0.0089347919
0.0085560191
0.0081813248
0.0078117823
0.018251995
0.018647821
0.019037224
0.019415968
0.019782901
0.020132682
0.020469542
0.020793885
0.021101973
0.021392653
0.021664785
0.021917247
0.022148936
0.022358777
0.022545724
0.022708776
0.022846979
0.022959446
0.02304538
0.023103526
0.023133727
0.023135465
0.023108271
0.023051386
0.022964642
0.022847901
0.022701133
0.022524464
0.022317929
0.022083579
0.021819414
0.021527423
0.021208178
0.020862757
0.020492264
0.020097961
0.019681232
0.019243578
0.018786602
0.018312004
0.017821561
0.017317115
0.016800564
0.016273839
0.015738894
0.01519769
0.014652176
0.014104273
0.01355586
0.013008759
0.01246472
0.01192542
0.011392524
0.023168229
0.023675121
0.024176019
0.024664378
0.025139037
0.025592523
0.026029166
0.026453035
0.026857438
0.027240998
0.027602305
0.027939946
0.028252516
0.02853863
0.028796927
0.029026087
0.029224834
0.029391949
0.029526279
0.029626723
0.029691644
0.029721169
0.02971434
0.029670529
0.0295887
0.029468704
0.029310301
0.0291134
0.02887802
0.02860428
0.028294744
0.027948411
0.027564827
0.027146661
0.026694769
0.026210679
0.025695991
0.025152492
0.024582121
0.023986957
0.023369206
0.022731182
0.022075292
0.021404016
0.02071989
0.020025479
0.019323357
0.018616086
0.017906193
0.017196143
0.016488327
0.015785054
0.015088636
0.027689753
0.028299824
0.028904365
0.029494703
0.030069088
0.030625148
0.031154722
0.03167323
0.032170303
0.032644051
0.033092766
0.033514752
0.03390833
0.034271829
0.034603599
0.03490202
0.035165506
0.035392518
0.035581575
0.035731258
0.035840218
0.035906552
0.035930455
0.035910721
0.035846329
0.035736215
0.03558013
0.035377755
0.03512896
0.034833823
0.034492733
0.034105708
0.033677331
0.033204472
0.032688192
0.032131534
0.031535916
0.030903347
0.030235999
0.029536227
0.028806564
0.028049708
0.027268497
0.026465894
0.025644956
0.024808813
0.023960639
0.023103618
0.022240919
0.021375663
0.020510898
0.019649588
0.018794731
0.031747052
0.032450817
0.033149043
0.033832386
0.034499834
0.035142149
0.035759743
0.036366604
0.036950249
0.037508724
0.038040145
0.038542613
0.039014221
0.039453058
0.039857224
0.040224829
0.040554008
0.040842928
0.041089806
0.041292919
0.041450609
0.041561286
0.041622731
0.041635407
0.04159786
0.041508398
0.041366189
0.041170844
0.040921971
0.040619414
0.040263266
0.039853869
0.03939208
0.038877843
0.038318115
0.037707006
0.037048012
0.036344119
0.035597558
0.034810821
0.033986674
0.033128088
0.032238242
0.031320491
0.030378342
0.029415421
0.028435441
0.027442169
0.026439385
0.025430842
0.024420237
0.023411193
0.022407393
0.035311334
0.036098242
0.036878708
0.037644243
0.038393527
0.039109562
0.039806861
0.040493454
0.041155466
0.041791036
0.042398194
0.042974901
0.043519081
0.044028631
0.044501437
0.044935377
0.045328341
0.045678238
0.045983019
0.046240692
0.046449347
0.046607209
0.046710868
0.046761256
0.046756448
0.04669541
0.046575664
0.046396947
0.046158586
0.04586015
0.04550147
0.045082658
0.044604149
0.044066655
0.043471625
0.04281889
0.042118197
0.041360165
0.040551869
0.039695723
0.038794782
0.037852138
0.036871213
0.03585567
0.034809378
0.03373638
0.03264086
0.0315271
0.030399435
0.029262211
0.028119746
0.026976312
0.025836278
0.038388502
0.039247289
0.040097519
0.040932717
0.041751261
0.042532507
0.043300285
0.044055744
0.044786249
0.045489749
0.046164127
0.04680721
0.047416774
0.047990555
0.048526254
0.049021556
0.049474138
0.049881688
0.050241914
0.050552567
0.050811449
0.051016412
0.051165291
0.051254874
0.051286367
0.051257363
0.051166011
0.051010386
0.050790035
0.050504227
0.050152505
0.049734709
0.049250994
0.048701857
0.048088165
0.047410914
0.046671266
0.045875016
0.045025734
0.044115758
0.043154689
0.042144808
0.041089746
0.039993417
0.038859974
0.037693795
0.036499453
0.035281675
0.034045284
0.032795151
0.031536161
0.030273253
0.029011903
0.041011175
0.041930713
0.042838655
0.043731407
0.044607169
0.045443264
0.046272422
0.047086166
0.04787502
0.048636772
0.049369182
0.050069961
0.050736759
0.051367177
0.051958767
0.052509051
0.05301553
0.053475699
0.053887067
0.054247169
0.05455359
0.054803997
0.054996207
0.055125646
0.055193878
0.055198438
0.055137983
0.055009192
0.054811398
0.054543738
0.054205464
0.053796128
0.053315607
0.052764126
0.052142273
0.051450991
0.050691597
0.049865925
0.048975668
0.048034016
0.04702923
0.045967054
0.044853124
0.043691569
0.042486752
0.041243307
0.039966124
0.038660298
0.037331064
0.035983725
0.034623574
0.043231361
0.0441995
0.045154351
0.046093552
0.047013376
0.047895104
0.048776501
0.049638591
0.050476029
0.051286541
0.052067821
0.052817494
0.053533116
0.054212177
0.05485211
0.055450303
0.056004111
0.056510874
0.05696793
0.057372628
0.057722347
0.058014505
0.058246548
0.05841584
0.058518504
0.0585564
0.058526283
0.05842593
0.058252723
0.058006133
0.057685123
0.057288963
0.056817253
0.056269945
0.055647364
0.054950224
0.054179623
0.053337057
0.052424423
0.051444165
0.050410985
0.049314521
0.048154762
0.046941481
0.045679181
0.044372681
0.043027123
0.041647909
0.040240636
0.038811047
0.037365103
0.045109947
0.046114629
0.047106957
0.048085898
0.049026005
0.049953404
0.050877131
0.051778512
0.052655506
0.05350591
0.054327403
0.055117562
0.055873874
0.056593747
0.05727452
0.057913475
0.058507853
0.059054863
0.0595517
0.059995561
0.060383662
0.06071326
0.060981678
0.061186345
0.061321673
0.061390731
0.061389609
0.061317047
0.061168689
0.060944099
0.06064206
0.060261581
0.059801995
0.059262994
0.058644647
0.057947428
0.057172224
0.056320348
0.055393562
0.054394171
0.05332524
0.052203496
0.051016096
0.049762372
0.048454335
0.047096949
0.045695556
0.044255811
0.0427836
0.041284991
0.039766342
0.04670429
0.047736563
0.048756163
0.049758969
0.050722695
0.051688639
0.052642493
0.053574661
0.054483009
0.055365297
0.056219173
0.057042171
0.057831725
0.058585179
0.059299798
0.059972779
0.060601266
0.061182361
0.061713144
0.062190684
0.062612065
0.062974403
0.063274903
0.063510952
0.063676271
0.063773313
0.063799465
0.063752203
0.063628096
0.063425075
0.06314225
0.062778375
0.062332535
0.061804171
0.061193112
0.060499597
0.059724298
0.058868345
0.057933357
0.056921531
0.05583579
0.054679903
0.053472019
0.05219368
0.050849633
0.049451476
0.048004765
0.04651538
0.044989447
0.043433298
0.041853562
0.048071416
0.049124105
0.050167031
0.051171433
0.052163458
0.053159356
0.054136187
0.055091991
0.056024646
0.056931896
0.05781136
0.058660535
0.059476812
0.06025748
0.060999742
0.061700728
0.062357501
0.062967078
0.063526441
0.064032552
0.064482373
0.064872873
0.065201041
0.065463865
0.065658125
0.065779215
0.065829894
0.065805604
0.065704097
0.065521532
0.065257329
0.064910021
0.064478464
0.063961871
0.063359841
0.062672387
0.061899972
0.061043531
0.060104512
0.059084942
0.057987538
0.056815855
0.055574524
0.054284925
0.052914707
0.05148392
0.050000461
0.048470421
0.046900112
0.04529607
0.043665125
0.049259104
0.050324293
0.051375779
0.052389167
0.053409147
0.054420961
0.055414601
0.056388026
0.057339079
0.058265474
0.0591648
0.060034522
0.060871992
0.061674456
0.062439068
0.063162898
0.063842946
0.064476156
0.06505943
0.065589639
0.066063644
0.06647831
0.066830519
0.067117201
0.067335382
0.067478653
0.067551226
0.067547761
0.067466922
0.06730345
0.067056882
0.066725595
0.066308245
0.065803834
0.065211748
0.064531791
0.063764214
0.062909751
0.061969648
0.060945691
0.059840224
0.058656098
0.057396443
0.056088948
0.054703721
0.053246324
0.051732912
0.05016949
0.048562437
0.046918429
0.045244444
0.05030911
0.05138546
0.052424325
0.0534584
0.054496535
0.055519342
0.056524852
0.057511001
0.058475609
0.059416365
0.060330833
0.061216451
0.062070538
0.062890307
0.063672867
0.064415243
0.065114379
0.065767159
0.066370414
0.066920943
0.067415527
0.067850944
0.068223995
0.068531533
0.068770502
0.068933542
0.069025592
0.069041279
0.068978831
0.068833356
0.068603308
0.068287303
0.067883798
0.067391601
0.066809899
0.066138296
0.065376849
0.064526097
0.063587091
0.062561409
0.061451137
0.060258733
0.058986512
0.05766073
0.056266795
0.054788226
0.05325052
0.051659634
0.050022013
0.04834446
0.046634073
0.051250559
0.052325077
0.05336433
0.054417198
0.055461521
0.056491361
0.057504772
0.058499691
0.059473929
0.060425161
0.061350933
0.062248661
0.063115639
0.063949048
0.064745965
0.065503371
0.066218166
0.066887181
0.067507189
0.068074925
0.0685871
0.069040421
0.069431615
0.069757451
0.07001477
0.070195464
0.070304904
0.070338135
0.070292362
0.070163652
0.069949132
0.069647681
0.069257585
0.068777472
0.068206348
0.067543632
0.066789195
0.065943397
0.065007119
0.063981799
0.062869477
0.061672903
0.060395926
0.059045122
0.057644304
0.056153441
0.054596073
0.052982465
0.051319216
0.049613256
0.047871785
0.052113368
0.053166378
0.054225499
0.055284641
0.056331951
0.057365616
0.058383721
0.059384217
0.060364915
0.061323485
0.062257459
0.063164237
0.064041091
0.064885179
0.065693544
0.066463135
0.067190811
0.067873356
0.068507492
0.069089898
0.069617225
0.070086114
0.070493222
0.070835248
0.071108952
0.071305572
0.071430644
0.071479959
0.071449538
0.071336466
0.071136587
0.070849018
0.070471891
0.070003669
0.069443187
0.068789692
0.068042878
0.067202931
0.066270565
0.065247057
0.064134292
0.062934824
0.061651938
0.06028953
0.058878437
0.057378811
0.055805086
0.054172406
0.052487421
0.050757138
0.048988804
0.052894971
0.053954088
0.055022425
0.056081165
0.05712882
0.058163679
0.059183865
0.060187345
0.061171937
0.062135306
0.063074975
0.063988332
0.06487263
0.065725003
0.06654247
0.067321946
0.068060254
0.068754138
0.069400273
0.069995288
0.070535775
0.071018314
0.071439499
0.071795966
0.072084447
0.072295686
0.072434912
0.072499061
0.07248289
0.072384469
0.072198456
0.071924165
0.071559588
0.071103035
0.07055318
0.069909105
0.069170338
0.068336895
0.06740932
0.066388717
0.065276782
0.064075823
0.06278873
0.061418792
0.059998163
0.058492681
0.056905189
0.055256338
0.053552733
0.051801418
0.053632774
0.054701719
0.055766013
0.056821858
0.057867582
0.058901441
0.059921558
0.060925907
0.061912303
0.06287841
0.063821743
0.064739675
0.065629444
0.066488163
0.067312826
0.068100321
0.068847435
0.069550874
0.070207272
0.070813207
0.071365216
0.071859818
0.072293531
0.072662918
0.072964732
0.073189985
0.073342058
0.073419886
0.073417025
0.073332332
0.07315954
0.072897973
0.072545543
0.072100416
0.071561115
0.070926562
0.070196126
0.06936966
0.068447544
0.067430719
0.066320714
0.065119672
0.063830285
0.062455304
0.061024095
0.059515758
0.057916956
0.056254398
0.054534719
0.05276496
0.054343291
0.055407642
0.056466244
0.057517353
0.058559311
0.059590371
0.060608656
0.061612138
0.062598631
0.063565793
0.064511129
0.065432001
0.066325631
0.067189112
0.068019415
0.068813399
0.069567821
0.07027935
0.070944578
0.071560035
0.072122206
0.072627538
0.073072453
0.073453322
0.073766354
0.074007187
0.074170343
0.074260584
0.074270335
0.074198289
0.074038278
0.073788897
0.073448217
0.073014254
0.072485381
0.071860371
0.071138437
0.070319277
0.06940312
0.068390759
0.067283607
0.066083784
0.064794338
0.063419872
0.061968351
0.06046206
0.058855485
0.057181342
0.055447706
0.053661683
0.055022252
0.056078762
0.057130251
0.058175143
0.059211845
0.060238633
0.061253637
0.062254827
0.063240013
0.064206846
0.065152822
0.066075289
0.066971455
0.067838393
0.06867305
0.069472257
0.070232743
0.070951141
0.071624002
0.072247812
0.072819002
0.073333958
0.07378903
0.074180525
0.074504707
0.074757948
0.074932453
0.075034409
0.075056163
0.074995915
0.074848148
0.074610481
0.074281165
0.073858082
0.073339467
0.072723947
0.072010589
0.071198942
0.070289088
0.069281684
0.068178023
0.066980117
0.065690858
0.064314179
0.062854506
0.061343646
0.059732109
0.05804793
0.056302031
0.054501511
0.055672615
0.056719923
0.057763034
0.058800466
0.059830684
0.06085199
0.061862519
0.06286024
0.06384296
0.064808322
0.06575381
0.066676761
0.067574363
0.068443671
0.069281608
0.070084981
0.070850485
0.071574721
0.072254203
0.072885371
0.073464608
0.073988248
0.07445259
0.074853911
0.075188507
0.07545282
0.075638086
0.075751111
0.075784248
0.075735162
0.075599084
0.075372663
0.07505432
0.07464181
0.074133237
0.07352709
0.072822295
0.072018259
0.071114921
0.070112797
0.069013039
0.067817496
0.066528791
0.065150317
0.063685857
0.062170003
0.060554929
0.058861894
0.057105115
0.056297478
0.057334383
0.058368022
0.059396951
0.060419667
0.061434488
0.062439556
0.063432838
0.064412134
0.065375078
0.066319143
0.06724165
0.068139771
0.069010538
0.069850853
0.070657494
0.071427129
0.072156324
0.072841556
0.073479225
0.074065669
0.074597175
0.07507
0.075480393
0.075824634
0.076099115
0.076294467
0.076417915
0.076461838
0.076423343
0.076298417
0.076082776
0.075775
0.07537273
0.074873942
0.074276995
0.073580678
0.072784262
0.071887543
0.070890896
0.06979532
0.068602484
0.06731476
0.065935196
0.064467389
0.06294697
0.061329673
0.059628687
0.057862027
0.056898762
0.057924281
0.058947535
0.059967091
0.06098146
0.061988971
0.062987765
0.063975806
0.064950887
0.065910629
0.066852494
0.067773784
0.068671654
0.069543114
0.070385041
0.071194187
0.071967191
0.072700585
0.073390812
0.074034232
0.074627142
0.075165787
0.075646385
0.076065148
0.07641832
0.076702221
0.07690701
0.077040246
0.077094377
0.077065931
0.076951629
0.0767463
0.076448676
0.076056287
0.07556699
0.07497902
0.074291037
0.073502178
0.072612101
0.07162104
0.070529845
0.069340014
0.068053701
0.066673681
0.065203302
0.063678546
0.06206033
0.060352185
0.058576618
0.057477661
0.058491002
0.059503124
0.060512591
0.061517923
0.062517448
0.063509304
0.064491448
0.065461663
0.066417557
0.067356577
0.068276006
0.069172979
0.070044484
0.070887373
0.07169837
0.072474085
0.073211018
0.073905576
0.074554085
0.075152801
0.07569793
0.07618565
0.076612133
0.076973576
0.077266233
0.077479849
0.077622261
0.077686036
0.077667111
0.077562911
0.077367425
0.077079526
0.076696638
0.076216508
0.075637252
0.074957408
0.074175984
0.073292507
0.072307078
0.071220407
0.070033849
0.068749386
0.067369537
0.065897144
0.06436751
0.062749638
0.061035161
0.059251604
0.058034896
0.059035432
0.060035822
0.061034628
0.062030366
0.063021361
0.064005743
0.064981461
0.065946282
0.0668978
0.067833444
0.068750478
0.069646014
0.070517017
0.071360314
0.072172601
0.072950457
0.073690351
0.074388656
0.075041663
0.075645591
0.076196608
0.076690851
0.077124451
0.077493557
0.077794359
0.078016226
0.078167223
0.078240095
0.078230179
0.078135553
0.077949453
0.07767084
0.077297055
0.076825741
0.076254905
0.075582964
0.074808806
0.073931835
0.072952025
0.07186997
0.070686913
0.069404752
0.0680259
0.066552591
0.065015485
0.063399219
0.061679755
0.058570888
0.059558131
0.060546325
0.061534022
0.062519733
0.063501773
0.064478262
0.065447134
0.06640614
0.067352858
0.068284695
0.069198895
0.070092547
0.070962589
0.071805823
0.072618917
0.073398419
0.074140768
0.074842303
0.075499279
0.076107881
0.076664242
0.077164456
0.077604614
0.077980814
0.078289192
0.078518765
0.078677781
0.078759215
0.078757825
0.078672206
0.07849508
0.078225296
0.077860202
0.077397336
0.076834597
0.076170292
0.075403193
0.074532586
0.073558331
0.072480914
0.071301502
0.070022013
0.068645246
0.067175487
0.06562204
0.064009262
0.062287847
0.059085868
0.060059461
0.061035114
0.062011371
0.062986732
0.0639595
0.064927779
0.065889486
0.066842354
0.067783939
0.068711627
0.069622638
0.070514036
0.071382736
0.072225509
0.073038996
0.073819716
0.074564075
0.07526838
0.075928853
0.076541643
0.077102847
0.077608523
0.078054716
0.07843748
0.078752897
0.078989659
0.07915615
0.079245613
0.079252375
0.079175087
0.079006557
0.078745149
0.078388326
0.077933526
0.077378545
0.076721584
0.075961304
0.075096882
0.074128065
0.073055236
0.071879471
0.070602625
0.069227445
0.067757771
0.066198527
0.064584055
0.062861316
0.059579967
0.060539665
0.061502545
0.062467137
0.063431928
0.064395204
0.06535505
0.066309363
0.067255853
0.068192054
0.069115329
0.070022871
0.07091172
0.071778762
0.072620742
0.073434271
0.074215837
0.074961817
0.075668484
0.076332029
0.076948565
0.077514154
0.07802482
0.078476564
0.078865396
0.079187347
0.079430807
0.079604257
0.079701252
0.079715749
0.079646197
0.079485824
0.079232359
0.07888339
0.078436268
0.077888691
0.077238763
0.07648504
0.075626591
0.074663059
0.073594714
0.072422529
0.071148236
0.069774401
0.068304444
0.066742403
0.065125404
0.063401713
0.060053267
0.060998933
0.061948908
0.062901706
0.0638558
0.064809453
0.065760728
0.066707498
0.06764745
0.068578091
0.069496758
0.070400619
0.071286685
0.072151815
0.072992726
0.073805999
0.074588093
0.075335353
0.076044022
0.076710257
0.077330139
0.077899695
0.078414913
0.078871756
0.07926619
0.079594202
0.079843896
0.080023817
0.080127867
0.080149637
0.080087327
0.079934648
0.07968869
0.079347159
0.078907322
0.07836679
0.077723571
0.076976124
0.076123417
0.075164985
0.074100994
0.072932296
0.071660489
0.070287955
0.068817854
0.067254029
0.065634512
0.063910356
0.060505843
0.061437434
0.062374465
0.063315431
0.064258785
0.065202766
0.066145411
0.067084563
0.068017885
0.068942855
0.069856782
0.070756808
0.071639915
0.072502934
0.073342551
0.07415532
0.074937669
0.075685914
0.076396265
0.077064849
0.077687714
0.078260854
0.07878022
0.079241743
0.079641344
0.079974967
0.080230456
0.080416386
0.080527032
0.080555618
0.080500091
0.080354645
0.080115764
0.079781256
0.079348312
0.078814461
0.078177621
0.077436158
0.076588944
0.075635414
0.074575626
0.073410318
0.072140954
0.070769751
0.069299681
0.06773448
0.066112532
0.064388454
0.060937787
0.061855351
0.06277948
0.063708658
0.064641309
0.065575643
0.066509665
0.067441191
0.068367853
0.0692871
0.070196213
0.071092304
0.071972326
0.072833081
0.073671227
0.074483287
0.075265661
0.076014634
0.076726387
0.077397014
0.078022534
0.078598907
0.079122051
0.079587862
0.079992224
0.080331037
0.080591904
0.080783406
0.080900207
0.080935163
0.080885984
0.080747322
0.080515094
0.080187202
0.079760763
0.079233228
0.078602433
0.077866657
0.077024679
0.076075839
0.075020096
0.073858078
0.072591128
0.071221315
0.069751433
0.06818504
0.066560615
0.064837141
0.061349223
0.062252887
0.063164235
0.064081743
0.065003798
0.065928576
0.066854048
0.067777998
0.068698026
0.069611552
0.070515825
0.071407927
0.072284784
0.073143166
0.073979703
0.07479089
0.075573096
0.076322577
0.077035485
0.077707884
0.078335762
0.078915049
0.079441629
0.079911364
0.080320106
0.080663715
0.080929567
0.081126228
0.08124876
0.081289661
0.081246411
0.0811141
0.080888112
0.080566435
0.080146118
0.07962454
0.078999457
0.078269066
0.077432061
0.076487694
0.075435829
0.074277
0.073012444
0.071644104
0.070174588
0.068607117
0.06697986
0.065257468
0.061740307
0.062630277
0.063529037
0.064435062
0.065346695
0.066262068
0.067179119
0.068095595
0.069009064
0.069916915
0.070816366
0.07170447
0.072578119
0.073434058
0.074268887
0.07507907
0.075860948
0.07661075
0.077324598
0.077998527
0.078628497
0.079210406
0.079740108
0.080213433
0.0806262
0.080974231
0.081244698
0.08144613
0.08157399
0.081620425
0.081582705
0.081456328
0.081236179
0.080920328
0.080505759
0.079989782
0.07937008
0.078644775
0.077812479
0.076872361
0.075824204
0.074668457
0.073406276
0.072039521
0.070570646
0.06900235
0.067371222
0.065650332
0.062111217
0.062987781
0.063874223
0.064769022
0.065670464
0.066576638
0.067485443
0.068394593
0.069301622
0.070203886
0.071098572
0.071982701
0.072853138
0.073706597
0.074539647
0.075348727
0.07613015
0.076880114
0.077594716
0.078269962
0.078901783
0.079486049
0.080018586
0.080495189
0.080911649
0.081263756
0.081538489
0.081744326
0.08187713
0.081928711
0.081896138
0.081775293
0.081560597
0.081250195
0.080841009
0.080330286
0.079715641
0.078995123
0.078167272
0.077231178
0.07618655
0.075033767
0.073773932
0.072408885
0.070941104
0.069372952
0.067735256
0.066016352
0.062462142
0.063325678
0.064200169
0.06508406
0.065975593
0.066872818
0.067773597
0.068675609
0.069576353
0.070473153
0.071363163
0.072243376
0.073110624
0.073961594
0.074792827
0.075600733
0.076381597
0.077131592
0.077846787
0.078523161
0.079156619
0.079743002
0.080278107
0.080757703
0.081177548
0.081533405
0.081812075
0.082021974
0.08215936
0.082215715
0.082187925
0.082072228
0.081862614
0.081557296
0.081153141
0.080647334
0.080037429
0.079321405
0.078497735
0.077565438
0.076524154
0.075374201
0.074116644
0.072753365
0.071287207
0.069722687
0.068071441
0.066356013
0.06032495
0.061132835
0.061955903
0.062793428
0.063644368
0.064507307
0.06538065
0.066262598
0.067151163
0.068044172
0.068939266
0.069833912
0.070725399
0.071610852
0.072487232
0.073351342
0.07419984
0.07502924
0.075835924
0.076616153
0.07736607
0.07808172
0.078759057
0.079393958
0.07998224
0.080519672
0.081001996
0.081424941
0.081784244
0.082066543
0.082280183
0.082421806
0.082482585
0.082459232
0.082348315
0.082143427
0.081842844
0.081443379
0.080942161
0.080336685
0.07962487
0.078805121
0.077876394
0.076838261
0.075690984
0.074435584
0.07307394
0.071608956
0.070044957
0.068388206
0.066672344
0.060679756
0.061472185
0.062281076
0.063105479
0.063944295
0.064796112
0.065659298
0.066532017
0.067412243
0.068297766
0.069186192
0.070074952
0.070961305
0.071842342
0.072714996
0.07357604
0.074422105
0.075249678
0.076055115
0.07683465
0.077584402
0.07830039
0.078978545
0.079614718
0.080204701
0.080744238
0.081229046
0.081654827
0.082017291
0.082302931
0.082520012
0.082665548
0.082730417
0.082711171
0.082604686
0.082404185
0.082108
0.081712898
0.081215955
0.080614609
0.079906723
0.079090641
0.078165257
0.077130081
0.075985314
0.074731922
0.073371733
0.071907565
0.070343372
0.068683939
0.066966712
0.061014299
0.061791823
0.062587006
0.063398765
0.064225941
0.065067089
0.065920537
0.06678441
0.067656644
0.06853499
0.069417018
0.070300127
0.071181543
0.072058327
0.07292738
0.07378545
0.07462914
0.07545491
0.076259091
0.077037892
0.077787409
0.078503638
0.079182483
0.079819775
0.080411281
0.080952722
0.08143979
0.081868161
0.08223352
0.082522231
0.082742475
0.082891616
0.082960261
0.082944812
0.082842426
0.082645989
0.082353883
0.08196283
0.081469857
0.080872354
0.080168126
0.079355463
0.0784332
0.077400787
0.076258362
0.075006825
0.073647925
0.072184362
0.070619859
0.06895885
0.067240128
0.061328916
0.06209214
0.062874147
0.063673778
0.064489816
0.065320771
0.066164923
0.067020356
0.067884964
0.06875646
0.069632381
0.07051009
0.071386783
0.07225949
0.073125084
0.073980287
0.074821673
0.075645679
0.076448612
0.077226656
0.077975885
0.078692271
0.079371698
0.080009973
0.080602841
0.081146001
0.081635121
0.082065855
0.082433864
0.082725395
0.08294854
0.083100994
0.083173121
0.083161174
0.083062573
0.082869894
0.082581563
0.082194259
0.081704967
0.081111027
0.080410198
0.079600713
0.078681355
0.077651515
0.076511267
0.075261441
0.073903691
0.072440598
0.070875788
0.069213711
0.067493575
0.061624028
0.062373586
0.063142986
0.063931034
0.064736458
0.065557713
0.06639303
0.067240444
0.068097809
0.068962798
0.069832914
0.070705488
0.071577684
0.072446503
0.073308793
0.074161246
0.075000414
0.075822708
0.076624413
0.07740169
0.078150592
0.078867068
0.079546981
0.080186118
0.080780203
0.081324914
0.081815896
0.082248783
0.082619214
0.082913329
0.083139135
0.083294625
0.083369956
0.083361234
0.083266119
0.083076912
0.082792064
0.082408223
0.081922334
0.081331693
0.080634011
0.079827475
0.078910812
0.07788336
0.076745135
0.075496889
0.074140179
0.072677443
0.071112311
0.069449474
0.067728029
0.061900119
0.062636658
0.063394041
0.064171071
0.064966425
0.065778492
0.066605448
0.067445278
0.068295792
0.069154628
0.070019252
0.070886964
0.071754898
0.072620029
0.073479176
0.074329008
0.075166052
0.075986698
0.076787205
0.077563717
0.078312263
0.079028774
0.079709092
0.080348984
0.080944155
0.081490263
0.081982933
0.08241778
0.08279042
0.083086899
0.08331514
0.083473409
0.083551683
0.083545924
0.08345401
0.083268011
0.082986367
0.082605718
0.082122968
0.081535372
0.080840598
0.080036786
0.079122618
0.07809738
0.07696103
0.075714254
0.074358504
0.072896008
0.062157743
0.062881896
0.063627858
0.064394453
0.065180294
0.065983698
0.066802778
0.067635466
0.068479531
0.069332572
0.070192022
0.071055151
0.071919065
0.072780712
0.073636886
0.074484233
0.075319256
0.076138322
0.076937674
0.07771343
0.078461603
0.079178104
0.079858757
0.080499311
0.08109545
0.081642815
0.082137014
0.08257364
0.082948292
0.083246931
0.083477395
0.083638205
0.083719175
0.083716135
0.083627148
0.083444115
0.08316541
0.082787694
0.082307831
0.081723039
0.081030944
0.080229645
0.07931778
0.078294587
0.077159976
0.07591458
0.074559764
0.062397533
0.063109873
0.063845007
0.064601763
0.06537866
0.066173934
0.066985627
0.067811622
0.068649641
0.069497249
0.070351847
0.071210676
0.072070814
0.072929186
0.07378256
0.074627561
0.075460671
0.076278236
0.077076477
0.077851498
0.078599289
0.079315746
0.079996675
0.080637805
0.081234807
0.081783303
0.082278882
0.082717122
0.083093605
0.083394212
0.083626702
0.083789832
0.083873264
0.083872718
0.083786402
0.083606097
0.083330085
0.082955058
0.082477845
0.081895626
0.081205993
0.080407005
0.079497258
0.07847595
0.077342951
0.076098861
0.074745055
0.062620217
0.063321168
0.064046074
0.064793597
0.06556213
0.06634981
0.067154611
0.067974359
0.068806737
0.069649273
0.07049934
0.07135415
0.072210759
0.073066064
0.073916815
0.074759614
0.075590921
0.076407067
0.077204252
0.077978561
0.07872597
0.079442356
0.080123509
0.080765144
0.081362913
0.081912423
0.082409249
0.08284895
0.083227093
0.083529491
0.083763824
0.083929066
0.08401474
0.084016492
0.083932593
0.083754788
0.08348124
0.083108673
0.082633885
0.082054024
0.081366646
0.080569775
0.079661971
0.078642396
0.077510882
0.076268016
0.074915131
0.062830185
0.063516329
0.06423166
0.064970569
0.065731319
0.066511943
0.067310342
0.068124288
0.068951425
0.069789249
0.070635103
0.071486175
0.072339498
0.073191947
0.07404025
0.074880991
0.075710611
0.076525421
0.077321607
0.078095235
0.078842267
0.079558562
0.080239897
0.080881971
0.081480422
0.082030841
0.08252879
0.082969811
0.083349457
0.083653481
0.083889488
0.084056648
0.08414436
0.084148226
0.0840665
0.083890985
0.083619685
0.083249363
0.082776788
0.082199079
0.08151376
0.080718825
0.079812797
0.078794806
0.077664654
0.076422907
0.075070849
0.063028975
0.063697207
0.064402387
0.065133299
0.065886848
0.066660951
0.067453433
0.068262017
0.069084307
0.06991777
0.070759725
0.071607336
0.072457613
0.073307413
0.074153444
0.074992271
0.075820318
0.076633881
0.077429127
0.078202109
0.078948772
0.079664964
0.080346445
0.080988901
0.081587957
0.08213919
0.082638147
0.083080358
0.083461363
0.083766863
0.084004384
0.084173283
0.084262845
0.08426864
0.084188872
0.084015442
0.083746189
0.08337791
0.082907349
0.082331599
0.081648155
0.080854981
0.079950572
0.078934024
0.077805112
0.076564377
0.075213055
0.06320705
0.063868111
0.064558779
0.065282417
0.066029343
0.066797451
0.067584492
0.068388143
0.069205973
0.070035421
0.070873783
0.071718202
0.07256567
0.073413025
0.074256956
0.075094012
0.075920602
0.076733004
0.077527372
0.078299745
0.079046055
0.079762134
0.080443731
0.08108652
0.081686112
0.082238072
0.082737933
0.083181213
0.08356344
0.083870283
0.084109168
0.084279638
0.084370875
0.084378421
0.08430042
0.08412888
0.083861484
0.083495057
0.083026323
0.08245235
0.081770608