/*--------------------------------*- C++ -*----------------------------------*\
| =========                 |                                                 |
| \\      /  F ield         | OpenFOAM: The Open Source CFD Toolbox           |
|  \\    /   O peration     | Version:  2312                                  |
|   \\  /    A nd           | Website:  www.openfoam.com                      |
|    \\/     M anipulation  |                                                 |
\*---------------------------------------------------------------------------*/
FoamFile
{
    version     2.0;
    format      ascii;
    arch        "LSB;label=32;scalar=64";
    class       volScalarField;
    location    "0.03";
    object      H2O;
}
// * * * * * * * * * * * * * * * * * * * * * * * * * * * * * * * * * * * * * //

dimensions      [0 0 0 0 0 0 0];

internalField   nonuniform List<scalar> 
3272
(
0.0019978785
0.0020383128
0.0020775214
0.0021153115
0.0021514779
0.0021859221
0.0022186166
0.0022494178
0.0022781913
0.0023048097
0.002329152
0.0023511039
0.0023705575
0.0023874119
0.002401573
0.0024129549
0.0024214805
0.002427074
0.0024296827
0.0024292636
0.0024257825
0.0024192072
0.0024095223
0.0023967258
0.0023808486
0.0023619105
0.0023399476
0.0023150097
0.0022871673
0.0022565033
0.0022231134
0.0021871076
0.0021486085
0.0021077506
0.0020646796
0.0020195508
0.0019725286
0.0019237844
0.0018734961
0.0018218462
0.0017690204
0.0017152068
0.0016605941
0.0016053703
0.0015497215
0.0014938307
0.0014378764
0.0013820315
0.0013264621
0.0012713266
0.001216775
0.0011629492
0.0011099821
0.0063226724
0.0064557964
0.0065854466
0.0067108449
0.0068315123
0.0069463817
0.0070562442
0.0071603942
0.0072583024
0.007349549
0.0074337315
0.0075104646
0.0075793807
0.0076401307
0.007692386
0.00773584
0.0077702121
0.0077952492
0.0078106648
0.0078163565
0.0078121638
0.0077979571
0.0077736157
0.0077391046
0.0076944144
0.0076397687
0.0075751059
0.0075005338
0.0074162857
0.0073225997
0.007219752
0.0071080748
0.006987942
0.0068597713
0.0067240197
0.0065811807
0.0064317802
0.0062763728
0.006115537
0.005949871
0.0057799881
0.0056065118
0.0054300715
0.0052512974
0.0050708163
0.0048892465
0.0047071937
0.0045252466
0.0043439727
0.0041639149
0.0039855892
0.0038094835
0.0036360638
0.010686606
0.01091561
0.011139735
0.011357142
0.011567076
0.011767045
0.011959161
0.012142629
0.01231605
0.012478721
0.012629962
0.012769112
0.012895534
0.013008611
0.013107756
0.01319241
0.013262052
0.013316199
0.013354409
0.013376136
0.013381315
0.013369636
0.013340791
0.013294598
0.013231003
0.013150006
0.013051632
0.012936622
0.01280434
0.012655513
0.012490459
0.012309709
0.012113818
0.01190344
0.011679301
0.011442196
0.011192983
0.010932582
0.010661961
0.010382133
0.010094144
0.0097990708
0.0094980069
0.0091920575
0.0088823298
0.0085699244
0.0082559269
0.0079413993
0.0076273717
0.0073148355
0.0070047376
0.0066979787
0.0063954375
0.014942747
0.015266807
0.015585608
0.015895682
0.016196087
0.01648245
0.016758234
0.017023771
0.017276
0.017513977
0.017736769
0.017943457
0.018133139
0.018304934
0.018457986
0.018591475
0.018704621
0.018796696
0.01886705
0.018914653
0.018939379
0.018940802
0.018918538
0.018871967
0.018800951
0.018705376
0.018585218
0.018440581
0.018271492
0.018079632
0.017863362
0.017624312
0.017362949
0.017080156
0.016776837
0.016454024
0.016112852
0.015754548
0.015380426
0.014991877
0.014590355
0.01417737
0.013754474
0.013323249
0.012885294
0.012442215
0.011995607
0.011547044
0.011098064
0.010650157
0.010204756
0.0097632365
0.0093269589
0.018967625
0.019382613
0.019792694
0.020192509
0.020581108
0.020952373
0.021309849
0.021656867
0.021987948
0.022301965
0.022597764
0.022874188
0.023130086
0.023364325
0.023575791
0.023763403
0.023926115
0.02406293
0.024172905
0.024255138
0.024308288
0.02433246
0.024326869
0.024291002
0.024224009
0.024125769
0.023996085
0.023834885
0.023642181
0.023418073
0.023164658
0.022881118
0.022567082
0.022224733
0.021854773
0.021458453
0.021037082
0.020592124
0.020125166
0.019637911
0.019132164
0.018609819
0.018072847
0.01752328
0.016963192
0.016394683
0.015819862
0.015240826
0.014659642
0.014078331
0.013498848
0.012923085
0.012352934
0.022669358
0.023168817
0.023663749
0.024147054
0.024617298
0.025072539
0.025506097
0.025930595
0.026337544
0.026725398
0.027092756
0.027438233
0.027760452
0.028058045
0.028329662
0.028573977
0.02878969
0.028975543
0.029130322
0.029252867
0.029342072
0.029396379
0.029415948
0.029399792
0.029347074
0.029256925
0.029129139
0.028963457
0.028759771
0.028518145
0.028238897
0.027922043
0.027571335
0.027184209
0.026761536
0.026305805
0.025818177
0.025300299
0.024753947
0.024181049
0.02358368
0.022964049
0.022324479
0.021667395
0.0209953
0.020310757
0.019616364
0.018914729
0.018208445
0.017500068
0.016792092
0.016086945
0.015387081
0.025991033
0.026567198
0.02713883
0.027698277
0.02824471
0.028770568
0.029276187
0.029773019
0.030250844
0.030708062
0.031143132
0.031554498
0.0319406
0.032299872
0.032630759
0.032931714
0.033201209
0.033437746
0.033639863
0.03380615
0.033935249
0.034025859
0.034076164
0.034086542
0.034055802
0.033982561
0.033866136
0.033706208
0.033502458
0.033254757
0.032963182
0.032628012
0.032249949
0.031828948
0.031370704
0.030870394
0.030330881
0.02975461
0.029143408
0.028499313
0.027824591
0.027121674
0.026393165
0.025641811
0.024870482
0.024082146
0.023279846
0.022466663
0.021645692
0.020820006
0.019992633
0.019166538
0.018344735
0.028909079
0.029553313
0.030192274
0.030819011
0.031432443
0.032018654
0.032589527
0.033151635
0.033693618
0.034213954
0.034711028
0.035183174
0.035628689
0.036045853
0.036432935
0.036788198
0.037109914
0.037396372
0.037645893
0.037856848
0.038027672
0.038156912
0.038241777
0.038283029
0.038279093
0.038229121
0.038131087
0.037984773
0.037789629
0.037545302
0.037251653
0.036908776
0.036517025
0.036076983
0.035589837
0.035055448
0.034481798
0.033861203
0.033199458
0.032498539
0.031760947
0.030989213
0.030186138
0.029354721
0.028498132
0.027619678
0.026722785
0.025810959
0.02488775
0.023956715
0.023021388
0.022085269
0.021151934
0.031428329
0.03213141
0.032827487
0.033511255
0.03418139
0.034820989
0.035449563
0.03606805
0.036666109
0.037242058
0.037794165
0.038320652
0.038819696
0.039289445
0.039728018
0.040133517
0.040504042
0.040837699
0.041132613
0.041386942
0.041598886
0.041766688
0.041888574
0.041961915
0.041987697
0.041963952
0.041889164
0.041761755
0.041581355
0.041347366
0.041059415
0.040717369
0.040321355
0.039871782
0.039369358
0.038814899
0.038209355
0.037557472
0.036862172
0.036117183
0.035330365
0.034503584
0.033639813
0.032742259
0.031814319
0.030859579
0.029881782
0.028884797
0.027872575
0.026849101
0.025818378
0.024784446
0.02375179
0.033575488
0.034328306
0.03507163
0.035802519
0.036519497
0.037204
0.037882825
0.03854903
0.039194858
0.039818498
0.040418116
0.040991837
0.041537739
0.042053856
0.042538186
0.042988698
0.043403348
0.043780085
0.044116868
0.044411681
0.044662545
0.044867551
0.045024911
0.045130882
0.045186743
0.045190476
0.045140982
0.045035542
0.044873609
0.044654478
0.044377537
0.044042417
0.043649019
0.043197526
0.04268842
0.042122474
0.041500764
0.040824794
0.040095948
0.039325027
0.038502417
0.037632822
0.036720858
0.035769903
0.03478353
0.033765533
0.032719914
0.031650846
0.030562614
0.029459559
0.028346015
0.035393135
0.036185742
0.03696747
0.037736386
0.038489438
0.039211301
0.039932893
0.040638678
0.041324281
0.04198784
0.042627467
0.043241218
0.043827091
0.044383033
0.04490694
0.045396675
0.045850073
0.046264956
0.046639143
0.046970466
0.047256778
0.047495965
0.047685937
0.047824535
0.047908585
0.04793961
0.047914954
0.047832795
0.047690992
0.047489111
0.047226303
0.04690197
0.046515786
0.046067709
0.045558008
0.044987265
0.044356381
0.04366658
0.042919414
0.042116886
0.04127103
0.040373365
0.03942388
0.038430578
0.037397143
0.036327524
0.035225927
0.034096777
0.032944654
0.031774262
0.030590481
0.036931117
0.037753641
0.038566051
0.039367502
0.040137159
0.040896413
0.04165266
0.042390612
0.043108599
0.043804818
0.044477367
0.045124263
0.045743449
0.046332803
0.046890146
0.047413253
0.047899865
0.048347697
0.048754453
0.049117838
0.049435573
0.049705412
0.049925164
0.050092722
0.050203515
0.050260051
0.050259133
0.050199727
0.050078268
0.049894398
0.049647122
0.049335626
0.048959368
0.048518092
0.048011857
0.04744105
0.046806397
0.046108973
0.045350222
0.04453203
0.043656905
0.042738543
0.041766429
0.040740016
0.039669138
0.038557858
0.03741055
0.036231843
0.035026557
0.033799659
0.032556355
0.038236392
0.039081504
0.039916242
0.04073723
0.041526225
0.042317034
0.043097946
0.043861104
0.04460476
0.045327082
0.046026142
0.046699923
0.047346325
0.047963171
0.048548223
0.049099187
0.049613724
0.050089461
0.050524008
0.050914966
0.051259947
0.05155659
0.051802607
0.051995858
0.052131203
0.05221065
0.052232061
0.052193368
0.052091762
0.051925552
0.051694005
0.051396104
0.051031098
0.050598532
0.050098263
0.049530488
0.048895757
0.048194996
0.04742953
0.046601157
0.04571227
0.044765956
0.043777072
0.042730507
0.041630148
0.040485488
0.039301079
0.038081732
0.036832465
0.035558459
0.034265143
0.039355645
0.040217472
0.041071308
0.041893602
0.042705764
0.043521097
0.044320821
0.045103328
0.045866885
0.046609643
0.047329652
0.048024865
0.048693143
0.049332269
0.049939953
0.050513843
0.051051538
0.051550593
0.052008538
0.052422888
0.052791152
0.05311085
0.053379519
0.05359469
0.053753729
0.053852865
0.053894355
0.053874469
0.053791367
0.053641902
0.053425602
0.053141263
0.052787952
0.052365022
0.051872144
0.051309332
0.050676963
0.049975802
0.049207036
0.048372322
0.047473888
0.046514641
0.045498374
0.04444259
0.043320805
0.042149432
0.040934937
0.039682307
0.038396709
0.037083494
0.035748254
0.040327996
0.041200056
0.042060899
0.04289055
0.043725599
0.044553963
0.045367447
0.046164381
0.046942999
0.047701431
0.048437702
0.049149735
0.049835364
0.050492335
0.051118316
0.051710909
0.052267658
0.052786062
0.053263583
0.05369766
0.054085725
0.054425207
0.054713558
0.054948262
0.055126885
0.05524418
0.055303595
0.055300758
0.055234576
0.055100742
0.05489888
0.054627658
0.054285977
0.05387302
0.053388285
0.052831609
0.052203201
0.05150366
0.050734006
0.049895701
0.048990665
0.048021232
0.046989963
0.045919528
0.044785456
0.043592297
0.04235328
0.041073321
0.03975764
0.038411705
0.037041229
0.041187626
0.042068824
0.042919334
0.043765922
0.044615834
0.045453197
0.046276399
0.047083751
0.047873467
0.048643656
0.049392323
0.05011737
0.050816604
0.051487741
0.052128417
0.052736193
0.05330857
0.053842994
0.054336874
0.054787588
0.055192499
0.055548971
0.055854385
0.056106164
0.056301805
0.056435284
0.056510645
0.056523488
0.056472363
0.056353263
0.056164925
0.055906214
0.055575868
0.055172911
0.054696676
0.054146842
0.053523452
0.052826949
0.052058192
0.051218475
0.050309506
0.049333295
0.048291738
0.047206332
0.04606513
0.044854639
0.043595732
0.042293288
0.040952582
0.039579184
0.038178905
0.041958382
0.04283808
0.043688908
0.044550881
0.04540586
0.046248981
0.047078651
0.047893183
0.048690782
0.049469548
0.050227469
0.050962431
0.051672218
0.052354523
0.053006952
0.053627034
0.05421223
0.054759947
0.055267542
0.055732342
0.056151656
0.056522786
0.056843053
0.057109812
0.057320477
0.057468409
0.057558007
0.057585213
0.057547739
0.057442365
0.05726674
0.057019944
0.056700575
0.056307512
0.055839937
0.055297377
0.054679727
0.053987279
0.053220757
0.052381336
0.051470688
0.050491063
0.049445613
0.048339722
0.047192885
0.045972328
0.044697325
0.043376278
0.042014591
0.040617936
0.03919221
0.042664756
0.043526846
0.044393939
0.045261049
0.046118473
0.046964726
0.047798239
0.048617337
0.049420225
0.050204998
0.050969634
0.051712005
0.052429878
0.053120925
0.053782727
0.054412785
0.055008526
0.055567319
0.056086481
0.056563292
0.05699501
0.057378885
0.057712181
0.057992194
0.058216273
0.058377245
0.05847964
0.058520014
0.058495108
0.058402537
0.058238898
0.058003468
0.057694717
0.057311388
0.056852527
0.056317516
0.055706106
0.055018449
0.054255129
0.053417192
0.052506181
0.051524187
0.0504739
0.049358508
0.048203258
0.046975528
0.045687133
0.044350472
0.04297099
0.041554422
0.040106703
0.043304647
0.044171737
0.045046376
0.045913156
0.046770863
0.047618093
0.04845331
0.04927485
0.050080927
0.050869628
0.051638928
0.052386685
0.053110652
0.053808482
0.054477735
0.055115885
0.055720332
0.056288408
0.056817394
0.057304527
0.057747019
0.05814207
0.05848689
0.058778726
0.059014903
0.059187843
0.059301826
0.059354344
0.059341104
0.059260528
0.059108241
0.058883682
0.058585205
0.058211429
0.057761268
0.05723397
0.056629147
0.055946815
0.055187418
0.054351859
0.053441527
0.052458313
0.051404581
0.050283025
0.049119968
0.047887443
0.046587778
0.045237878
0.043843151
0.042409365
0.04390868
0.044783816
0.045655145
0.046519556
0.047375681
0.048222092
0.049057253
0.049879504
0.050687058
0.051478002
0.0522503
0.053001802
0.053730249
0.054433274
0.055108419
0.055753134
0.05636479
0.056940689
0.057478077
0.05797415
0.058426075
0.058831001
0.059186078
0.059488492
0.059735585
0.059919997
0.060044498
0.060108215
0.060105872
0.060036535
0.059895072
0.05968093
0.059392398
0.059027977
0.058586455
0.058066953
0.057468951
0.056792331
0.056037403
0.055204936
0.054296186
0.053312903
0.052257293
0.051131609
0.04995989
0.048725028
0.047416103
0.046054981
0.044647094
0.043198209
0.044490375
0.045361749
0.046228417
0.047088951
0.047941993
0.048786112
0.049619774
0.050441316
0.051248949
0.052040756
0.052814694
0.053568604
0.054300211
0.055007136
0.055686897
0.056336925
0.056954563
0.057537086
0.058081702
0.058585572
0.059045816
0.059459527
0.059823775
0.060135589
0.060391865
0.060589033
0.060722608
0.060796487
0.060804471
0.060745486
0.060614487
0.060410321
0.060131409
0.059776127
0.059343144
0.058831454
0.058240413
0.057569774
0.056819724
0.055990913
0.055084498
0.054102213
0.053046555
0.051921292
0.050732944
0.049499757
0.048184468
0.046813862
0.045394549
0.043932348
0.045046234
0.04591119
0.046772034
0.047627478
0.048476216
0.049316839
0.050147814
0.050967479
0.051774042
0.05256558
0.053340042
0.054095258
0.054828942
0.055538696
0.056222022
0.056876326
0.057498929
0.058087075
0.058637941
0.059148649
0.059616276
0.060037866
0.06041043
0.060730943
0.060996349
0.061203675
0.06134654
0.061430011
0.06144782
0.061398496
0.061277521
0.061082945
0.060813336
0.060466962
0.060042377
0.059538456
0.058954436
0.058289948
0.057545058
0.056720306
0.055816748
0.054836032
0.053780528
0.052653452
0.051458431
0.050221503
0.048902152
0.04752333
0.046093978
0.044619907
0.04557868
0.046436102
0.047290088
0.048139425
0.048982855
0.049818989
0.0506463
0.051463126
0.05226767
0.053058003
0.053832066
0.054587678
0.055322537
0.056034231
0.056720243
0.057377957
0.058004669
0.058597595
0.059153881
0.059670613
0.060144829
0.060573528
0.06095368
0.061282238
0.061556169
0.06177256
0.061924236
0.062016769
0.062043897
0.062003711
0.061892305
0.061706937
0.061446311
0.061108594
0.060692229
0.060195982
0.059618973
0.058960716
0.05822116
0.05740073
0.056500368
0.055521588
0.054466536
0.053337991
0.052139051
0.050898034
0.049575788
0.048189715
0.046751456
0.04609025
0.046939155
0.047785387
0.048627762
0.04946505
0.050295875
0.051118715
0.051931906
0.052733647
0.053522001
0.054294899
0.055050148
0.055785431
0.056498321
0.057186279
0.057846669
0.058476762
0.059073748
0.059634742
0.060156796
0.060636912
0.061072051
0.061459149
0.061795134
0.062076961
0.062301676
0.06246161
0.062562675
0.062598634
0.062567119
0.062464843
0.0622883
0.062036327
0.061706991
0.061298638
0.060809922
0.060239854
0.059587835
0.0588537
0.058037753
0.057140814
0.05616425
0.055110002
0.053980565
0.052778884
0.051534131
0.050210064
0.048817481
0.047371133
0.046582516
0.0474221
0.048259829
0.04909453
0.049924985
0.050749825
0.051567529
0.05237643
0.05317472
0.053960452
0.054731549
0.055485801
0.056220879
0.056934336
0.057623614
0.058286055
0.058918906
0.05951933
0.060084413
0.060611175
0.061096585
0.061537569
0.061931031
0.062273868
0.062563006
0.062795433
0.062963093
0.063072172
0.063116489
0.0630932
0.062999622
0.062831521
0.062587859
0.062266613
0.06186603
0.061384664
0.060821419
0.060175586
0.059446888
0.058635516
0.057742164
0.056768059
0.055714967
0.054585156
0.05338137
0.052133065
0.050808246
0.049409803
0.047956162
0.047056455
0.047886069
0.048714684
0.049541126
0.050364183
0.051182485
0.051994508
0.052798581
0.053592888
0.05437547
0.055144237
0.055896966
0.05663131
0.057344803
0.058034869
0.058698825
0.059333896
0.059937217
0.060505845
0.061036774
0.061526937
0.06197323
0.062372522
0.06272168
0.06301759
0.063257186
0.063432071
0.063548662
0.063600875
0.063585381
0.063500073
0.063340031
0.063104331
0.062790863
0.062397785
0.061923553
0.061366971
0.060727226
0.060003931
0.059197169
0.058307521
0.057336097
0.056284518
0.055154847
0.053949413
0.052697114
0.051372577
0.04996895
0.048508767
0.047512659
0.048331789
0.049150799
0.049968513
0.050783715
0.051595034
0.052400939
0.053199751
0.053989641
0.054768641
0.055534644
0.056285412
0.057018579
0.057731662
0.058422062
0.059087074
0.059723898
0.060329642
0.060901339
0.061435949
0.06193038
0.062381493
0.062786126
0.06314111
0.063443294
0.063689558
0.063871199
0.063994818
0.064054478
0.06404636
0.06396889
0.063816531
0.063588434
0.063282419
0.062896559
0.06242922
0.061879108
0.061245312
0.060527343
0.059725182
0.058839312
0.057870754
0.05682106
0.055692206
0.054486021
0.053227606
0.051904383
0.050496673
0.047951471
0.048759718
0.049568744
0.050377362
0.051184356
0.051988343
0.052787786
0.053580993
0.054366123
0.055141193
0.05590408
0.056652527
0.057384152
0.058096448
0.058786796
0.059452469
0.06009064
0.060698395
0.061272735
0.061810596
0.062308853
0.062764341
0.063173862
0.063534215
0.063842207
0.064094673
0.064282622
0.064412807
0.064479477
0.064478339
0.064408243
0.064263232
0.064042362
0.063743462
0.063364518
0.062903809
0.062359949
0.061731931
0.061019173
0.060221559
0.059339487
0.058373913
0.057326406
0.056199259
0.05499598
0.053724187
0.05240382
0.050994513
0.048373081
0.049170152
0.049968911
0.050768164
0.051566684
0.05236308
0.053155802
0.053943143
0.054723247
0.055494115
0.056253604
0.056999441
0.057729221
0.058440418
0.059130389
0.059796384
0.060435553
0.061044953
0.061621561
0.062162284
0.06266397
0.063123423
0.063537415
0.063902709
0.064216075
0.064474305
0.064668139
0.064804444
0.064877687
0.064883223
0.064819947
0.064681973
0.064467961
0.064175833
0.063803493
0.063349134
0.062811286
0.062188852
0.061481157
0.060687995
0.059809679
0.058847091
0.057801749
0.056675901
0.055472691
0.054196152
0.052874398
0.051464006
0.048777595
0.049563291
0.050351593
0.051141296
0.051931162
0.052719787
0.053505605
0.054286892
0.055061775
0.055828235
0.056584112
0.057327109
0.058054802
0.058764641
0.059453963
0.060119992
0.060759853
0.06137058
0.061949123
0.062492361
0.062997114
0.063460157
0.063878234
0.064248073
0.064566406
0.064829985
0.065029304
0.065171305
0.065250714
0.065262582
0.065205641
0.065074346
0.064866836
0.064581138
0.064215083
0.063766787
0.063234696
0.062617629
0.061914825
0.06112599
0.060251346
0.059291687
0.058248435
0.057123689
0.055920247
0.054641418
0.053317596
0.051906425
0.049165081
0.04993929
0.050717026
0.051497074
0.052278182
0.053058929
0.05383773
0.054612842
0.055382372
0.05614428
0.056896384
0.057636368
0.058361782
0.059070057
0.059758503
0.060424322
0.061064616
0.061676391
0.062256572
0.062802013
0.063309505
0.063775795
0.0641976
0.064571613
0.064894533
0.065163073
0.065367496
0.065514795
0.06559998
0.065617803
0.065566791
0.065441793
0.06524043
0.064960821
0.06460073
0.064158202
0.063631604
0.063019676
0.062321572
0.061536912
0.060665832
0.059709029
0.058667812
0.057544131
0.056340572
0.055060282
0.053734398
0.052322847
0.049535601
0.050298287
0.051065426
0.051835787
0.052608103
0.053380931
0.054152666
0.054921542
0.055685644
0.056442909
0.057191133
0.057927977
0.058650969
0.059357514
0.060044902
0.060710309
0.061350811
0.061963392
0.062544951
0.063092314
0.063602248
0.064071473
0.064496673
0.064874518
0.065201668
0.065474803
0.065683969
0.065836188
0.065926773
0.065950176
0.065904717
0.065785641
0.065590071
0.065316213
0.064961765
0.064524706
0.064003331
0.063396302
0.062702695
0.061922048
0.061054409
0.060100382
0.059061165
0.057938573
0.05673504
0.055453623
0.054125749
0.052714261
0.04988923
0.050640432
0.051397009
0.052157718
0.052921271
0.053686202
0.054450878
0.05521351
0.05597216
0.05672474
0.057469022
0.058202644
0.05892311
0.059627803
0.060313986
0.060978812
0.061619335
0.062232512
0.062815218
0.063364255
0.063876363
0.064348234
0.064776528
0.065157883
0.06548893
0.065766314
0.065979883
0.066136664
0.066232288
0.066260907
0.066220644
0.066107123
0.065917
0.065648557
0.065299435
0.064867547
0.064351121
0.063748747
0.063059427
0.06228262
0.061418293
0.060466959
0.059429718
0.058308264
0.057104885
0.055822492
0.05449259
0.053081597
0.050226069
0.050965891
0.051712004
0.052463159
0.053218038
0.053975145
0.054732821
0.055489251
0.05624247
0.056990365
0.057730685
0.058461042
0.059178917
0.059881667
0.060566533
0.061230644
0.061871029
0.062484622
0.063068274
0.063618761
0.0641328
0.064607056
0.065038163
0.065422731
0.065757365
0.066038674
0.066256325
0.06641733
0.066517646
0.06655113
0.066515722
0.066407401
0.066222386
0.065959032
0.065614922
0.06518791
0.064676161
0.064078196
0.063392948
0.062619802
0.06175865
0.060809927
0.059774646
0.058654398
0.057451318
0.056168044
0.054835823
0.053425715
0.050546246
0.051274857
0.052010664
0.052752419
0.053498765
0.054248173
0.054998954
0.055749265
0.056497114
0.057240364
0.057976736
0.058703819
0.059419068
0.060119818
0.060803284
0.061466574
0.062106691
0.062720547
0.063304968
0.063856708
0.064372459
0.064848863
0.065282525
0.065670032
0.066007961
0.066292891
0.06651432
0.06667923
0.066783908
0.066821924
0.066791043
0.066687579
0.066507345
0.066248761
0.065909357
0.065486931
0.064979587
0.064385786
0.063704392
0.062934726
0.062076609
0.061130409
0.060097073
0.058978122
0.057775567
0.056491617
0.055156227
0.053747349
0.050849907
0.051567542
0.052293264
0.053025829
0.053763831
0.054505708
0.055249739
0.055994052
0.056736629
0.057475304
0.058207776
0.058931605
0.059644224
0.060342942
0.061024954
0.061687341
0.062327084
0.062941073
0.063526112
0.06407893
0.064596196
0.06507453
0.065510512
0.065900704
0.066241656
0.066529923
0.066754844
0.066923361
0.067032086
0.067074315
0.067047648
0.066948713
0.066772944
0.06651882
0.066183824
0.065765699
0.065262495
0.064672613
0.063994858
0.063228486
0.062373258
0.061429486
0.06039807
0.059280517
0.058078858
0.056795025
0.055454259
0.054047007
0.051137207
0.051844175
0.052560114
0.053283747
0.054013638
0.054748188
0.055485648
0.056224118
0.056961549
0.057695751
0.058424394
0.059145016
0.059855025
0.060551706
0.061232229
0.061893655
0.062532942
0.063146956
0.06373248
0.064286222
0.064804828
0.065284894
0.06572298
0.066115621
0.066459344
0.066750682
0.066978826
0.067150669
0.067263145
0.067309283
0.067286532
0.067191812
0.067020202
0.066770241
0.066439363
0.066025264
0.065525939
0.064939737
0.064265405
0.063502142
0.062649652
0.061708195
0.060678645
0.05956254
0.05836221
0.057081351
0.05572949
0.054325084
0.049387506
0.050048914
0.050722753
0.051408428
0.052105084
0.052811565
0.053526563
0.054248606
0.054976067
0.055707165
0.056439971
0.057172409
0.057902263
0.058627175
0.059344659
0.060052099
0.060746756
0.061425779
0.062086205
0.06272497
0.063338921
0.063924818
0.064479348
0.064999136
0.065480756
0.065920747
0.066315622
0.066661883
0.066956041
0.067187157
0.067362063
0.067478008
0.067527767
0.067508648
0.067417841
0.067250102
0.067004016
0.066676978
0.066266636
0.065770938
0.065188181
0.06451706
0.063756719
0.062906809
0.061967543
0.060939758
0.059824992
0.058625623
0.05734519
0.055988823
0.054584062
0.049677983
0.050326738
0.050988969
0.0516639
0.052350632
0.053048007
0.05375469
0.054469177
0.055189811
0.05591478
0.056642127
0.057369747
0.058095396
0.058816694
0.059531127
0.060236057
0.060928723
0.06160625
0.062265654
0.062903852
0.063517667
0.064103841
0.06465904
0.065179869
0.065662883
0.066104598
0.066501506
0.066850089
0.067146835
0.067380686
0.067558409
0.067677557
0.067730665
0.067714909
0.06762773
0.067463582
0.067221098
0.066897631
0.066490788
0.065998472
0.065418932
0.064750812
0.063993208
0.063145719
0.062208508
0.061182367
0.060068792
0.058870091
0.0575895
0.056230937
0.054825058
0.04995187
0.050588422
0.051239431
0.051904011
0.052581213
0.053269854
0.053968564
0.05467581
0.0553899
0.056108993
0.056831102
0.057554096
0.058275703
0.058993518
0.059705005
0.060407499
0.06109822
0.061774271
0.062432647
0.063070245
0.063683868
0.064270238
0.064826003
0.065347748
0.065832009
0.066275282
0.06667404
0.067024743
0.06732386
0.067560225
0.067740537
0.067862637
0.067918836
0.067906188
0.067822365
0.067661544
0.0674224
0.067102248
0.066698656
0.066209485
0.06563294
0.06496762
0.064212571
0.063367344
0.06243205
0.061407428
0.060294908
0.059096702
0.057815857
0.056456004
0.055048902
0.050209444
0.050834289
0.051474511
0.052129162
0.052797246
0.053477541
0.054168641
0.054868976
0.055576823
0.056290309
0.057007418
0.057725991
0.058443731
0.059158209
0.059866863
0.06056701
0.061255846
0.061930452
0.062587806
0.063224784
0.063838171
0.064424671
0.064980911
0.065503461
0.065988837
0.066433517
0.066833956
0.067186594
0.067487879
0.067726553
0.067909241
0.068034053
0.068093103
0.068083322
0.068002598
0.067844853
0.067608799
0.067291717
0.066891138
0.066404885
0.065831122
0.065168404
0.064415733
0.063572612
0.062639102
0.06161588
0.060504302
0.059306481
0.058025384
0.056664657
0.055256396
0.050451049
0.051064706
0.051694608
0.052339775
0.052999169
0.053671523
0.05435539
0.05504916
0.055751077
0.056459236
0.057171593
0.057885961
0.05860002
0.059311315
0.060017264
0.06071516
0.061402179
0.062075385
0.062731733
0.063368083
0.063981202
0.064567775
0.065124414
0.06564767
0.066134042
0.066579992
0.066981955
0.067336356
0.067639624
0.067880413
0.068065279
0.068192577
0.06825425
0.068247109
0.06816924
0.068014337
0.067781134
0.067466888
0.067069095
0.066585542
0.066014356
0.065354051
0.064603588
0.063762422
0.062830567
0.061808639
0.060697912
0.059500384
0.058219024
0.056857673
0.055448342
0.050677083
0.051280081
0.051900144
0.052536292
0.05318744
0.053852273
0.054529295
0.055216856
0.055913165
0.056616286
0.057324146
0.058034534
0.058745104
0.059453379
0.060156755
0.060852505
0.061537786
0.062209641
0.06286501
0.063500733
0.064113561
0.064700162
0.065257133
0.065781007
0.066268268
0.066715362
0.067118707
0.067474711
0.067779788
0.068022514
0.068209372
0.068338946
0.068403028
0.068398313
0.068323064
0.068170788
0.067940209
0.067628575
0.067233352
0.066752292
0.066183487
0.065525413
0.064776992
0.063937638
0.063007318
0.061986594
0.060876653
0.059679321
0.050887998
0.051480856
0.052091568
0.052719173
0.053362533
0.054020274
0.054690847
0.055372562
0.05606359
0.056761967
0.057465591
0.058172228
0.058879506
0.059584929
0.060285871
0.060979587
0.061663212
0.062333775
0.062988197
0.063623302
0.064235824
0.064822418
0.065379662
0.065904078
0.066392132
0.066840255
0.067244851
0.067602313
0.067909038
0.06815353
0.068342209
0.068473863
0.068540152
0.068537663
0.068464811
0.068314963
0.06808679
0.067777557
0.067384698
0.066905933
0.066339321
0.065683305
0.064936769
0.06409909
0.063170194
0.062150599
0.061041423
0.051084311
0.051667498
0.052269346
0.052888895
0.053524934
0.054176018
0.054840544
0.055516779
0.056202858
0.056896787
0.057596439
0.058299554
0.059003742
0.059706483
0.060405133
0.061096928
0.061778987
0.062448321
0.063101834
0.063736337
0.064348547
0.064935104
0.065492574
0.066017462
0.066506222
0.066955271
0.067360998
0.067719781
0.068028003
0.068274108
0.068464446
0.068597998
0.068666304
0.068665857
0.068595191
0.068447576
0.068221607
0.067914576
0.067523886
0.067047229
0.066482632
0.065828508
0.065083706
0.06424757
0.063319993
0.062301469
0.061193119
0.051266621
0.051840483
0.052433958
0.053045948
0.053675139
0.054320006
0.054978889
0.05565001
0.05633147
0.057021247
0.05771719
0.058417015
0.059118313
0.059818544
0.060515047
0.061205038
0.061885623
0.062553794
0.063206442
0.063840362
0.06445226
0.065038759
0.065596412
0.066121713
0.066611101
0.067060981
0.067467728
0.067827707
0.068137289
0.06838486
0.068576706
0.068711988
0.068782129
0.068783563
0.068714876
0.068569309
0.068345357
0.06804034
0.067651635
0.067176908
0.066614157
0.065961766
0.065218555
0.064383838
0.063457478
0.062439954
0.061332359
0.05143852
0.05200026
0.052585895
0.053190833
0.053813652
0.054452743
0.055106385
0.055772756
0.056449925
0.057135844
0.057828338
0.058525103
0.059223711
0.059921603
0.060616102
0.061304409
0.061983611
0.062650689
0.063302519
0.063935882
0.06454747
0.065133895
0.065691698
0.066217358
0.066707305
0.067157929
0.067565594
0.067926654
0.068237467
0.06848637
0.068679586
0.068816439
0.068888248
0.068891413
0.068824504
0.068680811
0.068458701
0.068155521
0.067768628
0.067295663
0.066734599
0.066083792
0.065342035
0.064508615
0.06358337
0.062566762
0.061459844
0.051601267
0.052148343
0.052725668
0.053324059
0.053940983
0.054574735
0.055223532
0.055885513
0.056558715
0.057241064
0.057930365
0.058624296
0.059320411
0.060016134
0.060708773
0.061395513
0.062073428
0.062739484
0.063390545
0.064023379
0.064634666
0.065221006
0.065778928
0.066304901
0.066795343
0.067246633
0.067655125
0.068017159
0.068329084
0.068579195
0.06877365
0.068911927
0.06898525
0.068989995
0.06892469
0.068782703
0.068562269
0.068260761
0.067875517
0.067404156
0.066844627
0.066195262
0.06545483
0.064622592
0.063698361
0.062682582
0.061576267
0.051747056
0.052288261
0.052853704
0.053446141
0.054057643
0.054686486
0.05533083
0.055988771
0.056658321
0.057337383
0.058023743
0.058715062
0.059408876
0.060102598
0.060793517
0.061478807
0.062155529
0.062820635
0.063470978
0.064103313
0.06471431
0.065300558
0.065858575
0.066384821
0.066875701
0.067327586
0.067736818
0.068099728
0.068412654
0.068663863
0.068859436
0.068998999
0.069073693
0.069079871
0.069016013
0.068875574
0.06865666