/*--------------------------------*- C++ -*----------------------------------*\
| =========                 |                                                 |
| \\      /  F ield         | OpenFOAM: The Open Source CFD Toolbox           |
|  \\    /   O peration     | Version:  2312                                  |
|   \\  /    A nd           | Website:  www.openfoam.com                      |
|    \\/     M anipulation  |                                                 |
\*---------------------------------------------------------------------------*/
FoamFile
{
    version     2.0;
    format      ascii;
    arch        "LSB;label=32;scalar=64";
    class       volScalarField;
    location    "0.03";
    object      k;
}
// * * * * * * * * * * * * * * * * * * * * * * * * * * * * * * * * * * * * * //

dimensions      [0 2 -2 0 0 0 0];

internalField   nonuniform List<scalar> 
3272
(
11.206214
11.211214
11.215783
11.219904
11.223563
11.226748
11.229448
11.231654
11.23336
11.234562
11.235258
11.235449
11.23514
11.234334
11.23304
11.231267
11.229026
11.226333
11.223203
11.219653
11.215702
11.211372
11.206683
11.201657
11.196319
11.19069
11.184795
11.178658
11.172303
11.165753
11.159032
11.152165
11.145174
11.138084
11.130916
11.123694
11.116439
11.109173
11.101917
11.09469
11.087511
11.080397
11.073366
11.066432
11.059611
11.052915
11.046357
11.039947
11.033695
11.027614
11.021724
11.016031
11.010526
11.664601
11.680881
11.695859
11.709481
11.721704
11.732489
11.741803
11.749621
11.75592
11.760686
11.763911
11.765594
11.765741
11.764371
11.76149
11.757126
11.751312
11.744083
11.735482
11.725554
11.714353
11.701935
11.688361
11.673695
11.658
11.641344
11.623797
11.605427
11.586307
11.566506
11.546096
11.525149
11.503737
11.481931
11.459802
11.437421
11.414857
11.392179
11.369453
11.346743
11.324112
11.301619
11.27932
11.257269
11.235515
11.214106
11.193083
11.172484
11.152341
11.132679
11.113508
11.094852
11.076755
12.102997
12.130129
12.155155
12.177995
12.198583
12.21686
12.232779
12.246303
12.257402
12.266053
12.272242
12.275969
12.27724
12.276081
12.272508
12.266546
12.258247
12.247663
12.234854
12.219888
12.202833
12.183776
12.162808
12.14002
12.115508
12.089372
12.061715
12.032642
12.00226
11.970677
11.938003
11.904349
11.869826
11.834546
11.798622
11.762167
11.725292
11.688109
11.650727
11.613253
11.575794
11.538449
11.501317
11.464491
11.42806
11.392108
11.356711
11.321943
11.287868
11.254545
11.222024
11.190353
11.159579
12.47715
12.513544
12.547124
12.577797
12.605485
12.630115
12.651633
12.670006
12.685198
12.697185
12.705953
12.711502
12.713843
12.713005
12.709025
12.701906
12.691726
12.678546
12.662441
12.643503
12.621791
12.597419
12.570497
12.541138
12.509459
12.475582
12.439633
12.401741
12.362037
12.320655
12.277734
12.233412
12.187827
12.141122
12.093441
12.044928
11.995728
11.945985
11.895846
11.845451
11.794943
11.744458
11.694132
11.644092
11.594463
11.545364
11.496907
11.449199
11.402338
11.356415
11.31151
11.2677
11.225049
12.760522
12.803708
12.843478
12.879742
12.912419
12.941427
12.966713
12.988257
13.006029
13.020004
13.030175
13.036545
13.039132
13.037978
13.03312
13.024563
13.012401
12.996703
12.977551
12.955041
12.929263
12.900329
12.868359
12.833478
12.795823
12.755528
12.712733
12.667585
12.62023
12.570819
12.519504
12.466446
12.411802
12.355735
12.298406
12.239984
12.180635
12.120528
12.059834
11.998721
11.937356
11.875907
11.814534
11.753395
11.69264
11.632409
11.57285
11.514101
11.456286
11.399523
11.343921
11.28958
11.236597
12.947078
12.994127
13.03726
13.076398
13.111469
13.142413
13.169133
13.191653
13.209953
13.224015
13.233839
13.239439
13.240838
13.238107
13.231239
13.220294
13.205365
13.186528
13.163872
13.137499
13.107513
13.074024
13.037157
12.997051
12.953849
12.9077
12.858757
12.807175
12.753113
12.696734
12.638202
12.577686
12.515355
12.451389
12.385962
12.319259
12.251459
12.18275
12.113317
12.043347
11.973028
11.902547
11.832088
11.761836
11.691982
11.622702
11.554138
11.486435
11.419738
11.354179
11.289886
11.22697
11.165531
13.049232
13.097198
13.140839
13.180074
13.214818
13.245233
13.270922
13.292081
13.30869
13.320744
13.328254
13.331246
13.329774
13.323886
13.313574
13.298943
13.280066
13.25703
13.22993
13.198871
13.163967
13.125338
13.08311
13.037426
12.988437
12.936296
12.881169
12.823219
12.762615
12.699529
12.63414
12.566628
12.497176
12.425974
12.353209
12.279077
12.203771
12.127489
12.050427
11.972789
11.894775
11.816583
11.738407
11.660434
11.582841
11.505807
11.429516
11.354137
11.279828
11.206738
11.135006
11.06476
10.996113
13.09187
13.138176
13.179843
13.216808
13.24903
13.276495
13.299126
13.316938
13.329942
13.338154
13.341598
13.34032
13.334374
13.323737
13.308517
13.28879
13.264641
13.236163
13.203457
13.166633
13.125813
13.081123
13.032695
12.980671
12.925214
12.866476
12.804635
12.739863
12.672338
12.602241
12.529758
12.455077
12.378393
12.299901
12.219803
12.138302
12.055603
11.97192
11.887461
11.802436
11.717052
11.63152
11.546047
11.460836
11.376087
11.29199
11.208733
11.126492
11.045434
10.965719
10.887496
10.810907
10.736073
13.104651
13.14731
13.185059
13.217864
13.245691
13.268514
13.286318
13.299104
13.306893
13.30972
13.307646
13.30069
13.28886
13.272248
13.250923
13.224968
13.194472
13.159533
13.120258
13.07676
13.029164
12.977601
12.922212
12.863136
12.800537
12.734582
12.665442
12.593305
12.518355
12.440782
12.360776
12.278538
12.194268
12.108174
12.020466
11.931359
11.841069
11.749818
11.657827
11.565321
11.472521
11.379647
11.28692
11.194556
11.102763
11.011747
10.921701
10.832813
10.745259
10.659205
10.574814
10.49223
10.411542
13.114914
13.152493
13.184962
13.212299
13.234469
13.251411
13.263137
13.269713
13.27118
13.267631
13.259026
13.245419
13.226875
13.203452
13.175222
13.142286
13.104737
13.062674
13.016203
12.965441
12.910514
12.851556
12.788714
12.722131
12.651962
12.578391
12.501584
12.421732
12.339031
12.253673
12.165859
12.075794
11.983689
11.889759
11.794226
11.697313
11.599248
11.500264
11.400594
11.300472
11.200136
11.099818
10.999751
10.900161
10.801272
10.703299
10.606447
10.510914
10.416885
10.324542
10.234058
13.144151
13.17568
13.201927
13.222887
13.238552
13.248913
13.25399
13.253814
13.248495
13.237897
13.222127
13.201278
13.175432
13.144675
13.109106
13.068828
13.023904
12.974426
12.920503
12.862251
12.79979
12.733265
12.662825
12.588621
12.510801
12.429546
12.345033
12.257446
12.166987
12.073856
11.978258
11.880404
11.780513
11.678807
11.575515
11.470871
11.365112
11.25848
11.151219
11.043576
10.935798
10.828129
10.720816
10.614097
10.508206
10.403372
10.299811
10.197733
10.097335
9.9988102
9.9023281
13.206298
13.231168
13.250624
13.264687
13.273344
13.276614
13.274555
13.267206
13.254556
13.236701
13.213709
13.185632
13.152539
13.114505
13.071594
13.023846
12.971406
12.914394
12.852931
12.787145
12.717191
12.643217
12.565335
12.483689
12.398428
12.309726
12.217769
12.122729
12.024812
11.924225
11.821178
11.715887
11.608575
11.499469
11.388805
11.276823
11.163767
11.049887
10.935438
10.820675
10.705854
10.591232
10.477063
10.363598
10.251083
10.139754
10.029843
9.921569
9.8151445
9.7107757
9.6086335
13.308059
13.325879
13.33819
13.345024
13.346382
13.342371
13.332922
13.318136
13.298083
13.272824
13.242425
13.206954
13.166486
13.121101
13.070886
13.015942
12.956355
12.892229
12.823675
12.750809
12.673735
12.592565
12.507481
12.418647
12.326225
12.230388
12.131336
12.02928
11.924393
11.816868
11.706914
11.594745
11.480588
11.364677
11.247248
11.128541
11.00881
10.888313
10.76731
10.646064
10.52484
10.4039
10.283507
10.163921
10.045395
9.928177
9.8125069
9.6986149
9.5867247
9.4770537
9.3697791
13.450403
13.460884
13.4658
13.465175
13.459123
13.447536
13.43058
13.408311
13.380797
13.348108
13.310315
13.267496
13.219728
13.167097
13.109692
13.047608
12.980944
12.909803
12.834299
12.75455
12.67069
12.582854
12.491172
12.395795
12.296883
12.194597
12.089113
11.98058
11.869226
11.755269
11.638927
11.520424
11.399988
11.277866
11.15431
11.029559
10.903857
10.77746
10.650631
10.523635
10.396742
10.270224
10.144344
10.019365
9.8955501
9.7731558
9.6524287
9.5336076
9.4169241
9.3026042
9.1908333
13.630449
13.633334
13.630646
13.622394
13.608604
13.58939
13.564835
13.535012
13.499997
13.459868
13.414705
13.364588
13.309603
13.249837
13.185382
13.116334
13.042794
12.964867
12.882665
12.796309
12.705925
12.611647
12.513611
12.411966
12.306872
12.198489
12.087007
11.972611
11.855481
11.735817
11.613837
11.489761
11.363812
11.236203
11.107176
10.977003
10.845947
10.714272
10.582246
10.450139
10.318231
10.186799
10.056109
9.9264293
9.7980218
9.6711434
9.5460447
9.4229691
9.3021543
9.183832
9.0681958
13.843183
13.838272
13.827645
13.811478
13.789848
13.762855
13.730584
13.693119
13.650545
13.602948
13.550413
13.493028
13.430879
13.364059
13.292662
13.216784
13.136528
13.051999
12.963309
12.870577
12.773926
12.673489
12.569404
12.461819
12.35089
12.236777
12.119658
11.999717
11.877138
11.752123
11.624882
11.495637
11.364614
11.232054
11.098193
10.963278
10.827566
10.691318
10.554803
10.418289
10.282035
10.146314
10.011411
9.8776063
9.7451685
9.6143613
9.4854399
9.3586519
9.2342422
9.1124459
8.993461
14.082835
14.069635
14.050842
14.026559
13.996893
13.961947
13.921816
13.876595
13.826377
13.771253
13.711314
13.646652
13.577358
13.503526
13.425251
13.342632
13.25577
13.16477
13.069744
12.970808
12.868084
12.761702
12.651798
12.538519
12.422022
12.302461
12.180009
12.054844
11.927152
11.797135
11.664998
11.530959
11.395246
11.258091
11.119736
10.980427
10.84042
10.699976
10.559361
10.418846
10.27871
10.139221
10.000653
9.863277
9.727362
9.5931719
9.4609631
9.3309821
9.2034598
9.0786367
8.956726
14.343346
14.321616
14.294369
14.261724
14.2238
14.180708
14.132554
14.079441
14.021468
13.958733
13.891331
13.819357
13.742904
13.662069
13.576945
13.487633
13.394233
13.296849
13.19559
13.09057
12.981909
12.869735
12.75418
12.63539
12.513517
12.388712
12.261149
12.130996
11.998441
11.863681
11.726916
11.588364
11.448249
11.306801
11.16426
11.020871
10.876889
10.732573
10.588188
10.444003
10.300292
10.157327
10.015382
9.8747277
9.7356322
9.598359
9.4631643
9.3302969
9.2000016
9.0725074
8.9480182
14.619418
14.588828
14.552831
14.511566
14.465154
14.413714
14.357364
14.296212
14.230365
14.159922
14.084983
14.005645
13.922002
13.834149
13.742183
13.6462
13.546301
13.442586
13.335163
13.224143
13.109642
12.991785
12.870703
12.746533
12.619423
12.489522
12.357009
12.222041
12.084801
11.945489
11.804295
11.661435
11.51713
11.371607
11.225104
11.077864
10.93014
10.782188
10.634272
10.486658
10.339619
10.193425
10.04835
9.904662
9.7626298
9.6225159
9.4845756
9.3490573
9.2162024
9.0862449
14.906355
14.866577
14.821548
14.771403
14.716275
14.656291
14.591575
14.522242
14.4484
14.370153
14.287602
14.200843
14.109972
14.015083
13.916269
13.813627
13.707252
13.597245
13.483708
13.366749
13.246481
13.123025
12.996508
12.867063
12.734824
12.599932
12.462589
12.322938
12.181151
12.037427
11.891953
11.74494
11.596604
11.447169
11.29687
11.145949
10.994654
10.84324
10.691969
10.541105
10.390917
10.241674
10.093648
9.9471062
9.8023144
9.6595366
9.5190262
9.3810308
9.2457928
9.1135495
15.200178
15.150913
15.096575
15.037308
14.973254
14.904545
14.83131
14.753666
14.671723
14.585587
14.495357
14.40113
14.303
14.201058
14.095395
13.986104
13.873277
13.757011
13.637404
13.51456
13.388588
13.259603
13.127729
12.993094
12.85582
12.716031
12.573955
12.429727
12.283505
12.135481
11.985848
11.834804
11.682561
11.529343
11.375379
11.220908
11.066177
10.911437
10.756947
10.602969
10.449769
10.297615
10.146775
9.9975167
9.8501002
9.7047928
9.561845
9.4215036
9.2840115
9.1496003
15.497566
15.438543
15.374653
15.306053
15.232892
15.155305
15.073422
14.987361
14.897233
14.803143
14.705187
14.603461
14.498055
14.389057
14.276555
14.160635
14.041387
13.918902
13.793274
13.664601
13.532986
13.39854
13.261379
13.121624
12.979398
12.834832
12.688114
12.539397
12.388837
12.236617
12.082925
11.927954
11.771912
11.615019
11.4575
11.299592
11.141537
10.983585
10.825989
10.66901
10.512911
10.357958
10.204417
10.052553
9.9026257
9.7548974
9.6096189
9.4670362
9.3273896
9.190904
15.795778
15.726763
15.653121
15.575018
15.492604
15.40602
15.315393
15.22084
15.122472
15.020388
14.914685
14.805451
14.692773
14.576736
14.45742
14.334909
14.209284
14.080633
13.949042
13.814604
13.677416
13.537583
13.395213
13.250422
13.103331
12.954075
12.802813
12.649702
12.4949
12.338581
12.180928
12.022128
11.862388
11.70192
11.540949
11.379706
11.21843
11.057366
10.896767
10.736889
10.577993
10.420341
10.264198
10.109826
9.9574849
9.8074322
9.659918
9.5151873
9.3734786
16.092564
16.013371
15.929823
15.842088
15.75032
15.654658
15.555227
15.452142
15.345509
15.235424
15.121977
15.005254
14.885334
14.762296
14.636215
14.507167
14.375228
14.240478
14.102998
13.962873
13.820195
13.675059
13.527569
13.377834
13.225972
13.072118
12.916411
12.759006
12.60006
12.439739
12.278225
12.115696
11.952356
11.788415
11.624091
11.459612
11.295213
11.131136
10.967631
10.804951
10.643353
10.483098
10.324447
10.16766
10.012996
9.8607089
9.711048
9.5642576
9.4205784
16.386083
16.296576
16.203014
16.105566
16.004384
15.899604
15.791348
15.679727
15.564839
15.446777
15.325623
15.201456
15.07435
14.944374
14.811597
14.676089
14.537918
14.397156
14.253876
14.108158
13.960084
13.809744
13.657234
13.502657
13.346129
13.187777
13.027731
12.866137
12.703149
12.538931
12.373658
12.207503
12.040667
11.873353
11.705778
11.538163
11.370741
11.20375
11.037437
10.87205
10.707846
10.545081
10.384014
10.224903
10.068005
9.9135707
9.7618487
9.6130822
9.4675078
16.674822
16.574918
16.471284
16.364088
16.253477
16.139582
16.022521
15.902395
15.779299
15.653315
15.52452
15.392983
15.258771
15.121946
14.982567
14.840696
14.696394
14.549724
14.400752
14.249548
14.096189
13.940756
13.783338
13.624033
13.462951
13.300214
13.135942
12.970273
12.803353
12.635344
12.466422
12.29675
12.126524
11.955945
11.785222
11.614575
11.444231
11.274427
11.105403
10.937408
10.770692
10.605512
10.442121
10.280778
10.121734
9.9652403
9.8115424
9.6608807
9.5134851
16.957541
16.847209
16.733496
16.616563
16.496552
16.373587
16.247776
16.119215
15.987989
15.854171
15.71783
15.579026
15.437815
15.294252
15.148386
15.000271
14.849958
14.697501
14.54296
14.386395
14.227874
14.067473
13.905271
13.741362
13.575849
13.408849
13.240472
13.070848
12.900115
12.728429
12.55597
12.382895
12.209392
12.035657
11.861895
11.688322
11.515162
11.342647
11.171014
11.000509
10.83138
10.663879
10.498259
10.334774
10.173675
10.01521
9.8596223
9.7071499
17.233221
17.112484
16.988733
16.86212
16.73278
16.600828
16.466362
16.32947
16.190225
16.048691
15.904927
15.758983
15.610905
15.460736
15.30852
15.154297
14.998111
14.840007
14.680034
14.518245
14.354701
14.189467
14.022617
13.854238
13.684427
13.513293
13.34094
13.167489
12.993067
12.817825
12.641948
12.465589
12.288926
12.112149
11.93546
11.759071
11.583201
11.40808
11.233941
11.061027
10.889583
10.719858
10.552103
10.386569
10.223505
10.063158
9.9057694
9.751579
17.501033
17.369963
17.23626
17.100068
16.961511
16.820693
16.677702
16.532614
16.385491
16.236387
16.085349
15.932416
15.777623
15.621005
15.462592
15.302416
15.140511
14.976912
14.811659
14.644798
14.476378
14.306458
14.135105
13.962399
13.788429
13.613298
13.437104
13.259959
13.081979
12.903312
12.72414
12.544619
12.364914
12.185212
12.005711
11.826618
11.648149
11.470528
11.293989
11.118768
10.945109
10.773258
10.603463
10.435973
10.271034
10.108893
9.9497907
9.7939623
17.760307
17.619022
17.475499
17.329868
17.182243
17.032715
16.88136
16.728241
16.573409
16.416906
16.258766
16.099016
15.937682
15.774786
15.610347
15.444388
15.276932
15.108005
14.937636
14.765863
14.592726
14.418277
14.242575
14.06569
13.887708
13.708725
13.528828
13.348124
13.166723
12.984769
12.802434
12.619873
12.437248
12.25474
12.072543
11.890859
11.709902
11.529891
11.351056
11.173632
10.997858
10.823978
10.652238
10.482885
10.316163
10.152315
9.9915825
9.8341968
18.010506
17.85917
17.705997
17.551106
17.394596
17.236546
17.077018
16.91606
16.753713
16.590003
16.424953
16.25858
16.090894
15.921908
15.75163
15.580071
15.407244
15.233165
15.057855
14.88134
14.703654
14.524838
14.344946
14.16404
13.982198
13.799509
13.616054
13.431933
13.247249
13.062146
12.876781
12.691308
12.505886
12.320694
12.135918
11.951759
11.768425
11.586133
11.405109
11.225584
11.047796
10.871985
10.698395
10.52727
10.358853
10.193386
10.031106
9.872244
18.251217
18.090031
17.927416
17.763477
17.598296
17.431939
17.264453
17.095874
16.926225
16.755522
16.583774
16.410984
16.237153
16.062278
15.886359
15.709394
15.531387
15.352343
15.172273
14.991194
14.809132
14.62612
14.442203
14.257436
14.071891
13.885649
13.698784
13.511389
13.323564
13.135449
12.947188
12.758933
12.570841
12.383085
12.195849
12.00933
11.823731
11.639267
11.45616
11.274637
11.094934
10.917289
10.741943
10.569138
10.399114
10.232112
10.068368
9.9081083
18.482127
18.311329
18.139513
17.966766
17.793157
17.618733
17.443529
17.267564
17.090847
16.913381
16.735161
16.556177
16.376416
16.195867
16.014514
15.832348
15.649358
15.465542
15.280901
15.095443
14.909183
14.722149
14.534376
14.345913
14.156823
13.967183
13.777058
13.586537
13.395713
13.204722
13.013701
12.822796
12.632158
12.441961
12.252384
12.06362
11.875868
11.68934
11.504254
11.320836
11.139317
10.959933
10.782923
10.608526
10.436982
10.268529
10.103401
9.9418228
18.703016
18.522876
18.342127
18.16084
17.979067
17.79684
17.614175
17.431078
17.247543
17.063558
16.879104
16.694159
16.508698
16.322695
16.136126
15.948968
15.761201
15.572813
15.383794
15.194144
15.00387
14.81299
14.621532
14.429539
14.237067
14.044184
13.850952
13.657452
13.463771
13.270042
13.076394
12.882969
12.689913
12.497397
12.305597
12.114701
11.924907
11.736422
11.549461
11.364247
11.181009
10.99998
10.821397
10.645496
10.472516
10.302693
10.13626
9.9734403
18.913748
18.724561
18.535172
18.345636
18.155985
17.966233
17.776382
17.586421
17.396329
17.206081
17.015643
16.824979
16.634053
16.442826
16.251263
16.059329
15.866995
15.674237
15.481037
15.287386
15.093282
14.898735
14.703767
14.508411
14.312719
14.11675
13.920562
13.72423
13.527835
13.331506
13.135365
12.939549
12.744199
12.549484
12.355578
12.162663
11.970936
11.780599
11.591865
11.404955
11.220093
11.03751
10.857442
10.680122
10.505789
10.334675
10.167014
10.003027
19.114253
18.91634
18.718627
18.52115
18.323922
18.126942
17.930192
17.733646
17.537271
17.341023
17.144857
16.948724
16.752575
16.556358
16.360027
16.163537
15.966848
15.769926
15.572744
15.375284
15.177536
14.979502
14.781196
14.582645
14.383894
14.184997
13.986004
13.786986
13.588018
13.389224
13.190721
12.992642
12.795123
12.598329
12.40243
12.207608
12.014055
11.82197
11.631563
11.443051
11.256658
11.072611
10.891143
10.712488
10.53688
10.364553
10.195738
10.030655
19.304528
19.098229
18.892525
18.687432
18.482943
18.27904
18.075688
17.872848
17.670467
17.468491
17.26686
17.065512
16.864384
16.663415
16.462546
16.261721
16.060891
15.860011
15.659046
15.45797
15.256763
15.055421
14.85395
14.652372
14.450723
14.249052
14.047406
13.845846
13.644444
13.443319
13.242585
13.042368
12.8428
12.644043
12.446266
12.249645
12.05437
11.860638
11.668655
11.478637
11.290803
11.105379
10.922595
10.742683
10.565877
10.39241
10.222514
10.056406
20.133088
19.916079
19.699903
19.484621
19.270298
19.056952
18.844578
18.633154
18.422642
18.212994
18.004153
17.796053
17.588624
17.381794
17.175487
16.969628
16.764145
16.558968
16.35403
16.149273
15.944642
15.740094
15.535592
15.331111
15.126639
14.922175
14.717734
14.513346
14.309056
14.104902
13.900944
13.697245
13.493922
13.291082
13.088851
12.887353
12.686748
12.487202
12.288889
12.091995
11.896714
11.70325
11.511816
11.322628
11.135911
10.951891
10.770799
10.592868
10.418332
10.247424
10.080359
20.328507
20.102604
19.877969
19.654646
19.432669
19.212035
18.992725
18.774697
18.557898
18.342263
18.12772
17.914188
17.701584
17.489822
17.278813
17.068472
16.858715
16.649459
16.44063
16.232158
16.023981
15.816046
15.608309
15.400737
15.193311
14.986023
14.778882
14.571912
14.365152
14.158637
13.95242
13.746559
13.541166
13.336345
13.132219
12.928907
12.726567
12.525359
12.325457
12.127043
11.930309
11.735456
11.542694
11.352239
11.164309
10.979131
10.796932
10.617945
10.442407
10.270555
10.102599
20.512818
20.278432
20.045738
19.814759
19.585499
19.357941
19.132042
18.907747
18.684985
18.463676
18.24373
18.025056
17.807555
17.591128
17.375675
17.161099
16.947303
16.734198
16.521697
16.309722
16.098201
15.887074
15.676289
15.465806
15.255598
15.045653
14.835971
14.626573
14.417491
14.208757
14.000418
13.792526
13.585189
13.378508
13.172604
12.967591
12.763622
12.560858
12.359467
12.159629
11.961535
11.765383
11.571379
11.379737
11.190674
11.004413
10.821177
10.641199
10.464723
10.291991
10.123208
20.686182
20.443738
20.203392
19.965147
19.728984
19.494865
19.262731
19.032507
18.804106
18.577434
18.352387
18.128858
17.906737
17.685911
17.466269
17.247702
17.030104
16.813374
16.597418
16.382147
16.167482
15.953355
15.739705
15.526488
15.313668
15.101227
14.889161
14.677485
14.466226
14.255411
14.045083
13.835289
13.62613
13.417706
13.210136
13.003532
12.798041
12.593821
12.391038
12.18987
11.990505
11.793139
11.597976
11.405227
11.215107
11.027834
10.843628
10.66272
10.485364
10.311819
10.142271
20.848807
20.598733
20.351148
20.106032
19.863346
19.623033
19.385014
19.149198
18.915484
18.68376
18.45391
18.225812
17.999344
17.774382
17.550802
17.328486
17.107317
16.887185
16.667986
16.449623
16.232009
16.015069
15.798735
15.582955
15.367689
15.152911
14.938614
14.724805
14.51151
14.298749
14.086562
13.874991
13.664129
13.454072
13.244947
13.036857
12.829946
12.624368
12.420287
12.217879
12.017329
11.818831
11.622589
11.42881
11.237706
11.049492
10.864382
10.6826
10.504416
10.330129
10.159871
21.000937
20.743664
20.489253
20.237662
19.988834
19.74269
19.499137
19.258065
19.019358
18.78289
18.548531
18.316146
18.085602
17.856761
17.629492
17.403664
17.179151
16.955833
16.733599
16.512343
16.291972
16.072401
15.853558
15.635384
15.417832
15.200872
14.984491
14.768692
14.553496
14.338919
14.124999
13.911771
13.699322
13.48774
13.277165
13.067693
12.85946
12.652618
12.447329
12.243767
12.042115
11.842567
11.645322
11.450586
11.258569
11.069482
10.883534
10.700926
21.142845
20.878805
20.617979
20.360308
20.105715
19.854104
19.605361
19.359365
19.115981
18.875072
18.636493
18.400099
18.165742
17.933277
17.70256
17.473451
17.245815
17.019524
16.794458
16.570504
16.34756
16.125537
15.904355
15.683949
15.464268
15.245276
15.026954
14.809302
14.592337
14.376071
14.160539
13.945772
13.731846
13.518841
13.306918
13.096162
12.886702
12.678687
12.472277
12.267645
12.064971
11.864448
11.666273
11.470651
11.27779
11.0879
10.901183
21.274833
21.004453
20.737621
20.47426
20.214275
19.957552
19.703962
19.453366
19.205617
18.960563
18.718048
18.477915
18.240005
18.004163
17.770234
17.53807
17.307526
17.078468
16.850766
16.624302
16.398966
16.174663
15.951307
15.728827
15.507167
15.286287
15.066163
14.846791
14.628183
14.410351
14.193322
13.977128
13.761835
13.547505
13.334333
13.122388
12.911791
12.702689
12.495242
12.289618
12.085999
11.884574
11.685539
11.489099
11.29546
11.104833
10.917431
21.397225
21.120925
20.848489
20.579824
20.314814
20.053329
19.795224
19.540346
19.288535
19.039627
18.793452
18.549844
18.308632
18.069653
17.832741
17.597741
17.364499
17.132873
16.902726
16.673934
16.44638
16.219963
15.994592
15.77019
15.546697
15.324068
15.102276
14.881312
14.661184
14.4419
14.223489
14.005975
13.78942
13.573856
13.359531
13.146487
12.934841
12.724736
12.51633
12.309791
12.105299
11.903042
11.703215
11.506021
11.311666
11.120363
10.93233
21.51036
21.228554
20.95091
20.677316
20.407639
20.141734
19.87944
19.620591
19.365013
19.112531
18.862966
18.616138
18.371869
18.129984
17.890312
17.652687
17.416949
17.182948
16.950541
16.719596
16.489992
16.261621
16.034388
15.808211
15.583025
15.358781
15.135448
14.913014
14.691484
14.470861
14.251173
14.032439
13.814711
13.598033
13.382634
13.168576
12.955962
12.744933
12.535645
12.328264
12.122969
11.919946
11.71939
11.521503
11.32649
11.134567
10.945952
21.614593
21.327685
21.045218
20.767062
20.493069
20.223075
19.956908
19.694388
19.435331
19.179548
18.926851
18.677051
18.42996
18.185395
17.943176
17.70313
17.46509
17.228899
16.994409
16.76148
16.529988
16.299817
16.070869
15.843058
15.616313
15.390583
15.165832
14.942046
14.719225
14.497369
14.276507
14.056649
13.837843
13.620144
13.40376
13.188766
12.975263
12.763385
12.553287
12.345133
12.139101
11.935376
11.734151
11.535629
11.340014
11.147522
10.95837
21.710283
21.418668
21.131754
20.849394
20.571422
20.297662
20.027928
19.762028
19.499767
19.240947
18.985369
18.732835
18.483149
18.23612
17.99156
17.749289
17.509135
17.270933
17.034528
16.799778
16.566551
16.334729
16.104207
15.874895
15.64672
15.419626
15.193575
14.96855
14.744545
14.521558
14.299618
14.078731
13.858937
13.640304
13.423017
13.207166
12.992847
12.780193
12.569353
12.360492
12.153785
11.949418
11.747582
11.548479
11.352313
11.159301
10.969657
21.797798
21.50186
21.210865
20.924646
20.643023
20.365807
20.092801
19.823802
19.558603
19.296999
19.03878
18.783741
18.531678
18.282392
18.035689
17.791382
17.549291
17.309248
17.071092
16.834676
16.599863
16.36653
16.134568
15.903884
15.674402
15.446061
15.218822
14.992664
14.767579
14.543556
14.320632
14.098803
13.878108
13.658623
13.440513
13.223878
13.008815
12.795452
12.583936
12.37443
12.167108
11.962155
11.759763
11.56013
11.363463
11.169976
10.979883
23.458501
23.131101
22.809391
22.4933
22.182717
21.877498
21.577619
21.282896
20.993152
20.708193
20.427821
20.151825
19.879996
19.612116
19.34797
19.087342
18.830017
18.575786
18.324441
18.075783
17.829619
17.585764
17.344043
17.104291
16.866356
16.630097
16.395388
16.162115
15.930182
15.699509
15.470034
15.241713
15.014526
14.788458
14.563487
14.339668
14.116982
13.895469
13.675209
13.456352
13.239004
13.023263
12.809255
12.597124
12.387032
12.179152
11.973668
11.77077
11.570657
11.373534
11.179616
10.989115
23.552148
23.219948
22.893715
22.573358
22.258756
21.949769
21.646308
21.348196
21.055245
20.767254
20.48401
20.205298
19.930895
19.660579
19.394123
19.131306
18.871906
18.615705
18.362491
18.112059
17.864209
17.618752
17.375508
17.134309
16.894996
16.657426
16.421468
16.187006
15.95394
15.722188
15.491683
15.262382
15.034263
14.807306
14.58147
14.356841
14.133382
13.911128
13.690165
13.470632
13.252638
13.036283
12.821691
12.609004
12.398382
12.189997
11.984032
11.780676
11.580129
11.382595
11.188286
10.997416
23.636751
23.300195
22.96986
22.645638
22.327395
22.014988
21.708284
21.407105
21.111254
20.820518
20.534678
20.253508
19.976779
19.704259
19.435716
19.17092
18.909644
18.651663
18.396761
18.144726
17.895353
17.64845
17.403832
17.161325
16.920768
16.682015
16.44493
16.209394
15.975306
15.742579
15.511146
15.280961
15.052002
14.824246
14.597622
14.372265
14.148108
13.925186
13.70359
13.483448
13.264872
13.047964
12.832845
12.619657
12.408558
12.199718
11.993319
11.789552
11.588614
11.390709
11.196049
11.004846
23.712755
23.372273
23.03824
22.710535
22.389014
22.07352
21.763898
21.45996
21.1615
20.868296
20.58012
20.296741
20.017919
19.743418
19.472999
19.206425
18.943462
18.683883
18.427464
18.173988
17.923248
17.675046
17.429193
17.185512
16.943839
16.704022
16.465925
16.229427
15.994421
15.760819
15.528553
15.297575
15.067864
14.839394
14.612052
14.386045
14.161264
13.937744
13.71558
13.494892
13.275794
13.058389
12.842798
12.629161
12.417633
12.208386
12.0016
11.797464
11.596176
11.397938
11.202963
11.011462
23.7806
23.436601
23.099259
22.768437
22.443982
22.125726
21.813494
21.50709
21.206298
20.910888
20.620626
20.335271
20.054581
19.77831
19.506215
19.238053
18.973585
18.712578
18.454805
18.200043
17.948083
17.698721
17.451766
17.207037
16.964367
16.723603
16.484603
16.247245
16.01142
15.777038
15.544029
15.312343
15.081961
14.852852
14.624876
14.398286
14.172948
13.948895
13.726223
13.505049
13.285486
13.067638
12.851627
12.637589
12.42568
12.21607
12.008938
11.804474
11.602874
11.40434
11.209085
11.017318
23.840718
23.493596
23.153313
22.819723
22.492663
22.171953
21.857405
21.548812
21.245952
20.948586
20.656473
20.369368
20.08702
19.809181
19.535599
19.26603
19.000228
18.737956
18.478982
18.223081
17.970039
17.71965
17.471718
17.226061
16.982509
16.740904
16.501104
16.262985
16.026434
15.791361
15.557693
15.325381
15.094404
14.864728
14.636192
14.409084
14.183253
13.958729
13.735608
13.514003
13.294028
13.075788
12.859404
12.645012
12.432766
12.222834
12.015397
11.810642
11.608766
11.409971
11.214468
11.022465
23.893531
23.54366
23.200789
22.864763
22.53541
22.212541
21.895955
21.585438
21.28076
20.981674
20.687934
20.399289
20.115485
19.836266
19.561379
19.290572
19.023598
18.760214
18.500185
18.243284
17.989291
17.737999
17.48921
17.242737
16.998409
16.756066
16.515564
16.276775
16.039587
15.803907
15.569661
15.336798
15.105299
14.875122
14.646098
14.418533
14.192269
13.96733
13.743814
13.521832
13.301495
13.08291
12.866199
12.651495
12.438953
12.228739
12.021034
11.816024
11.613906
11.414881
11.21916
11.026951
23.939455
23.587189
23.242064
22.903916
22.572566
22.247817
21.929458
21.617266
21.311006
21.010423
20.715268
20.425284
20.140213
19.859794
19.583771
19.311888
19.043894
18.779543
18.518597
18.260825
18.006006
17.753929
17.504393
17.257211
17.012208
16.769223
16.52811
16.288739
16.050997
15.814788
15.580039
15.346698
15.114744
14.884131
14.654683
14.426719
14.200078
13.974779
13.75092
13.528608
13.307957
13.089073
12.872076
12.657102
12.444302
12.233843
12.025904
11.820673
11.618345
11.41912
11.223209
11.030821
23.978895
23.624569
23.277506
22.937534
22.604467
22.278101
21.958219
21.644588
21.336968
21.0351
20.738729
20.447594
20.161434
19.879985
19.602986
19.330179
19.061308
18.796127
18.534393
18.275873
18.020344
17.767592
17.517415
17.269623
17.02404
16.780504
16.538865
16.298994
16.060775
15.824112