/*--------------------------------*- C++ -*----------------------------------*\
| =========                 |                                                 |
| \\      /  F ield         | OpenFOAM: The Open Source CFD Toolbox           |
|  \\    /   O peration     | Version:  2312                                  |
|   \\  /    A nd           | Website:  www.openfoam.com                      |
|    \\/     M anipulation  |                                                 |
\*---------------------------------------------------------------------------*/
FoamFile
{
    version     2.0;
    format      ascii;
    arch        "LSB;label=32;scalar=64";
    class       volScalarField;
    location    "0.03";
    object      N2;
}
// * * * * * * * * * * * * * * * * * * * * * * * * * * * * * * * * * * * * * //

dimensions      [0 0 0 0 0 0 0];

internalField   nonuniform List<scalar> 
3272
(
0.7676257
0.76761723
0.76761198
0.76760987
0.76761091
0.76761509
0.76762244
0.76763292
0.76764649
0.7676631
0.76768268
0.76770515
0.76773042
0.76775839
0.76778896
0.76782199
0.76785736
0.76789488
0.76793441
0.76797581
0.76801892
0.76806366
0.76810988
0.76815741
0.76820604
0.76825564
0.76830605
0.76835712
0.76840869
0.7684606
0.7685127
0.76856484
0.76861687
0.76866866
0.76872008
0.76877099
0.76882129
0.76887087
0.76891962
0.76896745
0.76901429
0.76906006
0.76910469
0.76914814
0.76919034
0.76923128
0.7692709
0.7693092
0.76934614
0.76938173
0.76941595
0.76944882
0.76948032
0.76246466
0.76243184
0.76240913
0.76239637
0.76239363
0.76240087
0.76241816
0.76244545
0.76248262
0.76252953
0.76258598
0.76265175
0.76272659
0.7628102
0.76290226
0.7630024
0.76311026
0.76322541
0.76334693
0.76347491
0.76360847
0.76374756
0.76389183
0.76404065
0.76419355
0.76434953
0.76450856
0.76467017
0.76483373
0.76499873
0.76516468
0.7653311
0.76549752
0.76566347
0.76582852
0.76599226
0.76615428
0.76631422
0.76647175
0.76662655
0.76677833
0.76692683
0.76707184
0.76721315
0.76735058
0.767484
0.76761327
0.76773831
0.76785905
0.76797542
0.76808741
0.768195
0.7682982
0.75719687
0.75713707
0.75709395
0.75706748
0.75705773
0.75706468
0.75708835
0.7571288
0.75718578
0.75725906
0.75734836
0.75745332
0.75757356
0.7577086
0.75785795
0.75802105
0.75819729
0.75838603
0.75858655
0.75879665
0.75901785
0.75924748
0.75948653
0.75973392
0.75998857
0.76024964
0.7605164
0.76078662
0.76106156
0.76133939
0.76161945
0.76190084
0.76218279
0.76246451
0.76274524
0.76302426
0.76330089
0.76357447
0.76384441
0.76411013
0.76437113
0.76462694
0.76487713
0.76512132
0.76535919
0.76559045
0.76581485
0.76603219
0.76624232
0.76644511
0.76664049
0.7668284
0.76700882
0.75196759
0.75188033
0.7518158
0.75177428
0.75175584
0.75176047
0.75178803
0.75183882
0.75191241
0.75200852
0.75212674
0.75226665
0.75242771
0.75260934
0.75281086
0.75303157
0.7532707
0.75352747
0.75380118
0.75408848
0.75438963
0.75470617
0.75503242
0.75537248
0.75572335
0.75608373
0.75645247
0.75682838
0.7572107
0.75759556
0.75798602
0.75837883
0.75877325
0.75916807
0.75956225
0.75995476
0.76034463
0.76073093
0.76111279
0.76148937
0.76185993
0.76222376
0.76258022
0.76292874
0.76326879
0.76359993
0.76392176
0.76423395
0.76453623
0.76482836
0.76511019
0.7653816
0.76564251
0.74690451
0.74679135
0.74670638
0.74665028
0.74662311
0.7466249
0.74665523
0.74671472
0.74680275
0.74691895
0.74706284
0.7472339
0.74743149
0.74765491
0.74790337
0.74817601
0.74847192
0.74879012
0.74912958
0.74948918
0.74986393
0.75025748
0.75066515
0.75108827
0.75152768
0.75197964
0.75244279
0.75291579
0.75339739
0.75388643
0.75437826
0.75487445
0.75537519
0.75587687
0.75637869
0.75687924
0.75737729
0.75787165
0.75836117
0.75884479
0.75932151
0.75979039
0.76025056
0.76070126
0.76114176
0.76157142
0.76198969
0.76239606
0.76279014
0.76317157
0.76354007
0.76389544
0.7642375
0.74210763
0.74197186
0.74186921
0.7418007
0.74176638
0.74176626
0.74179965
0.74186752
0.741969
0.74210365
0.74227093
0.74247021
0.74270078
0.74296182
0.74325245
0.74357169
0.74391848
0.7442917
0.74469014
0.74511248
0.74555728
0.74601802
0.74650122
0.74699885
0.74751565
0.74805009
0.7485985
0.74915928
0.74973082
0.75031154
0.7508997
0.75149448
0.75208902
0.75268782
0.75328916
0.75388957
0.75448797
0.75508286
0.75567286
0.75625669
0.75683312
0.75740099
0.75795925
0.7585069
0.75904302
0.75956681
0.7600775
0.76057446
0.7610571
0.76152495
0.7619776
0.76241472
0.76283603
0.73764419
0.73749041
0.73737432
0.73729699
0.73725841
0.7372586
0.73729667
0.73737382
0.73748896
0.73764157
0.73783104
0.73805666
0.73831764
0.73861308
0.738942
0.73930332
0.73969589
0.74011845
0.7405697
0.7410482
0.74155238
0.74208044
0.74262342
0.74319388
0.74377643
0.74438275
0.74500708
0.74564606
0.74629791
0.74696083
0.74763306
0.74831281
0.74899797
0.74968805
0.75037422
0.75106404
0.75175336
0.75243946
0.75312085
0.75379605
0.75446365
0.75512232
0.75577078
0.75640787
0.75703248
0.75764363
0.75824038
0.75882192
0.75938752
0.75993656
0.76046848
0.76098284
0.76147924
0.73354861
0.73338241
0.73325814
0.73317661
0.73313779
0.7331415
0.73318696
0.73327534
0.73340538
0.7335765
0.73378801
0.73403915
0.73432903
0.73465668
0.73502104
0.73542096
0.73585519
0.73632242
0.73682127
0.7373503
0.7379081
0.73849347
0.73909505
0.73972377
0.7403697
0.74103563
0.74172717
0.7424352
0.7431579
0.74389339
0.74463976
0.74539507
0.74615734
0.74692465
0.74769457
0.74846705
0.74923143
0.74999851
0.75076116
0.75151793
0.75226706
0.7530071
0.75373663
0.75445428
0.75515882
0.75584906
0.75652393
0.75718246
0.75782377
0.75844708
0.75905172
0.7596371
0.76020269
0.72982638
0.72965399
0.72952742
0.72944696
0.72941254
0.72942373
0.72948005
0.72958237
0.72972935
0.72992036
0.73015465
0.73043137
0.73074958
0.73110823
0.73150619
0.73194223
0.73241506
0.73292328
0.73346543
0.73403998
0.73464529
0.73527953
0.73594026
0.73661499
0.73732214
0.73804264
0.73878846
0.73955702
0.74034192
0.7411411
0.74195252
0.74277409
0.74360376
0.74443945
0.74527908
0.74612084
0.74696312
0.74780005
0.74862904
0.749458
0.75027872
0.75109042
0.75189149
0.75268039
0.75345572
0.75421616
0.75496052
0.75568765
0.75639657
0.75708634
0.75775619
0.75840537
0.75903302
0.72646014
0.72628807
0.72616527
0.72609142
0.72606635
0.72608926
0.72616036
0.72627977
0.72644626
0.72665912
0.72691754
0.72722061
0.72756731
0.72795653
0.72838709
0.72885771
0.72936702
0.72991358
0.73049587
0.73111231
0.73176126
0.73244111
0.73315047
0.7338737
0.734625
0.73540594
0.73619467
0.7370155
0.73785519
0.7387104
0.73957892
0.74045857
0.74134718
0.74224262
0.74314275
0.7440455
0.7449488
0.74585059
0.74674935
0.74763326
0.74851455
0.74938869
0.75025218
0.75110329
0.75194051
0.75276239
0.75356761
0.75435493
0.75512321
0.75587145
0.75659876
0.72341646
0.72325141
0.72313834
0.72307657
0.72306578
0.72310476
0.72319466
0.72333451
0.7235233
0.72376028
0.72404455
0.72437514
0.72475099
0.72517093
0.72563374
0.72613806
0.7266825
0.72726557
0.72788569
0.72854123
0.72923047
0.72995154
0.73070234
0.73147983
0.73226852
0.73309584
0.73393008
0.73479331
0.73568203
0.736587
0.73750597
0.73843675
0.73937711
0.74032487
0.74127785
0.74223388
0.74319085
0.74414673
0.74509955
0.7460473
0.74697753
0.74790118
0.74881886
0.74972399
0.75061493
0.75149014
0.75234821
0.75318778
0.75400763
0.75480664
0.7555837
0.72065297
0.72050161
0.72040403
0.72035957
0.7203676
0.72042719
0.72053961
0.72070316
0.72091706
0.72118047
0.72149244
0.72185195
0.72225788
0.72270903
0.72320411
0.72374175
0.7243205
0.72493884
0.72559517
0.72628783
0.72701509
0.72777516
0.72856626
0.72938673
0.73021584
0.73108202
0.73196152
0.73286001
0.73379262
0.73474215
0.73570609
0.73668224
0.73766839
0.7386623
0.73966174
0.74066451
0.74166842
0.74267136
0.74367125
0.74466601
0.74565338
0.74661993
0.74757854
0.74853049
0.74946798
0.75038939
0.7512932
0.75217798
0.75304242
0.75388532
0.75470548
0.71812611
0.71799399
0.71791708
0.71789469
0.71792554
0.7180102
0.71814834
0.71833862
0.71858023
0.71887226
0.71921373
0.71960356
0.72004058
0.72052355
0.72105116
0.72162199
0.72223458
0.72288736
0.72357872
0.72430698
0.7250704
0.72586721
0.72669577
0.72755491
0.72842348
0.7293196
0.73024999
0.73118239
0.73214959
0.73313914
0.73414348
0.73516031
0.73618737
0.73722238
0.73826307
0.73930721
0.74035256
0.74139694
0.74243817
0.74347409
0.74450238
0.74552051
0.74651478
0.74750222
0.74848009
0.7494416
0.75038511
0.75130907
0.75221211
0.75309297
0.75395037
0.71579356
0.7156858
0.71563419
0.71563794
0.71569561
0.71580883
0.71597568
0.71619536
0.71646698
0.71678959
0.71716215
0.71758355
0.71805259
0.718568
0.71912842
0.71973243
0.72037853
0.72106514
0.72179064
0.7225533
0.72335133
0.72418285
0.72504583
0.72593783
0.72685502
0.72777838
0.72874616
0.72971468
0.73071226
0.73173867
0.73277985
0.73383357
0.73489757
0.73596958
0.73704729
0.73812844
0.73921076
0.74029202
0.74136999
0.74244247
0.74350715
0.74456155
0.74560283
0.74661566
0.74762729
0.74862391
0.74960212
0.75056026
0.75149691
0.75241077
0.75330053
0.71361857
0.71353948
0.71351716
0.71355015
0.71363893
0.71378313
0.71398132
0.71423268
0.71453627
0.71489112
0.71529613
0.71575017
0.716252
0.71680034
0.71739382
0.71803099
0.71871033
0.71943028
0.72018916
0.72098527
0.72181679
0.72268184
0.72357843
0.72450452
0.72545817
0.72641366
0.72741367
0.72841946
0.72944361
0.73050387
0.73157887
0.73266636
0.73376409
0.73486974
0.73598102
0.73709564
0.73821129
0.73932573
0.74043672
0.74154207
0.74263962
0.74372734
0.74480349
0.74584726
0.74688479
0.74791283
0.74892175
0.74991002
0.75087621
0.75181903
0.75273713
0.71157053
0.71152381
0.71153387
0.71159963
0.71172223
0.71189979
0.71213148
0.71241639
0.71275357
0.71314199
0.71358054
0.71406805
0.71460329
0.71518494
0.71581161
0.71648187
0.71719419
0.71794699
0.71873861
0.71956734
0.72043139
0.72132891
0.72225799
0.72321669
0.72420314
0.72518871
0.72621409
0.72726606
0.72831456
0.72940239
0.73050862
0.7316273
0.7327561
0.73389268
0.73503472
0.7361799
0.73732593
0.73847052
0.73961143
0.74074648
0.74187358
0.74299087
0.74409716
0.74517242
0.74623129
0.74728726
0.74832351
0.74933856
0.750331
0.75129951
0.75224274
0.70962544
0.70961419
0.70965904
0.70976115
0.70991928
0.71013225
0.71039919
0.71071918
0.71109121
0.71151425
0.71198716
0.71250876
0.71307781
0.71369298
0.71435288
0.71505609
0.71580106
0.71658624
0.71740998
0.71827057
0.71916626
0.72009524
0.72105567
0.7220457
0.72306344
0.72407871
0.72513106
0.72621665
0.72729374
0.728407
0.7295426
0.73069043
0.73184815
0.7330134
0.73418387
0.73535724
0.73653119
0.73770343
0.73887171
0.74003381
0.74118751
0.7423306
0.74346052
0.74457306
0.74565169
0.74672933
0.74779002
0.74882914
0.74984517
0.75083679
0.75180259
0.70776536
0.70779159
0.7078747
0.7080148
0.70821027
0.70846025
0.70876383
0.70912006
0.70952792
0.70998634
0.7104942
0.71105029
0.71165337
0.71230212
0.71299517
0.71373108
0.71450834
0.71532539
0.71618061
0.71707231
0.71799877
0.71895824
0.71994894
0.72096911
0.722017
0.72306117
0.72413893
0.72525477
0.72636005
0.72749664
0.72866013
0.72983542
0.73102023
0.73221226
0.7334092
0.73460875
0.73580859
0.73700642
0.73819997
0.73938702
0.74056534
0.74173274
0.74288701
0.74402601
0.74512722
0.74622416
0.74730729
0.74836838
0.74940594
0.75041862
0.75140504
0.70597713
0.70604328
0.70616695
0.70634637
0.70658065
0.7068689
0.70721019
0.70760353
0.7080479
0.70854222
0.70908537
0.70967615
0.71031333
0.71099559
0.71172157
0.71248986
0.71329896
0.71414732
0.71503336
0.71595541
0.71691177
0.71790074
0.71892059
0.71996968
0.72104658
0.72211919
0.72322056
0.72436495
0.72549811
0.72665581
0.72784574
0.72904691
0.73025719
0.73147434
0.73269608
0.7339201
0.73514409
0.73636576
0.73758284
0.7387931
0.73999433
0.74118444
0.74236139
0.74352347
0.74464672
0.74576089
0.74686484
0.74794622
0.7490036
0.75003575
0.7042517
0.70436082
0.70452585
0.70474593
0.70502016
0.70534763
0.70572738
0.70615843
0.70663975
0.70717027
0.70774887
0.70837437
0.70904554
0.7097611
0.7105197
0.71131994
0.71216035
0.71303943
0.71395558
0.71490718
0.71589256
0.71690999
0.71795775
0.71903422
0.72013844
0.72124104
0.72236387
0.72353428
0.72469724
0.72587379
0.72708813
0.72831361
0.72954787
0.73078867
0.73203372
0.73328072
0.73452737
0.73577137
0.73701045
0.73824238
0.73946498
0.74067615
0.74187392
0.74305689
0.74420301
0.74533211
0.74645523
0.74755535
0.74863103
0.74968076
0.70258481
0.70273752
0.70294508
0.70320682
0.70352182
0.70388916
0.70430787
0.70477698
0.70529547
0.70586228
0.70647631
0.70713639
0.70784132
0.70858984
0.70938063
0.71021232
0.71108347
0.71199259
0.71293812
0.71391846
0.71493193
0.71597677
0.71705112
0.71815276
0.71927847
0.72042183
0.72156082
0.7227492
0.72395244
0.72514458
0.726379
0.72762728
0.72888415
0.73014726
0.7314143
0.73268296
0.73395093
0.73521593
0.73647567
0.73772792
0.73897048
0.74020113
0.74141753
0.74261668
0.74379349
0.74493343
0.74607313
0.74719059
0.74828332
0.74934966
0.70097247
0.70116964
0.70142061
0.70172472
0.70208105
0.70248865
0.70294659
0.7034539
0.70400957
0.70461258
0.70526184
0.70595622
0.70669454
0.70747558
0.70829804
0.7091606
0.71006183
0.71100028
0.71197443
0.71298267
0.71402334
0.71509468
0.71619475
0.71732139
0.718472
0.71964405
0.72080518
0.72201511
0.72324533
0.72445849
0.72571188
0.72698184
0.72826014
0.72954438
0.73083222
0.73212134
0.73340945
0.73469424
0.73597345
0.73724482
0.73850613
0.73975514
0.74098953
0.74220675
0.74340445
0.74456024
0.74571444
0.74684821
0.74795701
0.74903915
0.69941274
0.69965513
0.6999501
0.70029701
0.70069495
0.70114298
0.70164019
0.70218563
0.70277833
0.70341729
0.70410144
0.7048297
0.70560094
0.70641395
0.70726748
0.70816024
0.70909085
0.71005788
0.71105983
0.71209515
0.71316217
0.71425915
0.71538421
0.71653534
0.71771045
0.71890779
0.72009148
0.72132281
0.72257652
0.72381079
0.72508216
0.7263729
0.72767161
0.72897591
0.73028346
0.73159197
0.73289912
0.73420262
0.73550022
0.73678964
0.73806868
0.7393351
0.74058669
0.74182126
0.74303692
0.74420871
0.74537628
0.74652552
0.74764959
0.69790489
0.69819298
0.69853227
0.69892217
0.69936179
0.69985021
0.70038654
0.70096987
0.70159927
0.70227376
0.70299234
0.70375396
0.70455751
0.70540186
0.70628577
0.70720801
0.70816722
0.70916203
0.71019098
0.71125251
0.71234503
0.71346682
0.71461609
0.71579099
0.71698969
0.71821062
0.71941616
0.72066806
0.72194379
0.72319849
0.72448662
0.72579729
0.72711548
0.72843887
0.72976514
0.73109202
0.7324172
0.73373842
0.73505341
0.73635991
0.73765571
0.73893865
0.7402066
0.74145753
0.74268967
0.74387689
0.74505667
0.74622056
0.74735852
0.69644889
0.69678288
0.69716658
0.69759943
0.69808057
0.69860913
0.69918425
0.69980507
0.70047069
0.70118019
0.7019326
0.70272694
0.70356213
0.70443708
0.70535063
0.70630155
0.70728857
0.70831032
0.70936539
0.71045229
0.71156943
0.71271519
0.71388784
0.71508566
0.71630697
0.71755024
0.71877671
0.7200482
0.72134495
0.72261942
0.723923
0.72525278
0.72658955
0.72793109
0.72927514
0.73061944
0.73196172
0.7332997
0.73463114
0.7359538
0.73726547
0.73856403
0.73984742
0.74111376
0.74236138
0.74356359
0.74475437
0.74593225
0.74708365
0.69504505
0.6954249
0.69585285
0.69632841
0.69685073
0.69741901
0.69803243
0.69869018
0.69939141
0.70013526
0.70092082
0.70174713
0.7026132
0.70351797
0.70446033
0.7054391
0.70645305
0.70750088
0.7085812
0.70969257
0.71083346
0.7120023
0.71319746
0.71441729
0.71566022
0.71692475
0.71817115
0.71946121
0.72077812
0.72207196
0.72338969
0.72473772
0.72609218
0.72745096
0.72881187
0.73017268
0.73153114
0.732885
0.734232
0.73556993
0.7368966
0.73820988
0.73950777
0.74078851
0.74205075
0.74326808
0.74446865
0.74565987
0.74682429
0.69369384
0.69411929
0.69459113
0.69510895
0.69567194
0.69627936
0.69693044
0.69762443
0.69836055
0.69913799
0.69995589
0.70081337
0.70170947
0.70264319
0.70361349
0.70461922
0.70565922
0.70673221
0.70783688
0.70897182
0.71013557
0.7113266
0.71254335
0.71378427
0.71504782
0.71633254
0.71759783
0.71890528
0.72024146
0.72155506
0.72288566
0.72425089
0.72562207
0.72699719
0.72837407
0.72975051
0.73112429
0.73249315
0.73385487
0.73520723
0.73654803
0.73787515
0.73918657
0.74048051
0.74175605
0.74299025
0.74419931
0.74540278
0.69239572
0.6928663
0.6933815
0.69394095
0.69454394
0.69518976
0.69587774
0.69660717
0.69737734
0.69818751
0.69903689
0.69992463
0.70084986
0.70181163
0.70280894
0.70384071
0.70490582
0.70600306
0.70713115
0.70828874
0.70947442
0.71068673
0.71192416
0.71318522
0.71446841
0.71577225
0.71705529
0.71837866
0.7197324
0.72106859
0.7224106
0.72379123
0.72517818
0.7265687
0.72796067
0.72935189
0.73074015
0.7321232
0.73349882
0.73486479
0.73621892
0.73755905
0.73888305
0.74018877
0.74147353
0.74273144
0.74394684
0.74515921
0.6911511
0.69166615
0.69222396
0.69282428
0.69346644
0.69414982
0.6948738
0.69563777
0.69644108
0.69728304
0.69816294
0.69908
0.70003339
0.70102224
0.70204561
0.70310246
0.70419174
0.70531227
0.70646284
0.70764215
0.70884884
0.7100815
0.71133869
0.71261895
0.7139208
0.71524275
0.71654244
0.71787986
0.71924547
0.72061481
0.72196472
0.72335788
0.7247595
0.72616453
0.72757074
0.72897592
0.73037784
0.73177428
0.73316302
0.73454183
0.73590854
0.73726095
0.73859691
0.73991422
0.7412105
0.74248329
0.74370875
0.7449296
0.68996021
0.69051889
0.69111845
0.6917587
0.69243909
0.69315906
0.69391807
0.69471557
0.69555101
0.69642376
0.69733316
0.69827853
0.69925909
0.70027403
0.70132245
0.70240341
0.70351587
0.70465874
0.70583084
0.70703093
0.7082577
0.70950979
0.71078582
0.71208435
0.71340395
0.7147431
0.71605869
0.71741003
0.71879118
0.72018125
0.72154442
0.72294956
0.72436504
0.72578375
0.7272034
0.72862174
0.73003655
0.73144562
0.73284672
0.73423765
0.73561621
0.73698023
0.73832757
0.73965608
0.74096367
0.74224851
0.74348433
0.74471324
0.68882311
0.68942443
0.69006471
0.69074387
0.69146142
0.69221691
0.69300987
0.69383985
0.69470633
0.6956088
0.69654666
0.69751929
0.69852598
0.69956597
0.70063844
0.7017425
0.70287716
0.70404139
0.70523406
0.70645399
0.7076999
0.70897051
0.71026446
0.71158037
0.71291683
0.71427234
0.71560317
0.71696802
0.71836465
0.71977144
0.72114843
0.72256512
0.72399382
0.72542546
0.72685778
0.72828853
0.7297155
0.73113646
0.7325492
0.73395153
0.73534126
0.73671624
0.73807435
0.73941351
0.74073178
0.74202742
0.74327323
0.74450959
0.68773966
0.68838249
0.68906235
0.68977926
0.69053283
0.69132268
0.69214845
0.69300976
0.69390618
0.69483725
0.69580247
0.69680127
0.69783301
0.69889701
0.6999925
0.70111864
0.70227451
0.70345913
0.70467141
0.70591023
0.70717437
0.70846258
0.70977356
0.71110597
0.71245843
0.71382949
0.71517486
0.71655263
0.71796397
0.71938566
0.72077597
0.72220361
0.72364488
0.72508878
0.72653306
0.7279755
0.7294139
0.73084605
0.73226975
0.73368281
0.73508305
0.73646834
0.73783659
0.73918579
0.74051407
0.74181974
0.7430751
0.74431818
0.68670953
0.6873926
0.68811078
0.6888642
0.68965256
0.69047557
0.69133294
0.69222439
0.69314956
0.69410809
0.69509954
0.6961234
0.69717912
0.69826607
0.69938353
0.70053074
0.70170682
0.70291084
0.70414178
0.70539855
0.70668001
0.70798492
0.70931205
0.71066009
0.71202772
0.71341354
0.71477274
0.71616272
0.71758792
0.71902333
0.72042627
0.72186415
0.72331737
0.72477284
0.7262284
0.72768185
0.72913101
0.73057367
0.73200766
0.73343079
0.7348409
0.73623587
0.73761364
0.73897225
0.74030991
0.74162499
0.74288956
0.74413864
0.68573219
0.68645411
0.68720928
0.6879979
0.68881974
0.68967462
0.69056235
0.69148271
0.69243544
0.69342025
0.69443677
0.69548458
0.69656317
0.69767199
0.69881039
0.69997763
0.70117293
0.70239539
0.70364404
0.70491785
0.70621571
0.70753645
0.70887886
0.71024169
0.71162367
0.71302345
0.71439575
0.71579723
0.71723547
0.71868367
0.7200985
0.72154588
0.7230104
0.72447682
0.725943
0.7274068
0.72886606
0.73031859
0.73176223
0.73319481
0.73461416
0.7360182
0.73740486
0.73877224
0.74011861
0.74144258
0.74271624
0.74397062
0.68480695
0.68556619
0.68635694
0.68717937
0.68803336
0.6889188
0.68983559
0.6907836
0.69176267
0.69277257
0.693813
0.69488362
0.69598399
0.6971136
0.69827188
0.69945816
0.70067169
0.70191162
0.70317705
0.70446698
0.70578035
0.70711605
0.7084729
0.7098497
0.71124522
0.71265819
0.71404287
0.71545516
0.71690564
0.7183658
0.71979182
0.72124796
0.72272315
0.72419987
0.72567604
0.72714956
0.7286183
0.73008009
0.73153277
0.73297418
0.73440219
0.73581469
0.73720964
0.73858513
0.73993949
0.74127169
0.7425549
0.7438139
0.68393295
0.68472785
0.68555272
0.68640756
0.6872923
0.68820695
0.68915149
0.69012589
0.69113005
0.69216382
0.693227
0.69431929
0.69544033
0.69658968
0.69776681
0.69897112
0.70020189
0.70145836
0.70273964
0.7040448
0.70537282
0.70672262
0.70809309
0.70948306
0.71089134
0.71231673
0.71371307
0.7151355
0.71659745
0.71806882
0.71950536
0.72096955
0.72245478
0.72394118
0.72542674
0.72690937
0.72838698
0.72985743
0.73131857
0.73276825
0.73420434
0.73562473
0.73702739
0.73841033
0.73977184
0.74111107
0.74240559
0.74366844
0.683109
0.68393793
0.68479544
0.68568124
0.68659534
0.68753783
0.68850879
0.68950828
0.69053629
0.69159274
0.6926775
0.69379033
0.69493095
0.69609898
0.69729394
0.69851527
0.69976234
0.7010344
0.70233064
0.70365015
0.70499197
0.70635505
0.70773833
0.70914068
0.71056097
0.71199804
0.71340534
0.71483726
0.71630997
0.71779183
0.71923824
0.72070979
0.72220445
0.72369994
0.72519429
0.72668546
0.72817137
0.72964991
0.73111894
0.73257634
0.73401997
0.73544773
0.73685755
0.73824738
0.73961514
0.74095822
0.74226926
0.74353432
0.67989563
0.68068413
0.681497
0.68233282
0.68319507
0.68408383
0.68499914
0.68594117
0.68691012
0.68790618
0.68892947
0.68998008
0.69105801
0.69216318
0.69329544
0.69445457
0.69564022
0.696852
0.6980894
0.69935181
0.70063856
0.70194887
0.70328188
0.70463666
0.70601223
0.70740754
0.70882152
0.71025307
0.71170108
0.71311868
0.71455946
0.71604224
0.71753391
0.71898958
0.72046786
0.72197134
0.72347534
0.72497792
0.72647706
0.72797073
0.72945682
0.73093321
0.7323978
0.73384846
0.73528308
0.7366996
0.73809591
0.73946985
0.74081885
0.74213972
0.74340967
0.67906141
0.67988675
0.6807342
0.68160413
0.68249808
0.68341656
0.6843599
0.68532842
0.68632245
0.68734227
0.68838809
0.68946006
0.69055827
0.69168272
0.6928333
0.69400986
0.69521212
0.69643973
0.69769224
0.69896908
0.70026963
0.70159316
0.70293883
0.70430578
0.70569305
0.70709963
0.7085245
0.7099666
0.71142486
0.7128521
0.71430115
0.71579333
0.71729417
0.71875852
0.72024292
0.72175466
0.7232666
0.72477686
0.72628344
0.72778433
0.72927745
0.73076071
0.73223198
0.73368918
0.73513021
0.73655301
0.73795549
0.7393355
0.74069065
0.74201875
0.74329394
0.67827878
0.67913928
0.68001994
0.68092172
0.68184559
0.6827922
0.68376207
0.68475566
0.6857734
0.68681565
0.68788272
0.68897484
0.69009217
0.69123475
0.69240258
0.69359553
0.6948134
0.69605587
0.69732255
0.69861294
0.69992642
0.70126232
0.70261987
0.7039982
0.70539642
0.70681355
0.70824859
0.70970055
0.71116838
0.71260462
0.71406139
0.71556231
0.71707172
0.71854421
0.72003417
0.7215536
0.72307295
0.72459036
0.72610387
0.72761148
0.72911114
0.73060076
0.73207826
0.73354154
0.73498853
0.73641722
0.7378256
0.73921157
0.74057271
0.74190677
0.74318686
0.67754631
0.67844021
0.67935239
0.68028408
0.68123613
0.68220928
0.68320419
0.68422142
0.68526149
0.68632487
0.68741195
0.68852302
0.6896583
0.69081792
0.69200193
0.69321026
0.69444275
0.69569915
0.69697911
0.69828216
0.69960774
0.70095522
0.70232385
0.70371282
0.70512125
0.70654822
0.70799277
0.70945391
0.71093066
0.71237529
0.71383924
0.71534825
0.71686567
0.71834581
0.71984083
0.7213674
0.72289363
0.72441768
0.72593763
0.72745148
0.7289572
0.73045274
0.731936
0.73340492
0.73485746
0.73629169
0.73770573
0.73909766
0.74046464
0.74180374
0.74308818
0.67686241
0.67778789
0.67872981
0.67968958
0.68066813
0.68166626
0.68268472
0.68372418
0.68478526
0.68586849
0.68697433
0.68810317
0.68925529
0.69043087
0.69163002
0.69285274
0.69409891
0.69536832
0.69666068
0.69797555
0.69931243
0.7006707
0.70204967
0.70344855
0.7048665
0.70630263
0.70775601
0.7092257
0.71071074
0.71216317
0.71363381
0.71515023
0.71667512
0.71816254
0.71966216
0.7211953
0.72272791
0.72425812
0.72578403
0.72730366
0.728815
0.730316
0.7318046
0.73327874
0.73473643
0.73617584
0.73759537
0.73899346
0.74036628
0.74170922
0.7429974
0.6762254
0.67718062
0.67815047
0.67913659
0.68013999
0.68116156
0.68220212
0.68326244
0.6843432
0.68544502
0.68656844
0.6877139
0.68888175
0.69007224
0.69128553
0.69252167
0.6937806
0.69506215
0.69636605
0.69769194
0.69903933
0.70040765
0.70179623
0.70320433
0.70463113
0.70607577
0.70753735
0.70901497
0.71050769
0.71196735
0.71344415
0.71496734
0.71649914
0.71799371
0.71949752
0.72103658
0.72257507
0.72411097
0.72564239
0.72716737
0.7286839
0.73018995
0.73168347
0.73316243
0.73462487
0.73606909
0.73749385
0.73889862
0.67563364
0.67661668
0.67761266
0.67862342
0.67965008
0.68069359
0.68175484
0.68283465
0.68393381
0.685053
0.68619282
0.68735379
0.68853631
0.68974069
0.69096715
0.69221578
0.69348658
0.69477941
0.69609405
0.69743017
0.69878732
0.70016497
0.70156247
0.70297911
0.70441412
0.70586665
0.70733583
0.70882079
0.71032061
0.71178694
0.71326936
0.71479864
0.71633663
0.71783878
0.71934635
0.72089054
0.72243444
0.72397557
0.72551207
0.72704197
0.72856329
0.730074
0.73157205
0.73305544
0.73452223
0.73597081
0.73740022
0.67508552
0.67609435
0.67711465
0.6781484
0.67919676
0.68026075
0.6813413
0.68243931
0.68355562
0.68469098
0.68584607
0.68702145
0.68821761
0.68943491
0.6906736
0.69193382
0.69321563
0.69451892
0.69584352
0.69718912
0.69855531
0.69994159
0.70134735
0.70277191
0.7042145
0.70567432
0.70715053
0.70864226
0.71014861
0.71162107
0.71310859
0.71464314
0.71618602
0.71769778
0.71920808
0.72075659
0.72230536
0.72385128
0.72539243
0.72692686
0.72845258
0.72996757
0.73146979
0.73295723
0.73442799
0.73588039
0.73731279
0.67457948
0.67561185
0.67665471
0.67770982
0.67877839
0.67986144
0.68095996
0.68207489
0.68320713
0.68435751
0.68552677
0.68671554
0.68792434
0.68915359
0.6904036
0.69167457
0.69296655
0.69427952
0.69561332
0.69696769
0.69834223
0.69973649
0.70114987
0.70258172
0.70403132
0.70549786
0.70698054
0.7084785
0.70999086
0.71146892
0.71296101
0.71449995
0.71604434
0.71757217
0.71908213
0.7206341
0.72218721
0.72373746
0.72528287
0.72682145
0.72835121
0.72987012
0.73137615
0.73286731
0.73434167
0.73579751
0.73723274
0.6741195
0.67516733
0.6762311
0.67730602
0.67839334
0.67949409
0.68060927
0.68173989
0.6828869
0.68405119
0.68523356
0.68643469
0.68765517
0.68889547
0.69015594
0.69143681
0.6927382
0.69406009
0.69540237
0.69676481
0.69814705
0.69954865
0.70096905
0.70240762
0.70386365
0.70533638
0.706825
0.70832869
0.70984655
0.71132973
0.71282594
0.71436881
0.71591617
0.71745579
0.71896749
0.72052237
0.72207933
0.72363352
0.72518281
0.72672518
0.72825863
0.72978113
0.73129065
0.7327852
0.73426284
0.73572181
0.73715981
0.67370566
0.67476089
0.67584208
0.67693533
0.67804001
0.67915713
0.68028773
0.68143284
0.68259349
0.68377062
0.68496508
0.68617761
0.68740886
0.68865933
0.68992942
0.6912194
0.69252943
0.69385952
0.6952096
0.69657946
0.69796877
0.69937711
0.70080395
0.70224869
0.70371063
0.70518903
0.70668309
0.708192
0.70971489
0.71120275
0.71270274
0.71424934
0.71580037
0.71734847
0.71886308
0.72042068
0.72198113
0.72353886
0.72509167
0.7266375
0.72817432
0.72970009
0.73121279
0.73271043
0.73419106
0.73565291
0.73709355
0.67332005
0.67439676
0.67548579
0.6765961
0.67771679
0.67884902
0.67999384
0.68115231
0.68232551
0.68351445
0.68472001
0.68594302
0.68718415
0.68844395
0.68972287
0.69102121
0.69233915
0.69367677
0.69503399
0.69641064
0.69780642
0.69922093
0.70065367
0.70210404
0.70357138
0.70505496
0.706554
0.70806768
0.70959514
0.71108729
0.71259074
0.71414089
0.71569574
0.71725027
0.71876816
0.72032838
0.72189198
0.72345293
0.72500894
0.7265579
0.72809777
0.72962652
0.73114212
0.73264256
0.73412592
0.73559039
0.73703353
0.67296163
0.67407128
0.67516264
0.67628674
0.67742215
0.67856827
0.67972615
0.68089689
0.6820816
0.68328135
0.68449709
0.68572968
0.68697985
0.68824818
0.68953517
0.69084114
0.69216632
0.6935108
0.69487454
0.69625739
0.69765907
0.69907921
0.70051733
0.70197284
0.7034451
0.7049334
0.70643696
0.70795496
0.70948654
0.71098268
0.7124893
0.71404276
0.71560129
0.71716096
0.71868215
0.72024485
0.72181133
0.72337518
0.72493407
0.72648588
0.72802852
0.72955997
0.73107819
0.73258117
0.734067
0.73553386
0.73697931
0.66693153
0.66808475
0.66922957
0.67036879
0.67150476
0.67263653
0.67377011
0.67487501
0.67600534
0.67715454
0.6783134
0.67948325
0.6806652
0.68186043
0.68307005
0.68429507
0.6855364
0.68679479
0.6880709
0.68936523
0.69067815
0.69200991
0.69336063
0.6947303
0.69611879
0.69752584
0.6989511
0.70039409
0.70185428
0.70333101
0.70482358
0.70633123
0.7078531
0.70938836
0.71088834
0.71239784
0.71395431
0.71551626
0.71708017
0.71860449
0.72016953
0.72173862
0.72330509
0.72486659
0.72642095
0.7279661
0.72949998
0.73102057
0.73252586
0.73401391
0.73548295
0.7369305
0.66654309
0.66771759
0.66888221
0.67003984
0.67119277
0.67234216
0.67349379
0.67461948
0.67575132
0.67691255
0.67808301
0.67926376
0.68045592
0.68166072
0.6828793
0.68411275
0.685362
0.68662787
0.68791102
0.68921201
0.69053123
0.69186895
0.69322533
0.69460037
0.69599395
0.69740586
0.69883575
0.70028316
0.70174757
0.70322834
0.70472479
0.70623611
0.70776141
0.70929973
0.71080382
0.71231578
0.71387491
0.71543996
0.71700748
0.71853467
0.72010188
0.72167335
0.72324218
0.72480602
0.72636268
0.72791008
0.72944615
0.73096887
0.73247623
0.73396629
0.73543728
0.73688674
0.66619285
0.66738668
0.66856928
0.66974365
0.67091215
0.67207671
0.67324014
0.67439427
0.67552437
0.67669465
0.67787569
0.67906635
0.68026777
0.68148122
0.68270792
0.68394898
0.68520539
0.68647799
0.68776751
0.6890745
0.6903994
0.6917425
0.69310397
0.69448385
0.69588204
0.69729832
0.69873238
0.70018378
0.70165198
0.70313639
0.70463631
0.70615093
0.70767916
0.70921953
0.71072903
0.71224257
0.71380398
0.7153718
0.71694241
0.71847221
0.72004141
0.72161504
0.72318597
0.7247519
0.72631063
0.72786004
0.72939808
0.7309227
0.73243191
0.73392378
0.73539653
0.7368477
0.66587878
0.66709011
0.66828896
0.66947843
0.67066103
0.67183906
0.67301492
0.67418853
0.67532468
0.67649925
0.67769013
0.67888976
0.68009952
0.68132075
0.68255474
0.68380264
0.68506548
0.68634414
0.68763936
0.68895174
0.69028174
0.69162966
0.69299571
0.69437992