/*--------------------------------*- C++ -*----------------------------------*\
| =========                 |                                                 |
| \\      /  F ield         | OpenFOAM: The Open Source CFD Toolbox           |
|  \\    /   O peration     | Version:  2312                                  |
|   \\  /    A nd           | Website:  www.openfoam.com                      |
|    \\/     M anipulation  |                                                 |
\*---------------------------------------------------------------------------*/
FoamFile
{
    version     2.0;
    format      ascii;
    arch        "LSB;label=32;scalar=64";
    class       volScalarField;
    location    "0.03";
    object      nut;
}
// * * * * * * * * * * * * * * * * * * * * * * * * * * * * * * * * * * * * * //

dimensions      [0 2 -1 0 0 0 0];

internalField   nonuniform List<scalar> 
3272
(
0.026416294
0.026416898
0.02642322
0.026435309
0.026453243
0.026477088
0.026506901
0.026542736
0.026584642
0.026632665
0.026686852
0.026747247
0.026813898
0.026886851
0.026966149
0.027051841
0.027143976
0.027242606
0.027347781
0.027459553
0.027577975
0.027703101
0.027834984
0.027973675
0.028119226
0.028271685
0.028431095
0.028597495
0.028770915
0.028951375
0.029138881
0.029333425
0.029534976
0.029743484
0.029958873
0.030181036
0.030409839
0.030645111
0.030886648
0.031134207
0.031387508
0.03164623
0.031910013
0.032178457
0.032451121
0.032727528
0.03300716
0.033289468
0.033573873
0.033859774
0.034146574
0.034433611
0.034720152
0.02741711
0.02744246
0.027471749
0.027504958
0.027542109
0.027583217
0.027628296
0.027677359
0.027730423
0.027787509
0.027848641
0.027913853
0.027983184
0.028056696
0.028134414
0.02821641
0.028302753
0.028393523
0.028488803
0.028588685
0.028693266
0.028802652
0.028916951
0.029036277
0.029160741
0.029290458
0.029425542
0.029566102
0.029712243
0.02986406
0.030021638
0.030185049
0.030354344
0.030529559
0.030710702
0.030897759
0.031090683
0.031289396
0.031493786
0.031703704
0.031918961
0.03213933
0.032364543
0.03259429
0.032828218
0.033065937
0.033307013
0.033550974
0.033797309
0.034045459
0.034294806
0.034544767
0.034794787
0.028333722
0.02838266
0.028433906
0.028487384
0.028543064
0.028600919
0.028660925
0.028723065
0.028787328
0.028853709
0.028922213
0.028992858
0.029065674
0.029140724
0.029218041
0.029297665
0.029379699
0.029464235
0.029551378
0.029641242
0.029733947
0.029829637
0.029928463
0.030030576
0.030136136
0.030245305
0.030358249
0.030475132
0.030596119
0.030721364
0.030851018
0.030985219
0.031124091
0.031267742
0.031416261
0.031569712
0.031728134
0.031891537
0.032059897
0.032233159
0.032411228
0.03259397
0.032781213
0.032972742
0.033168301
0.033367592
0.033570275
0.033775972
0.033984262
0.034194687
0.034406757
0.034619964
0.034833793
0.029101898
0.029171916
0.029242786
0.029314398
0.029386684
0.029459576
0.029533022
0.029606989
0.029681442
0.029756357
0.029831721
0.02990754
0.029983833
0.030060655
0.030138068
0.030216046
0.03029473
0.030374216
0.030454621
0.030536087
0.030618721
0.030702697
0.03078819
0.030875382
0.030964462
0.031055624
0.03114907
0.031245002
0.031343625
0.031445139
0.031549744
0.031657629
0.031768975
0.031883947
0.032002699
0.032125363
0.032252049
0.032382844
0.032517804
0.032656956
0.032800292
0.032947768
0.0330993
0.033254764
0.033413995
0.033576788
0.033742899
0.033912045
0.034083899
0.034258099
0.034434248
0.034611921
0.034790682
0.029683968
0.029771587
0.029858791
0.029945459
0.030031495
0.030116793
0.03020128
0.030284921
0.030367665
0.030449467
0.030530305
0.030610171
0.030689077
0.030767086
0.030844237
0.030920489
0.030995999
0.031070863
0.031145201
0.031219149
0.031292849
0.031366473
0.031440205
0.03151424
0.031588787
0.031664063
0.031740288
0.031817693
0.031896508
0.031976966
0.032059298
0.032143738
0.032230503
0.032319806
0.032411848
0.032506815
0.032604877
0.032706183
0.032810858
0.032919
0.033030678
0.033145925
0.03326474
0.033387081
0.033512858
0.033641933
0.03377417
0.033909376
0.034047313
0.034187705
0.034330242
0.034474585
0.034620408
0.030071369
0.030172644
0.03027241
0.030370553
0.030466962
0.030561533
0.030654115
0.030744702
0.030833238
0.030919665
0.031003954
0.031086089
0.031166071
0.031244001
0.03131979
0.031393507
0.031465279
0.031535201
0.031603388
0.031669975
0.031735109
0.031798945
0.031861668
0.031923487
0.031984621
0.032045302
0.032105768
0.032166266
0.032227046
0.032288367
0.032350491
0.032413671
0.032478152
0.032544186
0.032612007
0.032681849
0.032753927
0.032828446
0.032905591
0.032985519
0.033068365
0.033154233
0.033243201
0.033335324
0.033430642
0.033529146
0.033630696
0.033735151
0.033842342
0.033952063
0.034064071
0.03417808
0.034293787
0.030280907
0.030391834
0.030500324
0.030606257
0.030709477
0.030810136
0.030907683
0.031002305
0.031093927
0.031182488
0.031267952
0.031350301
0.031429585
0.031505818
0.031578892
0.031648943
0.031716043
0.031780279
0.031841762
0.03190062
0.031957001
0.032011064
0.032062985
0.03211297
0.03216124
0.032208025
0.032253578
0.032298152
0.032342011
0.032385423
0.03242866
0.032472004
0.032515745
0.032560167
0.032605546
0.032652158
0.03270026
0.032750109
0.032801952
0.032855991
0.032912408
0.032971359
0.033032972
0.033097331
0.033164469
0.033234411
0.033307167
0.033382686
0.033460873
0.033541592
0.033624672
0.033709903
0.033797022
0.030347812
0.030464859
0.03057873
0.030689322
0.030796522
0.030900224
0.031000246
0.031096522
0.031188992
0.031277602
0.03136231
0.03144312
0.031520043
0.031592907
0.031661844
0.031726907
0.031788164
0.031845699
0.031899614
0.031950034
0.0319971
0.032040974
0.032081826
0.032119852
0.03215528
0.032188335
0.032219278
0.032248372
0.032275891
0.032302116
0.032327336
0.032351848
0.032375955
0.03239996
0.032424166
0.032448875
0.032474376
0.032500952
0.032528849
0.032558339
0.032589661
0.032623032
0.03265864
0.032696647
0.032737192
0.032780394
0.032826277
0.032874843
0.032926057
0.032979851
0.033036131
0.033094768
0.033155498
0.030316368
0.030436751
0.03055331
0.030665987
0.030774625
0.030879105
0.030979295
0.03107508
0.031166386
0.031253173
0.031335456
0.031413146
0.031486115
0.031554441
0.031618138
0.031677252
0.031731841
0.03178198
0.031827765
0.03186931
0.031906747
0.031940232
0.03196994
0.031996051
0.032018787
0.032038382
0.032055083
0.032069169
0.032080919
0.032090623
0.032098579
0.032105099
0.0321105
0.032115104
0.032119237
0.032123225
0.032127392
0.032132055
0.03213752
0.032144086
0.032152034
0.032161628
0.032173107
0.032186681
0.03220252
0.032220734
0.032241461
0.032264784
0.032290737
0.03231933
0.032350553
0.032384343
0.03242004
0.030230013
0.030351568
0.030468822
0.030581703
0.030690016
0.030793522
0.030892117
0.030985798
0.031074512
0.031158319
0.031236973
0.031310434
0.031378692
0.031441716
0.031499509
0.031552137
0.031599649
0.031642104
0.031679584
0.031712191
0.031740048
0.031763302
0.031782128
0.031796702
0.031807225
0.031813944
0.031817095
0.031816952
0.031813804
0.031807947
0.031799687
0.031789344
0.031777249
0.031763741
0.031749166
0.031733873
0.031718212
0.031702532
0.031687177
0.031672481
0.031658771
0.031646351
0.03163551
0.031626509
0.031619581
0.031614918
0.031612689
0.031613022
0.031616013
0.03162174
0.031630296
0.030126812
0.030247889
0.030364255
0.030475832
0.030582453
0.03068396
0.030780234
0.030871158
0.03095681
0.031036691
0.031110867
0.031179368
0.031242199
0.031299382
0.031350956
0.031396982
0.031437419
0.031472299
0.03150169
0.031525685
0.031544378
0.031557931
0.031566514
0.031570305
0.031569487
0.031564295
0.031554972
0.031541775
0.031525
0.031504946
0.031481926
0.031456269
0.031428315
0.031398417
0.031366936
0.031334241
0.031300704
0.0312667
0.031232603
0.031198783
0.031165598
0.031133397
0.031102511
0.031073247
0.031045889
0.031020687
0.03099786
0.030977589
0.030960033
0.030945326
0.030933352
0.030036
0.03015541
0.030269788
0.030379064
0.030483042
0.03058158
0.030674611
0.030762009
0.030843546
0.03091924
0.030989041
0.031052867
0.031110675
0.031162433
0.031208093
0.031247542
0.031280922
0.031308319
0.031329818
0.031345527
0.031355625
0.03136027
0.031359537
0.031353576
0.03134256
0.03132671
0.031306275
0.031281489
0.031252646
0.031220062
0.031184054
0.031144954
0.031103112
0.031058889
0.03101266
0.030964804
0.030915715
0.030865788
0.030815423
0.030765016
0.03071496
0.030665635
0.030617408
0.030570629
0.030525623
0.030482688
0.030442087
0.030404055
0.030368809
0.030336551
0.030307143
0.029977024
0.030093894
0.030205487
0.030311711
0.030412375
0.030507498
0.030596685
0.030679937
0.030757184
0.030828339
0.030893334
0.030952102
0.031004595
0.031050783
0.031090657
0.03112424
0.031151523
0.031172541
0.031187353
0.031196028
0.031198608
0.031195159
0.031185917
0.031171081
0.031150845
0.031125424
0.031095101
0.031060203
0.031020951
0.030977619
0.030930512
0.030879963
0.030826327
0.030769976
0.030711289
0.030650645
0.030588462
0.030525157
0.03046115
0.03039686
0.030332703
0.03026909
0.030206415
0.030145059
0.030085384
0.030027724
0.029972387
0.029919649
0.029869775
0.029823019
0.029779285
0.029960359
0.030074012
0.030182207
0.030284813
0.030381841
0.0304728
0.030557795
0.030636705
0.030709434
0.030775897
0.03083602
0.030889741
0.03093701
0.030977794
0.031012076
0.031039858
0.03106115
0.031075982
0.031084408
0.031086501
0.031082373
0.031072139
0.031055914
0.031033857
0.031006155
0.030972997
0.030934593
0.030891111
0.030842914
0.030790335
0.030733713
0.030673393
0.030609741
0.030543165
0.030474083
0.030402882
0.030329952
0.030255707
0.030180578
0.030104998
0.030029408
0.02995424
0.029879905
0.029806799
0.029735322
0.029665842
0.029598699
0.029534206
0.029472663
0.029414364
0.029359275
0.029989332
0.030099206
0.030203545
0.030302137
0.03039476
0.030481383
0.030561911
0.030636239
0.030704274
0.030765933
0.030821143
0.030869842
0.03091198
0.030947522
0.030976447
0.030998752
0.031014446
0.031023558
0.031026137
0.031022253
0.031011999
0.030995486
0.030972842
0.03094422
0.030909803
0.030869784
0.030824411
0.030773946
0.030718632
0.030658765
0.030594677
0.03052671
0.030455216
0.030380515
0.030303001
0.030223146
0.030141397
0.030058198
0.029973997
0.029889249
0.029804422
0.029719981
0.029636351
0.029553957
0.029473198
0.029394459
0.0293181
0.029244459
0.029173865
0.029106641
0.029042818
0.030062274
0.030168039
0.030267866
0.030361856
0.030449876
0.030531834
0.030607624
0.030677152
0.030740329
0.030797075
0.030847319
0.030891
0.03092807
0.030958493
0.030982246
0.030999322
0.031009731
0.031013498
0.031010669
0.031001308
0.030985504
0.030963362
0.030935012
0.030900606
0.030860323
0.030814352
0.030762926
0.030706301
0.030644736
0.030578528
0.030508002
0.030433506
0.030355405
0.030274099
0.030189976
0.030103446
0.030014941
0.029924911
0.029833809
0.029742089
0.029650175
0.029558515
0.029467604
0.029377903
0.029289847
0.029203847
0.029120289
0.029039533
0.02896194
0.028887851
0.028817355
0.030174737
0.030275513
0.030370484
0.030459556
0.030542631
0.03061961
0.030690398
0.030754908
0.030813055
0.030864763
0.030909964
0.0309486
0.030980623
0.031005997
0.031024698
0.031036719
0.031042066
0.031040763
0.031032853
0.031018397
0.030997478
0.030970199
0.030936688
0.030897095
0.030851597
0.030800381
0.030743672
0.030681716
0.030614784
0.03054317
0.030467198
0.030387214
0.030303587
0.030216704
0.030126972
0.030034809
0.029940653
0.029844953
0.029748171
0.029650777
0.029553253
0.029456058
0.029359649
0.02926448
0.029170995
0.029079615
0.028990739
0.028904733
0.028821921
0.028742671
0.028667153
0.030320231
0.030415749
0.030505442
0.030589227
0.030667015
0.030738715
0.030804241
0.030863511
0.030916447
0.030962976
0.031003035
0.031036566
0.031063522
0.031083868
0.03109758
0.031104649
0.031105079
0.031098893
0.031086129
0.031066847
0.031041125
0.031009064
0.030970789
0.030926446
0.03087621
0.030820266
0.030758838
0.030692165
0.030620517
0.030544193
0.030463507
0.030378811
0.030290473
0.030198879
0.030104438
0.030007576
0.029908733
0.029808363
0.029706933
0.029604917
0.029502792
0.029401036
0.029300118
0.029200501
0.029102632
0.029006944
0.028913844
0.028823715
0.028736937
0.02865386
0.028574674
0.030492569
0.030582389
0.030666403
0.030744542
0.030816717
0.030882846
0.030942853
0.030996663
0.031044202
0.031085402
0.031120201
0.031148545
0.031170386
0.031185689
0.03119443
0.031196597
0.031192194
0.031181239
0.03116377
0.031139842
0.031109531
0.031072934
0.031030173
0.030981389
0.030926752
0.030866444
0.030800699
0.030729743
0.030653846
0.030573308
0.030488437
0.030399587
0.030307123
0.030211435
0.030112931
0.030012039
0.029909204
0.029804883
0.029699545
0.029593667
0.029487732
0.029382221
0.029277612
0.029174374
0.029072961
0.028973814
0.028877345
0.028783949
0.028694009
0.028607942
0.030685719
0.030769426
0.030847389
0.030919534
0.030985784
0.031046066
0.03110031
0.031148447
0.031190408
0.031226128
0.031255546
0.031278609
0.03129527
0.031305492
0.03130925
0.031306531
0.031297334
0.031281678
0.031259595
0.031231138
0.031196379
0.031155412
0.031108356
0.031055348
0.030996544
0.030932119
0.030862334
0.030787401
0.030707583
0.030623178
0.030534495
0.030441883
0.030345707
0.030246357
0.030144242
0.030039791
0.029933451
0.029825682
0.029716955
0.02960775
0.029498553
0.029389849
0.02928212
0.02917584
0.029071469
0.028969453
0.028870212
0.028774149
0.028681651
0.028593059
0.030894316
0.030971533
0.03104309
0.031108921
0.031168958
0.031223138
0.031271395
0.031313663
0.031349878
0.031379976
0.031403897
0.031421586
0.031432997
0.031438092
0.031436843
0.031429233
0.03141526
0.031394938
0.031368297
0.031335385
0.031296271
0.031251046
0.031199825
0.03114274
0.031079935
0.031011572
0.030937939
0.030859242
0.030775732
0.030687702
0.030595468
0.030499368
0.030399768
0.030297058
0.030191647
0.030083966
0.029974461
0.029863594
0.029751839
0.029639677
0.029527597
0.029416086
0.029305632
0.029196709
0.02908978
0.028985302
0.028883697
0.028785373
0.028690727
0.028600077
0.031113761
0.031184143
0.031248977
0.031308209
0.03136178
0.031409633
0.031451706
0.031487935
0.031518256
0.031542607
0.031560927
0.031573161
0.03157926
0.031579183
0.031572899
0.03156039
0.031541648
0.031516682
0.03148552
0.031448205
0.031404801
0.031355395
0.031300095
0.031239029
0.03117234
0.031100202
0.031022862
0.030940546
0.030853505
0.030762025
0.030666421
0.030567027
0.030464207
0.03035835
0.030249866
0.030139185
0.030026754
0.029913036
0.029798505
0.029683644
0.029568944
0.029454896
0.029341987
0.029230697
0.029121493
0.02901483
0.028911139
0.028810832
0.028714312
0.028621899
0.031340207
0.03140345
0.031461289
0.031513679
0.03156057
0.031601907
0.03163763
0.031667678
0.031691985
0.031710488
0.031723126
0.03172984
0.031730578
0.031725297
0.03171396
0.031696545
0.031673041
0.031643453
0.031607801
0.031566126
0.031518485
0.031464959
0.031405651
0.031340684
0.031270205
0.03119439
0.031113457
0.031027639
0.030937191
0.030842393
0.030743555
0.030641009
0.030535119
0.030426273
0.030314879
0.030201366
0.030086182
0.02996979
0.029852665
0.029735291
0.02961816
0.029501764
0.029386594
0.029273132
0.029161847
0.029053197
0.028947616
0.028845525
0.028747349
0.031570487
0.031626336
0.031676955
0.031722305
0.031762343
0.031797014
0.031826259
0.031850017
0.03186822
0.031880804
0.031887702
0.031888853
0.031884203
0.0318737
0.031857307
0.031834993
0.031806744
0.031772558
0.031732451
0.031686457
0.031634629
0.031577042
0.031513791
0.031444998
0.031370807
0.031291396
0.031206964
0.031117741
0.031023986
0.030925974
0.030824013
0.030718429
0.030609587
0.030497874
0.030383695
0.030267481
0.030149677
0.030030746
0.029911164
0.029791417
0.029671996
0.029553395
0.029436107
0.029320615
0.029207394
0.029096899
0.028989571
0.028885833
0.028786078
0.031802019
0.031850269
0.031893491
0.031931651
0.031964705
0.031992602
0.03201528
0.032032675
0.032044718
0.032051339
0.032052468
0.032048041
0.032037995
0.032022276
0.032000838
0.031973648
0.031940683
0.031901937
0.031857419
0.031807156
0.031751196
0.031689607
0.03162248
0.031549932
0.031472104
0.031389174
0.031301326
0.031208788
0.031111813
0.031010678
0.030905688
0.030797165
0.030685472
0.030570995
0.030454138
0.030335328
0.030215012
0.030093652
0.029971725
0.029849715
0.029728117
0.029607424
0.02948813
0.029370722
0.029255674
0.029143445
0.029034478
0.028929201
0.028827992
0.032032705
0.032073205
0.032108903
0.032139767
0.032165753
0.032186808
0.032202868
0.032213864
0.032219723
0.03222037
0.032215732
0.032205734
0.032190312
0.032169402
0.032142955
0.032110928
0.032073293
0.032030036
0.031981162
0.03192669
0.031866661
0.031801138
0.031730207
0.031653978
0.031572592
0.03148622
0.031395039
0.03129927
0.03119916
0.031094987
0.030987057
0.030875685
0.030761234
0.030644086
0.030524643
0.030403333
0.030280601
0.030156908
0.03003273
0.029908555
0.029784874
0.029662185
0.02954098
0.029421749
0.029304966
0.029191094
0.029080576
0.028973849
0.028871286
0.032260845
0.032293496
0.032321593
0.032345102
0.032363979
0.032378166
0.032387594
0.032392191
0.032391876
0.03238657
0.032376191
0.03236066
0.032339903
0.032313852
0.032282448
0.032245642
0.032203399
0.032155699
0.032102537
0.032043927
0.031979904
0.031910524
0.031835867
0.031756039
0.031671177
0.031581446
0.031487017
0.031388103
0.031284945
0.031177816
0.031067032
0.030952901
0.030835781
0.03071605
0.030594112
0.03047039
0.03034533
0.030219392
0.030093053
0.029966798
0.029841122
0.029716521
0.02959349
0.029472518
0.029354083
0.029238648
0.029126662
0.029018576
0.032485065
0.032509818
0.032530284
0.032546425
0.032558193
0.032565525
0.032568346
0.032566577
0.032560131
0.03254892
0.032532856
0.032511853
0.032485828
0.032454705
0.032418418
0.03237691
0.032330139
0.032278075
0.032220709
0.032158046
0.032090114
0.032016963
0.031938667
0.031855328
0.031767078
0.031674077
0.03157649
0.031474522
0.031368403
0.031258407
0.031144855
0.031028054
0.030908354
0.030786129
0.030661782
0.030535736
0.030408433
0.030280335
0.030151918
0.030023667
0.029896077
0.029769644
0.029644866
0.029522231
0.029402219
0.029285295
0.029171914
0.029062496
0.032704255
0.032721111
0.032733962
0.032742765
0.032747464
0.03274799
0.032744263
0.032736193
0.032723687
0.03270665
0.032684983
0.032658592
0.032627386
0.032591282
0.032550204
0.032504088
0.032452883
0.032396552
0.032335077
0.032268457
0.032196712
0.032119887
0.032038049
0.031951295
0.031859752
0.031763575
0.031662923
0.031557995
0.03144901
0.031336242
0.031220013
0.031100632
0.030978439
0.030853809
0.030727141
0.030598856
0.030469396
0.030339223
0.03020881
0.030078644
0.029949219
0.029821032
0.029694581
0.029570357
0.029448839
0.029330498
0.029215789
0.02910512
0.032917526
0.032926532
0.032931826
0.032933358
0.032931066
0.032924871
0.032914685
0.03290041
0.032881945
0.032859182
0.032832017
0.032800345
0.032764067
0.03272309
0.032677331
0.032626716
0.032571185
0.032510696
0.03244522
0.03237475
0.0322993
0.032218906
0.032133631
0.032043565
0.031948831
0.031849577
0.031745958
0.031638165
0.031526414
0.031410977
0.031292167
0.031170296
0.031045702
0.030918755
0.030789854
0.030659417
0.030527886
0.030395721
0.030263394
0.030131393
0.030000211
0.029870347
0.029742298
0.029616556
0.029493603
0.029373909
0.029257934
0.029146081
0.033124171
0.033125416
0.03312325
0.033117616
0.033108443
0.033095643
0.033079117
0.033058759
0.033034457
0.033006094
0.032973557
0.03293673
0.032895506
0.032849782
0.032799465
0.032744474
0.032684741
0.032620213
0.032550855
0.032476653
0.032397612
0.032313764
0.032225163
0.032131896
0.032034078
0.031931853
0.03182537
0.031714814
0.031600398
0.031482395
0.031361104
0.031236838
0.031109934
0.030980762
0.030849717
0.030717217
0.0305837
0.030449627
0.030315469
0.030181713
0.030048852
0.029917386
0.029787811
0.029660621
0.0295363
0.029415318
0.029298137
0.029185158
0.033323634
0.033317245
0.033307752
0.03329509
0.033279177
0.033259915
0.033237194
0.033210899
0.033180905
0.033147088
0.033109322
0.033067484
0.033021454
0.032971122
0.032916386
0.032857154
0.03279335
0.032724915
0.032651803
0.032573994
0.032491487
0.032404304
0.032312496
0.032216143
0.032115354
0.032010268
0.031901029
0.031787817
0.03167084
0.031550373
0.031426702
0.03130014
0.031171022
0.031039718
0.03090662
0.030772144
0.030636729
0.030500832
0.030364925
0.030229493
0.030095031
0.029962037
0.029831009
0.029702441
0.029576817
0.02945461
0.029336283
0.029222235
0.033515493
0.033501629
0.033484973
0.033465449
0.033442963
0.033417406
0.033388658
0.033356591
0.033321071
0.033281962
0.033239127
0.033192435
0.033141755
0.033086967
0.033027959
0.032964632
0.032896901
0.032824696
0.032747967
0.032666684
0.032580838
0.032490448
0.032395556
0.032296237
0.032192594
0.032084762
0.031972878
0.031857119
0.031737689
0.031614861
0.031488913
0.031360155
0.03122892
0.031095577
0.030960517
0.030824156
0.030686929
0.030549292
0.030411718
0.030274691
0.030138704
0.030004255
0.029871845
0.029741967
0.029615106
0.029491737
0.029372322
0.029257262
0.03369943
0.033678282
0.033654654
0.033628459
0.033599591
0.033567929
0.03353334
0.033495685
0.033454819
0.033410595
0.033362866
0.033311488
0.033256324
0.033197241
0.03313412
0.033066851
0.032995342
0.032919514
0.032839309
0.03275469
0.032665642
0.032572174
0.032474326
0.032372164
0.032265789
0.032155327
0.032040913
0.031922718
0.031800944
0.031675859
0.031547737
0.031416884
0.031283629
0.031148342
0.031011413
0.030873255
0.030734303
0.030595012
0.030455852
0.030317307
0.030179871
0.030044043
0.02991032
0.029779199
0.029651165
0.029526694
0.02940625
0.029290234
0.033875227
0.033847009
0.033816624
0.033783972
0.033748933
0.033711372
0.033671145
0.0336281
0.033582082
0.033532931
0.033480492
0.033424609
0.033365134
0.033301927
0.033234858
0.033163808
0.033088676
0.033009376
0.032925842
0.03283803
0.032745916
0.032649506
0.032548831
0.032443954
0.032334967
0.032221995
0.032105167
0.031984649
0.031860639
0.031733404
0.031603211
0.031470363
0.031335187
0.031198052
0.031059346
0.03091948
0.03077889
0.030638027
0.030497362
0.030357379
0.030218569
0.030081431
0.029946465
0.029814166
0.029685021
0.029559508
0.029438092
0.029321175
0.034042741
0.034007691
0.033970785
0.033931908
0.033890924
0.033847686
0.033802037
0.033753813
0.033702847
0.03364897
0.033592013
0.033531812
0.033468209
0.033401053
0.033330205
0.033255539
0.033176945
0.033094328
0.033007615
0.032916754
0.032821716
0.0327225
0.03261913
0.032511665
0.032400191
0.032284829
0.032165703
0.032042976
0.03191684
0.031787559
0.031655399
0.031520658
0.031383658
0.031244768
0.031104377
0.030962893
0.030820749
0.030678398
0.030536308
0.030394962
0.030254853
0.030116477
0.029980334
0.02984692
0.029716725
0.029590227
0.029467895
0.02935013
0.034201898
0.034160274
0.034117103
0.034072249
0.03402556
0.033976878
0.033926033
0.03387285
0.033817149
0.03375875
0.033697476
0.03363315
0.033565604
0.03349468
0.033420229
0.033342116
0.033260221
0.033174445
0.033084705
0.032990942
0.032893122
0.032791237
0.032685306
0.032575381
0.032461545
0.032343913
0.032222606
0.032097782
0.03196963
0.031838409
0.031704384
0.031567848
0.031429122
0.031288572
0.031146585
0.03100357
0.030859958
0.0307162
0.030572764
0.030430132
0.030288794
0.030149249
0.030011994
0.029877527
0.029746339
0.029618912
0.029495718
0.02937716
0.034489792
0.034445117
0.034399443
0.034352669
0.034304764
0.034255599
0.034205026
0.034152884
0.034099
0.034043194
0.033985277
0.03392506
0.033862351
0.033796963
0.033728709
0.033657411
0.033582902
0.033505024
0.033423633
0.033338604
0.033249826
0.033157212
0.033060696
0.032960236
0.032855819
0.03274746
0.032635203
0.032519129
0.032399348
0.032275976
0.032149168
0.032019107
0.031886052
0.031750262
0.031612031
0.031471673
0.031329555
0.031186062
0.031041602
0.030896605
0.03075152
0.030606815
0.03046297
0.030320476
0.030179828
0.030041525
0.029906063
0.029773936
0.029645633
0.029521631
0.029402331
0.03465209
0.034600466
0.034548177
0.034495126
0.034441226
0.034386342
0.034330317
0.034272979
0.034214142
0.034153613
0.034091194
0.034026684
0.03395988
0.033890584
0.033818601
0.033743743
0.033665833
0.033584706
0.033500209
0.033412209
0.033320589
0.033225254
0.033126132
0.033023175
0.032916363
0.032805707
0.032691247
0.032573058
0.032451245
0.032325923
0.032197242
0.03206538
0.031930593
0.031793138
0.031653308
0.031511413
0.031367818
0.031222907
0.031077087
0.030930785
0.030784452
0.030638554
0.030493569
0.030349986
0.030208301
0.03006901
0.029932609
0.029799596
0.029670468
0.029545711
0.02942572
0.034805254
0.034747002
0.03468841
0.034629369
0.034569762
0.034509441
0.034448236
0.034385963
0.034322424
0.034257416
0.034190729
0.03412215
0.034051467
0.033978471
0.033902959
0.033824733
0.033743608
0.033659408
0.033571977
0.03348117
0.033386866
0.033288962
0.033187379
0.033082066
0.032972996
0.032860174
0.032743636
0.032623453
0.032499727
0.032372568
0.032242123
0.032108566
0.031972148
0.031833125
0.03169179
0.031548449
0.031403466
0.031257223
0.031110125
0.030962599
0.030815094
0.030668075
0.030522021
0.030377418
0.030234759
0.03009454
0.029957254
0.029823405
0.029693503
0.029568044
0.02944741
0.034949389
0.03488484
0.034820263
0.034755533
0.034690512
0.034625037
0.034558927
0.034491983
0.034423997
0.034354754
0.034284032
0.03421161
0.034137264
0.034060777
0.033981934
0.033900531
0.033816373
0.033729279
0.033639081
0.033545631
0.033448799
0.033348476
0.033244578
0.033137047
0.033025852
0.032910993
0.032792501
0.032670444
0.032544919
0.032416035
0.032283933
0.032148784
0.032010834
0.031870337
0.031727589
0.031582893
0.031436609
0.031289117
0.031140821
0.030992149
0.030843547
0.030695479
0.030548423
0.030402865
0.030259296
0.030118207
0.029980092
0.029845458
0.029714836
0.029588728
0.029467494
0.035084648
0.035014136
0.034943894
0.034873781
0.034803643
0.034733301
0.03466256
0.03459121
0.034519031
0.034445796
0.034371274
0.034295232
0.034217438
0.034137664
0.034055689
0.033971299
0.03388429
0.033794475
0.033701678
0.033605745
0.033506538
0.033403944
0.033297873
0.03318826
0.033075071
0.032958301
0.032837978
0.032714163
0.032586953
0.032456451
0.032322798
0.032186159
0.032046772
0.031904891
0.031760821
0.031614857
0.031467356
0.031318697
0.031169282
0.031019537
0.03086991
0.030720863
0.030572872
0.030426424
0.030282006
0.030140107
0.030001221
0.029865863
0.029734582
0.029607868
0.029486063
0.035211214
0.035135078
0.035059493
0.034984306
0.034909347
0.034834424
0.034759326
0.034683833
0.034607713
0.034530729
0.034452638
0.034373198
0.034292168
0.034209312
0.034124399
0.034037207
0.033947527
0.033855161
0.03375993
0.03366167
0.03356024
0.03345552
0.033347414
0.033235854
0.033120799
0.033002241
0.032880204
0.032754746
0.03262596
0.032493946
0.032358843
0.032220813
0.032080085
0.031936907
0.031791601
0.031644455
0.031495819
0.03134607
0.031195612
0.031044868
0.030894285
0.030744325
0.030595465
0.030448188
0.030302981
0.030160334
0.030020743
0.02988474
0.035329306
0.03524788
0.035167275
0.035087323
0.035007839
0.034928618
0.034849436
0.034770061
0.034690249
0.034609753
0.034528321
0.034445701
0.034361644
0.034275905
0.034188245
0.034098434
0.034006257
0.033911509
0.033814003
0.033713571
0.033610065
0.033503359
0.033393354
0.033279976
0.033163181
0.033042955
0.032919319
0.032792329
0.032662073
0.032528651
0.032392197
0.032252871
0.032110893
0.031966501
0.031820044
0.031671798
0.031522106
0.031371345
0.031219915
0.031068242
0.03091677
0.030765963
0.030616295
0.03046825
0.030322315
0.030178981
0.030038753
0.035439164
0.035352782
0.035267476
0.035183065
0.03509935
0.03501611
0.034933112
0.03485011
0.034766851
0.034683078
0.034598528
0.034512943
0.034426063
0.034337635
0.034247415
0.034155164
0.03406066
0.033963693
0.033864069
0.033761614
0.033656175
0.033547621
0.033435849
0.033320779
0.033202364
0.033080586
0.032955464
0.032827048
0.032695426
0.032560694
0.032422985
0.032282456
0.032139319
0.031993791
0.031846264
0.031696999
0.031546327
0.031394625
0.031242295
0.03108976
0.030937464
0.030785871
0.030635455
0.030486699
0.030340093
0.030196131
0.030055313
0.035541051
0.035450042
0.035360349
0.035271781
0.035184122
0.03509714
0.035010588
0.034924211
0.034837744
0.034750921
0.034663473
0.03457513
0.034485626
0.0343947
0.0343021
0.034207583
0.034110918
0.03401189
0.033910299
0.033805966
0.033698733
0.033588464
0.033475051
0.033358412
0.033238494
0.033115278
0.032988776
0.032859039
0.03272615
0.032590203
0.032451332
0.032309687
0.032165479
0.032018891
0.031870376
0.031720165
0.031568587
0.031416016
0.031262852
0.031109519
0.030956462
0.030804142
0.030653035
0.030503624
0.0303564
0.030211865
0.03007051
0.035635245
0.035539931
0.035446161
0.035353731
0.035262411
0.035171955
0.035082106
0.034992597
0.034903156
0.034813507
0.034723371
0.034632473
0.034540538
0.034447298
0.034352495
0.034255879
0.034157214
0.034056277
0.033952866
0.033846796
0.033737902
0.033626047
0.033511117
0.033393025
0.033271718
0.03314717
0.033019394
0.032888435
0.032754375
0.032617305
0.032477359
0.032334681
0.032189471
0.032041932
0.031892492
0.031741405
0.031588989
0.031435616
0.031281683
0.031127615
0.030973855
0.030820866
0.030669123
0.030519109
0.030371317
0.030226256
0.030084409
0.035722036
0.035622731
0.035525187
0.035429184
0.035334478
0.03524081
0.035147913
0.03505551
0.034963321
0.03487106
0.034778443
0.034685185
0.034591005
0.03449563
0.034398794
0.034300241
0.03419973
0.034097033
0.033991943
0.033884269
0.033773845
0.033660527
0.033544197
0.033424767
0.033302178
0.033176404
0.033047453
0.032915369
0.032780229
0.032642124
0.032501186
0.032357555
0.032211423
0.03206301
0.031912719
0.031760824
0.031607636
0.031453524
0.031298884
0.03114414
0.030989734
0.03083613
0.030683801
0.030533234
0.030384922
0.030239376
0.030097077
0.035801719
0.03569873
0.03559771
0.035498415
0.035400589
0.035303963
0.035208259
0.035113192
0.035018473
0.034923809
0.034828908
0.034733479
0.034637235
0.034539896
0.034441189
0.034340855
0.034238647
0.034134333
0.034027699
0.033918552
0.033806721
0.033692058
0.033574442
0.033453782
0.033330016
0.033203115
0.033073085
0.032939968
0.032803838
0.032664778
0.03252293
0.032378422
0.032231445
0.032082232
0.031931161
0.031778522
0.031624626
0.031469836
0.031314548
0.031159183
0.031004185
0.030850017
0.030697153
0.030546078
0.030397289
0.030251298
0.030108584
0.035874588
0.035768223