/*--------------------------------*- C++ -*----------------------------------*\
| =========                 |                                                 |
| \\      /  F ield         | OpenFOAM: The Open Source CFD Toolbox           |
|  \\    /   O peration     | Version:  2312                                  |
|   \\  /    A nd           | Website:  www.openfoam.com                      |
|    \\/     M anipulation  |                                                 |
\*---------------------------------------------------------------------------*/
FoamFile
{
    version     2.0;
    format      ascii;
    arch        "LSB;label=32;scalar=64";
    class       volScalarField;
    location    "0.03";
    object      O2;
}
// * * * * * * * * * * * * * * * * * * * * * * * * * * * * * * * * * * * * * //

dimensions      [0 0 0 0 0 0 0];

internalField   nonuniform List<scalar> 
3272
(
0.2257415
0.22566718
0.22559598
0.22552824
0.22546433
0.22540442
0.22534857
0.22529702
0.22524999
0.2252077
0.22517035
0.2251381
0.22511114
0.22508959
0.22507361
0.2250633
0.22505877
0.22506008
0.2250673
0.22508045
0.22509956
0.22512465
0.22515571
0.22519268
0.22523545
0.22528395
0.22533807
0.22539766
0.22546256
0.22553258
0.22560749
0.22568706
0.22577102
0.2258591
0.225951
0.2260464
0.22614497
0.22624639
0.2263503
0.22645635
0.2265642
0.22667347
0.22678382
0.2268949
0.22700636
0.22711787
0.2272291
0.22733974
0.22744948
0.22755804
0.22766516
0.22777057
0.22787406
0.21651674
0.2162706
0.21603357
0.21580707
0.21559198
0.21539018
0.21520029
0.21502353
0.21486082
0.21471286
0.2145803
0.21446376
0.21436382
0.21428101
0.21421582
0.21416868
0.21413998
0.21413005
0.2141391
0.21416737
0.21421486
0.21428179
0.21436826
0.21447416
0.21459937
0.21474317
0.21490567
0.21508655
0.21528519
0.21550102
0.2157334
0.2159816
0.21624482
0.21652217
0.21681271
0.21711543
0.2174293
0.2177532
0.21808602
0.2184266
0.21877375
0.2191263
0.21948307
0.21984286
0.22020452
0.22056691
0.22092891
0.22128945
0.2216475
0.22200208
0.22235227
0.2226972
0.22303604
0.20719057
0.20676614
0.20635524
0.20596125
0.20558555
0.20523256
0.20489852
0.20458487
0.20429401
0.20402713
0.20378534
0.20356972
0.20338128
0.20322097
0.2030897
0.20298827
0.20291745
0.20287788
0.20287016
0.20289457
0.2029517
0.20304129
0.20316418
0.20332038
0.20350966
0.20373177
0.20398644
0.20427169
0.20458902
0.2049366
0.20531366
0.20571899
0.20615138
0.20660941
0.20709159
0.20759627
0.20812173
0.20866614
0.20922761
0.20980415
0.21039377
0.21099441
0.21160399
0.21222044
0.21284171
0.21346574
0.21409053
0.21471414
0.2153347
0.21595041
0.21655955
0.21716053
0.21775178
0.19806742
0.19746602
0.19688058
0.19631753
0.19577858
0.19527148
0.19479004
0.19433376
0.19390795
0.19351419
0.19315402
0.19282895
0.19254041
0.19228981
0.19207845
0.19190759
0.19177837
0.19169186
0.191649
0.1916506
0.191697
0.19178938
0.19192674
0.19211141
0.19234272
0.19262049
0.19294443
0.19331398
0.19372888
0.19418497
0.19468608
0.19522835
0.19581072
0.19643126
0.19708805
0.19777896
0.19850167
0.19925373
0.20003253
0.20083537
0.20165943
0.20250183
0.2033596
0.20422978
0.20510936
0.20599536
0.20688482
0.20777486
0.20866266
0.2095455
0.21042079
0.21128607
0.2121389
0.18940479
0.18863419
0.18788053
0.18715375
0.18645558
0.18579687
0.18517121
0.18457285
0.18401134
0.18348858
0.18300647
0.1825669
0.18217174
0.18182278
0.18152177
0.18127037
0.18107016
0.18092262
0.18082912
0.18079092
0.18080891
0.18088399
0.18101616
0.18120672
0.18145745
0.18176742
0.18213658
0.18256466
0.18305127
0.18359587
0.18419333
0.18484561
0.1855534
0.18631174
0.18711915
0.18797298
0.18887055
0.18980888
0.19078482
0.19179503
0.19283599
0.19390407
0.1949955
0.19610645
0.19723301
0.19837126
0.1995173
0.20066724
0.20181729
0.20296377
0.20410311
0.20523191
0.20634677
0.18139579
0.18046842
0.17955878
0.17868003
0.17783473
0.17702633
0.17626648
0.17553305
0.17484085
0.1741925
0.17359032
0.1730366
0.17253355
0.17208337
0.17168819
0.17135007
0.17107099
0.17085287
0.1706975
0.17060653
0.17058149
0.17062321
0.17073335
0.17091126
0.17115984
0.17148018
0.17187155
0.17233391
0.17286699
0.1734702
0.17414243
0.17488343
0.17568447
0.17655145
0.17748231
0.1784716
0.17951691
0.18061487
0.18176193
0.18295426
0.18418782
0.18545834
0.18676136
0.18809229
0.18944641
0.19081892
0.19220498
0.19359977
0.1949985
0.1963965
0.19778922
0.19917225
0.20054118
0.17416159
0.17309261
0.17204274
0.17102613
0.17004426
0.16911054
0.16822412
0.16736502
0.16655106
0.16578491
0.16506914
0.16440631
0.16379893
0.16324953
0.16276058
0.16233448
0.16197363
0.1616803
0.16145669
0.16130488
0.16122681
0.16122425
0.16129774
0.16145037
0.16167964
0.16199151
0.16238547
0.16286107
0.16341834
0.16405699
0.16477633
0.16557534
0.16645213
0.16740665
0.16842612
0.16952137
0.17068609
0.1719151
0.17320472
0.17455089
0.17594915
0.17739478
0.17888279
0.18040793
0.1819648
0.1835478
0.18515127
0.18676949
0.18839674
0.19002737
0.19165585
0.19327678
0.19488474
0.16775436
0.16656077
0.16538888
0.16425151
0.16315058
0.16211074
0.16111065
0.16013899
0.15921555
0.15834286
0.15752358
0.15676045
0.15605623
0.15541367
0.15483554
0.15432457
0.15388347
0.15351488
0.15322135
0.15300537
0.15286928
0.1528153
0.15284498
0.15296025
0.15316093
0.15344935
0.15383081
0.15430294
0.15486619
0.1555206
0.15626586
0.15710122
0.15802545
0.15903694
0.16013285
0.16131342
0.16256126
0.16389327
0.16529702
0.16676856
0.16830291
0.16989515
0.17153988
0.17323135
0.17496358
0.17673033
0.17852519
0.18034165
0.18217313
0.18401309
0.18585506
0.18769264
0.18951938
0.16216715
0.16086719
0.15959317
0.15835483
0.15715451
0.15602209
0.15492278
0.15385516
0.15283721
0.15187171
0.15096152
0.15010954
0.14931874
0.14859208
0.14793257
0.14734321
0.14682699
0.14638686
0.1460257
0.14574633
0.14555145
0.14544364
0.14542531
0.14549739
0.14566364
0.14592186
0.1462783
0.14673501
0.14729072
0.14794588
0.14870053
0.14955429
0.1505063
0.15155522
0.15269917
0.15393616
0.15526401
0.15667252
0.15815576
0.15972721
0.16137045
0.16308193
0.16485589
0.16668619
0.16856634
0.17048961
0.17244897
0.17443722
0.17644703
0.17847106
0.18050196
0.18253235
0.18455414
0.15734734
0.15595911
0.15460231
0.15328225
0.15200153
0.15079287
0.14960873
0.14846148
0.14736452
0.14632086
0.14533351
0.14440553
0.14354004
0.14274018
0.14200917
0.14135023
0.14076657
0.14026141
0.13983792
0.1394992
0.13924828
0.13908807
0.13902131
0.13904997
0.13917605
0.13940358
0.13972797
0.14016134
0.14070068
0.14134625
0.14209847
0.14295734
0.14392238
0.14499263
0.14616659
0.14744227
0.14881713
0.15028788
0.15185161
0.15348558
0.15521055
0.15701679
0.15889506
0.16083884
0.16284133
0.16489535
0.1669934
0.16912769
0.17129028
0.17347315
0.17566832
0.15320928
0.15175246
0.15033036
0.14894638
0.14760586
0.14633564
0.14508117
0.14386972
0.14270879
0.14160144
0.14055077
0.13955993
0.13863216
0.13777077
0.13697912
0.1362606
0.13561865
0.13505667
0.13457808
0.13418623
0.13388442
0.13367584
0.13356358
0.13355056
0.13363778
0.13383074
0.13412465
0.13452938
0.13504767
0.13567752
0.13641977
0.13727481
0.13824256
0.13932243
0.1405133
0.14181347
0.14322072
0.14473225
0.14634473
0.14805398
0.14983491
0.15170585
0.153667
0.15570218
0.15780435
0.15996604
0.16217935
0.16443601
0.16672752
0.16904519
0.17138008
0.14965179
0.14814589
0.14667392
0.14523733
0.14387294
0.14254247
0.14123317
0.13997167
0.13876073
0.13760327
0.1365024
0.13546134
0.13448341
0.13357201
0.13273063
0.13196281
0.13127213
0.13066219
0.13013659
0.1296989
0.12935267
0.12910133
0.12894825
0.12889667
0.1289485
0.12910779
0.12937311
0.12974799
0.1302433
0.13085452
0.13158266
0.1324285
0.13339235
0.13447398
0.13567262
0.13698692
0.13841494
0.13995412
0.14160129
0.14335246
0.1452025
0.14712306
0.14913668
0.1512447
0.15342733
0.15567686
0.15798506
0.16034328
0.16274258
0.16517376
0.16762729
0.14657841
0.14503811
0.14353266
0.14206796
0.14067603
0.139297
0.13795158
0.1366533
0.13540504
0.13420978
0.13307064
0.13199088
0.13097391
0.13002319
0.12914232
0.12833495
0.12760479
0.12695559
0.12639111
0.12591511
0.1255313
0.12524336
0.12505484
0.12496921
0.12498924
0.12511681
0.12535771
0.12570597
0.12617638
0.12676822
0.12748053
0.12831442
0.12927054
0.13034903
0.13154944
0.13287075
0.13431133
0.13586886
0.13754035
0.13932194
0.1412087
0.14319436
0.14524846
0.14740292
0.14965001
0.15197084
0.15435684
0.15679899
0.15928797
0.16181418
0.1643677
0.14389356
0.14233082
0.14079901
0.13933979
0.13791473
0.13650067
0.13513041
0.13380654
0.1325319
0.13130947
0.13014241
0.12903403
0.12798776
0.12700716
0.1260959
0.12525773
0.12449646
0.12381596
0.12322013
0.12271287
0.12229806
0.12197955
0.1217611
0.12164637
0.12163888
0.12173963
0.12195607
0.12228174
0.12272838
0.12330152
0.12399779
0.12481864
0.12576507
0.12683752
0.1280359
0.12935949
0.13080696
0.13237626
0.13406462
0.13586843
0.13778305
0.13980256
0.14191938
0.14409783
0.1463931
0.1487719
0.15122174
0.15373325
0.15629682
0.15890257
0.16154022
0.14151677
0.13994438
0.13840888
0.13694533
0.13548891
0.13406096
0.13267561
0.13133558
0.13004372
0.12880308
0.12761683
0.12648832
0.12542103
0.12441858
0.1234847
0.12262321
0.12183804
0.12113313
0.12051252
0.11998022
0.11954026
0.11919664
0.11895329
0.11881406
0.1187827
0.11886081
0.11905506
0.1193616
0.11978615
0.12034166
0.12102242
0.12183009
0.12276595
0.12383077
0.12502475
0.12634747
0.12779789
0.12937426
0.13107409
0.13289414
0.13483034
0.13687793
0.13903185
0.14124559
0.14357045
0.14599737
0.14849996
0.15106904
0.1536949
0.15636743
0.15907615
0.13937815
0.13779918
0.1362917
0.13480786
0.13333514
0.13190116
0.13050855
0.12916004
0.1278585
0.126607
0.12540875
0.12426712
0.12318564
0.12216798
0.12121791
0.12033935
0.11953626
0.11881272
0.11817283
0.11762074
0.11716058
0.11679649
0.11653255
0.11637275
0.11632097
0.11637933
0.11655285
0.11684538
0.11725046
0.11778806
0.11845414
0.11924893
0.12017397
0.1212303
0.12241839
0.12373812
0.12518873
0.12676873
0.12847594
0.13030739
0.13225944
0.13432793
0.13650915
0.13875893
0.14110285
0.14356892
0.14611504
0.14873208
0.15141025
0.15413926
0.15690843
0.13742818
0.13586245
0.1343648
0.13286448
0.13139337
0.12995974
0.12856617
0.12721537
0.12591024
0.12465384
0.12344941
0.12230035
0.12121022
0.12018273
0.11922172
0.11833114
0.11751504
0.11677757
0.11612291
0.11555532
0.11507904
0.11469832
0.11441737
0.11424032
0.11417122
0.1142128
0.11436909
0.11464617
0.11503557
0.11555639
0.11620869
0.11699104
0.11790525
0.11895258
0.12013381
0.12144906
0.12289784
0.12447893
0.12619037
0.1280294
0.1299924
0.13207469
0.13426991
0.13656724
0.1389271
0.14141755
0.14399957
0.14665687
0.14937937
0.1521566
0.15497772
0.13561797
0.13409469
0.13257959
0.1310815
0.12961719
0.12818905
0.12679959
0.1254515
0.12414767
0.12289117
0.12168524
0.12053332
0.119439
0.11840601
0.11743824
0.11653971
0.11571453
0.1149669
0.1143011
0.11372147
0.11323236
0.11283811
0.11254307
0.1123515
0.11226759
0.11229465
0.1124358
0.11269854
0.11307406
0.11357912
0.11421847
0.11498886
0.11589232
0.11693038
0.11810406
0.11941375
0.12085919
0.12243944
0.12415277
0.12599664
0.12796766
0.13006144
0.13227255
0.13459469
0.13697625
0.13948523
0.14209776
0.14478938
0.14754993
0.15036881
0.15323514
0.13394733
0.13242708
0.13091069
0.12942493
0.12797171
0.12655326
0.12517203
0.12383069
0.1225321
0.12127933
0.12007566
0.11892453
0.11782956
0.11679453
0.11582337
0.11492013
0.11408899
0.11333423
0.11266019
0.11207129
0.11157198
0.1111667
0.1108599
0.11065597
0.11055925
0.11057356
0.11070119
0.1109509
0.11131403
0.11180411
0.11243121
0.11319003
0.11408287
0.11511149
0.11627713
0.11758045
0.11902143
0.12059937
0.12231277
0.12415938
0.12613605
0.12823881
0.13046284
0.13280283
0.13520487
0.13772753
0.14036632
0.14308752
0.14588107
0.14873631
0.13235914
0.13083744
0.12933928
0.12786988
0.1264314
0.12502611
0.12365646
0.12232511
0.12103493
0.11978899
0.11859058
0.11744316
0.11635038
0.11531606
0.11434417
0.11343882
0.11260423
0.11184474
0.11116478
0.11056883
0.11006143
0.10964711
0.10933044
0.10911591
0.10900796
0.10901088
0.10912623
0.10936383
0.10971653
0.11019228
0.11080745
0.11155506
0.1124374
0.11345649
0.11461377
0.11591013
0.11734578
0.11892025
0.12063231
0.12247992
0.12446019
0.12656938
0.12880298
0.13115657
0.13358085
0.13611213
0.13877311
0.14151986
0.14434226
0.14722967
0.13082813
0.12932612
0.12784895
0.12639887
0.12497804
0.12358873
0.12223338
0.12091465
0.11963543
0.11839879
0.11720804
0.11606667
0.11497836
0.11394696
0.11297648
0.11207108
0.11123504
0.11047277
0.10978874
0.10918753
0.10867374
0.10825202
0.107927
0.10770329
0.10758544
0.10757791
0.10768199
0.10790689
0.10825331
0.10871534
0.10931793
0.11005464
0.11092666
0.1119362
0.1130849
0.11437386
0.11580354
0.11737368
0.11908326
0.12093046
0.12291256
0.12502582
0.12726508
0.12962278
0.13208579
0.13461735
0.1372946
0.14006338
0.14291118
0.14582722
0.1293593
0.12788197
0.12642811
0.12499973
0.12359888
0.1222278
0.12088894
0.11958495
0.11831873
0.11709337
0.11591221
0.11477876
0.11369674
0.11267002
0.11170267
0.11079889
0.10996302
0.10919952
0.10851294
0.10790791
0.10738914
0.10696134
0.10662924
0.10639755
0.10627093
0.10625392
0.10634812
0.10656244
0.10689948
0.10735063
0.1079411
0.10866726
0.10952918
0.11052921
0.11166922
0.11295052
0.11437375
0.1159389
0.11764515
0.11949087
0.12147351
0.12358948
0.12583387
0.12820019
0.13068131
0.13322426
0.13591307
0.13870132
0.14157173
0.14451354
0.12794777
0.12649733
0.12506879
0.12366405
0.12228505
0.12093402
0.11961339
0.11832583
0.11707424
0.11586176
0.11469173
0.1135677
0.11249341
0.11147279
0.11050995
0.10960913
0.10877473
0.10801128
0.10732338
0.10671574
0.10619314
0.10576037
0.10542226
0.1051836
0.10504917
0.10502361
0.10510892
0.10531354
0.10564105
0.10608229
0.10666114
0.10737716
0.10822923
0.1092199
0.11035121
0.11162468
0.11304117
0.11460085
0.11630313
0.11814659
0.12012886
0.12224661
0.12449535
0.12686948
0.12936294
0.13191795
0.1346159
0.13742164
0.14031237
0.12658882
0.12516715
0.12376563
0.12238609
0.12103045
0.11970091
0.1183999
0.11713011
0.11589446
0.11469611
0.11353842
0.11242499
0.1113596
0.11034622
0.10938899
0.10849222
0.10766036
0.10689799
0.10620979
0.10560054
0.10507507
0.10463828
0.10429506
0.10405032
0.10390892
0.10387563
0.1039528
0.10414841
0.10446683
0.10489878
0.10546642
0.10617274
0.10701528
0.10799677
0.10911946
0.11038505
0.11179461
0.11334852
0.11504638
0.11688699
0.11886821
0.12098697
0.12323918
0.12561981
0.12812307
0.13068933
0.13339417
0.13621585
0.1391252
0.12527963
0.12388823
0.12251508
0.121162
0.1198309
0.11852397
0.11724367
0.11599269
0.11477399
0.11359074
0.11244636
0.11134447
0.11028889
0.10928364
0.10833292
0.10744107
0.10661262
0.10585219
0.10516453
0.10455449
0.10402698
0.10358696
0.10323943
0.10298937
0.10284174
0.10280144
0.10287114
0.10305838
0.10336824
0.1037915
0.10434831
0.10504536
0.10587869
0.10685125
0.10796546
0.10922322
0.11062578
0.11217372
0.11386686
0.11570418
0.11768379
0.11980286
0.12205765
0.12444355
0.12695519
0.12953225
0.13224171
0.13507797
0.13800431
0.12401857
0.12265858
0.12131484
0.11998918
0.11868353
0.11740007
0.1161413
0.11490992
0.11370893
0.11254154
0.11141119
0.11032155
0.10927649
0.10828008
0.10733656
0.10645034
0.10562599
0.10486821
0.10418179
0.10357166
0.10304281
0.10260026
0.1022491
0.10199439
0.1018412
0.10179451
0.10185735
0.1020368
0.10233867
0.10275388
0.10330023
0.10398842
0.10481291
0.10577681
0.10688275
0.10813278
0.10952835
0.11107023
0.11275844
0.11459215
0.11656967
0.11868839
0.12094484
0.1233348
0.12585375
0.12844243
0.1311543
0.13400372
0.1369455
0.12280472
0.12147698
0.12016342
0.11886588
0.11758633
0.11632696
0.1150903
0.11387909
0.11269636
0.11154536
0.11042958
0.10935273
0.10831873
0.1073317
0.10639593
0.10551589
0.1046962
0.10394163
0.10325704
0.10264741
0.1021178
0.10167332
0.10131913
0.10106038
0.10090221
0.10084972
0.1009062
0.10107837
0.10137277
0.10178081
0.10231708
0.10299677
0.10381277
0.10476832
0.10586622
0.10710869
0.10849736
0.11003317
0.11171633
0.11354619
0.11552123
0.11763901
0.11989616
0.12228863
0.1248129
0.12741748
0.13012954
0.13298978
0.12163762
0.12034269
0.11905981
0.11779088
0.11653784
0.11530297
0.1140888
0.11289814
0.11173403
0.11059978
0.10949894
0.10843525
0.10741269
0.10643542
0.10550781
0.10463438
0.1038198
0.1030689
0.10238661
0.10177797
0.10124812
0.10080223
0.10044554
0.10018327
0.10002065
0.099962869
0.10001346
0.10017872
0.10046593
0.10086833
0.10139493
0.10206617
0.10287405
0.10382158
0.10491171
0.10614683
0.10752874
0.10905854
0.1107366
0.11256246
0.11453476
0.11665114
0.11890818
0.12130114
0.12382301
0.12645845
0.12916734
0.1320332
0.12051704
0.11925525
0.11800334
0.11676325
0.11553696
0.11432679
0.11313532
0.11196538
0.11082009
0.10970281
0.10861711
0.10756681
0.10655594
0.10558871
0.10466955
0.10380304
0.10299391
0.10224704
0.10156744
0.10096021
0.10043055
0.099983702
0.09962497
0.099359666
0.099193086
0.099130479
0.099175595
0.099334189
0.099613267
0.10001375
0.1005306
0.10119308
0.10199318
0.10293303
0.10401569
0.10524371
0.10661904
0.10814293
0.10981593
0.11163774
0.11360713
0.11572189
0.11797867
0.1203728
0.12289799
0.12554632
0.12826068
0.13113106
0.11944286
0.11821431
0.11699346
0.11578226
0.11458277
0.11339733
0.11222857
0.1110794
0.10995298
0.10885272
0.10778225
0.10674545
0.1057464
0.10478937
0.10387885
0.10301948
0.10221604
0.10147349
0.10079689
0.1001914
0.099662289
0.099214873
0.098854516
0.098586605
0.098416507
0.098349544
0.098389678
0.098542316
0.098815088
0.099210519
0.099720098
0.10037431
0.101167
0.10209953
0.10317506
0.10439625
0.10576521
0.10728336
0.10895138
0.11076913
0.11273556
0.11484859
0.11710506
0.1195006
0.12202959
0.12468559
0.12740673
0.13028092
0.11841499
0.11721959
0.11602967
0.11484724
0.11367441
0.11251357
0.11136742
0.11023891
0.10913128
0.10804797
0.1069927
0.10596939
0.10498219
0.10403543
0.10313365
0.10228154
0.10148397
0.10074594
0.10007257
0.0994691
0.098940846
0.098493196
0.098131578
0.097861447
0.097688244
0.097617363
0.09765299
0.097800264
0.098067408
0.098457263
0.098960452
0.099606936
0.10039267
0.10131826
0.10238699
0.10360166
0.1049645
0.10647709
0.10814025
0.109954
0.11191745
0.11402869
0.11628478
0.11868161
0.12121401
0.12387585
0.12660364
0.12948073
0.11743326
0.11627074
0.11511147
0.11395753
0.11281107
0.11167456
0.11055076
0.10944269
0.10835363
0.10728712
0.10624691
0.10523699
0.10426157
0.10332506
0.10243203
0.10158725
0.10079565
0.10006227
0.099392318
0.098791078
0.098263934
0.097816334
0.097453775
0.097181771
0.09700584
0.096931451
0.096963003
0.097105401
0.097367361
0.097751763
0.098249079
0.098888323
0.099667535
0.10058658
0.10164887
0.10285733
0.10421432
0.10572156
0.10738002
0.10918986
0.11115034
0.11325975
0.11551532
0.11791323
0.12044859
0.12311543
0.12584961
0.1287286
0.11649744
0.11536736
0.11423831
0.11311242
0.11199192
0.11087934
0.10977752
0.10868954
0.10761875
0.10656876
0.10554338
0.10454667
0.1035829
0.10265653
0.1017722
0.10093475
0.10014914
0.099420509
0.098754092
0.098155247
0.097629415
0.097182108
0.096818883
0.09654532
0.096367002
0.096289478
0.096317347
0.096455298
0.096712461
0.097091706
0.097583572
0.098216017
0.098989134
0.099902028
0.10095824
0.10216081
0.10351224
0.10501436
0.10666829
0.10847433
0.11043189
0.11253942
0.11479433
0.11719304
0.11973093
0.12240233
0.12514287
0.12802277
0.1156072
0.11450896
0.11340956
0.11231116
0.11121607
0.11012691
0.10904658
0.10797825
0.10692534
0.10589151
0.10488066
0.1038969
0.10294457
0.10202818
0.10115244
0.10032225
0.099542627
0.098818762
0.098155958
0.097559627
0.097035269
0.096588456
0.096224804
0.095949958
0.095769562
0.095689242
0.095713783
0.095847673
0.096100405
0.096474836
0.096961643
0.097587697
0.098355128
0.099262262
0.10031275
0.10150977
0.10285592
0.10435317
0.10600277
0.10780513
0.10975983
0.11186543
0.11411953
0.11651872
0.11905869
0.12173431
0.1244817
0.12736162
0.11476207
0.11369496
0.11262451
0.11155291
0.11048257
0.10941621
0.10835681
0.10730761
0.1062721
0.10525401
0.10425732
0.10328619
0.10234502
0.10143839
0.10057108
0.099748029
0.09897433
0.098255221
0.097596063
0.097002324
0.096479564
0.096033408
0.095669534
0.095393646
0.09521145
0.095128643
0.095150178
0.095280365
0.095529015
0.09589898
0.096381099
0.097001149
0.097763286
0.098665036
0.099710165
0.10090195
0.10224312
0.10373575
0.10538121
0.10718005
0.10913194
0.1112356
0.11348873
0.11588805
0.11842948
0.12110877
0.12386464
0.12674376
0.11396153
0.11292469
0.11188235
0.11083675
0.10979042
0.10874616
0.10770704
0.10667637
0.10565771
0.10465488
0.10367191
0.10271303
0.1017827
0.10088558
0.10002649
0.099210423
0.098442542
0.097728134
0.097072618
0.096481517
0.095960442
0.095515077
0.095151154
0.094874435
0.094690687
0.094605669
0.094624494
0.094751308
0.094996207
0.095362044
0.09583983
0.096454247
0.097211464
0.098108195
0.099148309
0.10033519
0.10167167
0.10315993
0.10480146
0.10659693
0.10854611
0.11064783
0.11289986
0.11529892
0.1178409
0.12052209
0.1232909
0.12616829
0.11320498
0.1121974
0.1111822
0.1101617
0.10913854
0.10811561
0.10709604
0.10608325
0.10508086
0.10409274
0.10312301
0.10217596
0.10125612
0.10036819
0.099517069
0.0987078
0.097945597
0.097235806
0.096583896
0.095995444
0.095476114
0.095031643
0.094667815
0.094390449
0.09420537
0.094118392
0.094134775
0.09425852
0.09449998
0.094862017
0.095335806
0.095944945
0.096697598
0.09758966
0.098625097
0.099807388
0.10113946
0.10262362
0.10426144
0.1060537
0.10800028
0.11010009
0.11235095
0.11474951
0.117291
0.11996805
0.12276151
0.12563452
0.11535296
0.1144134
0.11345919
0.1124916
0.11151216
0.11052304
0.10952668
0.1085258
0.10752336
0.10652258
0.10552695
0.10454018
0.1035662
0.10260919
0.10167352
0.10076377
0.099884699
0.099041264
0.098238569
0.097481878
0.096776588
0.096128222
0.095542405
0.095024853
0.094581351
0.094217738
0.093939883
0.093753666
0.093664954
0.093679142
0.0938001
0.094038414
0.094396959
0.094867072
0.095471275
0.096219703
0.097107433
0.098138516
0.099316526
0.10064449
0.10212479
0.10375911
0.10554834
0.10749245
0.10959042
0.11184015
0.11423826
0.11677988
0.11945795
0.12226235
0.12513747
0.11458805
0.1136821
0.11275902
0.11182038
0.1108679
0.10990379
0.10893055
0.10795099
0.10696816
0.10598537
0.10500616
0.10403432
0.10307387
0.10212903
0.10120425
0.10030416
0.099433594
0.098597544
0.097801177
0.097049806
0.096348881
0.095703971
0.095120752
0.094604988
0.094162511
0.093799209
0.093520999
0.093333814
0.093243573
0.093255789
0.09337422
0.093609661
0.093965006
0.094431748
0.095031341
0.095775867
0.096659584
0.097686627
0.098860654
0.10018478
0.10166148
0.10329253
0.1050789
0.10702067
0.10911691
0.11136559
0.11376342
0.11630564
0.1189858
0.12179628
0.12467499
0.11386795
0.11299425
0.11210107
0.1111902
0.1102635
0.10932327
0.1083721
0.10741288
0.10644875
0.10548309
0.10451952
0.10356192
0.10261435
0.10168112
0.10076672
0.099875856
0.099013402
0.098184414
0.097394109
0.096647848
0.09595113
0.095309572
0.094728895
0.094214907
0.09377349
0.093410574
0.093132124
0.092944122
0.092852534
0.09286298
0.092979124
0.093211943
0.093564364
0.094028027
0.094623324
0.09536425
0.096244258
0.09726756
0.098437892
0.099758445
0.10123179
0.10285978
0.10464348
0.10658305
0.10867767
0.11092541
0.11332309
0.11586615
0.11854849
0.12136306
0.12424548
0.11319174
0.11234886
0.11148427
0.1105999
0.10969777
0.10878026
0.10785008
0.10691019
0.10596381
0.10501441
0.1040657
0.10312161
0.10218627
0.10126405
0.10035952
0.099477412
0.098622676
0.097800413
0.097015889
0.096274513
0.09558183
0.094943502
0.094365293
0.093853057
0.093412715
0.093050243
0.09277165
0.09258296
0.09249019
0.092499049
0.092613125
0.09284355
0.093193308
0.093654175
0.09424548
0.094983088
0.095859675
0.09687952
0.098046431
0.099363674
0.1008339
0.10245904
0.10424024
0.10617777
0.10827088
0.11051776
0.11291539
0.1154594
0.11814382
0.12096152
0.12384743
0.11255834
0.1117448
0.11090743
0.11004827
0.10916947
0.10827351
0.10736319
0.10644159
0.10551202
0.10457801
0.10364334
0.10271202
0.10178825
0.10087645
0.099981239
0.099107429
0.098260003
0.097444116
0.096665082
0.095928354
0.095239523
0.09460429
0.094028464
0.093517938
0.093078674
0.092716688
0.092438031
0.092248767
0.092154956
0.092162396
0.092274605
0.092502837
0.092850176
0.093308541
0.093896149
0.094630686
0.095504121
0.096520779
0.097684532
0.098998716
0.10046605
0.10208855
0.10386744
0.10580305
0.10789476
0.11014085
0.11253849
0.11508354
0.11776998
0.12059015
0.12347927
0.11196658
0.11118087
0.11036933
0.10953405
0.1086773
0.10780169
0.10691013
0.10600578
0.10509204
0.10417253
0.10325109
0.1023318
0.10141892
0.10051694
0.099630521
0.09876453
0.097924001
0.097114137
0.096340294
0.095607971
0.094922797
0.094290517
0.093716977
0.093208108
0.092769911
0.09240844
0.092129783
0.091940044
0.09184532
0.091851488
0.091962003
0.092188222
0.092533353
0.092989561
0.093573759
0.094305414
0.095175959
0.096189685
0.09735053
0.098661892
0.10012656
0.10174661
0.10352335
0.10545719
0.10754758
0.10979294
0.11219058
0.11473678
0.11141516
0.11065579
0.10986867
0.10905592
0.10821994
0.10736347
0.10648954
0.1056014
0.10470252
0.10379662
0.10288761
0.1019796
0.10107695
0.10018418
0.09930602
0.098447375
0.097613329
0.09680913
0.096040177
0.095312008
0.094630294
0.094000815
0.093429455
0.092922181
0.092485029
0.09212409
0.091845486
0.091655355
0.09155983
0.091564857
0.091673828
0.091898174
0.092241239
0.092695792
0.093276828
0.09400572
0.094873622
0.095884656
0.097042827
0.098351594
0.099813802
0.1014316
0.10320636
0.10513855
0.10722772
0.10947233
0.11186989
0.11090268
0.11016823
0.10940411
0.10861255
0.10779605
0.10695752
0.10610008
0.1052271
0.10434213
0.10344896
0.10255156
0.10165411
0.10076102
0.099876868
0.099006428
0.098154656
0.097326681
0.09652779
0.095763423
0.095039158
0.0943607
0.093733867
0.093164575
0.092658826
0.092222691
0.09186229
0.091583779
0.091393329
0.091297101
0.091301101
0.091408655
0.091631214
0.091972144
0.092425997
0.093003931
0.09373016
0.094595617
0.095604179
0.096759898
0.098066284
0.099526238
0.10114197
0.10291489
0.10484557
0.10693358
0.10917745
0.1115746
0.11042761
0.1097168
0.1089743
0.10820255
0.10740425
0.10658244
0.10574039
0.10488154
0.10400954
0.10312822
0.10224163
0.10135402
0.10046984
0.099593714
0.09873047
0.097885106
0.097062792
0.096268856
0.095508774
0.094788161
0.094112755
0.093488408
0.092921069
0.09241677
0.091981613
0.091621748
0.091343362
0.091152653
0.091055809
0.091058886
0.091165132
0.091385945
0.091724021
0.092179404
0.092753728
0.093477338
0.094340519
0.095346811
0.096500287
0.097804494
0.099262383
0.10087621
0.10264746
0.10457674
0.10666367
0.1089068
0.1113036
0.10998478
0.10930018
0.10857785
0.10782454
0.10704315
0.10623689
0.10540912
0.10456339
0.10370341
0.10283309
0.10195655
0.10107807
0.10020215
0.099333473
0.098476908
0.097637494
0.09682044
0.096031109
0.095275015
0.094557803
0.093885246
0.093263226
0.09269772
0.092194792
0.091760569
0.091401233
0.091122994
0.090932078
0.090834695
0.090836944
0.090941995
0.091161214
0.091497193
0.091953019
0.092524748
0.093245891
0.094106964
0.095111175
0.096262601
0.097564822
0.099020828
0.10063293
0.10240265
0.10433064
0.10641659
0.10865904
0.11105555
0.10957194
0.1089157
0.10821333
0.10747712
0.10671139
0.1059195
0.10510493
0.10427132
0.10342246
0.10256231
0.10169504
0.100825
0.099956718
0.09909493
0.098244542
0.097410632
0.096598444
0.095813378
0.095060978
0.094346922
0.093677012
0.093057157
0.092493365
0.091991724
0.09155839
0.091199566
0.09092149
0.090730411
0.090632558
0.090634064
0.090738042
0.090955862
0.091290264
0.091745794
0.092315581
0.093034505
0.093893646
0.094895958
0.096045517
0.097345931
0.098800226
0.10041075
0.10217908
0.10410591
0.10619095
0.10843281
0.11082909
0.10919764
0.10855837
0.10787943
0.10715888
0.10640756
0.1056289
0.10482649
0.10400403
0.1031654
0.10231462
0.10145589
0.10059361
0.09973236
0.098876914
0.098032212
0.097203371
0.096395668
0.095614533
0.094865542
0.094154401
0.093486939
0.092869092
0.092306893
0.091806455
0.091373956
0.091015626
0.090737724
0.090546518
0.090448255
0.090449102
0.090552124
0.090768729
0.091101861
0.091556744
0.092124974
0.092841933
0.093699322
0.094699908
0.095847776
0.097146552
0.098599297
0.1002084
0.10197546
0.10390124
0.10598548
0.10822681
0.11062291
0.10885965
0.1082283
0.10757343
0.10686842
0.10613032
0.10536377
0.10457248
0.10376026
0.102931
0.10208879
0.10123789
0.10038272
0.099527921
0.098678288
0.097838801
0.097014608
0.096211019
0.095433493
0.094687632
0.093979171
0.093313962
0.092697967
0.092137241
0.09163792
0.091206205
0.090848346
0.090570621
0.090379319
0.0902807
0.090280964
0.090383144
0.090598695
0.090930754
0.091384854
0.091951774
0.092666999
0.093522813
0.094521839
0.095668178
0.096965476
0.098416823
0.10002464
0.10179057
0.1037154
0.10579892
0.10803979
0.11043575
0.11099951
0.11060433
0.11015952
0.10966733
0.10913049
0.10855164
0.10793146
0.10729158
0.10660453
0.10587831
0.10512279
0.10434164
0.10353874
0.10271803
0.10188364
0.10103988
0.10019121
0.099342287
0.098497958
0.09766323
0.096843281
0.096043448
0.095269218
0.09452622
0.09382021
0.093157065
0.092542769
0.091983399
0.09148511
0.091054123
0.090696708
0.090419161
0.090227788
0.090128864
0.090128614
0.090230054
0.090444691
0.090775817
0.091229108
0.091794896
0.092508593
0.093362999
0.094360623
0.095505586
0.096801557
0.098251648
0.09985831
0.10162323
0.10354721
0.10563009
0.10787057
0.11026643
0.11063156
0.11025757
0.10983217
0.10935784
0.10883723
0.10827272
0.10766488
0.10703374
0.10636527
0.10565016
0.10490466
0.10413271
0.10333826
0.10252531
0.10169803
0.10086074
0.10001796
0.099174384
0.098334871
0.097504464
0.096688369
0.095891949
0.095120716
0.09438032
0.093676542
0.093015278
0.092402533
0.091844401
0.09134706
0.090916746
0.090559747
0.090282376
0.090090952
0.089991765
0.089991066
0.090091859
0.090305701
0.090636009
0.091088518
0.091653316
0.092365667
0.09321882
0.094215191
0.095358923
0.096653706
0.098102675
0.099708309
0.10147232
0.10339556
0.10547788
0.10771801
0.11011379
0.1102991
0.10994436
0.10953663
0.10907851
0.10857262
0.10802145
0.10742727
0.10679881
0.1061486
0.10544464
0.10470814
0.10394447
0.10315765
0.1023517
0.10153083
0.10069939
0.099861936
0.099023178
0.098188013
0.09736151
0.096548897
0.095755561
0.094987036
0.094248995