/*--------------------------------*- C++ -*----------------------------------*\
| =========                 |                                                 |
| \\      /  F ield         | OpenFOAM: The Open Source CFD Toolbox           |
|  \\    /   O peration     | Version:  2312                                  |
|   \\  /    A nd           | Website:  www.openfoam.com                      |
|    \\/     M anipulation  |                                                 |
\*---------------------------------------------------------------------------*/
FoamFile
{
    version     2.0;
    format      ascii;
    arch        "LSB;label=32;scalar=64";
    class       volScalarField;
    location    "0.03";
    object      p;
}
// * * * * * * * * * * * * * * * * * * * * * * * * * * * * * * * * * * * * * //

dimensions      [1 -1 -2 0 0 0 0];

internalField   nonuniform List<scalar> 
3272
(
100000.23
100000.28
100000.33
100000.38
100000.43
100000.48
100000.53
100000.58
100000.64
100000.69
100000.75
100000.81
100000.87
100000.93
100001
100001.07
100001.13
100001.2
100001.28
100001.35
100001.42
100001.5
100001.58
100001.66
100001.74
100001.83
100001.91
100002
100002.08
100002.17
100002.26
100002.34
100002.43
100002.52
100002.6
100002.69
100002.78
100002.86
100002.95
100003.03
100003.11
100003.19
100003.27
100003.34
100003.42
100003.49
100003.56
100003.62
100003.69
100003.75
100003.81
100003.87
100003.92
99998.318
99998.437
99998.553
99998.667
99998.779
99998.889
99998.997
99999.103
99999.207
99999.309
99999.409
99999.508
99999.605
99999.701
99999.794
99999.886
99999.977
100000.07
100000.15
100000.24
100000.32
100000.41
100000.49
100000.57
100000.65
100000.73
100000.8
100000.88
100000.95
100001.02
100001.1
100001.16
100001.23
100001.3
100001.36
100001.42
100001.48
100001.54
100001.6
100001.66
100001.71
100001.76
100001.81
100001.86
100001.9
100001.95
100001.99
100002.03
100002.07
100002.11
100002.14
100002.17
100002.2
99997.089
99997.278
99997.463
99997.643
99997.818
99997.989
99998.157
99998.321
99998.48
99998.635
99998.786
99998.933
99999.076
99999.215
99999.35
99999.482
99999.61
99999.734
99999.854
99999.972
100000.09
100000.2
100000.3
100000.41
100000.51
100000.6
100000.7
100000.79
100000.88
100000.96
100001.04
100001.12
100001.2
100001.27
100001.34
100001.41
100001.47
100001.53
100001.59
100001.65
100001.7
100001.75
100001.8
100001.85
100001.89
100001.93
100001.97
100002.01
100002.04
100002.07
100002.1
100002.13
100002.16
99996.079
99996.335
99996.583
99996.824
99997.058
99997.285
99997.508
99997.725
99997.935
99998.139
99998.337
99998.529
99998.714
99998.894
99999.068
99999.236
99999.398
99999.555
99999.706
99999.852
99999.993
100000.13
100000.26
100000.38
100000.5
100000.62
100000.73
100000.84
100000.94
100001.04
100001.13
100001.22
100001.3
100001.38
100001.46
100001.53
100001.6
100001.67
100001.73
100001.79
100001.84
100001.9
100001.95
100001.99
100002.03
100002.07
100002.11
100002.15
100002.18
100002.21
100002.24
100002.26
100002.28
99995.215
99995.533
99995.841
99996.139
99996.426
99996.702
99996.976
99997.241
99997.499
99997.748
99997.989
99998.222
99998.447
99998.664
99998.872
99999.073
99999.267
99999.453
99999.631
99999.803
99999.967
100000.13
100000.28
100000.42
100000.56
100000.69
100000.82
100000.93
100001.05
100001.16
100001.26
100001.36
100001.45
100001.53
100001.61
100001.69
100001.76
100001.83
100001.89
100001.95
100002.01
100002.06
100002.11
100002.15
100002.19
100002.23
100002.26
100002.29
100002.32
100002.35
100002.37
100002.39
100002.41
99994.47
99994.846
99995.211
99995.566
99995.905
99996.208
99996.529
99996.845
99997.148
99997.439
99997.721
99997.992
99998.253
99998.503
99998.744
99998.976
99999.198
99999.411
99999.615
99999.81
99999.996
100000.17
100000.34
100000.51
100000.66
100000.81
100000.94
100001.08
100001.2
100001.32
100001.43
100001.53
100001.63
100001.72
100001.81
100001.89
100001.96
100002.03
100002.09
100002.15
100002.21
100002.26
100002.3
100002.34
100002.38
100002.41
100002.45
100002.47
100002.5
100002.52
100002.54
100002.55
100002.56
99993.812
99994.244
99994.665
99995.086
99995.497
99995.741
99996.132
99996.507
99996.855
99997.187
99997.506
99997.812
99998.106
99998.389
99998.659
99998.919
99999.167
99999.405
99999.632
99999.849
100000.06
100000.25
100000.44
100000.62
100000.79
100000.95
100001.1
100001.24
100001.37
100001.5
100001.62
100001.73
100001.83
100001.93
100002.02
100002.1
100002.18
100002.25
100002.31
100002.37
100002.42
100002.47
100002.52
100002.56
100002.59
100002.62
100002.65
100002.67
100002.69
100002.71
100002.72
100002.73
100002.74
99993.214
99993.693
99994.157
99994.605
99995.034
99995.425
99995.831
99996.228
99996.607
99996.973
99997.325
99997.663
99997.987
99998.299
99998.597
99998.883
99999.156
99999.417
99999.665
99999.902
100000.13
100000.34
100000.54
100000.74
100000.92
100001.09
100001.26
100001.41
100001.55
100001.69
100001.81
100001.93
100002.04
100002.14
100002.23
100002.32
100002.4
100002.47
100002.53
100002.59
100002.65
100002.7
100002.74
100002.78
100002.81
100002.84
100002.86
100002.88
100002.9
100002.91
100002.92
100002.92
100002.93
99992.663
99993.186
99993.692
99994.179
99994.647
99995.099
99995.542
99995.97
99996.383
99996.78
99997.162
99997.53
99997.883
99998.221
99998.545
99998.855
99999.15
99999.433
99999.701
99999.957
100000.2
100000.43
100000.65
100000.86
100001.05
100001.24
100001.41
100001.57
100001.72
100001.87
100002
100002.12
100002.23
100002.34
100002.44
100002.53
100002.61
100002.68
100002.75
100002.81
100002.86
100002.91
100002.95
100002.99
100003.02
100003.05
100003.07
100003.09
100003.1
100003.11
100003.11
100003.12
100003.11
99992.149
99992.714
99993.26
99993.786
99994.293
99994.786
99995.265
99995.727
99996.171
99996.599
99997.01
99997.405
99997.784
99998.148
99998.495
99998.827
99999.144
99999.447
99999.734
100000.01
100000.27
100000.51
100000.74
100000.96
100001.17
100001.37
100001.55
100001.72
100001.88
100002.03
100002.17
100002.3
100002.42
100002.53
100002.63
100002.72
100002.81
100002.88
100002.95
100003.01
100003.07
100003.11
100003.16
100003.19
100003.22
100003.25
100003.26
100003.28
100003.29
100003.3
100003.3
99991.665
99992.269
99992.852
99993.416
99993.96
99994.489
99995.002
99995.494
99995.968
99996.425
99996.863
99997.285
99997.688
99998.075
99998.445
99998.798
99999.135
99999.456
99999.761
100000.05
100000.32
100000.58
100000.83
100001.06
100001.28
100001.48
100001.68
100001.86
100002.03
100002.18
100002.33
100002.46
100002.59
100002.7
100002.8
100002.9
100002.99
100003.06
100003.13
100003.2
100003.25
100003.3
100003.34
100003.38
100003.41
100003.43
100003.45
100003.46
100003.47
100003.47
100003.47
99991.205
99991.846
99992.466
99993.063
99993.643
99994.206
99994.749
99995.271
99995.773
99996.257
99996.721
99997.167
99997.594
99998.002
99998.393
99998.766
99999.121
99999.459
99999.78
100000.08
100000.37
100000.65
100000.9
100001.15
100001.38
100001.59
100001.79
100001.98
100002.16
100002.32
100002.47
100002.61
100002.74
100002.86
100002.96
100003.06
100003.15
100003.23
100003.3
100003.37
100003.42
100003.47
100003.51
100003.55
100003.57
100003.6
100003.61
100003.63
100003.63
100003.64
100003.63
99990.769
99991.445
99992.098
99992.729
99993.342
99993.935
99994.507
99995.057
99995.586
99996.094
99996.583
99997.052
99997.5
99997.93
99998.34
99998.731
99999.103
99999.457
99999.794
100000.11
100000.41
100000.7
100000.97
100001.22
100001.46
100001.68
100001.89
100002.09
100002.27
100002.44
100002.6
100002.74
100002.87
100002.99
100003.11
100003.21
100003.3
100003.38
100003.45
100003.52
100003.57
100003.62
100003.66
100003.7
100003.73
100003.75
100003.76
100003.77
100003.78
100003.78
100003.78
99990.355
99991.064
99991.748
99992.412
99993.055
99993.677
99994.276
99994.852
99995.406
99995.939
99996.45
99996.94
99997.409
99997.858
99998.286
99998.695
99999.083
99999.453
99999.803
100000.14
100000.45
100000.75
100001.03
100001.29
100001.54
100001.77
100001.98
100002.19
100002.37
100002.55
100002.71
100002.86
100002.99
100003.12
100003.23
100003.34
100003.43
100003.51
100003.59
100003.65
100003.71
100003.76
100003.8
100003.83
100003.86
100003.88
100003.9
100003.91
100003.91
100003.91
100003.91
99989.964
99990.703
99991.418
99992.112
99992.784
99993.432
99994.057
99994.657
99995.235
99995.791
99996.323
99996.834
99997.322
99997.789
99998.234
99998.659
99999.063
99999.446
99999.81
100000.15
100000.48
100000.79
100001.08
100001.35
100001.6
100001.84
100002.07
100002.27
100002.47
100002.65
100002.81
100002.97
100003.11
100003.23
100003.35
100003.46
100003.55
100003.63
100003.71
100003.78
100003.83
100003.88
100003.92
100003.96
100003.98
100004
100004.02
100004.03
100004.03
100004.03
100004.02
99989.595
99990.362
99991.107
99991.829
99992.528
99993.201
99993.85
99994.474
99995.075
99995.651
99996.204
99996.734
99997.24
99997.724
99998.185
99998.625
99999.043
99999.44
99999.816
100000.17
100000.51
100000.83
100001.12
100001.4
100001.67
100001.91
100002.14
100002.35
100002.55
100002.74
100002.91
100003.06
100003.21
100003.34
100003.46
100003.56
100003.66
100003.75
100003.82
100003.89
100003.94
100003.99
100004.03
100004.07
100004.09
100004.11
100004.13
100004.14
100004.14
100004.13
100004.13
99989.247
99990.043
99990.816
99991.565
99992.288
99992.985
99993.657
99994.303
99994.924
99995.521
99996.093
99996.64
99997.164
99997.663
99998.14
99998.594
99999.025
99999.434
99999.822
100000.19
100000.53
100000.86
100001.17
100001.46
100001.72
100001.98
100002.21
100002.43
100002.63
100002.82
100002.99
100003.15
100003.3
100003.43
100003.55
100003.66
100003.76
100003.85
100003.92
100003.99
100004.05
100004.1
100004.14
100004.17
100004.2
100004.21
100004.23
100004.23
100004.23
100004.23
100004.22
99988.92
99989.745
99990.544
99991.317
99992.063
99992.783
99993.477
99994.144
99994.785
99995.4
99995.99
99996.554
99997.094
99997.609
99998.099
99998.566
99999.009
99999.43
99999.828
100000.2
100000.56
100000.89
100001.21
100001.5
100001.78
100002.04
100002.28
100002.5
100002.71
100002.9
100003.08
100003.24
100003.39
100003.52
100003.64
100003.75
100003.85
100003.94
100004.02
100004.08
100004.14
100004.19
100004.23
100004.26
100004.29
100004.3
100004.32
100004.32
100004.32
100004.31
100004.3
99988.616
99989.466
99990.29
99991.086
99991.855
99992.596
99993.31
99993.997
99994.657
99995.29
99995.896
99996.476
99997.031
99997.559
99998.063
99998.542
99998.997
99999.429
99999.837
100000.22
100000.59
100000.93
100001.25
100001.55
100001.83
100002.1
100002.34
100002.57
100002.78
100002.97
100003.15
100003.32
100003.47
100003.6
100003.73
100003.84
100003.94
100004.03
100004.1
100004.17
100004.23
100004.28
100004.32
100004.35
100004.37
100004.39
100004.4
100004.4
100004.4
100004.39
99988.334
99989.208
99990.055
99990.873
99991.662
99992.424
99993.157
99993.862
99994.54
99995.189
99995.811
99996.406
99996.975
99997.517
99998.033
99998.523
99998.989
99999.43
99999.847
100000.24
100000.61
100000.96
100001.29
100001.6
100001.88
100002.15
100002.4
100002.63
100002.84
100003.04
100003.22
100003.39
100003.54
100003.68
100003.81
100003.92
100004.02
100004.11
100004.18
100004.25
100004.31
100004.36
100004.39
100004.43
100004.45
100004.46
100004.47
100004.48
100004.47
100004.46
99988.072
99988.969
99989.837
99990.675
99991.485
99992.265
99993.017
99993.74
99994.433
99995.098
99995.735
99996.344
99996.926
99997.48
99998.007
99998.509
99998.984
99999.434
99999.86
100000.26
100000.64
100001
100001.33
100001.64
100001.94
100002.21
100002.46
100002.69
100002.91
100003.11
100003.29
100003.46
100003.62
100003.75
100003.88
100003.99
100004.09
100004.18
100004.26
100004.33
100004.38
100004.43
100004.47
100004.5
100004.52
100004.54
100004.54
100004.54
100004.54
100004.53
99987.83
99988.748
99989.636
99990.494
99991.322
99992.121
99992.89
99993.628
99994.338
99995.017
99995.668
99996.29
99996.884
99997.449
99997.987
99998.498
99998.983
99999.442
99999.876
100000.28
100000.67
100001.03
100001.37
100001.69
100001.98
100002.26
100002.52
100002.75
100002.97
100003.17
100003.36
100003.53
100003.68
100003.82
100003.95
100004.06
100004.16
100004.25
100004.33
100004.4
100004.45
100004.5
100004.54
100004.57
100004.59
100004.6
100004.61
100004.61
100004.6
100004.59
99987.606
99988.543
99989.451
99990.328
99991.174
99991.989
99992.774
99993.528
99994.252
99994.945
99995.609
99996.243
99996.848
99997.424
99997.972
99998.492
99998.986
99999.452
99999.893
100000.31
100000.7
100001.07
100001.41
100001.73
100002.03
100002.31
100002.57
100002.81
100003.03
100003.24
100003.42
100003.59
100003.75
100003.89
100004.02
100004.13
100004.23
100004.32
100004.4
100004.46
100004.52
100004.56
100004.6
100004.63
100004.65
100004.66
100004.67
100004.67
100004.66
99987.399
99988.356
99989.281
99990.176
99991.039
99991.87
99992.67
99993.438
99994.176
99994.882
99995.557
99996.203
99996.818
99997.404
99997.961
99998.49
99998.991
99999.465
99999.913
100000.33
100000.73
100001.1
100001.45
100001.78
100002.08
100002.36
100002.62
100002.87
100003.09
100003.29
100003.48
100003.65
100003.81
100003.95
100004.08
100004.19
100004.29
100004.38
100004.46
100004.52
100004.58
100004.62
100004.66
100004.69
100004.71
100004.72
100004.72
100004.72
100004.71
99987.208
99988.183
99989.126
99990.037
99990.915
99991.762
99992.576
99993.358
99994.108
99994.826
99995.513
99996.169
99996.794
99997.389
99997.955
99998.491
99998.999
99999.48
99999.933
100000.36
100000.76
100001.14
100001.49
100001.82
100002.13
100002.41
100002.67
100002.92
100003.14
100003.35
100003.54
100003.71
100003.87
100004.01
100004.14
100004.25
100004.35
100004.44
100004.51
100004.58
100004.63
100004.68
100004.71
100004.74
100004.76
100004.77
100004.77
100004.77
100004.76
99987.033
99988.025
99988.984
99989.91
99990.803
99991.664
99992.491
99993.286
99994.048
99994.777
99995.474
99996.14
99996.774
99997.378
99997.951
99998.495
99999.01
99999.496
99999.955
100000.39
100000.79
100001.17
100001.53
100001.86
100002.17
100002.46
100002.72
100002.97
100003.2
100003.4
100003.59
100003.77
100003.92
100004.06
100004.19
100004.3
100004.4
100004.49
100004.57
100004.63
100004.68
100004.73
100004.76
100004.79
100004.8
100004.81
100004.81
100004.81
100004.8
99986.872
99987.88
99988.854
99989.795
99990.702
99991.576
99992.415
99993.222
99993.995
99994.734
99995.441
99996.116
99996.759
99997.37
99997.951
99998.501
99999.022
99999.514
99999.978
100000.41
100000.82
100001.21
100001.57
100001.9
100002.21
100002.5
100002.77
100003.02
100003.24
100003.45
100003.64
100003.82
100003.97
100004.11
100004.24
100004.35
100004.45
100004.54
100004.61
100004.68
100004.73
100004.77
100004.8
100004.83
100004.84
100004.85
100004.85
100004.85
99986.724
99987.747
99988.736
99989.69
99990.61
99991.496
99992.348
99993.165
99993.948
99994.697
99995.413
99996.096
99996.747
99997.366
99997.953
99998.509
99999.035
99999.532
100000
100000.44
100000.85
100001.24
100001.6
100001.94
100002.26
100002.54
100002.81
100003.06
100003.29
100003.5
100003.69
100003.86
100004.02
100004.16
100004.29
100004.4
100004.5
100004.58
100004.65
100004.72
100004.77
100004.81
100004.84
100004.86
100004.88
100004.88
100004.88
100004.88
99986.589
99987.625
99988.628
99989.595
99990.527
99991.425
99992.287
99993.114
99993.907
99994.666
99995.39
99996.081
99996.739
99997.364
99997.957
99998.519
99999.05
99999.551
100000.02
100000.47
100000.88
100001.27
100001.64
100001.98
100002.29
100002.58
100002.85
100003.1
100003.33
100003.54
100003.73
100003.9
100004.06
100004.2
100004.33
100004.44
100004.54
100004.62
100004.69
100004.75
100004.8
100004.84
100004.87
100004.9
100004.91
100004.91
100004.91
100004.9
99986.465
99987.515
99988.529
99989.509
99990.452
99991.361
99992.233
99993.07
99993.872
99994.639
99995.371
99996.069
99996.733
99997.364
99997.963
99998.53
99999.066
99999.571
100000.05
100000.49
100000.91
100001.31
100001.67
100002.01
100002.33
100002.62
100002.89
100003.14
100003.37
100003.58
100003.77
100003.94
100004.1
100004.24
100004.36
100004.47
100004.57
100004.65
100004.73
100004.79
100004.83
100004.87
100004.9
100004.92
100004.93
100004.94
100004.93
100004.92
99986.351
99987.413
99988.44
99989.431
99990.385
99991.303
99992.185
99993.031
99993.841
99994.616
99995.355
99996.059
99996.73
99997.367
99997.97
99998.542
99999.082
99999.591
100000.07
100000.52
100000.94
100001.34
100001.7
100002.05
100002.37
100002.66
100002.93
100003.18
100003.41
100003.62
100003.81
100003.98
100004.13
100004.27
100004.4
100004.51
100004.6
100004.68
100004.75
100004.81
100004.86
100004.9
100004.93
100004.94
100004.95
100004.96
100004.95
100004.94
99986.247
99987.321
99988.359
99989.36
99990.324
99991.252
99992.142
99992.997
99993.814
99994.596
99995.342
99996.053
99996.729
99997.37
99997.979
99998.554
99999.098
99999.61
100000.09
100000.54
100000.97
100001.36
100001.73
100002.08
100002.4
100002.69
100002.96
100003.21
100003.44
100003.65
100003.84
100004.01
100004.17
100004.3
100004.43
100004.53
100004.63
100004.71
100004.78
100004.84
100004.88
100004.92
100004.94
100004.96
100004.97
100004.97
100004.96
100004.95
99986.151
99987.236
99988.285
99989.295
99990.269
99991.205
99992.104
99992.966
99993.791
99994.579
99995.331
99996.048
99996.729
99997.375
99997.988
99998.567
99999.114
99999.629
100000.11
100000.57
100000.99
100001.39
100001.76
100002.11
100002.43
100002.72
100002.99
100003.24
100003.47
100003.68
100003.87
100004.04
100004.19
100004.33
100004.45
100004.56
100004.65
100004.73
100004.8
100004.86
100004.9
100004.93
100004.96
100004.97
100004.98
100004.98
100004.97
100004.96
99986.064
99987.159
99988.217
99989.237
99990.219
99991.164
99992.071
99992.939
99993.771
99994.565
99995.323
99996.044
99996.73
99997.381
99997.997
99998.58
99999.129
99999.647
100000.13
100000.59
100001.02
100001.42
100001.79
100002.13
100002.45
100002.75
100003.02
100003.27
100003.5
100003.7
100003.89
100004.06
100004.22
100004.35
100004.47
100004.58
100004.67
100004.75
100004.82
100004.87
100004.91
100004.95
100004.97
100004.98
100004.99
100004.99
100004.98
100004.96
99985.984
99987.089
99988.155
99989.184
99990.174
99991.126
99992.04
99992.916
99993.753
99994.553
99995.316
99996.042
99996.732
99997.387
99998.006
99998.592
99999.144
99999.664
100000.15
100000.61
100001.04
100001.44
100001.81
100002.16
100002.48
100002.77
100003.04
100003.29
100003.52
100003.73
100003.91
100004.08
100004.24
100004.37
100004.49
100004.6
100004.69
100004.76
100004.83
100004.88
100004.92
100004.95
100004.98
100004.99
100004.99
100004.99
100004.98
100004.96
99985.91
99987.024
99988.099
99989.136
99990.134
99991.093
99992.013
99992.895
99993.738
99994.543
99995.311
99996.041
99996.735
99997.393
99998.015
99998.603
99999.158
99999.68
100000.17
100000.63
100001.06
100001.46
100001.83
100002.18
100002.5
100002.79
100003.06
100003.31
100003.54
100003.75
100003.93
100004.1
100004.25
100004.39
100004.5
100004.61
100004.7
100004.77
100004.84
100004.89
100004.93
100004.96
100004.98
100004.99
100004.99
100004.99
100004.97
100004.95
99985.842
99986.964
99988.047
99989.091
99990.096
99991.062
99991.988
99992.876
99993.724
99994.534
99995.306
99996.04
99996.737
99997.398
99998.024
99998.614
99999.171
99999.694
100000.19
100000.65
100001.08
100001.48
100001.85
100002.2
100002.52
100002.81
100003.08
100003.33
100003.56
100003.76
100003.95
100004.11
100004.26
100004.4
100004.51
100004.62
100004.7
100004.78
100004.84
100004.89
100004.93
100004.96
100004.98
100004.99
100004.99
100004.98
100004.97
100004.94
99982.158
99983.403
99984.61
99985.779
99986.909
99988
99989.051
99990.062
99991.034
99991.966
99992.858
99993.711
99994.526
99995.301
99996.039
99996.74
99997.403
99998.031
99998.624
99999.182
99999.707
100000.2
100000.66
100001.09
100001.49
100001.87
100002.21
100002.53
100002.83
100003.1
100003.34
100003.57
100003.77
100003.96
100004.12
100004.27
100004.41
100004.52
100004.62
100004.71
100004.78
100004.84
100004.89
100004.93
100004.95
100004.97
100004.98
100004.98
100004.97
100004.96
100004.93
99982.076
99983.329
99984.544
99985.721
99986.858
99987.955
99989.013
99990.03
99991.008
99991.945
99992.842
99993.7
99994.518
99995.297
99996.038
99996.741
99997.407
99998.037
99998.632
99999.192
99999.718
100000.21
100000.67
100001.11
100001.51
100001.88
100002.23
100002.55
100002.84
100003.11
100003.35
100003.58
100003.78
100003.97
100004.13
100004.28
100004.41
100004.52
100004.62
100004.71
100004.78
100004.84
100004.89
100004.92
100004.95
100004.96
100004.97
100004.97
100004.96
100004.94
100004.92
99982
99983.26
99984.483
99985.667
99986.811
99987.914
99988.978
99990.001
99990.983
99991.925
99992.827
99993.688
99994.51
99995.293
99996.036
99996.742
99997.41
99998.042
99998.638
99999.199
99999.727
100000.22
100000.68
100001.12
100001.52
100001.89
100002.24
100002.56
100002.85
100003.12
100003.36
100003.59
100003.79
100003.97
100004.14
100004.28
100004.41
100004.52
100004.62
100004.71
100004.78
100004.83
100004.88
100004.91
100004.94
100004.95
100004.96
100004.95
100004.94
100004.92
100004.9
99981.929
99983.197
99984.426
99985.616
99986.766
99987.876
99988.945
99989.973
99990.96
99991.906
99992.812
99993.677
99994.502
99995.288
99996.034
99996.742
99997.412
99998.045
99998.643
99999.205
99999.733
100000.23
100000.69
100001.12
100001.52
100001.9
100002.24
100002.56
100002.85
100003.12
100003.37
100003.59
100003.79
100003.97
100004.14
100004.28
100004.41
100004.52
100004.62
100004.7
100004.77
100004.82
100004.87
100004.9
100004.92
100004.94
100004.94
100004.94
100004.92
100004.9
100004.88
99981.863
99983.137
99984.373
99985.569
99986.725
99987.84
99988.914
99989.947
99990.938
99991.888
99992.797
99993.666
99994.494
99995.282
99996.03
99996.74
99997.412
99998.047
99998.645
99999.208
99999.737
100000.23
100000.7
100001.13
100001.53
100001.9
100002.25
100002.57
100002.86
100003.12
100003.37
100003.59
100003.79
100003.97
100004.13
100004.28
100004.4
100004.51
100004.61
100004.69
100004.76
100004.81
100004.85
100004.88
100004.91
100004.92
100004.92
100004.91
100004.9
100004.88
100004.85
99981.801
99983.081
99984.322
99985.524
99986.685
99987.805
99988.884
99989.921
99990.916
99991.87
99992.783
99993.654
99994.485
99995.275
99996.026
99996.737
99997.41
99998.046
99998.646
99999.209
99999.739
100000.23
100000.7
100001.13
100001.53
100001.9
100002.25
100002.57
100002.86
100003.12
100003.36
100003.59
100003.78
100003.97
100004.13
100004.27
100004.39
100004.5
100004.6
100004.68
100004.74
100004.79
100004.84
100004.87
100004.89
100004.9
100004.9
100004.89
99981.743
99983.029
99984.275
99985.482
99986.648
99987.772
99988.855
99989.896
99990.895
99991.852
99992.767
99993.641
99994.474
99995.267
99996.019
99996.732
99997.407
99998.044
99998.644
99999.208
99999.737
100000.23
100000.7
100001.13
100001.53
100001.9
100002.24
100002.56
100002.85
100003.12
100003.36
100003.58
100003.78
100003.96
100004.12
100004.26
100004.38
100004.49
100004.58
100004.66
100004.72
100004.77
100004.81
100004.84
100004.86
100004.87
100004.87
99981.689
99982.979
99984.23
99985.441
99986.611
99987.74
99988.827
99989.871
99990.873
99991.833
99992.751
99993.628
99994.463
99995.257
99996.011
99996.725
99997.401
99998.039
99998.639
99999.204
99999.733
100000.23
100000.69
100001.12
100001.52
100001.89
100002.24
100002.55
100002.84
100003.11
100003.35
100003.57
100003.76
100003.96
100004.11
100004.24
100004.37
100004.47
100004.56
100004.64
100004.7
100004.75
100004.79
100004.82
100004.84
100004.84
100004.84
99981.638
99982.932
99984.187
99985.402
99986.576
99987.709
99988.799
99989.847
99990.852
99991.814
99992.735
99993.613
99994.45
99995.245
99996.001
99996.716
99997.393
99998.031
99998.632
99999.197
99999.727
100000.22
100000.68
100001.11
100001.51
100001.89
100002.23
100002.54
100002.83
100003.1
100003.34
100003.56
100003.74
100003.95
100004.09
100004.23
100004.35
100004.45
100004.54
100004.62
100004.68
100004.73
100004.76
100004.79
100004.81
100004.81
100004.81
99981.589
99982.887
99984.146
99985.365
99986.542
99987.678
99988.771
99989.821
99990.829
99991.794
99992.716
99993.596
99994.435
99995.232
99995.988
99996.705
99997.382
99998.021
99998.622
99999.187
99999.716
100000.21
100000.67
100001.1
100001.5
100001.87
100002.21
100002.53
100002.82
100003.09
100003.32
100003.54
100003.73
100003.92
100004.07
100004.21
100004.32
100004.43
100004.52
100004.59
100004.65
100004.7
100004.73
100004.76
100004.77
100004.78
100004.77
99981.542
99982.843
99984.106
99985.328
99986.509
99987.647
99988.743
99989.796
99990.806
99991.772
99992.697
99993.578
99994.418
99995.216
99995.973
99996.691
99997.368
99998.007
99998.609
99999.174
99999.703
100000.2
100000.66
100001.09
100001.49
100001.86
100002.2
100002.51
100002.8
100003.07
100003.31
100003.52
100003.71
100003.9
100004.05
100004.18
100004.3
100004.4
100004.49
100004.56
100004.62
100004.66
100004.7
100004.72
100004.74
100004.74
100004.74
99981.497
99982.801
99984.067
99985.292
99986.475
99987.616
99988.714
99989.769
99990.781
99991.75
99992.675
99993.558
99994.399
99995.198
99995.956
99996.674
99997.352
99997.991
99998.593
99999.158
99999.687
100000.18
100000.64
100001.07
100001.47
100001.84
100002.17
100002.49
100002.78
100003.05
100003.29
100003.5
100003.69
100003.87
100004.02
100004.15
100004.27
100004.37
100004.46
100004.53
100004.58
100004.63
100004.66
100004.69
100004.7
100004.7
100004.7
99981.453
99982.76
99984.028
99985.256
99986.441
99987.585
99988.685
99989.742
99990.755
99991.725
99992.652
99993.536
99994.378
99995.178
99995.936
99996.654
99997.332
99997.972
99998.573
99999.138
99999.667
100000.16
100000.62
100001.05
100001.44
100001.81
100002.15
100002.46
100002.75
100003.03
100003.27
100003.48
100003.67
100003.84
100003.99
100004.12
100004.24
100004.34
100004.42
100004.49
100004.55
100004.59
100004.62
100004.65
100004.66
100004.66
100004.65
99974.276
99975.778
99977.244
99978.672
99980.06
99981.409
99982.719
99983.99
99985.22
99986.407
99987.552
99988.654
99989.713
99990.727
99991.698
99992.626
99993.511
99994.354
99995.154
99995.913
99996.631
99997.31
99997.949
99998.551
99999.115
99999.643
100000.14
100000.6
100001.02
100001.42
100001.78
100002.12
100002.43
100002.72
100003
100003.24
100003.45
100003.64
100003.81
100003.96
100004.09
100004.2
100004.3
100004.38
100004.45
100004.51
100004.55
100004.58
100004.6
100004.61
100004.61
100004.61
99974.223
99975.727
99977.195
99978.625
99980.015
99981.367
99982.679
99983.952
99985.183
99986.373
99987.519
99988.623
99989.682
99990.698
99991.67
99992.599
99993.484
99994.327
99995.128
99995.887
99996.606
99997.284
99997.923
99998.525
99999.089
99999.617
100000.11
100000.57
100000.99
100001.39
100001.75
100002.09
100002.39
100002.68
100002.98
100003.21
100003.42
100003.61
100003.78
100003.92
100004.05
100004.16
100004.26
100004.34
100004.41
100004.46
100004.51
100004.54
100004.56
100004.57
100004.57
100004.56
99974.173
99975.678
99977.147
99978.579
99979.971
99981.325
99982.639
99983.914
99985.147
99986.337
99987.485
99988.589
99989.65
99990.666
99991.639
99992.568
99993.454
99994.298
99995.099
99995.858
99996.577
99997.255
99997.894
99998.495
99999.059
99999.586
100000.08
100000.54
100000.96
100001.35
100001.72
100002.05
100002.35
100002.63
100002.96
100003.18
100003.39
100003.57
100003.74
100003.88
100004.01
100004.12
100004.22
100004.3
100004.37
100004.42
100004.46
100004.49
100004.51
100004.52
100004.52
100004.51
99974.125
99975.631
99977.102
99978.534
99979.928
99981.284
99982.599
99983.875
99985.109
99986.301
99987.45
99988.555
99989.616
99990.633
99991.606
99992.536
99993.422
99994.265
99995.066
99995.826
99996.544
99997.222
99997.861
99998.462
99999.025
99999.551
100000.04
100000.5
100000.92
100001.31
100001.68
100002.01
100002.31
100002.57
100002.94
100003.15
100003.35
100003.54
100003.7
100003.84
100003.97
100004.08
100004.17
100004.25
100004.32
100004.37
100004.41
100004.44
100004.46
100004.46
100004.46
100004.45
99974.081
99975.587
99977.058
99978.491
99979.886
99981.243
99982.559
99983.836
99985.071
99986.264
99987.413
99988.518
99989.58
99990.597
99991.57
99992.5
99993.386
99994.23
99995.031
99995.79
99996.508
99997.186
99997.824
99998.424
99998.987
99999.513
100000
100000.46
100000.88
100001.27
100001.63
100001.96
100002.26
100002.51
100002.91
100003.11
100003.31
100003.49
100003.65
100003.8
100003.92
100004.03
100004.12
100004.2
100004.27
100004.32
100004.36
100004.38
100004.4
100004.41
100004.4
100004.39
99974.038
99975.544
99977.016
99978.449
99979.845
99981.202
99982.519
99983.796
99985.032
99986.225
99987.374
99988.48
99989.541
99990.559
99991.532
99992.461
99993.347
99994.191
99994.991
99995.75
99996.468
99997.146
99997.784
99998.383
99998.945
99999.471
99999.961
100000.42
100000.84
100001.23
100001.59
100001.91
100002.21
100002.46
100002.87
100003.06
100003.26
100003.45
100003.61
100003.75
100003.87
100003.98
100004.07
100004.15
100004.21
100004.26
100004.3
100004.33
100004.34
100004.35
100004.35
100004.33
99973.998
99975.504
99976.975
99978.409
99979.805
99981.162
99982.479
99983.756
99984.991
99986.184
99987.334
99988.439
99989.501
99990.517
99991.49
99992.42
99993.305
99994.148
99994.949
99995.707
99996.425
99997.102
99997.739
99998.338
99998.9
99999.425
99999.914
100000.37
100000.79
100001.18
100001.53
100001.86
100002.16
100002.4
100002.82
100003.01
100003.22
100003.4
100003.55
100003.69
100003.82
100003.92
100004.01
100004.09
100004.15
100004.2
100004.24
100004.27
100004.28
100004.29
100004.28
100004.27
99973.96
99975.465
99976.936
99978.369
99979.765
99981.121
99982.438
99983.714
99984.949
99986.142
99987.291
99988.397
99989.457
99990.474
99991.446
99992.375
99993.26
99994.102
99994.902
99995.66
99996.377
99997.054
99997.691
99998.289
99998.85
99999.374
99999.862
100000.32
100000.74
100001.12
100001.48
100001.81
100002.11
100002.35
100002.77
100002.96
100003.16
100003.34
100003.5
100003.64
100003.76
100003.87
100003.96
100004.03
100004.09
100004.14
100004.18
100004.2
100004.22
100004.22
100004.22
100004.2
99973.923
99975.427
99976.897
99978.33
99979.725
99981.08
99982.396
99983.672
99984.905
99986.098
99987.246
99988.351
99989.411
99990.426
99991.398
99992.326
99993.21
99994.052
99994.851
99995.609
99996.325
99997.001
99997.637
99998.235
99998.795
99999.319
99999.806
100000.26
100000.68
100001.06
100001.42
100001.75
100002.05