/*--------------------------------*- C++ -*----------------------------------*\
| =========                 |                                                 |
| \\      /  F ield         | OpenFOAM: The Open Source CFD Toolbox           |
|  \\    /   O peration     | Version:  2312                                  |
|   \\  /    A nd           | Website:  www.openfoam.com                      |
|    \\/     M anipulation  |                                                 |
\*---------------------------------------------------------------------------*/
FoamFile
{
    version     2.0;
    format      ascii;
    arch        "LSB;label=32;scalar=64";
    class       volScalarField;
    location    "0.03";
    object      Qdot;
}
// * * * * * * * * * * * * * * * * * * * * * * * * * * * * * * * * * * * * * //

dimensions      [1 -1 -3 0 0 0 0];

internalField   nonuniform List<scalar> 
3272
(
0.0012279386
0.0012729054
0.0013142411
0.001353199
0.0013891975
0.0014212975
0.0014495797
0.0014740439
0.0014930905
0.0015073332
0.0015175551
0.0015207173
0.0015207173
0.0015132039
0.0015023261
0.0014838343
0.0014620788
0.0014348838
0.0014034391
0.0013674418
0.0013277483
0.0012846694
0.0012390831
0.0011900319
0.0011401962
0.0010866927
0.0010333919
0.00097900235
0.00092471444
0.00087022475
0.00081692302
0.0007648111
0.0007125466
0.00066250864
0.000614748
0.0005678718
0.00052272887
0.00048020429
0.00044114577
0.00040307343
0.00036831499
0.00033568164
0.00030403425
0.00027606976
0.00024996304
0.00022578998
0.00020289648
0.00018277207
0.00016403827
0.00014685002
0.00013163369
0.00011780806
0.00010556488
0.20750985
0.22746172
0.24813655
0.26931083
0.29076318
0.31212432
0.33335067
0.35412056
0.37412267
0.39305588
0.41062663
0.42655134
0.44056868
0.45243657
0.46195289
0.46894712
0.47329915
0.47493992
0.47384066
0.47003449
0.46362463
0.45470523
0.44342975
0.43001483
0.41469098
0.39776491
0.37946585
0.36006637
0.33987083
0.31915295
0.29818575
0.27722031
0.25648372
0.2361881
0.21650211
0.1975858
0.17954912
0.16249064
0.1464697
0.13153467
0.11769137
0.10494475
0.09327514
0.082645244
0.073014032
0.064330398
0.056534251
0.049563752
0.043356823
0.037848199
0.032980531
0.028687492
0.024913346
8.6222707
9.7902373
11.054013
12.402034
13.8251
15.297616
16.82501
18.390988
19.971021
21.543732
23.086211
24.57452
25.984329
27.291523
28.472934
29.506994
30.374484
31.05907
31.54774
31.829398
31.903324
31.768432
31.427632
30.888586
30.163356
29.267125
28.217342
27.040237
25.748859
24.369787
22.925732
21.439828
19.93386
18.428336
16.941888
15.490997
14.089751
12.749776
11.48021
10.287753
9.1768596
8.1498832
7.2073658
6.3482669
5.5702448
4.8699258
4.2431531
3.6852083
3.1910436
2.7554188
2.37309
2.038918
1.7480576
152.19315
176.38409
203.23916
232.55308
264.23708
297.71244
333.22456
370.69723
409.51142
449.24097
489.40032
529.45261
568.82067
606.90035
643.07546
676.73446
707.28906
734.19323
756.96194
774.99752
788.13558
796.19417
798.92882
796.37503
788.58301
775.73366
758.10458
736.0657
710.02992
680.70693
648.32659
613.63528
577.19214
539.59549
501.40972
463.16877
425.36058
388.41915
352.71804
318.56702
286.21113
255.83208
227.55172
201.43688
177.50548
155.73325
136.06083
118.40069
102.64391
88.666276
76.334021
65.509362
56.058351
1406.5295
1647.474
1918.8184
2218.7038
2547.1772
2898.5359
3274.9997
3679.7638
4105.6321
4549.0411
5005.6896
5470.6015
5938.2063
6402.4396
6856.8606
7294.8047
7709.5329
8094.4054
8443.0475
8749.4242
9005.6456
9210.8169
9359.6404
9450.6867
9482.3696
9453.7402
9365.4997
9219.4512
9018.4058
8766.0446
8468.753
8131.1499
7757.2992
7355.461
6931.8197
6493.1165
6045.8222
5596.1211
5149.7453
4711.867
4287.0146
3879.0197
3490.992
3125.3206
2783.6994
2467.1704
2176.1847
1910.6728
1670.1203
1453.6455
1260.0781
1088.0486
936.13612
7859.5007
9245.5103
10815.885
12560.136
14479.38
16568.501
18792.114
21213.831
23787.047
26494.517
29315.66
32226
35197.358
38198.176
41193.992
44148.046
47021.875
49776.088
52371.147
54768.082
56929.297
58799.927
60383.457
61632.885
62543.787
63097.101
63279.273
63086.699
62522.293
61595.466
60322.028
58721.599
56836.82
54684.027
52294.049
49714.24
46982.792
44140.88
41228.973
38286.237
35349.63
32453.142
29627.191
26898.177
24288.202
21814.959
19491.762
17327.705
15327.94
13494.028
11824.377
10314.858
8960.1756
29681.774
34931.535
40882.407
47503.523
54818.198
62722.132
71225.125
80524.279
90449.609
100953.14
111973.84
123436.79
135253.66
147323.35
159533.34
171760.7
183873.75
195734.08
207198.54
218121.51
228356.79
237758.61
246080.96
253424.07
259499.52
264358.79
267870.21
269959.09
270584.94
269730.12
267400.27
263624.69
258458.89
251965.72
244317.88
235540.24
225774.32
215186.76
203929.08
192160.22
180040.55
167727.9
155374
143121.19
131099.59
119424.96
108196.96
97498.148
87393.469
77930.334
69139.34
61036.226
53628.981
82721.458
97166.208
113482.77
131621.86
151643.1
173088.92
196373.48
221860.71
249104.93
278012.52
308455.39
340271.84
373267.43
407216.39
441863.1
476923.92
512090.12
547031.33
581399.66
614835.07
646973.11
677458.71
705467.26
731260.03
754168.96
774071.86
790853.19
804036.06
813405.95
818793.27
820079.61
817202.89
810161.22
799014.32
783898.19
764951.67
742671.7
717007.74
688449.25
657390.68
624257.11
589491.01
553547.16
516880.3
479934.39
443132.76
406869.47
371501.42
337341.86
304655.61
273656.74
244511.46
217361.59
182375.06
213493.82
248418.2
287121.54
329711.23
375085.31
424622.58
478648.13
536406.01
597737.88
662427.99
730202.56
800729.81
873620.78
948430.51
1024660.8
1101763.3
1179143.6
1256166.2
1332159.4
1406419.6
1478207.4
1546709.9
1610199.5
1669893.9
1723625.3
1771786.1
1813578.7
1848106.6
1874825.8
1893268.4
1903056.9
1903916
1895685.2
1878328.7
1851937.5
1816773.6
1773073.4
1721984.6
1663184
1597843.7
1526762.1
1450861
1371116.8
1288538.7
1204147.6
1118952.1
1033924.2
949976.02
867938.86
788551.43
712474.73
640433.45
336019.01
391657.08
453588.09
521908.82
596764.5
676134.68
763200.77
857547.48
958293.24
1065208
1177983.6
1296230.4
1419475.7
1547163.4
1678655.7
1813234.3
1950103.7
2088394.7
2227169.1
2365425
2502105
2636112.8
2766360.3
2889309.4
3006654
3117552.3
3218092.7
3310484.9
3392050.1
3461516
3517816.1
3559990.2
3587204.8
3598775.8
3594192.9
3573141.9
3535525.3
3481445.4
3411289.8
3326622.3
3227137.4
3114049.6
2988938.4
2853345.4
2708956.7
2557575.7
2401083.9
2241390.6
2080378.3
1919846.9
1761460.2
540356.56
626590.81
721887.78
826427.69
940117.05
1060470.4
1192934.2
1335372.4
1487139.9
1647942.1
1817389.9
1994992.8
2180158.1
2372190.3
2570291.4
2773562.1
2981004.4
3191523.4
3403929
3616937.6
3829172.7
4039156.7
4245273.9
4445609.2
4635324.2
4819798.9
4990684.9
5151317
5299275
5431394.8
5545882.1
5641023.2
5715211.6
5766985.5
5795068.8
5798414.3
5776245.2
5728088.9
5653818.8
5553668.1
5429755.1
5281892.4
5110770.8
4919092.1
4709083.6
4483272.5
4244443.5
3995565.5
3739706.8
3479970.6
3219591.4
784629.32
904536.28
1036390
1180598.4
1333344.3
1498770
1679397.1
1872272.8
2077185.2
2293801.3
2521671.4
2760231.2
3008802.3
3266592.5
3532696.6
3806097.2
4085664.9
4370158.5
4658224.1
4948395.1
5239091.3
5528621.2
5815196.2
6096976.8
6365854
6629734.7
6879737.7
7116136.3
7340722.4
7546968.4
7732301.6
7894234.2
8030319.2
8138203.6
8215687.3
8260785.3
8271794.3
8247359
8186535.5
8088848.4
7954375.8
7785988
7582981.7
7345945
7078636.5
6784045.4
6465660.7
6127387.8
5773431.4
5408202
5036594.5
1055429.7
1209340.2
1377482.8
1559646.3
1751462.4
1961459.8
2187717.2
2428494.6
2683520.7
2952413
3234674
3529689.8
3836731.4
4154954.6
4483400.5
4820996
5166551.5
5518759.7
5876193.1
6237299.8
6600402.4
6963705.7
7325340.6
7683508.8
8028305
8365804.5
8696336.2
9006827.9
9306202.1
9587656.8
9846372.5
10079125
10282672
10453795
10589359
10686396
10742182
10754339
10720925
10640533
10512414
10336644
10116948
9851243.6
9541269.8
9191452.5
8805694.8
8388581.4
7945241.7
7481238.4
7002959.8
1341730
1527934.7
1730690.8
1944261.2
2173906
2424590.9
2691571.6
2974659.3
3273548.8
3587822.6
3916952.1
4260297.9
4617111.2
4986533.8
5367598.6
5759227.8
6160231.4
6569302.5
6985011.4
7405796.6
7829951.3
8255604.4
8680680.9
9102778.2
9518646
9918685.2
10317504
10695138
11060686
11410829
11737524
12037007
12305386
12538691
12732952
12884281
12988977
13043639
13045287
12991496
12880542
12711595
12484958
12206006
11868942
11479310
11041653
10560964
10043030
9494317.6
8922435.4
1636020.7
1851157
2083016.4
2325745.1
2590366.3
2874461.2
3175859.5
3494316.9
3829491
4180939
4548118.3
4930386.2
5327001.2
5737122.9
6159811.6
6594025.9
7038619.1
7492333.1
7953790
8421478.7
8893738.5
9368737.3
9844450.6
10318658
10789026
11241841
11695503
12130258
12549790
12958055
13343080
13700663
14026413
14315756
14564019
14766525
14918703
15016218
15055111
15031954
14944009
14789379
14567078
14283145
13932541
13516595
13041619
12512716
11936057
11318750
10669331
1934888.4
2176252.3
2428758
2700048.3
2993760.8
3305395.4
3634756.1
3981564.4
4345456.2
4725980.3
5122598.6
5534686.3
5961533
6402341.6
6856227
7322213.3
7799228.8
8286098.1
8781531.8
9284113.2
9792279.9
10304306
10818287
11332139
11843617
12336927
12830811
13316286
13777762
14231215
14663866
15069624
15443681
15780983
16076297
16324293
16519663
16657260
16732250
16740289
16677697
16541609
16329971
16047470
15692748
15261254
14761079
14197247
13576109
12905200
12193733
2236701.2
2498499.5
2771067.6
3067662.4
3383425.7
3717091.8
4068442.7
4437186.3
4822956.1
5225311.5
5643738.7
6077650.5
6526387.1
6989214.7
7465323.5
7953823.6
8453738.7
8963998.3
9483425.8
10010724
10544461
11083046
11624722
12167545
12709368
13233229
13758038
14279354
14775216
15263564
15734248
16179012
16592770
16970120
17305391
17592733
17826228
18000035
18108559
18146643
18109767
17994286
17797737
17519641
17166507
16728755
16212847
15624714
14970776
14258828
13498587
2543206.1
2817332.7
3112393.8
3427966.5
3761233.9
4112030.9
4480133.3
4865254.4
5267045.1
5685094.3
6118930.2
6568020.4
7031771.6
7509528.5
8000570.5
8504107
9019270.9
9545108.7
10080570
10624490
11175579
11732399
12293351
12856659
13420346
13966691
14513841
15061699
15584318
16099086
16599949
17076098
17522301
17932919
18301953
18623137
18890051
19096270
19235539
19301979
19290305
19196073
19015957
18747987
18399432
17961241
17436571
16832246
16154592
15411478
14612992
2850084.1
3140924
3453507.6
3783213.3
4129975.2
4493645.2
4874015.3
5270822.8
5683753.4
6112441.7
6556473.1
7015383.1
7488657.2
7975728.9
8475975.9
8988714.9
9513194.1
10048583
10593962
11148304
11710461
12279144
12852913
13430176
14009236
14572081
15134838
15702554
16246135
16780568
17305439
17806967
18279868
18718339
19116134
19466655
19763067
19998449
20165974
20259118
20271900
20199124
20036638
19781524
19440449
19006108
18477869
17863480
17169020
16402140
3164498.8
3471316.9
3795286.7
4135686.7
4492390.9
4865249.3
5254075.4
5658643
6078685.6
6513896.6
6963929.4
7428397.7
7906873.5
8398885.4
8903914.1
9421386.8
9950669
10491054
11041750
11601864
12170381
12746145
13327832
13913977
14503263
15079265
15652350
16234410
16795730
17344582
17888445
18410717
18905891
19368039
19790713
20167044
20489850
20751784
20945515
21063945
21100453
21049158
20905168
20664756
20332914
19905705
19377896
18758155
18052354
17268755
3489661.2
3806458.9
4138958.1
4487017.6
4850526.1
5229358.2
5623364.6
6032367.8
6456160.1
6894502.7
7347125.4
7814116.9
8294407.9
8787969.5
9294386.8
9813196.6
10343880
10885851
11438440
12000879
12572274
13151570
13737480
14328341
14921763
15513594
16091404
16680764
17261964
17820710
18378596
18918051
19432140
19914783
20359363
20758784
21105567
21391994
21610286
21752827
21812411
21782524
21657671
21433955
21110731
20693715
20169808
19548340
18835234
18038907
3823420.4
4147137.1
4485542.1
4838559.3
5206128.4
5588172.4
5984595.3
6395279.7
6820085.5
7258848.4
7711379
8177461.4
8656851.5
9149835.6
9655037.5
10172605
10702131
11243142
11795087
12357313
12929040
13509316
14096951
14690414
15287739
15886875
16470429
17066812
17659499
18228603
18797901
19351973
19882456
20383173
20847371
21267767
21636629
21945912
22187436
22353108
22435185
22426569
22321153
22114274
21803396
21396099
20878744
20258234
19540794
18734704
4165317.9
4493459.6
4835277.2
5190758.3
5559905.9
5942705.5
6339125.3
6749116.5
7172611.9
7609525.5
8059750.2
8523157.2
8999592.8
9488875.4
9990790.5
10505851
11032291
11570444
12119866
12680016
13250223
13829650
14417239
15011664
15611333
16214626
16802755
17404669
18005664
18583749
19162506
19729301
20274266
20791183
21273207
21712899
22102311
22433108
22696750
22884709
22988737
23001179
22915315
22725750
22428821
22032144
21523011
20905411
20185695
4514965.6
4845120.7
5187992.5
5543630.5
5912105.9
6293473.4
6687772
7095025.5
7515242.5
7948415.4
8394518.9
8853508.1
9325316.3
9809851.1
10306991
10816575
11338399
11873197
12418707
12975415
13542757
14120014
14706271
15300392
15901030
16506721
17098159
17704232
18311795
18897538
19484133
20062191
20620143
21151771
21650168
22107776
22516460
22867630
23152417
23361894
23487343
23520573
23454266
23282330
23000245
22615062
22115478
21502456
20783706
4871543.7
5201404.9
5543106
5896762.2
6262515.4
6640492.4
7030805
7433550.7
7848813.1
8276660.8
8717146.5
9170304.9
9636150.4
10114674
10605838
11109569
11625750
12154209
12695872
13248136
13811634
14385762
14969738
15562588
16163139
16770033
17363731
17972856
18585812
19178185
19771256
20359405
20929129
21474239
21987795
22462142
22888986
23259511
23564551
23794808
23941126
23994805
23947953
23793816
23527095
23153984
22664960
22057609
21340627
5233908.6
5561277.2
5899717.2
6249412.6
6610577.3
6983409.9
7368093.5
7764796.9
8173675.2
8594868.8
9028502.7
9474684.6
9933502.8
10405023
10889285
11386293
11896011
12418348
12953144
13501504
14060447
14630744
15211737
15802585
16402251
17009470
17604589
18215873
18833356
19431663
20030053
20627304
21207767
21765305
22292961
22783006
23227008
23615948
23940390
24190692
24357288
24430999
24403389
24267098
24016063
23655211
23177427
22576445
21861613
5600672.5
5923466.8
6256694.2
6600608.8
6955494.4
7321618.2
7699230.5
8088566.5
8489846.7
8903276.6
9329046.2
9767328.3
10218277
10682024
11158677
11648310
12150958
12666603
13195165
13736477
14291805
14857765
15435256
16023552
16621722
17228591
17824435
18437097
19058391
19662449
20265162
20870573
21460851
22029876
22570683
23075478
23535706
23942169
24285181
24554784
24741023
24834269
24825581
24707069
24472031
24123034
23656922
23062861
5970273.8
6286542.2
6612753.2
6949228.4
7296317.1
7654349.1
8023635.4
8404470
8797130.9
9201880.6
9618965.2
10048614
10491038
10946426
11414943
11896725
12391868
12900421
13422370
13957626
14505998
15068897
15642511
16227843
16824054
17430036
18025996
18639230
19263383
19874214
20480306
21092695
21691950
22271608
22824694
23343354
23818928
24242051
24602811
24890955
25096164
25208381
25218190
25117252
24898908
24560016
24106255
23522058
6341041.3
6648977.4
6966525.7
7294069.6
7632016.4
7980750.3
8340633.9
8712010.8
9095207.4
9490533.4
9898282
10318729
10752132
11198730
11658735
12132335
12619680
13120874
13635966
14164930
14707648
15265709
15835184
16417257
17011163
17615843
18211415
18824325
19448602
20070861
20678583
21296381
21903789
22493285
23057838
23589530
24079605
24518548
24896239
25202151
25425629
25556209
25584024
25500257
25297704
24971391
24528553
23953949
6711251.7
7009209.2
7316615.9
7633908.1
7961541.2
8299943.5
8649518.3
9010648.6
9383698.6
9769015
10166928
10577750
11001778
11439286
11890531
12355740
12835109
13328790
13836885
14359424
14896353
15447508
16014593
16593206
17184565
17787667
18382607
18995205
19621293
20249233
20860814
21483547
22098459
22697082
23272345
23816280
24320041
24773982
25167790
25490690
25731706
25880002
25925273
25858215
25671021
25357791
24925646
24360484
7079179.4
7365685.1
7661646.7
7967542.1
8283862.9
8611069.1
8949593.2
9299845.8
9662217.8
10037083
10424797
10825701
11240119
11668356
12110700
12567412
13038725
13524831
14025876
14541941
15073025
15619024
16181804
16756832
17345487
17946829
18540980
19153205
19781128
20412875
21028473
21655771
22277642
22884750
23470017
24025442
24542104
25010238
25419357
25758453
26016260
26181585
26243710
26192848
26020619
25720431
25298873
24743150
7443138.8
7716902.7
8000296.4
8293827
8598008.5
8913318.9
9240207.2
9579099.5
9930402.3
10294505
10671781
11062589
11467272
11886156
12319553
12767749
13231007
13709554
14203570
14713179
15238427
15779262
16335504
16909085
17494944
18094408
18687649
19299378
19928864
20563600
21182946
21814403
22442740
23057741
23652353
24218551
24747356
25228895
25652525
26007026
26280858
26462496
26540828
26505607
26347910
26060528
25649379
25103088
7801519.3
8061440.2
8331326.9
8611701.6
8903085
9205958.7
9520775
9847963.7
10187936
10541087
10907796
11288433
11683349
12092887
12517371
12957108
13412382
13883447
14370514
14873742
15393218
15928934
16480759
17050778
17633797
18231309
18823545
19434647
20065415
20702652
21325411
21960612
22594952
23217299
23820633
24396922
24937138
25431314
25868667
26237780
26526861
26724073
26817933
26797761
26654123
26379218
25978194
25441262
8152812
8397980.5
8653604.1
8920206
9198295.7
9488343.5
9790792
10106063
10434562
10776679
11132794
11503274
11888477
12288749
12704424
13135822
13583243
14046959
14527207
15024175
15537985
16068668
16616138
17180152
17762797
18358315
18949472
19559835
20191639
20831026
21456878
22095422
22735327
23364506
23975976
24561705
25112626
25618693
26068995
26451934
26755485
26967517
27076202
27070454
26940374
26677574
26286266
25758528
8495627.8
8725326.2
8966112.6
9218494.6
9482951
9759926.6
10049842
10353100
10670090
11001191
11346771
11707192
12082806
12473959
12880989
13304221
13743965
14200510
14674110
15164978
15673264
16199035
16742244
17302692
17882610
18476120
19066147
19675683
20308320
20949576
21578228
22219738
22864799
23500327
24119377
24713925
25274874
25792108
26254601
26650591
26967833
27193928
27316717
27324743
27207693
26956641
26574453
26055650
8828705.9
9042408.1
9267964.6
9505843
9756474
10020264
10297600
10588857
10894401
11214589
11549773
11900299
12266512
12648750
13047348
13462632
13894919
14344506
14811662
15296620
15799555
16320562
16859629
17416599
17993836
18585349
19174213
19782861
20416162
21059055
21690244
22334374
22984206
23625626
24251732
24854508
25424835
25952536
26426482
26834762
27164928
27404327
27540492
27561622
27457049
27217488
26843445
26333282
9150909.5
9348288.8
9558406.5
9781652.6
10018402
10269013
10533833
10813199
11107445
11416900
11741893
12082751
12439803
12813375
13203796
13611388
14036469
14479341
14940285
15419548
15917325
16433737
16968804
17522405
18094225
18686572
19274259
19881981
20515807
21160138
21793631
22440065
23094305
23741190
24373854
24984297
25563380
26100874
26585558
27005385
27347722
27599676
27748495
27782044
27689348
27461327
27093530
26592012
8995867.1
9138578.9
9293578.7
9461237.2
9642201.8
9836828.8
10045451
10268385
10505934
10758395
11026065
11309236
11608205
11923271
12254738
12602913
12968109
13350641
13750826
14168978
14605403
15060387
15534189
16027020
16539024
17070248
17620604
18189815
18780314
19366826
19973603
20607840
21253441
21889030
22537480
23195792
23847737
24486491
25104065
25691310
26237950
26732682
27163334
27517104
27780882
27941644
27986937
27905458
27687835
27327754
26833410
9349800.8
9472475.8
9608768.7
9758985.7
9923548.5
10102761
10296888
10506180
10730879
10971227
11227468
11499852
11788638
12094091
12416485
12756106
13113245
13488205
13881291
14292813
14723074
15172365
15640954
16129065
16636860
17164411
17711657
18278358
18867063
19452416
20058246
20692797
21339523
21977023
22627233
23289301
23945929
24590328
25214527
25809366
26364531
26868645
27309423
27673911
27948795
28120797
28177147
28106176
27898132
27545922
27058250
9690659.3
9793192.3
9910769.6
10043576
10191870
10355860
10535728
10731648
10943792
11172342
11417487
11679428
11958380
12254573
12568249
12899665
13249093
13616818
14003132
14408336
14832730
15276608
15740242
16223866
16727661
17251716
17795998
18360298
18947271
19531491
20136387
20771167
21418896
22058149
22709889
23375418
24036372
24685997
25316341
25918235
26481332
26994188
27444418
27818925
28104212
28286751
28353431
28292156
28092854
27748256
27267043
10017471
10099952
10198964
10314554
10446835
10595901
10761839
10944738
11144696
11361827
11596260
11848146
12117654
12404972
12710310
13033896
13375977
13736818
14116699
14515908
14934743
15373494
15832436
16311816
16811822
17332566
17874035
18436050
19018196
19604484
20208474
20843393
21492027
22132909
22785978
23454686
24119628
24774085
25410118
26018554
26589016
27110001
27569031
27952882
28247879
28440243
28516464
28463873
28272290
27935038
27460228
10329455
10392142
10472889
10571595
10688231
10822767
10975187
11145487
11333687
11539828
11763980
12006235
12266717
12545572
12842974
13159119
13494231
13848552
14222345
14615891
15029476
15463390
15917910
16393287
16889722
17407342
17946154
18506002
19086501
19671794
20274910
20909879
21559333
22201776
22855999
23527604
24196218
24855132
25496424
26110916
26688203
27216730
27683934
28076473
28380502
28581973
28666866
28621607
28436453
28106964
27638655
10626005
10669308
10732225
10814499
10915956
11036439
11175822
11334006
11510925
11706549
11920882
12153961
12405860
12676682
12966563
13275669
13604196
13952366
14320425
14708639
15117287
15546655
15997021
16468639
16961721
17476405
18012717
18570520
19149456
19733791
20336055
20970994
21621169
22265223
22920442
23594631
24266622
24929642
25575785
26195871
26779471
27314980
27789758
28190351
28502752
28712629
28805326
28765563
10906686
10931149
10976787
11043180
11130009
11236987
11363873
11510470
11676627
11862239
12067243
12291621
12535395
12798626
13081412
13383888
13706221
14048611
14411287
14794502
15198525
15623638
16070115
16538218
17028162
17540098
18074066
18629949
19207405
19790820
20392243
21027049
21677765
22323771
22979790
23656199
24331287
24998079
25648689
26273934
26863359
27405316
27887095
28295135
28615278
28832929
28932884
11171216
11177499
11206510
11257660
11330482
11424559
11539535
11675114
11831058
12007186
12203372
12419539
12655658
12911748
13187869
13484124
13800653
14137635
14495279
14873824
15273531
15694673
16137527
16602352
17089372
17598746
18130527
18684611
19260673
19843203
20443785
21078301
21729073
22378141
23034493
23712744
24390632
25060875
25715589
26345579
26940371
27488270
27976502
28391411
28718699
28943601
29051471
11419451
11408322
11421441
11458052
11517546
11599373
11703062
11828220
11974522
12141714
12329603
12538056
12766996
13016398
13286286
13576729
13887843
14219783
14572740
14946940
15342634
15760088
16199575
16661357
17145662
17652657
18182404
18734811
19309565
19891249
20490988
21125014
21774320
22429687
23084985
23764647
24445039
25118431
25776905
26411252
27010974
27564337
28058505
28479732
28813595
29045169
29160221
11651188
11623696
11621723
11644555
11691443
11761705
11854758
11970112
12107359
12266171
12446292
12647534
12869771
13112936
13377018
13662055
13968136
14295395
14644005
15014178
15406154
15820194
16256567
16715534
17197329
17702121
18229984
18780834
19354365
19931701
20534170
21167727
21816771
22475549
23131331
23812221
24494858
25171115
25833028
26471366
27075607
27633981
28133595
28560620
28900521
29138223
29259689
11866267
11823761
11807583
11817440
11852476
11911883
11994968
12101148
12229934
12380927
12553809
12748340
12964347
13201723
13460421
13740451
14041874
14364805
14709399
15075855
15464401
15875292
16308795
16765170
17244651
17747415
18273540
18822950
19395343
19971893
20573638
21206813
21855979
22517105
23173704
23855744
24540408
25219269
25884318
26526303
27134677
27697636
28202234
28634569
28980002
29223325
29350556
12065707
12008504
11979328
11977040
12001000
12050275
12124071
12221711
12342632
12486366
12652537
12840853
13051096
13283122
13536850
13812261
14109393
14428339
14769238
15132276
15517671
15925672
16356540
16810536
17287895
17788798
18313327
18861407
19432746
20008587
20609668
21242547
21892019
22554788
23212343
23895478
24581984
25263208
25931112
26576420
27188563
27755706
28264854
28702037
29052527
29300998
29433441
12249846
12178157
12137280
12123734
12137411
12177286
12242471
12332206
12445854
12582883
12742862
12925450
13130387
13357493
13606653
13877824
14171019
14486313
14823828
15183737
15566250
15971608
16400069
16851892
17327313
17826515
18349582
18896438
19466797
20042038
20642512
21275158
21924991
22588982
23247501
23931676
24619857
25303224
25973719
26622047
27237619
27808568
28321856
28763455
29118556
29371725
29508893
13373707
13103887
12876381
12688151
12536395
12418502
12333777
12281698
12257961
12262141
12293343
12350593
12433050
12540009
12670879
12825175
13002511
13202588
13425190
13670175
13937471
14227072
14539033
14873464
15230522
15610411
16013364
16439635
16889482
17363141
17860797
18382530
18928254
19497675
20072508
20672402
21304854
21955039
22619989
23279428
23964576
24654280
25339586
26012428
26663493
27282172
27856573
28373618
28819224
29178513
29435956
29577407
13608917
13318853
13073327
12868985
12702826
12572305
12475812
12413033
12380177
12375644
12398896
12448876
12524672
12625514
12750757
12899866
13072413
13268061
13486563
13727749
13991523
14277860
14586796
14918428
15272903
15650414
16051189
16475478
16923537
17395603
17891859
18412380
18957043
19525482
20100310
20699561
21331827
21982331
22648063
23308351
23994401
24685488
25372546
26047506
26701042
27322529
27900048
28420488
28869719
29232799
29494111
29639435
13823353
13514609
13252490
13033356
12854028
12711853
12604878
12531710
12490843
12478398
12494406
12537767
12607503
12702787
12822918
12967321
13135525
13327162
13541952
13779701
14040292
14323680
14629886
14958993
15311138
15686506
16085320
16507825
16954276
17424909
17919905
18439328
18982977
19550131
20125913
20724206
21356251
22007033
22673421
23334484
24021362
24713700
25402334
26079199
26734959
27358971
27939297
28462794
28915289
29281784
29546585
29695395
14017563
13691726
13414451
13181840
12990531
12837703
12721105
12638790
12590402
12570897
12580343
12617717
12681978
12772241
12887761
13027920
13192213
13380237
13591688
13826348
14084079
14364819
14668575
14995418
15345475
15718925
16115982
16536892
16981905
17451257
17945126
18463562
19006237
19571095
20150208
20746516
21378287
22029309
22696255
23358018
24045651
24739116
25429164
26107736
26765488
27391763
27974604
28500839
28956259
29325817
29593747
29745679
14192189
13850846
13559844
13315048
13112916
12950447
12825141
12734725
12679391
12653632
12657179
12689177
12748525
12834288
12945678
13082037
13242830
13427625
13636093
13867994
14123173
14401552
14703125
15027951
15376150
15747892
16143389
16562881
17006617
17474832
17967702
18485262
19027119
19590840
20170995
20766499
21398076
22049312
22716740
23379131
24067447
24761924
25453235
26133329
26792856
27421148
28006229
28534905
28992932
29365221
29635940
29790654
14347942
13992663
13689340
13433625
13221799
13050691
12917600
12820044
12758322
12727093
12725383
12752595
12807572
12889333
12997051
13130036
13287722
13469652
13675476
13904933
14157853
14434142
14733784
15056828
15403386
15773621
16167741
16585983
17028595
17495809
17987800
18504591
19045764
19608782
20189198
20784304
21415757
22067187
22735034
23397986
24086914
24782294
25474726
26156170
26817271
27447349
28034415
28565252
29025588
29400295
29673485
29830660
14485588
14117912
13803642
13538238
13317816
13139050
12999083
12895325
12827683
12791761
12785420
12808412
12859535
12937769
13042254
13172270
13327223
13506636
13710136
13937447
14188384
14462841
14760791
15082274
15427395
15796312
16189229
16606379
17048009
17514351
18005576
18521697
19062286
19624785
20205237
20800096
21431462
22083066
22751280
23414727
24104204
24800382
25493805
26176438
26838923
27470572
28059382
28592117
29054482
29431315
29706677
29866011
14605933
14227358
13903476
13629571
13401615
13216142
13070176
12961196
12887925
12848109
12837748
12857061
12904824
12979984
13081652
13209081
13361656
13538879
13740359
13965807
14215022
14487889
14784371
15104502
15448378
15816155
16208031
16624238
17065021
17530611
18021176
18536717
19076797
19638866
20219354
20814020
21445315
22097073
22765606
23429490
24119450
24816331
25510620
26194291
26857983
27491000
28081328
28615716
29079845
29458528
29735780
29896991
14709816
14321789
13989578
13708318
13473846
13282578
13131437
13017855
12939945
12896611
12882822
12898967
12943835
13016350
13115595
13240801
13391333
13566675
13766422
13990271
14238011
14509516
14804742
15123714
15466527
15833329
16224317
16639720
17079782
17544731
18034734
18549780
19089410
19651090
20231713
20826202
21457427
22109317
22778127
23442390
24132774
24830262
25525301
26209867
26874599
27508793
28100426
28636233
29101877
29482149
29761029
29923850
14798097
14402002
14062694
13775173
13535159
13338968
13183432
13065903
12984159
12937765
12921083
12934540
12976956
13047230
13144424
13267749
13416553
13590306
13788589
14011088
14257583
14527940
14822107
15140105
15482023
15848005
16238247
16652975
17092432
17556845
18046378
18561005
19100237
19661566
20242406
20836743
21467892
22119896
22788942
23453529
24144277
24842284
25537960
26223285
26888896
27524085
28116819
28653822
29120743
29502354
29782615
29946792
14877478
14474099
14128397
13835242
13590246
13389632
13230154
13109063
13023936
12974757
12955486
12966531
13006748
13075014
13170372
13292014
13439273
13611605
13808580
14029875
14275258
14544591
14837815
15154946
15496067
15861321
16250900
16665029
17103950
17567889
18057005
18571261
19110118
19671221
20252094
20846433
21477501
22129604
22798865
23463743
24154819
24853290
25549534
26235535
26901929
27538001
28131712
28669775
29137825
29520621
29802124
29967498
14945412
14535780
14184600
13886627
13637375
13432989
13270152
13146024
13058046
13006465
12984987
12993973
13032317
13098874
13192669
13312880
13458827
13629952
13825819
14046091
14290534
14559000
14851426
15167823
15508272
15872912
16261932
16675557
17114027
17577567
18066334
18580278
19118818
19679634
20260778
20855006
21485991
22138175
22807620
23472743
24164097
24862957
25559677
26246243
26913288
27550096
28144617