/*--------------------------------*- C++ -*----------------------------------*\
| =========                 |                                                 |
| \\      /  F ield         | OpenFOAM: The Open Source CFD Toolbox           |
|  \\    /   O peration     | Version:  2312                                  |
|   \\  /    A nd           | Website:  www.openfoam.com                      |
|    \\/     M anipulation  |                                                 |
\*---------------------------------------------------------------------------*/
FoamFile
{
    version     2.0;
    format      ascii;
    arch        "LSB;label=32;scalar=64";
    class       volScalarField;
    location    "0.03";
    object      T;
}
// * * * * * * * * * * * * * * * * * * * * * * * * * * * * * * * * * * * * * //

dimensions      [0 0 0 1 0 0 0];

internalField   nonuniform List<scalar> 
3272
(
316.04005
316.32141
316.59362
316.85572
317.10669
317.34632
317.57483
317.7917
317.99649
318.18883
318.36842
318.53499
318.68834
318.8283
318.95477
319.06765
319.16693
319.25248
319.32439
319.38279
319.42784
319.45978
319.47884
319.48527
319.47935
319.46141
319.43181
319.39091
319.33915
319.27694
319.20478
319.12315
319.03256
318.93354
318.82666
318.71248
318.59155
318.46447
318.3318
318.19412
318.052
317.90599
317.75663
317.60445
317.44995
317.29363
317.13594
316.97732
316.81818
316.6589
316.49984
316.34133
316.18372
348.27272
349.12009
349.9431
350.73795
351.50299
352.2329
352.93418
353.60387
354.2402
354.84217
355.4089
355.93966
356.43384
356.89091
357.31047
357.6922
358.0359
358.34145
358.60774
358.83617
359.02624
359.17892
359.29467
359.37385
359.41705
359.42494
359.39839
359.33813
359.24517
359.12054
358.96535
358.7808
358.56818
358.32882
358.06414
357.77559
357.4647
357.133
356.78206
356.41348
356.02885
355.62974
355.21773
354.79437
354.36116
353.91956
353.47101
353.01686
352.5584
352.09686
351.63339
351.16912
350.70532
379.86867
381.2724
382.64268
383.97019
385.25273
386.47749
387.66
388.79802
389.88571
390.9216
391.90442
392.83304
393.70649
394.52391
395.28456
395.98784
396.63324
397.22039
397.74895
398.21547
398.62516
398.9747
399.26709
399.50221
399.68031
399.80207
399.8683
399.87984
399.83795
399.74369
399.59849
399.40383
399.16134
398.87278
398.54002
398.16507
397.75003
397.29708
396.80849
396.28659
395.73375
395.15239
394.54491
393.91375
393.26129
392.58991
391.90193
391.19963
390.48518
389.76067
389.02808
388.28935
387.54697
409.71914
411.64013
413.52515
415.35645
417.13184
418.82888
420.47177
422.06628
423.59805
425.0655
426.4672
427.80181
429.06814
430.26509
431.39166
432.44699
433.43035
434.34122
435.17958
435.93858
436.62212
437.23525
437.76907
438.23247
438.62251
438.93931
439.18336
439.35532
439.4561
439.48645
439.44791
439.34172
439.16943
438.93277
438.63366
438.27418
437.85659
437.38328
436.85679
436.27982
435.65512
434.98558
434.27413
433.52376
432.7375
431.91837
431.0694
430.19359
429.29386
428.37305
427.43386
426.47897
425.51218
437.00306
439.38226
441.7272
444.01076
446.23182
448.35973
450.41951
452.43523
454.38022
456.25313
458.05258
459.7772
461.42572
462.9969
464.48963
465.90284
467.23558
468.487
469.65635
470.74275
471.73544
472.64736
473.47041
474.20974
474.86823
475.44159
475.92995
476.33351
476.65269
476.88814
477.03963
477.10917
477.09777
477.00652
476.83702
476.59102
476.27051
475.87768
475.41492
474.88482
474.29011
473.63373
472.91872
472.14826
471.3256
470.4541
469.53713
468.57811
467.58043
466.54743
465.48231
464.3883
463.2703
461.22015
463.98864
466.72439
469.39241
471.98994
474.51162
476.92569
479.30834
481.61812
483.85259
486.01021
488.08964
490.08961
492.00889
493.84632
495.60078
497.27116
498.85636
500.35529
501.76677
503.08943
504.3088
505.44569
506.48402
507.43626
508.30095
509.0737
509.75403
510.3417
510.83663
511.23889
511.54905
511.76559
511.89173
511.92778
511.87455
511.73349
511.50624
511.19468
510.80091
510.32729
509.77636
509.1509
508.45383
507.68827
506.85748
505.96483
505.01379
504.0079
502.95064
501.84541
500.69571
499.50724
482.17263
485.26013
488.314
491.29829
494.21456
497.0283
499.74738
502.44016
505.05836
507.6004
510.06514
512.45147
514.7583
516.98455
519.12915
521.191
523.16897
525.06188
526.8685
528.58748
530.21727
531.7558
533.18247
534.53397
535.77636
536.93764
538.00756
538.98197
539.85997
540.64083
541.32399
541.90904
542.39559
542.78415
543.07177
543.26299
543.35708
543.35463
543.25679
543.06496
542.78081
542.40624
541.94341
541.39472
540.76276
540.05038
539.26059
538.39658
537.46164
536.45911
535.39229
534.2646
533.08216
499.91027
503.24865
506.54856
509.77961
512.94279
515.97279
518.93751
521.87886
524.74514
527.53616
530.2514
532.89018
535.45171
537.93517
540.33966
542.66417
544.90764
547.06895
549.14689
551.14032
553.04823
554.87035
556.57762
558.20565
559.73216
561.16714
562.52381
563.78498
564.94951
566.0162
566.98387
567.85146
568.61797
569.28264
569.84454
570.30415
570.6571
570.90953
571.05894
571.10608
571.05176
570.8971
570.64345
570.29244
569.84598
569.30621
568.6755
567.95648
567.15192
566.26472
565.29781
564.25447
563.14113
514.66198
518.18687
521.66367
525.07195
528.41206
531.60648
534.75992
537.88535
540.9387
543.91978
546.82828
549.66382
552.4259
555.11391
557.72712
560.26468
562.72563
565.1089
567.4133
569.63755
571.78019
573.83927
575.81109
577.66498
579.45568
581.13756
582.74163
584.26314
585.6907
587.02249
588.25673
589.39172
590.42588
591.35772
592.1859
592.90928
593.52651
594.03812
594.43815
594.73397
594.92237
595.00372
594.97848
594.84742
594.61161
594.27237
593.83131
593.29027
592.65128
591.9165
591.08827
590.17013
589.17383
526.76999
530.42384
534.01691
537.54152
540.99784
544.3032
547.59491
550.84791
554.03282
557.14944
560.19765
563.17729
566.08807
568.92958
571.70126
574.4024
577.03215
579.58953
582.0734
584.48252
586.81558
589.07136
591.24943
593.30877
595.29538
597.21436
599.0157
600.75803
602.41319
603.97634
605.44508
606.8172
608.09059
609.26323
610.33325
611.29886
612.15847
612.91083
613.5546
614.08287
614.50342
614.81395
615.01307
615.10065
615.07693
614.94243
614.69789
614.34432
613.88282
613.31442
612.6397
536.63792
540.36464
544.024
547.61386
551.12759
554.50021
557.8849
561.21751
564.48604
567.69057
570.83124
573.90809
576.92104
579.86984
582.75406
585.57312
588.32627
591.01259
593.63099
596.18024
598.65886
601.06508
603.39635
605.64751
607.78059
609.87332
611.84825
613.76124
615.60444
617.35961
619.02413
620.59546
622.07117
623.44883
624.72611
625.90074
626.9706
627.93374
628.78834
629.53277
630.15841
630.67269
631.07585
631.36397
631.53653
631.59327
631.53417
631.35943
631.06941
630.6648
630.14818
544.67624
548.42501
552.11037
555.73559
559.21375
562.64868
566.08288
569.45553
572.76774
576.02023
579.21348
582.34777
585.42317
588.43958
591.39669
594.29403
597.13091
599.90647
602.61967
605.26929
607.85393
610.37206
612.82212
615.20294
617.46128
619.67904
621.79779
623.83554
625.8267
627.73431
629.55511
631.28648
632.92572
634.4701
635.91693
637.26355
638.50739
639.64599
640.67705
641.59836
642.4077
643.09487
643.66905
644.13037
644.47357
644.69771
644.80209
644.78618
644.64962
644.3923
644.01668
551.24981
554.98543
558.65717
562.25753
565.71309
569.18025
572.61644
575.99558
579.31869
582.58664
585.80007
588.95941
592.06488
595.11645
598.11391
601.05682
603.94457
606.7763
609.551
612.26743
614.92423
617.51996
620.05344
622.52484
624.87993
627.17393
629.42411
631.55609
633.64774
635.67124
637.61223
639.46764
641.23448
642.90977
644.49051
645.97373
647.35649
648.63596
649.80936
650.87402
651.82725
652.6662
653.38023
653.98125
654.46626
654.83032
655.07209
655.1904
655.18429
655.05299
654.79818
556.69064
560.3869
564.03053
567.52815
570.97783
574.44477
577.85743
581.21737
584.52585
587.78387
590.99218
594.15127
597.26144
600.32271
603.3349
606.29761
609.21022
612.07188
614.88154
617.63793
620.33953
622.98454
625.57072
628.09474
630.54933
632.89023
635.21691
637.42651
639.58729
641.69761
643.72893
645.67819
647.5423
649.31804
651.00218
652.5915
654.08277
655.47282
656.75854
657.93688
659.00481
659.95921
660.79675
661.50563
662.10436
662.58226
662.93629
663.16475
663.26618
663.23932
663.08497
561.26716
564.89725
568.4626
571.88667
575.32868
578.74714
582.11627
585.43747
588.71201
591.9409
595.12492
598.26461
601.36026
604.41194
607.41946
610.3824
613.30013
616.17177
618.99623
621.77217
624.49801
627.17188
629.79162
632.35484
634.85949
637.24409
639.61812
641.89104
644.09571
646.26916
648.36708
650.38633
652.32364
654.17565
655.9389
657.60993
659.18528
660.66151
662.03524
663.30317
664.4621
665.50895
666.44099
667.24091
667.92826
668.49824
668.94322
669.2612
669.45035
669.50901
669.43724
565.20034
568.76122
572.18038
575.57209
578.97363
582.32926
585.64047
588.90867
592.1351
595.32076
598.46643
601.57265
604.6397
607.66762
610.65621
613.60502
616.51336
619.38033
622.20477
624.98529
627.72029
630.40791
633.04611
635.63275
638.16586
640.57782
642.97175
645.3158
647.54695
649.75784
651.9043
653.97557
655.96806
657.87814
659.70217
661.43649
663.0774
664.62126
666.06447
667.40348
668.63488
669.75553
670.76291
671.63918
672.39633
673.04119
673.56036
673.95161
674.21284
674.34206
674.33865
568.64632
572.09758
575.41782
578.77135
582.09509
585.37772
588.62083
591.82588
594.9941
598.12647
601.22377
604.28648
607.31488
610.30895
613.26845
616.19288
619.08152
621.93337
624.74723
627.52166
630.25502
632.94548
635.59104
638.18965
640.73922
643.1696
645.57908
647.95751
650.21671
652.45244
654.63519
656.74581
658.78054
660.73559
662.60716
664.3914
666.08446
667.68248
669.18164
670.57816
671.86834
673.0485
674.11474
675.06186
675.87595
676.58049
677.16131
677.61381
677.93553
678.12422
678.17873
571.74578
575.02868
578.31415
581.59099
584.82975
588.03225
591.20019
594.33505
597.43806
600.51019
603.55217
606.56445
609.54724
612.50049
615.42389
618.31688
621.17865
624.00815
626.80411
629.56502
632.28921
634.97481
637.61987
640.22242
642.7805
645.22238
647.63908
650.03905
652.32023
654.57155
656.78221
658.92336
660.99126
662.98206
664.89183
666.71659
668.45231
670.09498
671.64057
673.08512
674.42471
675.65548
676.77359
677.77537
678.64118
679.39629
680.03016
680.53545
680.90943
681.14968
681.25476
574.52323
577.72793
580.94627
584.12853
587.27736
590.39489
593.48288
596.54283
599.57597
602.58323
605.56528
608.52253
611.45511
614.3629
617.24552
620.10233
622.93245
625.73474
628.50784
631.25019
633.96001
636.63541
639.27441
641.87513
644.43611
646.88548
649.30287
651.71751
654.01686
656.27649
658.509
660.67439
662.76908
664.78916
666.73062
668.58933
670.36111
672.04179
673.62718
675.11314
676.49559
677.77054
678.93414
679.98284
680.89501
681.69414
682.37511
682.92728
683.34777
683.63384
577.11763
580.25682
583.37033
586.45378
589.50919
592.53853
595.54352
598.52561
601.48596
604.42546
607.34471
610.24405
613.12353
615.98294
618.82183
621.63945
624.43484
627.20677
629.95379
632.67422
635.36618
638.02763
640.65643
643.25053
645.80928
648.26804
650.68043
653.10298
655.42252
657.68462
659.93342
662.11831
664.23519
666.27999
668.24855
670.1366
671.93981
673.65385
675.27437
676.79706
678.2177
679.53212
680.73636
681.8269
682.78289
683.62084
684.34454
684.93941
685.40238
685.73057
579.59161
582.625
585.63221
588.61487
591.57494
594.51429
597.43457
600.33715
603.22312
606.09328
608.94815
611.78798
614.61274
617.42211
620.21555
622.99222
625.75105
628.4907
631.20962
633.906
636.5778
639.22275
641.8382
644.42066
646.96424
649.45541
651.85135
654.2652
656.62479
658.88225
661.13854
663.33935
665.47508
667.54133
669.53372
671.44781
673.27913
675.02318
676.67547
678.23153
679.68692
681.03727
682.27811
683.40437
684.40873
685.27963
686.04204
686.67644
687.17891
687.54643
581.94168
584.86331
587.76365
590.64479
593.50879
596.35746
599.19238
602.01483
604.82581
607.62603
610.4159
613.19557
615.96491
618.7235
621.47069
624.20553
626.92685
629.63319
632.32288
634.99397
637.64426
640.27127
642.87205
645.443
647.97943
650.47677
652.86989
655.28255
657.65569
659.91956
662.18146
664.39602
666.5483
668.63365
670.64747
672.58518
674.44215
676.21374
677.89528
679.48216
680.96975
682.35349
683.62873
684.79064
685.83444
686.74066
687.53856
688.21016
688.74993
689.15475
584.18308
586.99265
589.78617
592.56591
595.33395
598.0921
600.84183
603.58433
606.32048
609.05089
611.77586
614.49542
617.20933
619.91708
622.61787
625.31066
627.99415
630.66679
633.32675
635.97196
638.60009
641.20848
643.79412
646.35358
648.88316
651.37991
653.77202
656.18411
658.5645
660.83555
663.1018
665.32882
667.49606
669.59878
671.63224
673.59171
675.47242
677.2696
678.97843
680.59413
682.11195
683.52715
684.83503
686.03091
687.11043
688.051
688.88234
689.58935
690.16464
586.32885
589.02671
591.71407
594.39316
597.06607
599.7345
602.39984
605.06316
607.72523
610.38652
613.04723
615.70727
618.36626
621.02358
623.67832
626.32931
628.97514
631.61412
634.24431
636.86353
639.46929
642.05887
644.62924
647.17712
649.69926
652.19292
654.58371
656.99473
659.38034
661.65808
663.92729
666.16583
668.34688
670.46564
672.51731
674.49704
676.39994
678.22109
679.95557
681.59845
683.14483
684.58986
685.92876
687.15689
688.26986
689.24339
690.10628
690.84718
691.45623
588.38703
590.97424
593.55666
596.13644
598.71555
601.29559
603.87783
606.46322
609.0524
611.64571
614.24322
616.8447
619.44967
622.05736
624.66675
627.27654
629.8852
632.49091
635.09163
637.68504
640.26858
642.83942
645.39454
647.93077
650.44497
652.93435
655.32323
657.73258
660.12253
662.40657
664.67738
666.92667
669.12056
671.25427
673.32295
675.32166
677.2454
679.08915
680.84784
682.51642
684.08987
685.56321
686.93161
688.19037
689.33507
690.34037
691.23294
692.00634
692.64793
590.36249
592.84074
595.31997
597.80221
600.28928
602.78267
605.2835
607.79259
610.31042
612.83722
615.3729
617.91712
620.46925
623.02839
625.5934
628.16285
630.73508
633.30817
635.87994
638.44797
641.0096
643.56196
646.10198
648.62652
651.13247
653.6169
656.00333
658.41042
660.80422
663.09473
665.36585
667.62517
669.83102
671.97869
674.06331
676.07985
678.02323
679.8883
681.66989
683.36281
684.96193
686.46215
687.85851
689.1463
690.32122
691.35764
692.278
693.08254
693.75547
592.25817
594.62963
597.00785
599.3947
601.79186
604.20067
606.62209
609.05678
611.50511
613.96712
616.44261
618.93108
621.43178
623.94366
626.46546
628.99562
631.53236
634.07363
636.61714
639.16038
641.70059
644.23482
646.75999
649.2729
651.77041
654.24944
656.63289
659.03696
661.43411
663.73267
666.00291
668.27128
670.48815
672.64884
674.74838
676.78169
678.74358
680.62879
682.43204
684.14802
685.77147
687.29715
688.71995
690.03502
691.23828
692.30662
693.25273
694.08668
594.07582
596.34304
598.62277
600.91671
603.22638
605.55294
607.8972
610.25966
612.64052
615.03969
617.45681
619.89124
622.34208
624.80816
627.28807
629.78014
632.28245
634.79285
637.30893
639.82807
642.34744
644.864
647.37462
649.87604
652.36501
654.83831
657.21818
659.618
662.01671
664.32906
666.59691
668.87216
671.09911
673.27185
675.38536
677.43443
679.41376
681.31799
683.14172
684.87953
686.52602
688.07581
689.52357
690.86397
692.09128
693.19697
694.16582
695.02591
595.81649
597.98234
600.16639
602.37016
604.59499
606.84187
609.11142
611.40399
613.71961
616.05804
618.41876
620.80099
623.20368
625.62553
628.06499
630.52028
632.98934
635.46991
637.95947
640.4553
642.95447
645.45389
647.95033
650.44046
652.92092
655.38827
657.76402
660.15779
662.54949
664.89478
667.15498
669.43317
671.66908
673.85298
675.97953
678.04339
680.03914
681.96131
683.80439
685.56284
687.23115
688.80381
690.27532
691.64019
692.8928
694.02749
695.02148
695.90649
597.48089
599.54851
601.63993
603.75648
605.89932
608.06924
610.26671
612.49188
614.74462
617.02453
619.33094
621.66291
624.01926
626.39855
628.79909
631.21898
633.65604
636.10788
638.5719
641.04527
643.52497
646.00781
648.4905
650.96963
653.44169
655.9031
658.27487
660.66369
663.05591
665.4137
667.67665
669.95765
672.20188
674.39614
676.53489
678.61263
680.62383
682.5629
684.42423
686.20219
687.89115
689.48547
690.97957
692.36787
693.64489
694.80538
695.82401
696.73273
599.06963
601.04237
603.04439
605.07684
607.14068
609.23653
611.36464
613.52501
615.71734
617.94105
620.19532
622.47906
624.79095
627.1294
629.49262
631.87855
634.28491
636.7092
639.1487
641.60049
644.06147
646.52836
648.99778
651.46623
653.93013
656.38573
658.75378
661.13835
663.5322
665.89661
668.16425
670.44824
672.70038
674.90436
677.05455
679.14532
681.17103
683.12601
685.00455
686.80091
688.50936
690.12419
691.6397
693.05029
694.35045
695.53492
696.57711
697.50815
600.58333
602.46469
604.38069
606.33229
608.32027
610.34501
612.40662
614.50488
616.63932
618.80922
621.01358
623.25117
625.52052
627.81993
630.14745
632.5009
634.8779
637.27583
639.69188
642.12301
644.56605
647.01764
649.47431
651.93248
654.38846
656.83848
659.20304
661.58368
663.97907
666.34799
668.6204
670.90724
673.16696
675.38011
677.54102
679.64402
681.68337
683.65331
685.54804
687.36174
689.08859
690.72277
692.25853
693.69019
695.01222
696.21925
697.28387
698.2358
602.02274
603.81634
605.64981
607.52393
609.43924
611.39595
613.39395
615.43285
617.512
619.6305
621.78723
623.98078
626.20956
628.47172
630.76519
633.08768
635.43668
637.80947
640.20314
642.61456
645.04047
647.47742
649.92188
652.37018
654.81858
657.26322
659.62448
662.00138
664.39803
666.77047
669.04736
671.33672
673.60365
675.82545
677.99644
680.11091
682.16306
684.14705
686.057
687.88701
689.63117
691.28359
692.83845
694.28998
695.63262
696.86097
697.94697
698.91836
603.38876
605.09831
606.85282
608.65288
610.49881
612.3906
614.32794
616.31025
618.33673
620.4063
622.51767
624.66932
626.8595
629.08623
631.34732
633.64036
635.96273
638.31161
640.68398
643.07665
645.48624
647.90925
650.34206
652.78093
655.22206
657.66157
660.01969
662.39296
664.79062
667.166
669.44703
671.73851
674.01226
676.2422
678.42267
680.54789
682.61204
684.60921
686.53344
688.37877
690.13921
691.80878
693.38159
694.8518
696.21381
697.4623
698.56887
699.55829
604.68245
606.31171
607.99089
609.72038
611.50025
613.33027
615.20991
617.13844
619.11486
621.13796
623.20628
625.31815
627.4717
629.66482
631.89519
634.1603
636.45741
638.78361
641.13579
643.51065
645.90475
648.31451
650.73623
653.16612
655.60033
658.03493
660.39006
662.75981
665.15828
667.53621
669.82105
672.11423
674.39441
676.632
678.82134
680.95665
683.03203
685.04154
686.97917
688.83886
690.61457
692.30025
693.8899
695.37761
696.75771
698.02508
699.15191
700.15797
605.90501
607.45779
609.06534
610.72779
612.44494
614.21633
616.04126
617.9188
619.84779
621.82685
623.8544
625.92862
628.04749
630.2088
632.41011
634.64879
636.92201
639.22675
641.55981
643.91782
646.29726
648.69447
651.10568
653.52705
655.95467
658.38459
660.73687
663.10323
665.50233
667.88252
670.17088
672.46536
674.75157
676.99634
679.19399
681.33872
683.42462
685.44568
687.39583
689.26898
691.059
692.75978
694.36521
695.86927
697.26609
698.55061
699.69863
700.7198
607.05769
608.5379
610.07762
611.67658
613.33435
615.05025
616.82342
618.65274
620.53689
622.47436
624.46339
626.50205
628.58819
630.71947
632.89335
635.10709
637.35776
639.64225
641.95728
644.29938
646.66496
649.05031
651.45158
653.86489
656.28627
658.71174
661.0613
663.42441
665.82402
668.20624
670.49786
672.79327
675.08512
677.33659
679.54201
681.69556
683.79127
685.82312
687.78498
689.67071
691.47412
693.18903
694.80925
696.32858
697.74074
699.03896
700.21226
701.24613
604.28288
605.50734
606.79354
608.14167
609.55366
611.02935
612.56835
614.17004
615.83358
617.5579
619.34174
621.18362
623.08187
625.03461
627.03977
629.09509
631.1981
633.34616
635.53642
637.76586
640.03129
642.32933
644.65645
647.00899
649.38316
651.77506
654.18076
656.59624
659.01749
661.36447
663.72448
666.1245
668.50854
670.80321
673.0992
675.39632
677.65405
679.86673
682.02849
684.13336
686.17527
688.14806
690.04553
691.86145
693.58959
695.22368
696.75739
698.18424
699.49738
700.68938
701.73764
605.52078
606.66674
607.87947
609.1593
610.50696
611.9223
613.40481
614.95368
616.56791
618.24626
619.98732
621.78944
623.65082
625.56946
627.54314
629.56949
631.64595
633.76975
635.93796
638.14748
640.395
642.6771
644.99015
647.33043
649.6941
652.07719
654.47572
656.88564
659.3029
661.64744
664.00451
666.40485
668.79056
671.08806
673.38436
675.68637
677.94994
680.16937
682.33879
684.45219
686.50347
688.48643
690.39484
692.22244
693.96293
695.61002
697.15732
698.59824
699.92591
701.13367
702.19597
606.68209
607.75399
608.8975
610.1127
611.39977
612.75835
614.18774
615.68699
617.25492
618.89012
620.59102
622.35585
624.18265
626.0693
628.01348
630.01269
632.06427
634.16535
636.31291
638.50375
640.73451
643.00166
645.30154
647.63034
649.98416
652.35899
654.75079
657.15548
659.56898
661.91122
664.26552
666.66609
669.05333
671.35351
673.64986
675.95643
678.22542
680.45113
682.62766
684.74899
686.80898
688.8014
690.71999
692.55845
694.31048
695.96974
697.52986
698.98421
700.32572
701.54748
702.62291
607.76904
608.77128
609.84966
611.00401
612.23413
613.53943
614.91903
616.37177
617.89631
619.49111
621.15442
622.88435
624.67881
626.53555
628.45214
630.42598
632.4543
634.53414
636.66241
638.83581
641.0509
643.30409
645.59166
647.90973
650.25434
652.62144
655.00695
657.40674
659.8167
662.15677
664.50848
666.90917
669.29785
671.6006
673.8968
676.20758
678.48159
680.71312
682.89625
685.02494
687.09301
689.09422
691.02225
692.8708
694.63354
696.30418
697.8764
699.34367
700.69836
701.93268
703.02017
608.78399
609.72085
610.73811
611.83536
613.01211
614.26755
615.60056
617.00984
618.49385
620.05091
621.67913
623.37649
625.14077
626.96961
628.86047
630.81065
632.81728
634.87733
636.9876
639.14474
641.34524
643.58543
645.86151
648.16958
650.50561
652.86551
655.24514
657.64034
660.04698
662.38502
664.73432
667.13496
669.525
671.83035
674.12626
676.44086
678.7195
680.95641
683.14566
685.28116
687.35672
689.36606
691.30284
693.16073
694.93341
696.61462
698.19825
699.67809
701.04558
702.29074
703.38926
609.72942
610.60508
611.56512
612.60896
613.73585
614.94474
616.2343
617.60305
619.0493
620.57121
622.16675
623.83379
625.56998
627.37286
629.23978
631.16796
633.15442
635.19607
637.28962
639.43165
641.61857
643.84667
646.11209
648.41085
650.7389
653.0921
655.46626
657.85719
660.26071
662.59684
664.94386
667.34429
669.73557
672.04381
674.33933
676.65726
678.94016
681.18204
683.37693
685.51873
687.60121
689.61806
691.56293
693.42944
695.21127
696.90223
698.4965
699.98892
610.60792
611.4264
612.33302
613.32705
614.4075
615.57306
616.82222
618.15329
619.56445
621.0537
622.6189
624.25778
625.96791
627.74669
629.59141
631.49917
633.46694
635.49152
637.56956
639.69758
641.87192
644.08881
646.34433
648.63448
650.95513
653.3021
655.67118
658.05814
660.45875
662.79306
665.1379
667.53788
669.93007
672.2422
674.53718
676.85774
679.14455
681.39098
683.59107
685.73867
687.82754
689.85132
691.80364
693.67808
695.46831
697.16812
698.77193
611.42218
612.18729
613.04419
613.99191
615.02923
616.15459
617.36627
618.66243
620.04108
621.50008
623.03718
624.65
626.33599
628.09248
629.91665
631.80553
633.756
635.76479
637.8285
639.94356
642.10627
644.3128
646.55918
648.84135
651.15516
653.49639
655.86077
658.24403
660.64192
662.9745
665.31719
667.71631
670.10842
672.42723
674.72092
677.04332
679.3336
681.58417
683.78903
685.94197
688.03671
690.06688
692.02604
693.90777
695.70565
697.41338
699.02466
612.17497
612.89026
613.701
614.60582
615.60322
616.69141
617.86846
619.13235
620.48095
621.91202
623.42318
625.01194
626.67566
628.41157
630.21678
632.08824
634.02276
636.017
638.06749
640.1706
642.32259
644.51957
646.75752
649.03235
651.33986
653.67578
656.03581
658.41566
660.81101
663.14194
665.48248
667.88019
670.26893
672.60203
674.89167
677.21497
679.50821
681.76252
683.97172
686.12957
688.2297
690.26572
692.23117
694.11957
695.92443
697.63931
699.25753
612.87244
613.53775
614.30584
615.17107
616.13167
617.18559
618.33072
619.5649
620.88584
622.29119
623.77847
625.34508
626.9883
628.70529
630.49307
632.34851
634.26835
636.24921
638.28755
640.37968
642.52182
644.71002
646.94023
649.20831
651.51002
653.84106
656.19711
658.5738
660.96679
663.29616
665.63459
668.03065
670.41543
672.7642
675.04993
677.37344
679.6692
681.92686
684.14003
686.30235
688.40743
690.44882
692.42003
694.31452
696.12577
697.84717
699.47193
613.51776
614.13349
614.86111
615.68994
616.61672
617.63918
618.75502
619.96191
621.25747
622.63922
624.10458
625.65088
627.27531
628.97494
630.74673
632.58748
634.49388
636.46247
638.48967
640.57175
642.70486
644.88502
647.10814
649.37004
651.66644
653.99302
656.3454
658.71919
661.10999
663.43791
665.77437
668.16906
670.55282
672.91038
675.1956
677.51938
679.81734
682.078
684.29476
686.46117
688.57078
690.61708
692.59355
694.49362
696.3107
698.0381
699.66898
614.10459
614.68339
615.36907
616.1647
617.06054
618.05421
619.14325
620.32519
621.59753
622.9577
624.40303
625.93075
627.538
629.22177
630.97895
632.80628
634.7004
636.65779
638.67482
640.74772
642.87259
645.04541
647.26206
649.51832
651.80988
654.13238
656.48141
658.85254
661.24132
663.56793
665.9026
668.29626
670.68009
673.04314
675.32918
677.6534
679.95333
682.21669
684.43672
686.60685
688.72057
690.77136
692.75263
694.6578
696.48021
698.21312
699.84968
614.63618
615.18823
615.83344
616.59758
617.46522
618.43267
619.4973
620.6565
621.90769
623.2482
624.67527
626.18608
627.77768
629.44701
631.19089
633.00601
634.88895
636.83615
638.84393
640.90847
643.02584
645.19199
647.40276
649.65389
651.94105
654.25984
656.60583
658.97452
661.36142
663.68693
666.01999
668.41288
670.79718
673.16396
675.4513
677.77612
680.07787
682.34366
684.56663
686.74015
688.85762
690.91248
692.89814
694.80794
696.63522
698.37318
700.01498
614.16623
614.12733
614.20568
614.3991
614.70481
615.11901
615.64367
616.25897
616.99058
617.83283
618.7765
619.81898
620.95757
622.18956
623.51222
624.92274
626.41821
627.99562
629.65185
631.38366
633.18771
635.06052
636.99848
638.99788
641.05485
643.16544
645.32554
647.53099
649.77748
652.06065
654.37609
656.71931
659.08575
661.47088
663.79563
666.1272
668.5195
670.90442
673.27386
675.56265
677.88817
680.19159
682.45958
684.68522
686.86179
688.98267
691.04124
693.03087
694.94489
696.7766
698.51918
700.16577
614.77998
614.69975
614.73983
614.89767
615.17045
615.55551
616.05353
616.6465
617.34649
618.16543
619.08761
620.11009
621.23005
622.44471
623.75125
625.14682
626.62842
628.19302
629.83742
631.55835
633.3524
635.21606
637.14569
639.13753
641.18768
643.29214
645.4468
647.64745
649.88976
652.16935
654.48176
656.82247
659.18683
661.57013
663.89481
666.22488
668.61668
671.00221
673.37367
675.66388
677.99015
680.29512
682.5651
684.79315
686.97248
689.09644
691.15836
693.15159
695.06944
696.90518
698.65196
700.30293
615.33334
615.21572
615.22119
615.34694
615.59017
615.94838
616.4201
616.99788
617.66812
618.46492
619.36782
620.37235
621.47557
622.67464
623.96671
625.34882
626.81798
628.37105
630.00483
631.71598
633.50105
635.35651
637.27866
639.2637
641.30773
643.4067
645.55648
647.75282
649.99139
652.26776
654.57747
656.91592
659.2783
661.65928
663.98554
666.31363
668.70493
671.09104
673.46408
675.75562
678.08266
680.38906
682.66084
684.89105
687.07287
689.1996
691.26455
693.26103
695.18235
697.02173
698.77232
700.42727
615.82957
615.67834
615.65272
615.74971
615.96645
616.30042
616.74951
617.31029
617.9585
618.73305
619.61893
620.60744
621.6957
622.88084
624.15995
625.53005
626.98807
628.53085
630.15513
631.85754
633.63461
635.48273
637.3982
639.37719
641.41575
643.50983
645.65525
647.84776
650.08299
652.3565
654.66379
657.00022
659.36073
661.73765
664.06958
666.394
668.78476
671.17138
673.5457
675.83847
678.16624
680.47396
682.74736
684.97952
687.16358
689.2928
691.36047
693.35988
695.28431
697.12698
698.88102
700.53956
616.27187
616.09064
616.03728
616.10862
616.30177
616.61406
617.04323
617.58735
618.21851
618.97195
619.84269
620.81696
621.89193
623.06469
624.3323
625.69172
627.13986
628.6735
630.28935
631.98401
633.75396
635.59557
637.50512
639.47874
641.51246
643.6022
645.74377
647.93288
650.16515
652.43614
654.74129
657.07593
659.43486
661.80975
664.14344
666.46627
668.85663
671.24372
673.6191
675.91298
678.24145
680.55037
682.82524
685.05913
687.2452
689.37665
691.44675
693.44878
695.376
697.22163
698.97877
700.64054
616.66335
616.45553
616.3776
616.42625
616.5985
616.89157
617.30307
617.8316
618.4497
619.18353
620.04079
621.00247
622.06571
623.22756
624.48502
625.83503
627.27445
628.80003
630.40846
632.09628
633.85996
635.69585
637.60018
639.56907
641.59853
643.68445
645.82264
648.00877
650.23845
652.50722
654.8105
657.14358
659.50117
661.87477
664.20897
666.53092
668.92101
671.30852
673.68479
675.97966
678.30879
680.6188
682.89498
685.13043
687.31828
689.45171
691.52399
693.52835
695.45806
697.30632
699.06624
700.7309
617.007
616.77584
616.67633
616.70507
616.85897
617.13513
617.53097
618.04491
618.65394
619.36965
620.21481
621.16546
622.21845
623.37075
624.61933
625.96111
627.39291
628.91145
630.51338
632.19523
633.95344
635.78433
637.68411
639.64887
641.67462
643.75722
645.89245
648.07599
650.30343
652.57027
654.87193
657.20364
659.56008
661.9327
664.26712
666.58848
668.97834
671.36624
673.74327
676.03901
678.36875
680.67975
682.9571
685.19393
687.38335
689.51855
691.59274
693.59917
695.53109
697.38169
699.14407
700.81131
617.30575
617.05428
616.93602
616.94746
617.08541
617.34686
617.72893
618.22859
618.83331
619.53223
620.36624
621.30735
622.35145
623.49549
624.7364
626.07105
627.49625
629.0087
630.60502
632.28171
634.03519
635.86176
637.75761
639.71882
641.74136
643.8211
645.95379
648.1351
650.36059
652.62578
654.92605
657.25659
659.612
661.98371
664.31862
666.63944
669.02908
671.4173
673.79498
676.0915
678.4218
680.73368
683.01207
685.25012
687.44093
689.57767
691.65354
693.6618
695.59565
697.44832
699.21288
700.88239
617.56238
617.29348
617.15912
617.15571
617.27999
617.52879
617.89907
618.38738
618.98612
619.67302
620.49647
621.42949
622.46601
623.60298
624.83732
626.16589
627.58545
629.0927
630.68423
632.35651
634.10596
635.92884
637.82135
639.77953
641.79935
643.87665
646.00718
648.1866
650.41046
652.67425
654.97334
657.30288
659.65733
662.02799