/*--------------------------------*- C++ -*----------------------------------*\
| =========                 |                                                 |
| \\      /  F ield         | OpenFOAM: The Open Source CFD Toolbox           |
|  \\    /   O peration     | Version:  2312                                  |
|   \\  /    A nd           | Website:  www.openfoam.com                      |
|    \\/     M anipulation  |                                                 |
\*---------------------------------------------------------------------------*/
FoamFile
{
    version     2.0;
    format      ascii;
    arch        "LSB;label=32;scalar=64";
    class       volVectorField;
    location    "0.03";
    object      U;
}
// * * * * * * * * * * * * * * * * * * * * * * * * * * * * * * * * * * * * * //

dimensions      [0 1 -1 0 0 0 0];

internalField   nonuniform List<vector> 
3272
(
(0.093141492 0.33701533 0)
(0.092624719 0.33538235 0)
(0.092029112 0.33429704 0)
(0.09135726 0.33379254 0)
(0.090609222 0.3338989 0)
(0.089785385 0.33464201 0)
(0.088887009 0.3360474 0)
(0.087915473 0.33813869 0)
(0.086872229 0.34093444 0)
(0.085759548 0.34444933 0)
(0.084580335 0.34869491 0)
(0.083337851 0.3536798 0)
(0.082035652 0.35940963 0)
(0.08067754 0.36588724 0)
(0.079267538 0.37311276 0)
(0.077809838 0.38108374 0)
(0.076308746 0.38979528 0)
(0.074768686 0.39924015 0)
(0.07319406 0.40940872 0)
(0.071589159 0.42028903 0)
(0.069958888 0.4318658 0)
(0.068308646 0.44412383 0)
(0.066643388 0.4570467 0)
(0.064967829 0.4706157 0)
(0.063286769 0.48480982 0)
(0.061605114 0.49960582 0)
(0.059927352 0.51497819 0)
(0.058257971 0.53089801 0)
(0.05660153 0.5473341 0)
(0.054962419 0.56425214 0)
(0.053344852 0.58161532 0)
(0.051752721 0.59938418 0)
(0.050189541 0.61751692 0)
(0.048658465 0.63596967 0)
(0.047162206 0.65469697 0)
(0.045703067 0.67365223 0)
(0.044282863 0.69278822 0)
(0.042903051 0.71205756 0)
(0.04156458 0.7314131 0)
(0.040268155 0.75080837 0)
(0.03901399 0.77019783 0)
(0.037802313 0.78953713 0)
(0.036632411 0.80878344 0)
(0.035504699 0.82789548 0)
(0.034417213 0.84683392 0)
(0.033370963 0.86556147 0)
(0.032362968 0.88404301 0)
(0.031394157 0.90224609 0)
(0.030462522 0.92014022 0)
(0.029565976 0.93769764 0)
(0.02870477 0.95489201 0)
(0.027876199 0.97169823 0)
(0.02707808 0.98809341 0)
(0.29525018 0.32585527 0)
(0.2940505 0.32376428 0)
(0.29263006 0.32230538 0)
(0.29099148 0.32152091 0)
(0.28913075 0.32144739 0)
(0.28704906 0.32211385 0)
(0.28475251 0.32355203 0)
(0.28224227 0.32579503 0)
(0.27951817 0.32886711 0)
(0.2765843 0.33278671 0)
(0.27344698 0.33756883 0)
(0.27011349 0.3432246 0)
(0.26659184 0.34976169 0)
(0.26289087 0.35718379 0)
(0.25902009 0.36549126 0)
(0.25498973 0.3746808 0)
(0.25081062 0.38474603 0)
(0.24649383 0.39567787 0)
(0.24205033 0.40746534 0)
(0.23748938 0.42009126 0)
(0.2328244 0.43353148 0)
(0.22807271 0.44776559 0)
(0.22324786 0.46277316 0)
(0.21836194 0.47852956 0)
(0.21342797 0.49500656 0)
(0.20845986 0.51217256 0)
(0.20346994 0.52999308 0)
(0.1984708 0.54843056 0)
(0.1934757 0.56744471 0)
(0.18849714 0.58699089 0)
(0.18354782 0.60702255 0)
(0.17863933 0.62749013 0)
(0.17378252 0.64834147 0)
(0.1689874 0.66952233 0)
(0.16426305 0.69097695 0)
(0.1596175 0.71264862 0)
(0.15505778 0.73448021 0)
(0.15058974 0.75641485 0)
(0.14621833 0.77839623 0)
(0.14194739 0.80036938 0)
(0.13778 0.82228054 0)
(0.1337181 0.84407824 0)
(0.12976371 0.86571249 0)
(0.12591652 0.88713644 0)
(0.1221784 0.90830476 0)
(0.11854672 0.92917611 0)
(0.11502341 0.94971073 0)
(0.11160471 0.96987326 0)
(0.10828976 0.98963018 0)
(0.10507675 1.0089516 0)
(0.10195945 1.0278091 0)
(0.098937404 1.0461764 0)
(0.096005289 1.0640287 0)
(0.4993935 0.25289092 0)
(0.4977051 0.24950112 0)
(0.49567475 0.24683266 0)
(0.49329852 0.24493423 0)
(0.49056382 0.24384512 0)
(0.48747194 0.24359315 0)
(0.48404043 0.24420733 0)
(0.48027211 0.24572891 0)
(0.47616048 0.24818644 0)
(0.47170964 0.25159984 0)
(0.4669288 0.25598516 0)
(0.46182835 0.26135472 0)
(0.45641948 0.26771681 0)
(0.45071454 0.27507561 0)
(0.44472699 0.2834313 0)
(0.4384714 0.29278023 0)
(0.43196472 0.30311503 0)
(0.4252266 0.31442728 0)
(0.41827001 0.32670771 0)
(0.41109779 0.33993679 0)
(0.40373226 0.35407919 0)
(0.39621021 0.36911419 0)
(0.38855347 0.38501993 0)
(0.38077691 0.40177048 0)
(0.37289805 0.41933481 0)
(0.36493661 0.43767695 0)
(0.35691275 0.45675719 0)
(0.34884723 0.47653359 0)
(0.34075849 0.49696025 0)
(0.33266594 0.51798791 0)
(0.32459045 0.53956492 0)
(0.31654963 0.56163663 0)
(0.30856054 0.58414459 0)
(0.30063936 0.60702865 0)
(0.29280098 0.6302268 0)
(0.28505888 0.65367609 0)
(0.27742512 0.67731297 0)
(0.26991017 0.70107408 0)
(0.26252311 0.72489655 0)
(0.25527143 0.74871885 0)
(0.2481615 0.77248074 0)
(0.24119828 0.79612422 0)
(0.23438538 0.8195932 0)
(0.22772629 0.84283434 0)
(0.22122162 0.865797 0)
(0.21487453 0.88843336 0)
(0.20868266 0.91069944 0)
(0.20264857 0.9325536 0)
(0.19676901 0.95395879 0)
(0.19103971 0.97487992 0)
(0.18545717 0.9952845 0)
(0.18001469 1.0151424 0)
(0.17470954 1.0344241 0)
(0.69899961 0.14524525 0)
(0.6969821 0.14012151 0)
(0.69452293 0.13581682 0)
(0.69160682 0.13238563 0)
(0.68820781 0.12987247 0)
(0.68431915 0.12830752 0)
(0.679977 0.12769897 0)
(0.67519609 0.12809411 0)
(0.6699595 0.12953005 0)
(0.66426792 0.1320282 0)
(0.65813292 0.13560459 0)
(0.65156737 0.14027141 0)
(0.64458476 0.14603671 0)
(0.6371999 0.15290443 0)
(0.62942881 0.16087437 0)
(0.62128901 0.16994265 0)
(0.61280428 0.18010139 0)
(0.60400428 0.19133888 0)
(0.59490185 0.20363969 0)
(0.58547962 0.21698504 0)
(0.57576953 0.23134953 0)
(0.56583626 0.24670706 0)
(0.55570679 0.26302975 0)
(0.54539794 0.28028642 0)
(0.53492813 0.29844599 0)
(0.52431978 0.31747072 0)
(0.51359854 0.33731825 0)
(0.50279022 0.35794308 0)
(0.49191939 0.3792956 0)
(0.4810124 0.40132343 0)
(0.47009573 0.42396952 0)
(0.45919085 0.44718034 0)
(0.44831918 0.47089112 0)
(0.4375026 0.49503813 0)
(0.42676102 0.51955468 0)
(0.41611283 0.54437351 0)
(0.40557466 0.5694264 0)
(0.39516121 0.5946451 0)
(0.38488568 0.61996163 0)
(0.37475923 0.64530905 0)
(0.36479173 0.67062173 0)
(0.35499101 0.69583579 0)
(0.34536428 0.72088954 0)
(0.33591603 0.74572365 0)
(0.32665197 0.77028151 0)
(0.31757343 0.79450974 0)
(0.30868523 0.81835774 0)
(0.29998617 0.84177933 0)
(0.29147743 0.86473027 0)
(0.28315517 0.88717099 0)
(0.2750108 0.90906329 0)
(0.26703969 0.93037141 0)
(0.25924001 0.95106284 0)
(0.88833284 0.014194474 0)
(0.8861105 0.0070929335 0)
(0.88336547 0.00090510514 0)
(0.88007381 -0.0043156905 0)
(0.87619949 -0.0085089964 0)
(0.87169394 -0.011585004 0)
(0.86660942 -0.013675988 0)
(0.86101076 -0.014690606 0)
(0.85487049 -0.014568642 0)
(0.84817597 -0.013288653 0)
(0.84093847 -0.010837411 0)
(0.833173 -0.0072051073 0)
(0.82489526 -0.0023855445 0)
(0.81612231 0.0036237933 0)
(0.80687278 0.010821564 0)
(0.79716695 0.019203034 0)
(0.78702815 0.028759572 0)
(0.77648345 0.039475867 0)
(0.76555219 0.051329451 0)
(0.75423625 0.064302696 0)
(0.74256363 0.078387342 0)
(0.73058975 0.093549647 0)
(0.71834829 0.1097536 0)
(0.70586598 0.12696491 0)
(0.6931683 0.14514897 0)
(0.68027694 0.16427068 0)
(0.66721991 0.18428805 0)
(0.65402684 0.20515421 0)
(0.64072517 0.22681884 0)
(0.62734246 0.24922872 0)
(0.61391851 0.27232573 0)
(0.60047711 0.29604995 0)
(0.58703569 0.3203384 0)
(0.57362346 0.34512808 0)
(0.56026378 0.37034855 0)
(0.54697971 0.39593148 0)
(0.53379146 0.42180591 0)
(0.52071751 0.4479011 0)
(0.50777449 0.47414619 0)
(0.49497708 0.50047092 0)
(0.48233823 0.5268062 0)
(0.46986912 0.55308404 0)
(0.457579 0.57923869 0)
(0.44547657 0.60520592 0)
(0.43356745 0.63092494 0)
(0.42185917 0.65633639 0)
(0.41035412 0.68138584 0)
(0.39905823 0.70601959 0)
(0.38797083 0.73018994 0)
(0.37708868 0.75384935 0)
(0.36640484 0.77695515 0)
(0.35591193 0.79946615 0)
(0.34561187 0.82134517 0)
(1.0631312 -0.12844461 0)
(1.0607893 -0.13756747 0)
(1.0578489 -0.14569559 0)
(1.0542981 -0.15280135 0)
(1.0501893 -0.1587724 0)
(1.0452149 -0.1633028 0)
(1.0394196 -0.16700704 0)
(1.0331462 -0.16958317 0)
(1.0262871 -0.17091604 0)
(1.0187855 -0.17100849 0)
(1.0106509 -0.16985679 0)
(1.0019017 -0.16745621 0)
(0.99255698 -0.1638039 0)
(0.98263624 -0.15889989 0)
(0.97216059 -0.15274768 0)
(0.96115262 -0.14535416 0)
(0.94963642 -0.13672992 0)
(0.93763736 -0.12689016 0)
(0.92517966 -0.11585562 0)
(0.91228238 -0.10364545 0)
(0.89896947 -0.090272044 0)
(0.88527994 -0.075765165 0)
(0.87125659 -0.060167559 0)
(0.85693357 -0.043512245 0)
(0.84234299 -0.02583744 0)
(0.82751288 -0.0071799513 0)
(0.81246808 0.01242389 0)
(0.79723872 0.032927842 0)
(0.78185659 0.054281534 0)
(0.76635272 0.076433059 0)
(0.75076039 0.099327112 0)
(0.73510925 0.12289789 0)
(0.71943083 0.1470866 0)
(0.70374924 0.17182847 0)
(0.68808806 0.1970566 0)
(0.67247585 0.22270461 0)
(0.65693446 0.24869983 0)
(0.64148596 0.27497249 0)
(0.62614974 0.30145095 0)
(0.61094345 0.32806454 0)
(0.59588264 0.35474307 0)
(0.58098103 0.38141717 0)
(0.56625103 0.408019 0)
(0.55170275 0.43448254 0)
(0.53734634 0.46074347 0)
(0.52318844 0.48674067 0)
(0.50923777 0.51241404 0)
(0.49549758 0.53770871 0)
(0.48197249 0.56256902 0)
(0.46865884 0.58694594 0)
(0.45554852 0.61078917 0)
(0.4426362 0.63405445 0)
(0.42992673 0.65669976 0)
(1.2209393 -0.27201237 0)
(1.2185242 -0.28300936 0)
(1.2153998 -0.29291261 0)
(1.2116441 -0.30167963 0)
(1.2076807 -0.30928144 0)
(1.2023193 -0.31571909 0)
(1.1956121 -0.32094321 0)
(1.188806 -0.324924 0)
(1.1814088 -0.32764249 0)
(1.1732501 -0.32908767 0)
(1.1643693 -0.3292508 0)
(1.1547965 -0.32812626 0)
(1.1445559 -0.32571232 0)
(1.1336705 -0.32201089 0)
(1.1221638 -0.3170278 0)
(1.1100602 -0.31077217 0)
(1.0973854 -0.3032567 0)
(1.084166 -0.29449753 0)
(1.0704289 -0.28451421 0)
(1.0562011 -0.27332774 0)
(1.0415101 -0.26095779 0)
(1.026381 -0.24742867 0)
(1.010855 -0.2327818 0)
(0.99497875 -0.21705738 0)
(0.97878499 -0.20028912 0)
(0.96231039 -0.18252076 0)
(0.94558464 -0.16378435 0)
(0.92863058 -0.14412231 0)
(0.9114809 -0.12358389 0)
(0.89416942 -0.10222082 0)
(0.87672889 -0.080087258 0)
(0.85919051 -0.057241774 0)
(0.84158542 -0.033743709 0)
(0.82394212 -0.0096584536 0)
(0.80629219 0.01495282 0)
(0.78865918 0.040023336 0)
(0.77106572 0.065485362 0)
(0.75353865 0.091272706 0)
(0.73609829 0.1173145 0)
(0.71876522 0.14354224 0)
(0.70155671 0.1698868 0)
(0.68448865 0.19627986 0)
(0.66757539 0.22265435 0)
(0.65083 0.24894415 0)
(0.63426342 0.27508556 0)
(0.61788665 0.30101474 0)
(0.60170747 0.32667334 0)
(0.58573425 0.35200043 0)
(0.56997004 0.37694364 0)
(0.55441347 0.40144454 0)
(0.5390565 0.42545491 0)
(0.52389554 0.44892249 0)
(0.50893909 0.47180743 0)
(1.3611136 -0.40819618 0)
(1.3587063 -0.42081449 0)
(1.3555648 -0.4322518 0)
(1.3516521 -0.44245497 0)
(1.3469969 -0.45148227 0)
(1.3412759 -0.45964341 0)
(1.3345912 -0.46619727 0)
(1.3273197 -0.47141496 0)
(1.3193201 -0.47537464 0)
(1.3105334 -0.47804807 0)
(1.3009766 -0.47942147 0)
(1.2906736 -0.47948899 0)
(1.279647 -0.47825074 0)
(1.2679199 -0.47571133 0)
(1.2555171 -0.47187919 0)
(1.2424643 -0.46676613 0)
(1.2287888 -0.46038714 0)
(1.2145188 -0.45276021 0)
(1.1996837 -0.44390605 0)
(1.1843142 -0.43384755 0)
(1.1684413 -0.42260905 0)
(1.1520865 -0.4102163 0)
(1.1352795 -0.39669881 0)
(1.1180759 -0.38210641 0)
(1.1005135 -0.36647476 0)
(1.0826324 -0.34984011 0)
(1.0644716 -0.33224758 0)
(1.0460486 -0.3137318 0)
(1.0273924 -0.29433711 0)
(1.0085374 -0.27411421 0)
(0.98951725 -0.2531161 0)
(0.97036432 -0.23139772 0)
(0.95111008 -0.20901575 0)
(0.93178486 -0.18602959 0)
(0.91241871 -0.16249908 0)
(0.89303808 -0.13848937 0)
(0.87367238 -0.11406117 0)
(0.85434473 -0.089280242 0)
(0.83507522 -0.064210715 0)
(0.81588758 -0.038916768 0)
(0.79679984 -0.013465503 0)
(0.77783028 0.012077672 0)
(0.75899516 0.037648223 0)
(0.74030919 0.063182964 0)
(0.72178475 0.088618703 0)
(0.70343456 0.11389622 0)
(0.68526891 0.13895333 0)
(0.66729662 0.16373639 0)
(0.64952231 0.18818411 0)
(0.63194323 0.21224672 0)
(0.61455297 0.23586323 0)
(0.59735127 0.25899143 0)
(0.58035254 0.28158364 0)
(1.4844077 -0.5313192 0)
(1.4819854 -0.54524455 0)
(1.4787569 -0.55794545 0)
(1.4746489 -0.56940555 0)
(1.4695897 -0.57963212 0)
(1.4635307 -0.58868889 0)
(1.4565964 -0.59635136 0)
(1.4488911 -0.60267874 0)
(1.4403666 -0.6076968 0)
(1.4310013 -0.61140316 0)
(1.4208161 -0.61379504 0)
(1.4098358 -0.61487391 0)
(1.3980839 -0.6146452 0)
(1.3855849 -0.61311776 0)
(1.372365 -0.61030359 0)
(1.3584519 -0.60621766 0)
(1.3438744 -0.60087773 0)
(1.3286624 -0.59430419 0)
(1.3128471 -0.5865198 0)
(1.2964607 -0.57754968 0)
(1.2795369 -0.56742128 0)
(1.2621043 -0.55616302 0)
(1.2441808 -0.54379952 0)
(1.2258114 -0.53037597 0)
(1.2070561 -0.51594097 0)
(1.187948 -0.50051663 0)
(1.1685265 -0.4841591 0)
(1.1488259 -0.46690681 0)
(1.1288653 -0.44879505 0)
(1.1086739 -0.42987169 0)
(1.0882862 -0.41018815 0)
(1.0677358 -0.38979687 0)
(1.047055 -0.36875143 0)
(1.0262748 -0.34710708 0)
(1.0054251 -0.3249204 0)
(0.98453375 -0.30225008 0)
(0.96362781 -0.27915422 0)
(0.94273361 -0.25569566 0)
(0.92187746 -0.23193306 0)
(0.9010786 -0.20792813 0)
(0.88035417 -0.18373996 0)
(0.85972536 -0.15943096 0)
(0.83921052 -0.13506163 0)
(0.81882468 -0.11069235 0)
(0.79858389 -0.086380986 0)
(0.77849913 -0.062186636 0)
(0.75858438 -0.038163655 0)
(0.73884708 -0.01437091 0)
(0.71929309 0.0091414414 0)
(0.69991674 0.032311982 0)
(0.68071445 0.055093757 0)
(0.66169646 0.077434977 0)
(0.64287784 0.099305629 0)
(1.5926679 -0.63817436 0)
(1.5901796 -0.65302801 0)
(1.5867975 -0.66662134 0)
(1.5824433 -0.67894748 0)
(1.577052 -0.69000863 0)
(1.5706347 -0.69978585 0)
(1.5633188 -0.70822221 0)
(1.5551527 -0.71532187 0)
(1.546098 -0.72110185 0)
(1.5361522 -0.72556453 0)
(1.5253411 -0.72871299 0)
(1.5136913 -0.73055416 0)
(1.5012285 -0.73109832 0)
(1.4879793 -0.73035846 0)
(1.473972 -0.72835022 0)
(1.4592363 -0.72509186 0)
(1.4438026 -0.72060404 0)
(1.4277029 -0.71490968 0)
(1.4109697 -0.70803379 0)
(1.3936368 -0.70000355 0)
(1.3757397 -0.69084843 0)
(1.357312 -0.68059966 0)
(1.3383708 -0.66928656 0)
(1.318944 -0.65693764 0)
(1.2991074 -0.64360933 0)
(1.2789 -0.62933439 0)
(1.2583434 -0.61415322 0)
(1.23749 -0.59811696 0)
(1.2163644 -0.58125857 0)
(1.1949845 -0.56362086 0)
(1.1733834 -0.54525293 0)
(1.1515962 -0.52620484 0)
(1.1296557 -0.50652731 0)
(1.1075933 -0.48627215 0)
(1.0854387 -0.46549235 0)
(1.0632207 -0.44424214 0)
(1.0409665 -0.42257612 0)
(1.0187018 -0.40055 0)
(0.99645086 -0.3782202 0)
(0.97423911 -0.35564516 0)
(0.95208472 -0.33287985 0)
(0.93000491 -0.30997965 0)
(0.90801958 -0.28700108 0)
(0.8861471 -0.26399975 0)
(0.86440095 -0.24103051 0)
(0.84279791 -0.2181473 0)
(0.8213473 -0.19540374 0)
(0.80006244 -0.17285085 0)
(0.77894163 -0.15054326 0)
(0.75798194 -0.12853038 0)
(0.73718495 -0.1068632 0)
(1.688329 -0.7276642 0)
(1.6857 -0.74306678 0)
(1.6820797 -0.75717916 0)
(1.6774004 -0.76999557 0)
(1.6716222 -0.78153745 0)
(1.6647911 -0.79176316 0)
(1.6570196 -0.80064409 0)
(1.648331 -0.80819114 0)
(1.6386958 -0.81442222 0)
(1.628127 -0.81934293 0)
(1.6166538 -0.82296062 0)
(1.6043046 -0.8252866 0)
(1.5911072 -0.82633509 0)
(1.5770907 -0.82612278 0)
(1.5622857 -0.82466868 0)
(1.5467237 -0.82199402 0)
(1.5304375 -0.81812219 0)
(1.5134607 -0.81307847 0)
(1.4958274 -0.80689001 0)
(1.4775728 -0.79958585 0)
(1.4587329 -0.7911972 0)
(1.4393439 -0.78175759 0)
(1.419435 -0.77129973 0)
(1.3990221 -0.75984704 0)
(1.3781633 -0.74744728 0)
(1.3569191 -0.7341518 0)
(1.3353106 -0.71998648 0)
(1.3133854 -0.7050053 0)
(1.2911799 -0.6892497 0)
(1.2687071 -0.67275694 0)
(1.2459958 -0.65557261 0)
(1.2230818 -0.63774443 0)
(1.1999985 -0.61932061 0)
(1.1767773 -0.60035008 0)
(1.153448 -0.58088261 0)
(1.1300393 -0.56096884 0)
(1.1065787 -0.54065992 0)
(1.083092 -0.52000769 0)
(1.0596037 -0.49906371 0)
(1.0361364 -0.47788041 0)
(1.012712 -0.45651196 0)
(0.98934989 -0.43500972 0)
(0.96606848 -0.41342404 0)
(0.94288483 -0.39180575 0)
(0.9198166 -0.37020566 0)
(0.8968754 -0.3486739 0)
(0.8740782 -0.32725973 0)
(0.85142952 -0.30601241 0)
(0.82893476 -0.28497984 0)
(0.80658871 -0.26420912 0)
(0.78440403 -0.24373987 0)
(1.7739889 -0.80026014 0)
(1.7711116 -0.81585509 0)
(1.767156 -0.83013752 0)
(1.7620486 -0.84311622 0)
(1.7557843 -0.8548043 0)
(1.7484547 -0.86516502 0)
(1.7401409 -0.87417961 0)
(1.730846 -0.88187268 0)
(1.7205554 -0.88826024 0)
(1.7092949 -0.8933513 0)
(1.6970964 -0.8971577 0)
(1.6839901 -0.89969469 0)
(1.6700063 -0.90097995 0)
(1.6551768 -0.90103337 0)
(1.6395345 -0.89987681 0)
(1.6231133 -0.89753406 0)
(1.6059479 -0.89403064 0)
(1.588074 -0.88939389 0)
(1.5695271 -0.88365269 0)
(1.5503437 -0.87683763 0)
(1.5305602 -0.86898112 0)
(1.5102151 -0.86011771 0)
(1.4893444 -0.8502821 0)
(1.4679638 -0.83950378 0)
(1.4461161 -0.82781638 0)
(1.4238722 -0.81527694 0)
(1.4012556 -0.80191093 0)
(1.3783017 -0.78776683 0)
(1.3550603 -0.77289677 0)
(1.3315494 -0.75733723 0)
(1.3077915 -0.74112821 0)
(1.283821 -0.72431481 0)
(1.2596719 -0.70694316 0)
(1.2353755 -0.68905985 0)
(1.2109615 -0.67071199 0)
(1.1864586 -0.65194729 0)
(1.161894 -0.63281378 0)
(1.137294 -0.61335997 0)
(1.1126831 -0.59363431 0)
(1.0880839 -0.57368537 0)
(1.0635159 -0.55356139 0)
(1.0390014 -0.53331181 0)
(1.0145608 -0.51298423 0)
(0.99021124 -0.49262456 0)
(0.96596618 -0.47227901 0)
(0.94184318 -0.4519939 0)
(0.9178515 -0.43181487 0)
(0.89400472 -0.41178656 0)
(0.87030109 -0.39195286 0)
(0.84674413 -0.37235438 0)
(0.82334789 -0.3530279 0)
(1.8521011 -0.85745051 0)
(1.8488461 -0.87291195 0)
(1.8444156 -0.88704993 0)
(1.838764 -0.89990087 0)
(1.8319196 -0.91143931 0)
(1.8239859 -0.92164955 0)
(1.8150201 -0.93052283 0)
(1.8050156 -0.93809291 0)
(1.7939787 -0.94437382 0)
(1.7819413 -0.94937784 0)
(1.768937 -0.95312087 0)
(1.7549985 -0.95562157 0)
(1.740159 -0.95690062 0)
(1.7244529 -0.95698045 0)
(1.7079158 -0.95588526 0)
(1.6905838 -0.95364091 0)
(1.6724938 -0.95027477 0)
(1.653683 -0.9458157 0)
(1.6341889 -0.94029392 0)
(1.6140487 -0.93374108 0)
(1.5932998 -0.92619029 0)
(1.5719815 -0.91767652 0)
(1.5501348 -0.90823636 0)
(1.5277828 -0.89790357 0)
(1.5049522 -0.88670087 0)
(1.4817167 -0.87468673 0)
(1.4581116 -0.86189538 0)
(1.4341537 -0.84836342 0)
(1.4098963 -0.83414697 0)
(1.3853727 -0.81928866 0)
(1.3606041 -0.80382294 0)
(1.3356201 -0.78779185 0)
(1.3104539 -0.77123966 0)
(1.2851372 -0.75421103 0)
(1.2596995 -0.73675088 0)
(1.2341693 -0.71890454 0)
(1.2085739 -0.70071747 0)
(1.1829393 -0.68223537 0)
(1.1572902 -0.66350397 0)
(1.1316494 -0.64456898 0)
(1.1060372 -0.62547533 0)
(1.0804735 -0.60626706 0)
(1.0549805 -0.58699006 0)
(1.0295763 -0.56768861 0)
(1.0042765 -0.5484044 0)
(0.97909195 -0.52917965 0)
(0.9540403 -0.51005671 0)
(0.92912651 -0.49107617 0)
(0.90435814 -0.47227787 0)
(0.8797351 -0.45369772 0)
(0.8552748 -0.43537054 0)
(1.9247841 -0.90120498 0)
(1.9209976 -0.91626332 0)
(1.9159434 -0.93001236 0)
(1.9096119 -0.94247317 0)
(1.9020728 -0.95361969 0)
(1.8934181 -0.96343645 0)
(1.8836847 -0.97194049 0)
(1.8728627 -0.97916127 0)
(1.8609788 -0.985114 0)
(1.8480692 -0.9898149 0)
(1.8341694 -0.99328316 0)
(1.8193146 -0.99554023 0)
(1.8035412 -0.99660897 0)
(1.7868863 -0.99651392 0)
(1.7693879 -0.99528094 0)
(1.7510843 -0.99293748 0)
(1.7320143 -0.98951217 0)
(1.7122171 -0.98503507 0)
(1.6917316 -0.97953727 0)
(1.6705965 -0.97305112 0)
(1.6488499 -0.96560987 0)
(1.6265311 -0.95724817 0)
(1.6036822 -0.94800227 0)
(1.5803415 -0.93790811 0)
(1.5565251 -0.92698898 0)
(1.5322914 -0.91529408 0)
(1.5076928 -0.90286999 0)
(1.4827405 -0.8897464 0)
(1.457478 -0.87597515 0)
(1.4319532 -0.86160345 0)
(1.4061933 -0.84666423 0)
(1.3802217 -0.83119645 0)
(1.3540702 -0.81524246 0)
(1.3277701 -0.79884531 0)
(1.301351 -0.78204809 0)
(1.2748412 -0.7648941 0)
(1.2482681 -0.74742665 0)
(1.2216575 -0.72968915 0)
(1.195034 -0.71172488 0)
(1.1684207 -0.69357701 0)
(1.1418387 -0.67528809 0)
(1.1153079 -0.65689952 0)
(1.0888477 -0.63845274 0)
(1.0624793 -0.61999107 0)
(1.0362171 -0.60155386 0)
(1.0100759 -0.58318025 0)
(0.98406542 -0.56490822 0)
(0.95820007 -0.54677685 0)
(0.93248104 -0.52882054 0)
(0.90691433 -0.51107482 0)
(0.88151467 -0.49356863 0)
(1.9936924 -0.93361479 0)
(1.9891957 -0.94807538 0)
(1.9833725 -0.96124752 0)
(1.9762438 -0.97311255 0)
(1.9678944 -0.98366758 0)
(1.9583961 -0.9928995 0)
(1.9477672 -1.0008505 0)
(1.9360181 -1.007542 0)
(1.9231841 -1.0129918 0)
(1.9093041 -1.0172193 0)
(1.8944161 -1.0202467 0)
(1.8785586 -1.0220971 0)
(1.8617709 -1.0227956 0)
(1.8440926 -1.0223677 0)
(1.8255641 -1.0208408 0)
(1.8062259 -1.0182432 0)
(1.7861185 -1.0146046 0)
(1.7652827 -1.0099553 0)
(1.743759 -1.0043274 0)
(1.7215874 -0.99775306 0)
(1.6988074 -0.99026588 0)
(1.6754592 -0.98189945 0)
(1.6515863 -0.97268841 0)
(1.6272319 -0.96266726 0)
(1.6024108 -0.95186791 0)
(1.5771699 -0.94033129 0)
(1.5515691 -0.92810693 0)
(1.5256201 -0.91522446 0)
(1.4993571 -0.90173061 0)
(1.4728383 -0.88766757 0)
(1.4460981 -0.873074 0)
(1.4191562 -0.85798635 0)
(1.3920413 -0.84244508 0)
(1.3647844 -0.82649147 0)
(1.3374153 -0.81016702 0)
(1.3099622 -0.79351306 0)
(1.2824522 -0.77657111 0)
(1.2549113 -0.75938249 0)
(1.227364 -0.7419885 0)
(1.1998335 -0.72443009 0)
(1.1723413 -0.70674777 0)
(1.1449075 -0.68898111 0)
(1.1175509 -0.67116914 0)
(1.0902904 -0.65335117 0)
(1.0631453 -0.63556711 0)
(1.0361261 -0.6178521 0)
(1.0092481 -0.60024335 0)
(0.98251866 -0.58277432 0)
(0.95594649 -0.56548154 0)
(0.92953464 -0.54839191 0)
(0.90329738 -0.53154037 0)
(2.0599736 -0.95676401 0)
(2.0546482 -0.97046841 0)
(2.0479307 -0.98287783 0)
(2.039892 -0.99398512 0)
(2.0306117 -1.0037828 0)
(2.0201448 -1.0122915 0)
(2.0085023 -1.0195479 0)
(1.995717 -1.0255744 0)
(1.98183 -1.0303901 0)
(1.9668824 -1.0340183 0)
(1.9509156 -1.0364819 0)
(1.933971 -1.0378066 0)
(1.9160907 -1.0380174 0)
(1.897317 -1.0371419 0)
(1.8776921 -1.0352073 0)
(1.8572586 -1.0322433 0)
(1.8360587 -1.028279 0)
(1.8141346 -1.0233459 0)
(1.791528 -1.0174751 0)
(1.7682804 -1.0106997 0)
(1.7444328 -1.003052 0)
(1.7200267 -0.99456601 0)
(1.6951071 -0.9852748 0)
(1.6697186 -0.97521312 0)
(1.6438738 -0.96441446 0)
(1.6176114 -0.95291863 0)
(1.5909975 -0.94077078 0)
(1.5640472 -0.92800743 0)
(1.5367915 -0.91466271 0)
(1.5092892 -0.90077625 0)
(1.4815767 -0.88639344 0)
(1.4536767 -0.87154861 0)
(1.4256155 -0.85627991 0)
(1.3974233 -0.84062746 0)
(1.3691297 -0.82463082 0)
(1.340763 -0.80833002 0)
(1.31235 -0.79176454 0)
(1.2839167 -0.77497422 0)
(1.2554876 -0.75799829 0)
(1.2270857 -0.74087609 0)
(1.1987328 -0.72364614 0)
(1.1704495 -0.70634669 0)
(1.1422539 -0.68901477 0)
(1.1141644 -0.67168717 0)
(1.0861988 -0.65440132 0)
(1.0583728 -0.63719309 0)
(1.0306958 -0.62009459 0)
(1.0031806 -0.60314152 0)
(0.97583332 -0.58636168 0)
(0.94865807 -0.56979046 0)
(0.92166984 -0.55344723 0)
(2.1245568 -0.97247837 0)
(2.1182485 -0.98527371 0)
(2.1105119 -0.99677355 0)
(2.1014393 -1.0069846 0)
(2.0911009 -1.0159093 0)
(2.0795321 -1.0235879 0)
(2.0667632 -1.0300494 0)
(2.0528367 -1.0353138 0)
(2.0377977 -1.0394053 0)
(2.0216903 -1.0423463 0)
(2.004559 -1.0441633 0)
(1.9864481 -1.0448805 0)
(1.9674025 -1.0445258 0)
(1.9474664 -1.0431252 0)
(1.9266844 -1.0407083 0)
(1.9051004 -1.0373028 0)
(1.8827582 -1.0329397 0)
(1.8597012 -1.0276484 0)
(1.8359724 -1.0214615 0)
(1.8116142 -1.0144098 0)
(1.7866689 -1.0065268 0)
(1.7611789 -0.99784457 0)
(1.7351901 -0.98839783 0)
(1.7087476 -0.97822058 0)
(1.6818634 -0.96734903 0)
(1.6545727 -0.95581834 0)
(1.6269385 -0.94366579 0)
(1.5989856 -0.93093502 0)
(1.5707471 -0.9176512 0)
(1.542269 -0.90385377 0)
(1.5135928 -0.88959221 0)
(1.4847482 -0.87489703 0)
(1.4557576 -0.85980592 0)
(1.4266503 -0.84435696 0)
(1.3974559 -0.82858909 0)
(1.3682024 -0.81254003 0)
(1.3389168 -0.79624833 0)
(1.3096247 -0.77975155 0)
(1.2803505 -0.7630879 0)
(1.2511174 -0.7462945 0)
(1.221947 -0.72940884 0)
(1.1928598 -0.7124671 0)
(1.1638745 -0.69550572 0)
(1.1350082 -0.67855893 0)
(1.106279 -0.66166306 0)
(1.0777014 -0.64485107 0)
(1.0492886 -0.62815632 0)
(1.0210502 -0.61160851 0)
(0.99299233 -0.5952408 0)
(0.96512425 -0.57907716 0)
(0.93745235 -0.56315078 0)
(2.1880166 -0.98219891 0)
(2.1805663 -0.99396398 0)
(2.1716868 -1.0044554 0)
(2.1614532 -1.0136768 0)
(2.1499221 -1.0216578 0)
(2.137132 -1.028436 0)
(2.1231289 -1.0340339 0)
(2.1079618 -1.0384757 0)
(2.091678 -1.0417841 0)
(2.0743254 -1.0439851 0)
(2.0559509 -1.0451033 0)
(2.0366019 -1.0451655 0)
(2.0163252 -1.0441979 0)
(1.9951673 -1.0422286 0)
(1.9731741 -1.039285 0)
(1.9503914 -1.0353966 0)
(1.9268639 -1.0305921 0)
(1.9026362 -1.0249021 0)
(1.8777522 -1.0183568 0)
(1.8522552 -1.0109878 0)
(1.8261878 -1.0028263 0)
(1.7995932 -0.99390529 0)
(1.7725164 -0.98425788 0)
(1.7450023 -0.97392128 0)
(1.7170648 -0.96293393 0)
(1.6887429 -0.95132915 0)
(1.6600917 -0.93912808 0)
(1.6311403 -0.92637738 0)
(1.6019269 -0.91310298 0)
(1.572483 -0.89934424 0)
(1.5428549 -0.88514884 0)
(1.5130808 -0.87054748 0)
(1.4831784 -0.85557571 0)
(1.4531763 -0.84027154 0)
(1.4231042 -0.82467136 0)
(1.3929901 -0.80881243 0)
(1.3628607 -0.79273065 0)
(1.3327414 -0.7764631 0)
(1.3026565 -0.76004537 0)
(1.2726289 -0.74351418 0)
(1.2426801 -0.72690442 0)
(1.2128304 -0.71025206 0)
(1.1830987 -0.69359091 0)
(1.1535016 -0.6769561 0)
(1.1240561 -0.66038054 0)
(1.0947792 -0.64389611 0)
(1.0656815 -0.62753395 0)
(1.0367733 -0.61132444 0)
(1.008064 -0.59529732 0)
(0.97955432 -0.57947993 0)
(0.95126222 -0.56389809 0)
(2.2506629 -0.9870741 0)
(2.2419351 -0.99772609 0)
(2.2317822 -1.0071358 0)
(2.2202576 -1.0153201 0)
(2.2074075 -1.022316 0)
(2.1932868 -1.0281515 0)
(2.1779507 -1.0328491 0)
(2.1614508 -1.036434 0)
(2.1438383 -1.0389299 0)
(2.1251632 -1.0403632 0)
(2.1054755 -1.0407585 0)
(2.0848246 -1.0401431 0)
(2.0632594 -1.0385424 0)
(2.0408279 -1.035985 0)
(2.0175777 -1.0324973 0)
(1.9935555 -1.0281087 0)
(1.9688072 -1.0228468 0)
(1.9433782 -1.0167421 0)
(1.917313 -1.009823 0)
(1.8906555 -1.0021207 0)
(1.8634488 -0.99366493 0)
(1.8357354 -0.98448775 0)
(1.8075584 -0.97462098 0)
(1.7789585 -0.96410426 0)
(1.7499541 -0.95298384 0)
(1.7206007 -0.94128717 0)
(1.6909447 -0.9290218 0)
(1.6610055 -0.91622649 0)
(1.6308265 -0.90293713 0)
(1.6004295 -0.88919458 0)
(1.5698652 -0.87503844 0)
(1.5391781 -0.86050299 0)
(1.5083827 -0.84562287 0)
(1.477507 -0.83043375 0)
(1.4465808 -0.81497132 0)
(1.4156321 -0.79927032 0)
(1.3846872 -0.78336623 0)
(1.3537713 -0.76729339 0)
(1.3229082 -0.75108735 0)
(1.2921207 -0.73478184 0)
(1.26143 -0.7184121 0)
(1.2308561 -0.70201076 0)
(1.2004173 -0.68561262 0)
(1.1701295 -0.66925031 0)
(1.1400122 -0.65295797 0)
(1.1100798 -0.63676167 0)
(1.0803445 -0.62069301 0)
(1.0508147 -0.60478296 0)
(1.0214967 -0.58905892 0)
(0.99240065 -0.57354883 0)
(2.3126362 -0.98798384 0)
(2.3025092 -0.99747551 0)
(2.2909495 -1.0057697 0)
(2.2780017 -1.0128983 0)
(2.2637216 -1.0188888 0)
(2.2481731 -1.0237624 0)
(2.2314138 -1.0275459 0)
(2.2134992 -1.0302619 0)
(2.1944828 -1.0319378 0)
(2.1744176 -1.0325966 0)
(2.1533555 -1.0322661 0)
(2.1313481 -1.0309702 0)
(2.1084455 -1.0287371 0)
(2.0846973 -1.0255915 0)
(2.0601522 -1.0215624 0)
(2.0348577 -1.0166754 0)
(2.0088605 -1.0109603 0)
(1.9822067 -1.0044434 0)
(1.9549412 -0.99715534 0)
(1.9271082 -0.98912339 0)
(1.8987512 -0.98037862 0)
(1.8699122 -0.97094943 0)
(1.8406299 -0.96086826 0)
(1.8109347 -0.95017337 0)
(1.7808553 -0.93891528 0)
(1.7504725 -0.92711318 0)
(1.7198277 -0.9147793 0)
(1.688919 -0.90193808 0)
(1.6577835 -0.88863073 0)
(1.6264491 -0.87490357 0)
(1.5949685 -0.86078191 0)
(1.5633858 -0.84630681 0)
(1.5317176 -0.8315121 0)
(1.4999909 -0.81643102 0)
(1.4682353 -0.80109757 0)
(1.4364785 -0.78554516 0)
(1.4047466 -0.76980749 0)
(1.3730641 -0.7539181 0)
(1.3414546 -0.73791038 0)
(1.3099403 -0.7218178 0)
(1.2785425 -0.70567297 0)
(1.2472804 -0.68950877 0)
(1.2161711 -0.67335708 0)
(1.1852299 -0.65725178 0)
(1.1544788 -0.64122428 0)
(1.1239351 -0.62529893 0)
(1.0936016 -0.60950704 0)
(1.0634903 -0.59387911 0)
(1.0336107 -0.5784402 0)
(1.0039666 -0.56321968 0)
(2.3739627 -0.9856084 0)
(2.3623038 -0.9939217 0)
(2.3492081 -1.0010987 0)
(2.3347237 -1.0071673 0)
(2.3189174 -1.0121455 0)
(2.3018527 -1.0160582 0)
(2.2835907 -1.0189288 0)
(2.2641889 -1.0207835 0)
(2.2437038 -1.0216461 0)
(2.2221902 -1.0215425 0)
(2.1997021 -1.0204972 0)
(2.1762923 -1.0185359 0)
(2.1520124 -1.0156839 0)
(2.1269129 -1.0119673 0)
(2.1010431 -1.007412 0)
(2.0744513 -1.002045 0)
(2.0471846 -0.99589259 0)
(2.0192893 -0.98898265 0)
(1.9908106 -0.98134246 0)
(1.9617928 -0.97300061 0)
(1.9322792 -0.96398552 0)
(1.9023119 -0.95432713 0)
(1.8719244 -0.9440559 0)
(1.8411392 -0.93320555 0)
(1.8099965 -0.92181045 0)
(1.7785908 -0.90988872 0)
(1.7469618 -0.89748048 0)
(1.7150983 -0.88460785 0)
(1.6830199 -0.87129987 0)
(1.6507662 -0.85759694 0)
(1.6183928 -0.84352239 0)
(1.5859349 -0.82912042 0)
(1.5534158 -0.81442079 0)
(1.5208624 -0.79945592 0)
(1.4883035 -0.78425754 0)
(1.4557664 -0.76885879 0)
(1.4232762 -0.75329133 0)
(1.3908573 -0.73758828 0)
(1.3585326 -0.72178106 0)
(1.3263241 -0.70590261 0)
(1.2942523 -0.68998381 0)
(1.2623365 -0.67405712 0)
(1.2305918 -0.65815251 0)
(1.1990328 -0.64230161 0)
(1.1676867 -0.6265326 0)
(1.1365658 -0.6108751 0)
(1.105673 -0.59535881 0)
(1.0750206 -0.58000841 0)
(1.044613 -0.56485487 0)
(1.0144648 -0.54991577 0)
(2.4345674 -0.98046748 0)
(2.4212548 -0.98761066 0)
(2.4065084 -0.99367978 0)
(2.3903922 -0.99869251 0)
(2.3729723 -1.0026696 0)
(2.354314 -1.005634 0)
(2.3344792 -1.0076099 0)
(2.3135282 -1.0086217 0)
(2.2915191 -1.0086936 0)
(2.2685088 -1.0078501 0)
(2.2445523 -1.0061151 0)
(2.2197037 -1.0035135 0)
(2.1940153 -1.0000694 0)
(2.1675382 -0.9958081 0)
(2.1403221 -0.99075425 0)
(2.1124156 -0.98493386 0)
(2.0838659 -0.97837217 0)
(2.0547191 -0.97109592 0)
(2.0250203 -0.96313135 0)
(1.9948132 -0.95450617 0)
(1.9641403 -0.94524807 0)
(1.9330424 -0.93538654 0)
(1.9015545 -0.92495163 0)
(1.8697028 -0.91396971 0)
(1.837533 -0.90245732 0)
(1.80512 -0.89043407 0)
(1.7724999 -0.87796658 0)
(1.7396809 -0.86507978 0)
(1.7066795 -0.85179073 0)
(1.6735307 -0.83812668 0)
(1.6402835 -0.82412005 0)
(1.6069735 -0.80981067 0)
(1.57363 -0.79522441 0)
(1.5402773 -0.78039123 0)
(1.5069432 -0.76534326 0)
(1.4736544 -0.75011135 0)
(1.4404356 -0.7347275 0)
(1.4073105 -0.71922215 0)