/*--------------------------------*- C++ -*----------------------------------*\
| =========                 |                                                 |
| \\      /  F ield         | OpenFOAM: The Open Source CFD Toolbox           |
|  \\    /   O peration     | Version:  2312                                  |
|   \\  /    A nd           | Website:  www.openfoam.com                      |
|    \\/     M anipulation  |                                                 |
\*---------------------------------------------------------------------------*/
FoamFile
{
    version     2.0;
    format      ascii;
    arch        "LSB;label=32;scalar=64";
    class       volScalarField;
    location    "0.1";
    object      CO2;
}
// * * * * * * * * * * * * * * * * * * * * * * * * * * * * * * * * * * * * * //

dimensions      [0 0 0 0 0 0 0];

internalField   nonuniform List<scalar> 
3251
(
0.023111005
0.022813019
0.022513784
0.022213387
0.021911925
0.021609506
0.021306248
0.021002278
0.020697731
0.020392749
0.020087482
0.019782086
0.019476719
0.019171546
0.018866733
0.01856245
0.018258866
0.017956153
0.01765448
0.017354016
0.017054929
0.016757382
0.016461537
0.016167551
0.015875576
0.015585761
0.015298248
0.015013174
0.014730669
0.014450858
0.014173861
0.013899787
0.013628744
0.013360829
0.013096136
0.012834748
0.012576747
0.012322205
0.012071189
0.011823762
0.011579978
0.011339887
0.011103537
0.010870967
0.010642214
0.010417309
0.010196283
0.0099791593
0.0097659626
0.0095567143
0.0093514362
0.0091501469
0.0089529023
0.0087596963
0.0085705025
0.0083853357
0.0082042155
0.0080271692
0.023108883
0.022810948
0.022511762
0.022211413
0.021909998
0.021607625
0.021304412
0.021000486
0.020695981
0.020391042
0.020085816
0.01978046
0.019475132
0.019169998
0.018865223
0.018560977
0.01825743
0.017954753
0.017653115
0.017352686
0.017053633
0.01675612
0.016460308
0.016166354
0.015874412
0.015584628
0.015297146
0.015012102
0.014729628
0.014449847
0.014172879
0.013898835
0.01362782
0.013359934
0.013095269
0.012833909
0.012575936
0.012321421
0.012070433
0.011823032
0.011579275
0.011339212
0.011102888
0.010870344
0.010641617
0.01041674
0.01019574
0.0099786435
0.0097654742
0.0095562537
0.0093510038
0.0091497446
0.0089525135
0.0087593127
0.0085701297
0.0083849749
0.008203865
0.0080268402
0.023104637
0.022806805
0.022507717
0.022207464
0.021906142
0.021603861
0.021300737
0.020996898
0.020692479
0.020387624
0.02008248
0.019777204
0.019471956
0.019166899
0.0188622
0.018558028
0.018254554
0.017951949
0.017650382
0.017350022
0.017051037
0.016753591
0.016457845
0.016163956
0.015872077
0.015582356
0.015294935
0.015009952
0.014727537
0.014447815
0.014170905
0.013896917
0.013625959
0.013358128
0.013093516
0.01283221
0.012574289
0.012319827
0.012068889
0.011821539
0.011577831
0.011337817
0.011101541
0.010869046
0.010640366
0.010415535
0.010194581
0.0099775307
0.0097644071
0.0095552319
0.0093500264
0.0091488107
0.0089516118
0.0087584362
0.0085692805
0.0083841528
0.0082030664
0.0080260644
0.023098272
0.022800592
0.022501651
0.022201542
0.021900361
0.021598216
0.021295227
0.020991519
0.020687228
0.020382498
0.020077478
0.019772322
0.019467192
0.019162251
0.018857666
0.018553606
0.018250242
0.017947744
0.017646283
0.017346027
0.017047144
0.016749798
0.016454151
0.016160358
0.015868575
0.015578947
0.015291619
0.015006726
0.014724399
0.014444765
0.01416794
0.013894037
0.013623161
0.013355411
0.01309088
0.012829653
0.012571809
0.012317422
0.01206656
0.011819283
0.011575647
0.011335704
0.011099498
0.010867071
0.010638459
0.010413694
0.010192806
0.0099758203
0.0097627604
0.0095536476
0.0093485028
0.0091473452
0.0089501961
0.0087570643
0.0085679517
0.0083828664
0.0082018184
0.0080248267
0.023089791
0.022792312
0.022493568
0.02219365
0.021892656
0.021590694
0.021287883
0.02098435
0.02068023
0.020375668
0.020070811
0.019765817
0.019460844
0.019156058
0.018851625
0.018547714
0.018244496
0.017942141
0.017640821
0.017340704
0.017041957
0.016744744
0.016449228
0.016155565
0.015863908
0.015574405
0.015287198
0.015002425
0.014720217
0.014440698
0.014163987
0.013890196
0.013619429
0.013351787
0.013087362
0.012826238
0.012568497
0.01231421
0.012063446
0.011816265
0.011572724
0.011332874
0.011096759
0.010864421
0.010635897
0.010411219
0.010190415
0.0099735127
0.0097605343
0.0095515012
0.0093464335
0.0091453494
0.0089482669
0.0087551961
0.0085661425
0.0083811156
0.0082001266
0.023079804
0.022782562
0.022484049
0.022184357
0.021883583
0.021581836
0.021279235
0.020975908
0.020671989
0.020367624
0.020062961
0.019758156
0.019453369
0.019148765
0.01884451
0.018540775
0.018237729
0.017935544
0.01763439
0.017334435
0.017035848
0.016738793
0.016443432
0.01614992
0.015858412
0.015569055
0.015281993
0.014997361
0.014715291
0.014435908
0.014159331
0.01388567
0.013615033
0.013347517
0.013083216
0.012822214
0.012564591
0.012310422
0.012059772
0.011812704
0.011569273
0.011329531
0.011093522
0.010861288
0.010632866
0.010408287
0.010187582
0.0099707751
0.0097578905
0.0095489487
0.0093439692
0.0091429694
0.0089459653
0.0087529677
0.0085639844
0.0083790278
0.0081981317
0.023068618
0.022771642
0.022473388
0.022173948
0.02187342
0.021571914
0.021269549
0.020966452
0.020662759
0.020358615
0.020054168
0.019749575
0.019444996
0.019140596
0.018836542
0.018533003
0.01823015
0.017928154
0.017627186
0.017327415
0.017029007
0.016732128
0.016436939
0.016143598
0.015852257
0.015563064
0.015276162
0.014991688
0.014709773
0.014430543
0.014154115
0.013880601
0.013610107
0.013342733
0.013078569
0.012817703
0.012560214
0.012306175
0.012055653
0.01180871
0.011565402
0.01132578
0.011089889
0.010857771
0.010629461
0.010404993
0.010184396
0.0099676955
0.0097549143
0.0095460733
0.0093411911
0.0091402844
0.008943368
0.0087504531
0.0085615489
0.0083766703
0.0081958674
0.023055357
0.022758695
0.022460748
0.022161607
0.021861372
0.021560151
0.021258065
0.020955241
0.020651816
0.020347933
0.020043743
0.019739402
0.01943507
0.019130912
0.018827095
0.018523789
0.018221165
0.017919394
0.017618646
0.017319091
0.017020896
0.016724226
0.016429243
0.016136103
0.015844959
0.015555961
0.015269249
0.014984963
0.014703232
0.014424181
0.01414793
0.01387459
0.013604267
0.013337059
0.013073059
0.012812353
0.012555021
0.012301136
0.012050766
0.011803971
0.011560808
0.011321328
0.011085576
0.010853593
0.010625417
0.010401079
0.010180609
0.0099640325
0.0097513727
0.0095426498
0.0093378817
0.0091370844
0.0089402717
0.0087474552
0.0085586452
0.0083738574
0.0081931428
0.023039868
0.022743573
0.022445984
0.022147193
0.021847299
0.021546412
0.021244652
0.020942147
0.020639034
0.020335458
0.020031567
0.01972752
0.019423476
0.019119601
0.018816061
0.018513028
0.018210671
0.017909162
0.017608672
0.01730937
0.017011424
0.016714998
0.016420254
0.016127349
0.015836437
0.015547665
0.015261176
0.014977108
0.014695591
0.014416751
0.014140706
0.013867569
0.013597444
0.013330431
0.013066622
0.012806103
0.012548955
0.012295249
0.012045054
0.011798432
0.011555437
0.011316122
0.011080532
0.010848707
0.010620685
0.010396498
0.010176176
0.0099597437
0.0097472245
0.0095386382
0.0093340023
0.0091333319
0.0089366403
0.0087439391
0.0085552396
0.0083705587
0.023021993
0.022726121
0.022428946
0.022130558
0.021831057
0.021530555
0.021229171
0.020927035
0.020624282
0.020321059
0.020017514
0.019713806
0.019410095
0.019106546
0.018803327
0.018500607
0.018198559
0.017897353
0.01759716
0.017298151
0.017000491
0.016704347
0.016409879
0.016117246
0.0158266
0.01553809
0.015251858
0.014968042
0.014686773
0.014408176
0.014132369
0.013859465
0.013589569
0.01332278
0.013059191
0.012798888
0.012541951
0.012288452
0.012038459
0.011792035
0.011549235
0.011310109
0.011074705
0.010843062
0.010615217
0.010391204
0.010171051
0.0099547839
0.0097424259
0.0095339963
0.0093295122
0.0091289877
0.0089324355
0.0087398678
0.0085512975
0.0083667511
0.023001561
0.022706174
0.02240947
0.022111543
0.021812493
0.02151243
0.021211477
0.020909761
0.02060742
0.0203046
0.020001451
0.019698131
0.0193948
0.019091624
0.018788771
0.018486411
0.018184715
0.017883855
0.017584003
0.017285327
0.016987995
0.016692173
0.016398021
0.016105699
0.015815358
0.015527146
0.015241208
0.014957681
0.014676694
0.014398374
0.014122839
0.013850202
0.013580567
0.013314035
0.013050697
0.01279064
0.012533943
0.012280681
0.012030919
0.011784721
0.011542142
0.011303233
0.01106804
0.010836603
0.010608961
0.010385145
0.010165185
0.0099491058
0.009736931
0.0095286798
0.0093243683
0.0091240101
0.0089276172
0.008735203
0.0085467827
0.022978396
0.022683557
0.022387388
0.022089983
0.021791443
0.021491879
0.021191413
0.020890175
0.020588301
0.020285939
0.019983238
0.019680357
0.019377457
0.019074704
0.018772266
0.018470314
0.018169018
0.017868551
0.017569084
0.017270787
0.016973827
0.01667837
0.016384577
0.016092606
0.015802611
0.015514739
0.015229134
0.014945932
0.014665266
0.014387261
0.014112034
0.013839699
0.013570361
0.013304119
0.013041065
0.012781287
0.012524863
0.012271868
0.012022368
0.011776425
0.011534097
0.011295432
0.011060478
0.010829276
0.010601862
0.010378269
0.010158526
0.0099426595
0.0097306916
0.0095226418
0.0093185256
0.0091183555
0.0089221432
0.0087299045
0.0085416664
0.022952311
0.022658088
0.022362522
0.022065705
0.021767739
0.021468737
0.02116882
0.020868118
0.020566771
0.020264923
0.019962728
0.019660342
0.019357928
0.019055651
0.018753681
0.018452187
0.018151342
0.017851317
0.017552285
0.017254414
0.016957873
0.016662827
0.016369438
0.016077863
0.015788257
0.015500767
0.015215537
0.014932703
0.014652398
0.014374746
0.014099867
0.013827872
0.013558867
0.013292952
0.013030219
0.012770754
0.012514637
0.012261942
0.012012736
0.011767081
0.011525034
0.011286645
0.01105196
0.01082102
0.010593862
0.010370519
0.010151021
0.0099353924
0.0097236567
0.0095158331
0.0093119365
0.0091119782
0.0089159693
0.0087239302
0.022923109
0.022629577
0.022334684
0.022038525
0.021741202
0.021442828
0.021143525
0.020843425
0.020542666
0.020241395
0.019939765
0.019637934
0.019336063
0.01903432
0.018732873
0.018431893
0.018131552
0.017832023
0.017533477
0.017236084
0.016940011
0.016645426
0.016352489
0.016061358
0.015772188
0.015485126
0.015200315
0.014917893
0.014637992
0.014360737
0.014086245
0.013814631
0.013546
0.01328045
0.013018075
0.012758961
0.012503187
0.012250828
0.012001951
0.011756618
0.011514886
0.011276804
0.011042419
0.010811773
0.010584902
0.010361838
0.010142612
0.0099272494
0.0097157729
0.009508202
0.0093045513
0.0091048303
0.0089090496
0.0087172455
0.022890584
0.02259782
0.022303678
0.022008251
0.021711644
0.021413969
0.02111535
0.020815919
0.020515817
0.020215188
0.019914188
0.019612974
0.019311709
0.01901056
0.018709696
0.018409289
0.01810951
0.017810532
0.017512528
0.017215667
0.016920117
0.016626045
0.016333611
0.016042975
0.01575429
0.015467704
0.015183361
0.014901398
0.014621947
0.014345133
0.014071074
0.013799884
0.013531668
0.013266525
0.013004549
0.012745825
0.012490434
0.012238449
0.011989938
0.011744963
0.01150358
0.01126584
0.01103179
0.01080147
0.010574916
0.010352164
0.01013324
0.0099181725
0.009706984
0.0094996943
0.0092963177
0.0090968621
0.0089013352
0.02285452
0.022562608
0.022269297
0.021974682
0.021678868
0.021381968
0.021084108
0.02078542
0.020486044
0.020186128
0.019885826
0.019585296
0.019284703
0.018984213
0.018683996
0.018384223
0.018085068
0.017786702
0.017489299
0.017193027
0.016898057
0.016604554
0.016312679
0.016022592
0.015734445
0.015448387
0.015164563
0.014883108
0.014604156
0.014327831
0.014054252
0.013783532
0.013515777
0.013251086
0.012989551
0.01273126
0.012476292
0.012224722
0.011976616
0.011732038
0.011491042
0.011253681
0.01102
0.010790041
0.010563841
0.010341431
0.010122843
0.0099081012
0.0096972311
0.0094902529
0.0092871813
0.0090880227
0.0088927848
0.022814692
0.02252372
0.022231327
0.021937608
0.021642669
0.021346625
0.021049602
0.020751734
0.02045316
0.020154031
0.0198545
0.019554726
0.019254875
0.018955113
0.01865561
0.018356539
0.018058072
0.017760382
0.017463643
0.017168023
0.016873693
0.016580819
0.016289561
0.01600008
0.015712527
0.015427054
0.015143802
0.014862909
0.014584508
0.014308723
0.014035674
0.013765473
0.013498227
0.013234034
0.012972987
0.012715174
0.012460674
0.012209561
0.011961903
0.011717761
0.011477194
0.01124025
0.011006978
0.010777417
0.010551605
0.010329574
0.010111354
0.0098969718
0.0096864524
0.0094798179
0.0092770849
0.0090782594
0.022770864
0.022480925
0.022189541
0.021896808
0.021602831
0.021307729
0.021011628
0.020714661
0.020416971
0.020118707
0.019820024
0.019521083
0.019222048
0.018923087
0.01862437
0.018326071
0.018028362
0.017731417
0.017435408
0.017140506
0.016846881
0.016554698
0.01626412
0.015975305
0.015688408
0.015403577
0.015120955
0.014840681
0.014562886
0.014287696
0.01401523
0.013745601
0.013478914
0.013215269
0.01295476
0.012697472
0.012443486
0.012192876
0.01194571
0.01170205
0.011461952
0.011225468
0.010992644
0.010763521
0.010538136
0.010316521
0.010098706
0.0098847181
0.0096745832
0.0094683266
0.0092659686
0.0090675317
0.022722791
0.022433984
0.022143706
0.021852053
0.021559132
0.021265062
0.020969971
0.020673993
0.020377271
0.020079957
0.019782205
0.019484176
0.019186036
0.018887954
0.0185901
0.018292648
0.01799577
0.017699642
0.017404435
0.017110321
0.016817469
0.016526045
0.016236212
0.01594813
0.01566195
0.015377824
0.015095894
0.014816299
0.01453917
0.014264632
0.013992806
0.013723803
0.01345773
0.013194687
0.012934766
0.012678055
0.012424633
0.012174574
0.011927948
0.011684815
0.011445233
0.011209252
0.01097692
0.010748276
0.010523359
0.0103022
0.010084828
0.0098712709
0.0096615559
0.0094557124
0.0092537657
0.0090557471
0.022670215
0.022382646
0.022093577
0.021803104
0.021511337
0.021218396
0.020924408
0.020629511
0.020333849
0.020037573
0.019740839
0.019443808
0.019146648
0.018849527
0.018552617
0.018256091
0.017960123
0.017664888
0.017370558
0.017077305
0.016785299
0.016494706
0.016205689
0.015918407
0.015633014
0.015349659
0.015068486
0.014789633
0.014513232
0.014239408
0.013968281
0.013699964
0.013434562
0.013172177
0.0129129
0.012656819
0.012404013
0.012154558
0.011908521
0.011665965
0.011426946
0.011191516
0.010959721
0.010731602
0.010507195
0.010286534
0.010069646
0.0098565584
0.0096472999
0.0094419062
0.0092404089
0.0090428284
0.022612872
0.022326652
0.0220389
0.021749714
0.021459205
0.021167493
0.02087471
0.020580992
0.020286484
0.01999134
0.019695716
0.019399774
0.019103682
0.01880761
0.018511729
0.018216214
0.017921239
0.017626978
0.017333605
0.017041293
0.01675021
0.016460523
0.016172396
0.015885988
0.015601452
0.015318939
0.015038591
0.014760548
0.014484941
0.014211896
0.013941532
0.013673963
0.013409294
0.013147626
0.012889051
0.012633657
0.012381524
0.012132727
0.011887333
0.011645406
0.011407001
0.011172171
0.010940961
0.010713413
0.010489564
0.010269445
0.010053084
0.0098405067
0.0096317419
0.0094268362
0.009225835
0.022550487
0.022265733
0.021979413
0.021691626
0.021402484
0.02111211
0.020820635
0.020528199
0.020234948
0.019941035
0.019646618
0.019351861
0.019056932
0.018762
0.01846724
0.018172824
0.017878929
0.017585729
0.017293398
0.017002109
0.016712031
0.016423331
0.016136173
0.015850715
0.015567113
0.015285515
0.015006067
0.014728905
0.014454162
0.014181964
0.013912431
0.013645675
0.013381804
0.013120916
0.012863106
0.012608459
0.012357058
0.012108976
0.011864282
0.011623038
0.011385301
0.011151123
0.01092055
0.010693624
0.010470381
0.010250852
0.010035064
0.0098230401
0.009614806
0.0094104281
0.0092100015
0.022482775
0.022199613
0.021914846
0.021628574
0.021340915
0.021051991
0.020761937
0.020470891
0.020179003
0.019886427
0.01959332
0.01929985
0.019006182
0.018712489
0.018418945
0.018125723
0.017833001
0.017540953
0.017249753
0.016959575
0.016670587
0.016382959
0.016096852
0.015812428
0.015529839
0.015249236
0.014970763
0.014694558
0.014420754
0.014149477
0.013880845
0.013614973
0.013351967
0.013091926
0.012834945
0.01258111
0.012330503
0.012083197
0.011839262
0.01159876
0.011361748
0.011128277
0.010898396
0.010672144
0.010449559
0.010230671
0.010015506
0.0098040829
0.0095964152
0.022409445
0.022128006
0.021844918
0.021560287
0.021274231
0.020986877
0.02069836
0.02040882
0.020118408
0.019827278
0.019535591
0.019243512
0.018951212
0.01865886
0.018366633
0.018074706
0.017783254
0.017492454
0.017202479
0.016913505
0.0166257
0.016339232
0.016054265
0.015770959
0.015489469
0.015209943
0.014932528
0.01465736
0.014384573
0.014114292
0.013846637
0.013581722
0.013319653
0.013060531
0.012804448
0.012551492
0.012301745
0.01205528
0.011812166
0.011572467
0.01133624
0.011103536
0.010874403
0.010648881
0.010427009
0.010208816
0.0099943289
0.0097835629
0.022330198
0.022050619
0.021769343
0.021486482
0.021202159
0.0209165
0.020629642
0.020341729
0.02005291
0.019763344
0.019473191
0.019182617
0.018891793
0.018600893
0.018310089
0.01801956
0.017729482
0.017440031
0.017151382
0.016863709
0.016577182
0.016291969
0.016008235
0.015726139
0.015445836
0.015167476
0.014891204
0.014617157
0.014345469
0.014076266
0.013809668
0.013545788
0.013284732
0.013026602
0.01277149
0.012519484
0.012270666
0.01202511
0.011782884
0.011544053
0.011308673
0.011076798
0.010848473
0.010623741
0.010402639
0.010185199
0.0099714482
0.0097614188
0.022520498
0.022244743
0.021967155
0.021687828
0.021406874
0.021124416
0.020840584
0.020555515
0.020269355
0.019982256
0.019694375
0.019405875
0.019116925
0.018827695
0.018538358
0.018249092
0.017960072
0.017671476
0.01738348
0.017096261
0.016809992
0.016524845
0.016240987
0.015958583
0.015677792
0.015398771
0.015121668
0.01484663
0.014573793
0.014303292
0.014035252
0.013769793
0.013507029
0.013247067
0.012990007
0.012735943
0.012484962
0.012237146
0.01199257
0.011751302
0.011513407
0.011278942
0.011047959
0.010820506
0.010596625
0.010376354
0.010159727
0.0099467723
0.0097375328
0.022426331
0.022152756
0.021877307
0.021600074
0.02132117
0.021040718
0.02075885
0.020475706
0.020191432
0.019906182
0.019620116
0.019333397
0.019046194
0.018758679
0.018471027
0.018183415
0.017896019
0.017609019
0.017322592
0.017036913
0.016752157
0.016468495
0.016186097
0.015905125
0.015625741
0.0153481
0.015072352
0.014798642
0.01452711
0.014257886
0.013991099
0.013726867
0.013465306
0.013206521
0.012950614
0.012697677
0.0124478
0.012201063
0.011957542
0.011717306
0.011480418
0.011246937
0.011016915
0.0107904
0.010567435
0.010348059
0.010132306
0.0099202076
0.0097118115
0.022325146
0.022053917
0.021780764
0.021505778
0.021229073
0.020950774
0.020671015
0.020389937
0.020107689
0.019824426
0.019540308
0.019255501
0.018970176
0.018684505
0.018398663
0.018112829
0.017827181
0.017541896
0.017257154
0.016973131
0.016690002
0.016407938
0.016127107
0.015847676
0.015569805
0.015293648
0.015019357
0.014747076
0.014476944
0.014209095
0.013943654
0.013680742
0.013420473
0.013162954
0.012908286
0.012656562
0.012407871
0.012162293
0.011919906
0.011680778
0.011444972
0.011212548
0.010983559
0.010758052
0.010536072
0.010317656
0.010102841
0.0098916609
0.0096841646
0.02221662
0.021947907
0.021677214
0.021404634
0.021130285
0.020854292
0.020576792
0.020297929
0.020017852
0.019736719
0.019454691
0.019171935
0.018888624
0.01860493
0.01832103
0.018037104
0.01775333
0.017469887
0.017186953
0.016904707
0.016623323
0.016342974
0.016063827
0.01578605
0.015509801
0.015235237
0.014962509
0.014691762
0.014423134
0.014156759
0.013892764
0.013631268
0.013372386
0.013116226
0.012862886
0.012612463
0.012365045
0.012120712
0.011879541
0.011641601
0.011406957
0.011175667
0.010947784
0.010723358
0.010502433
0.010285047
0.010071237
0.009861039
0.009654503
0.022100432
0.021834407
0.021566344
0.021296336
0.021024505
0.020750979
0.020475896
0.020199401
0.019921648
0.019642794
0.019363002
0.019082443
0.018801287
0.018519711
0.018237891
0.017956008
0.017674241
0.01739277
0.017111775
0.016831432
0.016551918
0.016273406
0.015996063
0.015720057
0.015445548
0.015172691
0.014901638
0.014632533
0.014365517
0.014100722
0.013838275
0.013578297
0.013320901
0.013066195
0.01281428
0.01256525
0.012319194
0.012076194
0.011836325
0.011599658
0.011366256
0.01113618
0.010909483
0.010686214
0.010466417
0.010250133
0.010037399
0.0098282494
0.0096227378
0.02197626
0.021713102
0.021447843
0.021180581
0.020911437
0.020640543
0.02036804
0.020094076
0.019818804
0.019542384
0.019264983
0.018986769
0.018707918
0.018428605
0.018149009
0.01786931
0.01758969
0.017310328
0.017031405
0.016753098
0.016475584
0.016199036
0.015923624
0.015649512
0.015376863
0.015105832
0.01483657
0.014569223
0.014303931
0.014040825
0.013780034
0.013521679
0.013265872
0.013012721
0.012762329
0.012514789
0.01227019
0.012028615
0.011790138
0.011554831
0.011322759
0.01109398
0.01086855
0.010646517
0.010427926
0.010212818
0.010001231
0.0097932009
0.0095887811
0.021843787
0.02158368
0.021321408
0.021057068
0.020790787
0.020522698
0.020252945
0.019981677
0.01970905
0.019435227
0.019160375
0.018884665
0.018608272
0.018331374
0.018054151
0.017776784
0.017499454
0.017222344
0.016945633
0.0166695
0.016394122
0.016119672
0.015846319
0.015574231
0.015303568
0.015034487
0.014767138
0.014501668
0.014238215
0.013976914
0.013717892
0.013461268
0.013207158
0.012955668
0.012706902
0.012460952
0.012217908
0.011977853
0.011740863
0.011507007
0.011276353
0.011048958
0.010824879
0.010604164
0.010386859
0.010173006
0.009962642
0.0097558038
0.0095525466
0.021702704
0.021445838
0.02118674
0.020925508
0.02066227
0.020397165
0.020130336
0.019861938
0.019592127
0.019321068
0.019048929
0.018775884
0.01850211
0.018227784
0.017953089
0.017678207
0.017403319
0.017128607
0.016854254
0.016580438
0.016307336
0.016035122
0.015763966
0.015494034
0.015225489
0.014958485
0.014693176
0.014429706
0.014168216
0.013908838
0.0136517
0.013396923
0.01314462
0.012894901
0.012647867
0.012403612
0.012162226
0.01192379
0.011688383
0.011456074
0.01122693
0.01100101
0.010778369
0.010559058
0.010343122
0.010130604
0.0099215415
0.0097159714
0.0095139504
0.021552717
0.021299288
0.021043555
0.020785619
0.020525612
0.020263673
0.019999951
0.0197346
0.01946778
0.019199658
0.018930404
0.018660193
0.018389202
0.018117612
0.017845606
0.017573365
0.017301074
0.017028915
0.016757071
0.01648572
0.01621504
0.015945205
0.015676386
0.015408749
0.015142457
0.014877666
0.014614526
0.014353186
0.014093782
0.013836451
0.013581318
0.013328506
0.013078128
0.012830292
0.0125851
0.012342648
0.012103025
0.011866313
0.011632589
0.011401925
0.011174387
0.010950034
0.010728923
0.010511104
0.010296624
0.010085524
0.0098778439
0.0096736208
0.0094729126
0.021393547
0.021143754
0.020891584
0.020637139
0.020380554
0.020121971
0.019861541
0.01959942
0.019335773
0.019070766
0.018804572
0.018537367
0.018269331
0.018000645
0.017731493
0.017462058
0.017192524
0.016923076
0.016653896
0.016385163
0.016117055
0.015849748
0.015583412
0.015318214
0.015054315
0.014791873
0.014531039
0.01427196
0.014014774
0.013759617
0.013506615
0.013255889
0.013007554
0.012761719
0.012518485
0.012277947
0.012040196
0.011805313
0.011573377
0.011344459
0.011118626
0.010895937
0.010676449
0.010460214
0.010247277
0.010037683
0.0098314687
0.0096286738
0.0094293577
0.021224939
0.020978986
0.02073058
0.020479825
0.020226857
0.019971823
0.019714875
0.019456174
0.019195884
0.018934175
0.018671222
0.018407202
0.018142296
0.017876686
0.017610559
0.017344097
0.017077487
0.016810912
0.016544556
0.016278599
0.01601322
0.015748593
0.015484889
0.015222276
0.014960916
0.014700966
0.014442577
0.014185896
0.013931062
0.013678209
0.013427466
0.013178953
0.012932785
0.01268907
0.012447911
0.012209403
0.011973636
0.011740693
0.011510652
0.011283584
0.011059557
0.010838631
0.010620864
0.010406305
0.010195004
0.0099870032
0.0097823419
0.0095810593
0.0093832168
0.021046666
0.020804759
0.020560322
0.020313459
0.020064308
0.01981302
0.01955975
0.01930466
0.019047917
0.018789693
0.018530165
0.018269512
0.018007915
0.01774556
0.017482632
0.017219316
0.016955799
0.016692265
0.016428897
0.016165878
0.015903386
0.015641596
0.015380679
0.015120803
0.01486213
0.014604817
0.014349016
0.014094873
0.013842528
0.013592116
0.013343764
0.013097592
0.012853718
0.012612247
0.012373284
0.012136924
0.011903256
0.011672365
0.011444328
0.011219218
0.010997101
0.01077804
0.010562091
0.010349307
0.010139734
0.0099334182
0.0097303981
0.009530714
0.0093344289
0.020858535
0.020620884
0.020380623
0.020137856
0.019892726
0.019645384
0.019395989
0.019144705
0.018891703
0.018637155
0.01838124
0.018124139
0.017866036
0.017607116
0.017347565
0.017087571
0.01682732
0.016566997
0.016306787
0.016046871
0.015787429
0.015528636
0.015270663
0.015013678
0.014757844
0.014503317
0.014250251
0.01399879
0.013749075
0.013501241
0.013255414
0.013011717
0.012770265
0.012531165
0.012294522
0.01206043
0.011828979
0.011600255
0.011374335
0.011151291
0.010931192
0.010714099
0.01050007
0.010289157
0.010081409
0.0098768708
0.0096755824
0.0094775847
0.0092829427
0.020660397
0.020427213
0.020191337
0.019952873
0.019711967
0.019468773
0.019223453
0.018976174
0.018727107
0.018476429
0.018224318
0.017970959
0.017716535
0.017461233
0.017205241
0.016948747
0.016691938
0.016435001
0.016178119
0.015921475
0.015665248
0.015409615
0.015154747
0.014900811
0.01464797
0.014396382
0.014146199
0.013897566
0.013650625
0.013405509
0.013162346
0.012921257
0.012682359
0.012445759
0.01221156
0.011979859
0.011750746
0.011524306
0.011300616
0.01107975
0.010861776
0.010646757
0.01043475
0.010225809
0.010019983
0.0098173169
0.0096178522
0.0094216305
0.0092287188
0.020452154
0.020223648
0.019992365
0.019758411
0.019521935
0.019283092
0.019042049
0.018798973
0.018554039
0.018307424
0.018059311
0.017809882
0.017559326
0.017307828
0.017055579
0.016802766
0.016549578
0.016296201
0.01604282
0.015789619
0.015536776
0.015284468
0.015032866
0.014782139
0.014532449
0.014283953
0.014036804
0.013791148
0.013547125
0.013304869
0.013064508
0.012826165
0.012589953
0.012355983
0.012124357
0.011895172
0.011668517
0.011444479
0.011223135
0.011004559
0.01078882
0.010575981
0.010366101
0.010159232
0.0099554263
0.009754728
0.00955718
0.009362825
0.0091717319
0.020233766
0.020010147
0.019783666
0.019554429
0.019322586
0.019088298
0.018851732
0.018613059
0.018372455
0.018130099
0.017886176
0.01764087
0.01739437
0.017146863
0.01689854
0.01664959
0.016400202
0.016150562
0.015900858
0.01565127
0.01540198
0.015153163
0.014904992
0.014657634
0.014411252
0.014166003
0.013922041
0.01367951
0.013438551
0.013199299
0.012961882
0.01272642
0.012493031
0.012261821
0.012032896
0.011806351
0.011582277
0.01136076
0.011141878
0.010925706
0.010712312
0.010501761
0.01029411
0.010089416
0.0098877283
0.0096890938
0.0094935561
0.0093011588
0.0091119733
0.020005267
0.019786741
0.019565266
0.01934095
0.019113943
0.018884411
0.018652522
0.018418449
0.018182371
0.017944469
0.017704928
0.017463935
0.017221679
0.016978349
0.016734137
0.016489231
0.016243822
0.015998097
0.015752242
0.01550644
0.015260872
0.015015713
0.014771135
0.014527308
0.014284392
0.014042546
0.013801922
0.013562666
0.013324918
0.013088813
0.012854479
0.012622037
0.012391603
0.012163286
0.011937189
0.01171341
0.011492039
0.011273162
0.011056858
0.010843203
0.010632264
0.010424107
0.010218791
0.010016371
0.0098169003
0.0096204254
0.009426991
0.0092366425
0.0090494536
0.01976677
0.019553538
0.01933727
0.019118074
0.018896102
0.018671523
0.018444506
0.018215229
0.01798387
0.017750613
0.017515645
0.017279153
0.017041327
0.016802359
0.016562439
0.016321758
0.016080506
0.015838871
0.015597039
0.015355193
0.015113514
0.014872178
0.014631357
0.014391219
0.014151926
0.013913637
0.013676503
0.01344067
0.013206278
0.012973462
0.012742351
0.012513064
0.012285719
0.012060425
0.011837284
0.011616395
0.011397848
0.01118173
0.010968119
0.010757092
0.010548717
0.01034306
0.010140181
0.0099401367
0.0097429794
0.0095487582
0.0093575192
0.0091693095
0.0089842057
0.019518482
0.019310739
0.019099872
0.018885988
0.018669245
0.01844981
0.018227858
0.018003565
0.017777115
0.017548691
0.01731848
0.017086674
0.016853461
0.016619035
0.016383586
0.016147306
0.015910386
0.015673012
0.015435373
0.015197651
0.014960026
0.014722675
0.014485771
0.01424948
0.014013965
0.013779383
0.013545888
0.013313624
0.013082731
0.012853345
0.012625593
0.012399597
0.012175472
0.011953328
0.011733269
0.011515392
0.011299788
0.011086544
0.01087574
0.010667451
0.010461747
0.010258694
0.010058353
0.009860781
0.009666032
0.0094741562
0.009285202
0.0090992192
0.0089162879
0.019260719
0.019058648
0.018853367
0.018644982
0.018433651
0.018219546
0.018002841
0.017783716
0.017562356
0.017338945
0.017113673
0.01688673
0.016658307
0.016428598
0.016197794
0.015966086
0.015733667
0.015500723
0.015267441
0.015034006
0.014800596
0.014567389
0.014334556
0.014102264
0.013870677
0.013639952
0.01341024
0.013181686
0.012954433
0.012728612
0.012504353
0.012281777
0.012061
0.011842132
0.011625276
0.011410529
0.011197985
0.010987728
0.01077984
0.010574396
0.010371467
0.010171119
0.0099734134
0.0097784082
0.0095861583
0.0093967158
0.0092101316
0.0090264599
0.0088457865
0.018993916
0.018797691
0.018598169
0.018395456
0.018189712
0.01798111
0.017769826
0.017556044
0.017339946
0.017121721
0.016901558
0.016679648
0.016456184
0.016231359
0.016005366
0.015778395
0.015550639
0.015322285
0.01509352
0.014864527
0.014635486
0.014406574
0.014177962
0.013949818
0.013722303
0.013495575
0.013269785
0.013045079
0.012821597
0.012599473
0.012378836
0.012159806
0.011942499
0.011727026
0.01151349
0.011301988
0.011092614
0.010885453
0.010680587
0.010478091
0.010278036
0.010080489
0.0098855119
0.0096931628
0.0095034976
0.00931657
0.0091324344
0.0089511515
0.0087728191
0.018718647
0.018528425
0.018334822
0.018137941
0.017937944
0.017735006
0.017529306
0.017321026
0.017110353
0.016897474
0.01668258
0.016465864
0.016247517
0.016027734
0.015806707
0.015584628
0.015361687
0.015138074
0.014913975
0.014689572
0.014465046
0.014240572
0.014016322
0.013792463
0.013569156
0.01334656
0.013124824
0.012904094
0.01268451
0.012466207
0.012249311
0.012033946
0.011820225
0.01160826
0.011398154
0.011190006
0.010983906
0.010779943
0.010578198
0.010378747
0.010181661
0.0099870058
0.0097948447
0.0096052357