/*--------------------------------*- C++ -*----------------------------------*\
| =========                 |                                                 |
| \\      /  F ield         | OpenFOAM: The Open Source CFD Toolbox           |
|  \\    /   O peration     | Version:  2312                                  |
|   \\  /    A nd           | Website:  www.openfoam.com                      |
|    \\/     M anipulation  |                                                 |
\*---------------------------------------------------------------------------*/
FoamFile
{
    version     2.0;
    format      ascii;
    arch        "LSB;label=32;scalar=64";
    class       volScalarField;
    location    "0.1";
    object      k;
}
// * * * * * * * * * * * * * * * * * * * * * * * * * * * * * * * * * * * * * //

dimensions      [0 2 -2 0 0 0 0];

internalField   nonuniform List<scalar> 
3251
(
11.155001
11.058214
10.963772
10.871625
10.781724
10.694026
10.608488
10.525071
10.443739
10.364457
10.287194
10.211921
10.138611
10.067239
9.9977824
9.9302199
9.8645324
9.8007019
9.7387119
9.6785468
9.6201918
9.5636331
9.5088569
9.4558499
9.4045987
9.35509
9.3073098
9.2612437
9.2168766
9.1741926
9.1331747
9.0938048
9.0560638
9.0199308
8.985384
8.9523999
8.9209536
8.8910187
8.8625673
8.8355701
8.8099963
8.7858136
8.7629887
8.7414867
8.7212716
8.7023065
8.684553
8.6679717
8.6525222
8.6381624
8.6248485
8.6125273
8.6011372
8.5906514
8.5810468
8.5722822
8.5643137
8.5570975
11.154533
11.05777
10.96335
10.871224
10.781343
10.693664
10.608145
10.524746
10.44343
10.364165
10.286918
10.21166
10.138365
10.067007
9.9975635
9.9300139
9.8643387
9.80052
9.7385412
9.6783869
9.6200423
9.5634933
9.5087265
9.4557284
9.4044858
9.3549851
9.3072125
9.2611536
9.2167934
9.1741157
9.1331039
9.0937396
9.0560038
9.0198756
8.9853333
8.9523533
8.9209107
8.8909792
8.8625309
8.8355364
8.8099649
8.7857842
8.7629609
8.7414602
8.721246
8.7022812
8.6845276
8.6679455
8.6524945
8.6381324
8.6248153
8.6124918
8.6011086
8.5906333
8.581036
8.5722764
8.5643102
8.5570927
11.153608
11.05689
10.962515
10.870431
10.780591
10.69295
10.607468
10.524105
10.442824
10.363592
10.286377
10.211149
10.137883
10.066553
9.9971362
9.9296123
9.8639618
9.8001667
9.7382106
9.6780779
9.619754
9.5632248
9.5084768
9.4554967
9.4042712
9.3547868
9.3070297
9.2609854
9.216639
9.1739744
9.1329749
9.0936222
9.0558972
9.0197793
8.9852464
8.9522752
8.9208408
8.8909168
8.8624753
8.835487
8.8099212
8.7857456
8.7629268
8.74143
8.7212191
8.7022569
8.6845052
8.6679244
8.6524738
8.6381115
8.6247935
8.6124707
8.6010945
8.590629
8.5810399
8.5722865
8.5643241
8.5571113
11.152226
11.055577
10.961268
10.869247
10.779467
10.691885
10.606459
10.523149
10.44192
10.362737
10.285569
10.210388
10.137165
10.065877
9.9965007
9.9290154
9.8634019
9.7996423
9.7377201
9.6776199
9.619327
9.5628275
9.5081079
9.4551548
9.403955
9.3544951
9.3067612
9.260739
9.2164135
9.1737688
9.1327879
9.0934528
9.0557443
9.0196418
8.9851235
8.9521657
8.9207439
8.8908315
8.8624007
8.8354223
8.8098654
8.785698
8.7628865
8.7413962
8.721191
8.7022338
8.6844861
8.6679086
8.6524605
8.6381
8.6247834
8.6124638
8.6010951
8.5906392
8.581059
8.5723128
8.5643559
8.5571586
11.150388
11.053831
10.959609
10.867672
10.777974
10.690469
10.605117
10.521879
10.440719
10.361602
10.284497
10.209376
10.136212
10.06498
9.9956575
9.9282237
9.8626595
9.7989472
9.7370703
9.6770134
9.6187619
9.562302
9.5076202
9.4547031
9.4035377
9.3541104
9.3064076
9.2604149
9.2161174
9.1734991
9.1325432
9.0932317
9.0555454
9.0194637
8.9849648
8.9520253
8.9206204
8.8907238
8.8623076
8.8353426
8.8097981
8.7856419
8.7628407
8.7413595
8.7211625
8.7022125
8.6844711
8.6678989
8.6524554
8.6380987
8.6247859
8.6124714
8.6011109
8.590665
8.5810944
8.5723561
8.5644044
11.148226
11.051777
10.957659
10.865821
10.776217
10.688804
10.60354
10.520386
10.439307
10.360268
10.283238
10.208188
10.135093
10.063927
9.9946673
9.9272942
9.8617881
9.7981315
9.7363079
9.676302
9.6180994
9.5616861
9.5070488
9.4541742
9.4030493
9.3536606
9.3059944
9.2600365
9.2157719
9.1731849
9.1322585
9.0929748
9.0553148
9.0192578
8.984782
8.9518641
8.9204794
8.8906015
8.8622027
8.8352538
8.8097241
8.7855815
8.7627926
8.7413227
8.7211358
8.7021948
8.6844614
8.6678963
8.6524589
8.6381078
8.6248004
8.6124925
8.6011407
8.5907047
8.5811439
8.5724133
8.5644606
11.145808
11.049479
10.955476
10.863749
10.774253
10.686942
10.601776
10.518717
10.437727
10.358775
10.281829
10.20686
10.133841
10.062749
9.9935603
9.9262551
9.8608141
9.7972198
9.735456
9.6755072
9.6173593
9.5609982
9.5064108
9.4535839
9.4025043
9.3531588
9.3055337
9.2596148
9.2153873
9.1728352
9.131942
9.0926896
9.055059
9.0190298
8.98458
8.9516864
8.9203244
8.8904677
8.8620886
8.8351579
8.8096449
8.7855178
8.762743
8.7412859
8.7211107
8.7021801
8.6844561
8.6678992
8.6524694
8.6381252
8.6248246
8.6125243
8.6011816
8.5907556
8.5812047
8.5724821
8.5645328
11.142943
11.046757
10.952891
10.861296
10.771925
10.684736
10.599686
10.516739
10.435857
10.357008
10.280161
10.205287
10.132359
10.061354
9.9922498
9.9250251
9.8596613
9.796141
9.7344479
9.6745669
9.6164838
9.5601847
9.5056564
9.4528859
9.4018602
9.3525659
9.3049895
9.259117
9.2149333
9.1724229
9.131569
9.0923538
9.0547582
9.0187619
8.9843431
8.9514785
8.9201435
8.8903121
8.8619564
8.8350474
8.8095546
8.7854459
8.7626881
8.7412465
8.7210853
8.7021675
8.6844549
8.6679085
8.652488
8.6381526
8.6248604
8.6125693
8.6012369
8.5908219
8.5812819
8.5725693
8.5646323
11.1396
11.04358
10.949874
10.858433
10.769209
10.682161
10.597248
10.514431
10.433675
10.354946
10.278214
10.203451
10.13063
10.059728
9.9907212
9.9235904
9.8583168
9.7948828
9.7332724
9.6734706
9.6154631
9.5592364
9.5047772
9.4520726
9.4011097
9.3518753
9.3043559
9.2585374
9.2144051
9.1719434
9.1311355
9.0919637
9.0544091
9.0184513
8.9840687
8.9512381
8.9199349
8.890133
8.8618049
8.8349214
8.8094522
8.7853653
8.7626275
8.7412043
8.7210598
8.7021572
8.6844584
8.6679245
8.6525154
8.6381906
8.6249088
8.6126283
8.6013076
8.5909047
8.5813764
8.5726757
11.135745
11.039916
10.946395
10.855131
10.766077
10.679193
10.594436
10.51177
10.431158
10.352569
10.27597
10.201335
10.128637
10.057852
9.9889588
9.9219365
9.8567668
9.7934324
9.7319175
9.672207
9.6142868
9.5581436
9.5037642
9.4511357
9.4002453
9.35108
9.3036263
9.2578703
9.2137973
9.1713917
9.130637
9.0915154
9.0540082
9.018095
8.9837543
8.9509629
8.9196964
8.8899288
8.8616326
8.8347788
8.8093371
8.7852755
8.762561
8.7411592
8.7210343
8.7021495
8.684467
8.6679478
8.6525523
8.6382401
8.6249704
8.6127023
8.6013945
8.5910046
8.5814889
8.5727994
11.131341
11.035732
10.942422
10.851359
10.7625
10.675802
10.591225
10.508731
10.428284
10.349853
10.273407
10.198918
10.12636
10.05571
9.9869463
9.9200479
9.854997
9.7917765
9.7303705
9.6707643
9.612944
9.5568962
9.5026079
9.4500664
9.3992589
9.3501726
9.302794
9.2571094
9.2131042
9.1707628
9.1300689
9.0910048
9.0535517
9.0176896
8.9833968
8.9506504
8.9194261
8.8896978
8.8614382
8.8346184
8.8092082
8.7851758
8.7624882
8.741111
8.7210087
8.7021446
8.6844809
8.667979
8.6525992
8.6383017
8.6250461
8.612792
8.6014984
8.5911226
8.5816198
11.126353
11.030992
10.93792
10.847087
10.758448
10.671961
10.587587
10.505287
10.425028
10.346777
10.270503
10.19618
10.123782
10.053284
9.9846665
9.9179085
9.8529922
9.7899006
9.7286182
9.6691303
9.6114231
9.5554834
9.5012983
9.4488554
9.3981419
9.3491451
9.3018518
9.2562482
9.2123198
9.1700513
9.1294263
9.0904274
9.0530358
9.0172316
8.9829933
8.950298
8.9191215
8.8894379
8.86122
8.8344389
8.8090646
8.7850654
8.7624084
8.7410594
8.720983
8.7021426
8.6845007
8.6680185
8.652657
8.6383763
8.6251367
8.6128981
8.6016202
8.5912591
8.581768
11.120741
11.025659
10.932855
10.84228
10.753888
10.667639
10.583493
10.501413
10.421365
10.343315
10.267236
10.193099
10.12088
10.050554
9.9821012
9.9155013
9.8507364
9.78779
9.7266466
9.6672918
9.6097119
9.5538939
9.4998251
9.4474931
9.3968855
9.3479895
9.3007921
9.2552796
9.2114378
9.1692513
9.1287041
9.0897786
9.0524563
9.0167174
8.9825405
8.9499028
8.9187803
8.8891471
8.8609762
8.834239
8.8089052
8.7849436
8.7623213
8.7410043
8.7209573
8.7021438
8.6845266
8.6680671
8.6527263
8.6384647
8.6252428
8.6130215
8.6017604
8.5914152
11.114463
11.019694
10.92719
10.836902
10.748788
10.662805
10.578914
10.497079
10.417266
10.339443
10.263581
10.189653
10.117634
10.0475
9.9792315
9.9128083
9.8482129
9.7854289
9.724441
9.6652351
9.6077976
9.5521158
9.4981771
9.4459693
9.3954801
9.3466969
9.2996068
9.2541964
9.2104515
9.1683569
9.1278967
9.0890534
9.0518088
9.016143
8.9820349
8.9494619
8.9183999
8.8888233
8.8607052
8.8340171
8.8087289
8.7848096
8.7622263
8.7409453
8.7209314
8.7021484
8.684559
8.6681252
8.6528078
8.6385675
8.6253654
8.6131626
8.6019196
8.5915899
11.107478
11.013056
10.920885
10.830918
10.743112
10.657424
10.573818
10.492256
10.412705
10.335134
10.259514
10.185817
10.114021
10.044101
9.9760374
9.909811
9.8454041
9.7828008
9.7219861
9.6629458
9.6056669
9.5501366
9.4963428
9.4442732
9.3939158
9.3452582
9.2982877
9.2529909
9.2093539
9.1673617
9.1269983
9.0882468
9.0510887
9.0155044
8.981473
8.948972
8.9179775
8.8884641
8.8604049
8.8337717
8.8085345
8.7846624
8.7621228
8.740882
8.7209052
8.7021564
8.6845985
8.6681934
8.6529022
8.6386858
8.6255051
8.613322
8.6020987
11.09974
11.005702
10.913901
10.824289
10.736823
10.651464
10.568172
10.486912
10.407651
10.330359
10.255006
10.181567
10.110017
10.040334
9.9724981
9.9064895
9.8422916
9.7798885
9.7192655
9.6604089
9.6033056
9.5479433
9.4943099
9.4423935
9.3921822
9.3436638
9.2968258
9.251655
9.2081376
9.1662589
9.126003
9.0873531
9.0502909
9.0147972
8.9808509
8.9484299
8.9175104
8.8880671
8.8600734
8.8335011
8.8083206
8.784501
8.76201
8.7408141
8.7208787
8.702168
8.6846452
8.6682723
8.6530105
8.6388204
8.6256628
8.6134999
8.6022965
11.091203
10.997589
10.906196
10.816975
10.729885
10.644887
10.561942
10.481015
10.402075
10.32509
10.250033
10.176877
10.105599
10.036177
9.9685917
9.9028236
9.8388561
9.7766739
9.7162625
9.6576085
9.600699
9.545522
9.4920657
9.4403183
9.3902683
9.3419035
9.2952118
9.2501801
9.2067949
9.1650414
9.1249042
9.0863666
9.0494105
9.0140167
8.9801645
8.9478319
8.9169953
8.8876296
8.8597083
8.8332035
8.8080858
8.7843244
8.7618873
8.7407412
8.7208517
8.7021834
8.6846995
8.6683625
8.6531334
8.6389723
8.6258393
8.6136965
11.08182
10.988672
10.897725
10.808934
10.722258
10.637656
10.555092
10.474532
10.395943
10.319296
10.244563
10.171719
10.100741
10.031606
9.9642955
9.8987916
9.8350775
9.7731381
9.7129593
9.654528
9.5978316
9.5428584
9.4895967
9.4380353
9.3881625
9.3399668
9.293436
9.2485573
9.2053174
9.1637018
9.1236952
9.0852811
9.0484417
9.013158
8.9794095
8.9471742
8.916429
8.8871488
8.8593074
8.832877
8.8078285
8.7841313
8.7617537
8.7406626
8.7208239
8.7022024
8.6847619
8.6684647
8.653272
8.6391428
8.6260356
8.6139094
11.071539
10.978901
10.888444
10.800124
10.713899
10.629732
10.547585
10.467426
10.389223
10.312946
10.238568
10.166066
10.095415
10.026594
9.9595858
9.8943713
9.8309348
9.7692614
9.7093375
9.6511501
9.5946873
9.5399373
9.4868891
9.4355313
9.385853
9.3378425
9.291488
9.2467771
9.2036965
9.1622321
9.1223688
9.0840902
9.0473789
9.012216
8.9785812
8.9464529
8.9158079
8.8866216
8.858868
8.8325195
8.8075471
8.7839206
8.7616085
8.7405779
8.7207951
8.7022252
8.6848323
8.6685794
8.6534271
8.6393333
8.626254
8.6141499
11.060311
10.968228
10.878306
10.790499
10.704768
10.621075
10.539384
10.459662
10.38188
10.306007
10.232017
10.159887
10.089594
10.021117
9.9544379
9.8895395
9.8264061
9.7650233
9.7053777
9.6474569
9.5912491
9.5367431
9.483928
9.4327929
9.3833268
9.3355188
9.2893571
9.2448295
9.2019232
9.1606241
9.1209174
9.0827871
9.0462159
9.0111851
8.9776748
8.9456636
8.9151284
8.886045
8.8583875
8.8321287
8.8072398
8.7836908
8.7614504
8.7404862
8.7207647
8.7022515
8.6849111
8.6687069
8.6535997
8.6395455
8.6264973
8.6144239
11.04808
10.956602
10.867262
10.780014
10.69482
10.611642
10.530447
10.451203
10.373877
10.298444
10.224877
10.153153
10.083249
10.015146
9.948826
9.8842718
9.8214686
9.7604022
9.7010598
9.6434294
9.5874995
9.5332593
9.4806981
9.4298056
9.380571
9.3329836
9.287032
9.2427043
9.1999879
9.158869
9.1193332
9.0813646
9.0449462
9.0100597
8.9766852
8.9448017
8.9143865
8.8854154
8.857863
8.8317022
8.8069045
8.7834402
8.7612783
8.7403868
8.7207323
8.7022811
8.6849981
8.6688475
8.6537908
8.6397812
8.6267666
11.034792
10.943972
10.855262
10.76862
10.684009
10.601392
10.520735
10.442008
10.365179
10.290224
10.217116
10.145832
10.076351
10.008654
9.9427235
9.8785433
9.8160986
9.755376
9.696363
9.639048
9.5834201
9.5294687
9.4771835
9.4265546
9.3775716
9.330224
9.2845008
9.2403905
9.1978806
9.1569578
9.1176078
9.0798151
9.043563
9.0088334
8.9756068
8.9438625
8.9135779
8.8847292
8.8572913
8.8312373
8.8065391
8.7831672
8.761091
8.7402786
8.7206973
8.7023135
8.6850929
8.6690009
8.6540008
8.6400429
8.6270592
11.020391
10.930282
10.842255
10.756269
10.672289
10.590279
10.510205
10.432037
10.355747
10.281309
10.208697
10.137891
10.068868
10.001611
9.9361029
9.8723278
9.8102717
9.7499217
9.6912657
9.6342925
9.5789918
9.5253535
9.4733676
9.4230245
9.3743142
9.3272267
9.2817513
9.2378766
9.1955907
9.1548807
9.1157323
9.0781306
9.042059
9.0074998
8.9744339
8.9428406
8.912698
8.8839824
8.856669
8.8307312
8.8061412
8.7828699
8.7608869
8.7401607
8.7206589
8.7023482
8.6851949
8.669166
8.6542299
11.004819
10.915477
10.828188
10.742911
10.659613
10.578257
10.498813
10.42125
10.345542
10.271662
10.199588
10.129296
10.060769
9.9939876
9.9289358
9.8655986
9.8039626
9.7440152
9.6857452
9.6291418
9.5741949
9.5208951
9.4692329
9.4191989
9.3707838
9.3239777
9.2787703
9.2351508
9.1931074
9.1526276
9.1136976
9.0763026
9.0404266
9.0060521
8.9731602
8.9417308
8.911742
8.8831708
8.8559924
8.8301807
8.8057082
8.7825462
8.7606644
8.7400317
8.720616
8.7023843
8.6853031
8.6693403
10.988017
10.899502
10.813007
10.728495
10.64593
10.565281
10.486515
10.409605
10.334523
10.261246
10.18975
10.120014
10.052021
9.9857523
9.9211927
9.8583278
9.7971449
9.737632
9.6797784
9.6235738
9.5690089
9.5160744
9.4647615
9.4150613
9.3669647
9.3204623
9.2755444
9.2322004
9.190419
9.1501879
9.1114938
9.0743224
9.0386577
9.0044828
8.9717792
8.940527
8.9107048
8.8822897
8.8552576
8.8295825
8.8052374
8.7821936
8.7604216
8.7398903
8.7205679
8.7024213
8.6854165
8.6695195
11.059579
10.969925
10.882299
10.796658
10.712967
10.631192
10.551302
10.473266
10.397057
10.322649
10.25002
10.179146
10.110009
10.04259
9.9768734
9.9128435
9.850487
9.7897917
9.7307466
9.6733412
9.6175662
9.5634124
9.5108714
9.4599347
9.410594
9.3628405
9.3166655
9.2720596
9.2290125
9.1875134
9.1475505
9.1091109
9.0721804
9.0367438
9.0027843
8.9702839
8.939223
8.9095807
8.8813344
8.8544603
8.8289329
8.8047254
8.7818098
8.7601565
8.739735
8.7205134
8.7024587
8.6855359
8.6697116
11.039147
10.950484
10.863811
10.779086
10.696276
10.615348
10.536272
10.459019
10.383563
10.309879
10.237945
10.16774
10.099245
10.032443
9.9673183
9.9038572
9.8420468
9.7818754
9.7233327
9.6664091
9.6110955
9.5573837
9.5052656
9.4547333
9.405779
9.3583945
9.3125715
9.268301
9.2255734
9.1843781
9.1447038
9.106538
9.069867
9.0346759
9.0009484
8.9686669
8.9378122
8.9083637
8.8802995
8.8535958
8.8282278
8.8041691
8.7813917
8.7598668
8.7395638
8.7204513
8.7024961
8.6856627
8.6699193
11.017235
10.929633
10.843979
10.760235
10.678368
10.598346
10.520142
10.443728
10.369078
10.296169
10.22498
10.155491
10.087684
10.021543
9.9570538
9.8942024
9.8329773
9.7733677
9.7153637
9.6589565
9.6041379
9.5509001
9.4992356
9.4491372
9.4005976
9.3536092
9.308164
9.2642536
9.2218689
9.1809998
9.1416355
9.1037639
9.0673717
9.0324445
8.9989664
8.9669203
8.9362875
8.9070477
8.8791793
8.8526593
8.827463
8.8035645
8.7809363
8.7595498
8.739375
8.7203804
8.7025331
8.6857975
8.6701433
10.99378
10.90731
10.822745
10.740048
10.659189
10.580136
10.502864
10.427345
10.353557
10.281477
10.211084
10.142361
10.07529
10.009856
9.9460459
9.8838469
9.8232481
9.7642394
9.706812
9.6509577
9.5966689
9.5439385
9.4927598
9.4431261
9.3950306
9.3484663
9.3034259
9.2599014
9.2178843
9.1773649
9.1383329
9.1007768
9.0646837
9.0300396
8.9968293
8.9650359
8.9346412
8.9056256
8.8779678
8.8516452
8.8266336
8.8029076
8.78044
8.7592027
8.739166
8.7202989
8.7025685
8.6859397
8.6703836
10.968719
10.883455
10.800051
10.718471
10.638685
10.560666
10.484387
10.409825
10.336955
10.265759
10.196216
10.12831
10.062025
9.9973456
9.9342606
9.8727581
9.812828
9.7544613
9.6976498
9.642386
9.5886633
9.5364753
9.4858157
9.4366787
9.389058
9.3429473
9.2983398
9.2552282
9.2136042
9.1734591
9.1347828
9.0975644
9.0617916
9.0274508
8.9945273
8.9630048
8.9328655
8.9040902
8.8766584
8.8505476
8.8257345
8.8021937
8.7798989
8.7588222
8.7389343
8.7202047
8.7026009
8.6860884
8.6706392
10.941991
10.85801
10.775841
10.695448
10.616805
10.539885
10.464664
10.391118
10.319228
10.248972
10.180335
10.113299
10.04785
9.9839754
9.9216632
9.860903
9.8016858
9.7440035
9.6878486
9.6332147
9.5800958
9.5284862
9.4783806
9.4297735
9.3826596
9.3370331
9.2928877
9.2502169
9.2090129
9.1692676
9.1309714
9.0941139
9.0586834
9.024667
8.9920503
8.9608176
8.9309516
8.9024338
8.8752439
8.8493603
8.8247599
8.801418
8.7793086
8.7584044
8.7386767
8.7200953
8.7026282
8.6862417
8.6709088
10.913536
10.830916
10.750057
10.670925
10.593495
10.517742
10.443644
10.37118
10.300329
10.231074
10.163399
10.097288
10.032729
9.9697096
9.9082192
9.8482488
9.7897901
9.7328359
9.67738
9.6234166
9.5709404
9.5199468
9.4704311
9.4223885
9.3758145
9.3307039
9.2870511
9.2448501
9.204094
9.1647749
9.1268842
9.0904118
9.0553467
9.0216766
8.9893875
8.9584644
8.9288906
8.900648
8.8737169
8.8480764
8.8237037
8.8005748
8.7786642
8.7579452
8.7383896
8.7199676
8.702648
8.6863976
8.6711906
10.883296
10.802117
10.722646
10.644849
10.568705
10.49419
10.421283
10.349964
10.280216
10.212022
10.145368
10.080239
10.016624
9.954512
9.8938943
9.8347624
9.7771092
9.7209287
9.6662152
9.6129642
9.5611712
9.5108323
9.4619437
9.4145014
9.3685016
9.3239397
9.2808111
9.2391101
9.1988306
9.1599654
9.1225064
9.0864443
9.0517686
9.0184674
8.9865277
8.9559348
8.9266727
8.8987239
8.8720692
8.8466883
8.8225591
8.7996581
8.7779604
8.7574398
8.7380687
8.719818
8.7026571
8.6865535
8.6714823
10.851215
10.77156
10.693555
10.617171
10.542386
10.46918
10.397532
10.327427
10.258846
10.191775
10.126201
10.062112
9.9994974
9.9383475
9.8786545
9.8204114
9.7636121
9.7082517
9.6543257
9.6018302
9.5507619
9.5011178
9.4528947
9.4060896
9.3606994
9.3167203
9.2741482
9.2329785
9.1932055
9.1548227
9.1178228
9.0821969
9.0479354
9.0150269
8.9834591
8.9532178
8.9242878
8.896652
8.8702921
8.8451882
8.8213189
8.7986613
8.7771911
8.7568828
8.7377093
8.7196423
8.7026517
8.686706
8.6717811
10.817243
10.739193
10.662735
10.587841
10.514491
10.442667
10.37235
10.303525
10.236177
10.170293
10.105862
10.042872
9.9813144
9.9211816
9.8624666
9.8051637
9.749268
9.6947756
9.641683
9.5899876
9.5396868
9.4907784
9.4432604
9.3971305
9.3523863
9.3090249
9.2670431
9.2264368
9.187201
9.1493302
9.1128175
9.0776548
9.0438332
9.0113419
8.9801693
8.9503019
8.921725
8.8944224
8.8683763
8.8435674
8.8199751
8.797577
8.7763497
8.7562682
8.737306
8.7194356
8.7026276
8.6868513
8.6720835
10.781331
10.704972
10.630143
10.556818
10.484979
10.41461
10.345694
10.278219
10.212172
10.147539
10.084312
10.022482
9.9620404
9.9029811
9.8452986
9.7889885
9.7340471
9.6804716
9.6282597
9.5774096
9.52792
9.4797896
9.4330172
9.3876014
9.3435408
9.3008331
9.259476
9.2194662
9.1807995
9.1434709
9.1074744
9.0728028
9.0394475
9.0073988
8.9766454
8.9471749
8.918973
8.8920244
8.8663118
8.8418167
8.8185191
8.7963975
8.775429
8.7555893
8.7368528
8.7191924
8.7025797
8.6869848
8.6723854
10.743439
10.668854
10.595736
10.524059
10.453809
10.38497
10.317529
10.251473
10.186793
10.123478
10.061519
10.00091
9.9416431
9.8837146
9.82712
9.7718561
9.7179207
9.6653119
9.6140287
9.5640705
9.5154368
9.4681274
9.422142
9.3774803
9.3341415
9.2921244
9.2514274
9.2120479
9.1739828
9.1372277
9.1017773
9.0676252
9.0347636
9.0031834
8.9728743
8.9438243
8.91602
8.8894468
8.8640881
8.8399262
8.8169418
8.7951141
8.774421
8.7548388
8.7363427
8.7189064
8.7025023
8.6871012
8.6726819
10.703531
10.630807
10.559481
10.489532
10.420947
10.353713
10.287819
10.223254
10.160009
10.098077
10.037451
9.978124
9.9200926
9.8633529
9.8079023
9.753739
9.7008618
9.6492704
9.5989648
9.5499455
9.5022132
9.4557686
9.4106125
9.3667454
9.3241675
9.2828786
9.2428778
9.2041634
9.1667331
9.1305834
9.0957097
9.0621064
9.0297664
8.9986816
8.9688422
8.9402371
8.9128537
8.8866779
8.8616943
8.8378856
8.8152334
8.7937177
8.7733169
8.7540085
8.7357682
8.7185706
8.7023888
8.6871945
8.6729676
10.661582
10.590801
10.52135
10.453209
10.386366
10.320812
10.256537
10.193533
10.131793
10.07131
10.01208
9.9540984
9.8973625
9.84187
9.7876199
9.7346117
9.6828457
9.6323228
9.5830442
9.5350115
9.4882266
9.4426912
9.3984071
9.3553759
9.3135987
9.2730761
9.2338083
9.1957944
9.1590328
9.123521
9.0892552
9.0562305
9.0244408
8.9938787
8.9645351
8.9363999
8.9094612
8.8837057
8.8591187
8.8356838
8.8133834
8.7921982
8.7721076
8.7530896
8.7351211
8.7181772
8.7022319
8.6872579
8.6732359
10.617574
10.54882
10.481324
10.415069
10.350046
10.286246
10.223662
10.162289
10.102121
10.043154
9.9853844
9.9288102
9.87343
9.8192432
9.7662503
9.7144521
9.6638505
9.6144474
9.5662455
9.5192474
9.4734563
9.4288749
9.3855061
9.3433524
9.302416
9.2626985
9.2242008
9.1869231
9.1508647
9.1160238
9.0823976
9.049982
9.0187717
8.9887601
8.9599391
8.9322992
8.9058295
8.8805175
8.8563492
8.8333093
8.8113807
8.7905452
8.7707829
8.7520727
8.7343922
8.7177175
8.7020234
8.6872835
8.6734796
10.571499
10.504854
10.439393
10.375101
10.311972
10.25
10.189179
10.129507
10.070978
10.013592
9.9573469
9.9022419
9.8482774
9.7954545
9.7437752
9.6932419
9.6438576
9.5956258
9.5485502
9.5026349
9.457884
9.4143016
9.3718914
9.3306572
9.290602
9.2517285
9.2140384
9.1775331
9.1422125
9.1080759
9.0751213
9.0433456
9.0127442
8.9833114
8.95504
8.9279214
8.9019454
8.8771005
8.8533736
8.8307501
8.8092139
8.7887476
8.7693322
8.7509474
8.7335718
8.7171823
8.7017545
8.6872629
8.6736905
10.523366
10.458908
10.395558
10.333305
10.272144
10.212071
10.153083
10.095179
10.038356
9.9826157
9.9279573
9.8743823
9.8218928
9.7704915
9.7201817
9.6709674
9.6228531
9.5758435
9.5299437
9.485159
9.4414947
9.398956
9.3575478
9.3172749
9.2781413
9.2401507
9.2033059
9.1676091
9.1330613
9.0996625
9.0674118
9.0363068
9.0063441
8.9775186
8.9498242
8.923253
8.8977958
8.873442
8.8501793
8.8279941
8.8068711
8.7867938
8.7677443
8.749703
8.7326494
8.7165613
8.7014153
8.6871869
8.6738598
10.473193
10.410998
10.349835
10.289693
10.230571
10.172466
10.115378
10.059308
10.004256
9.9502236
9.8972133
9.845228
9.7942715
9.7443481
9.6954627
9.6476207
9.6008281
9.555091
9.5104158
9.466809
9.4242771
9.3828265
9.3424632
9.3031931
9.2650212
9.2279523
9.1919902
9.157138
9.1233976
9.0907702
9.0592556
9.0288524
8.9995581
8.9713685
8.9442785
8.918281
8.8933679
8.8695292
8.8467538
8.8250289
8.8043402
8.7846721
8.7660076
8.7483281
8.731614
8.715844
8.7009956
8.6870452
8.6739775
10.42102
10.361159
10.302253
10.244291
10.187275
10.131204
10.076082
10.021909
9.9686893
9.9164257
9.8651226
9.8147846
9.7654172
9.7170264
9.6696187
9.623201
9.5777806
9.533365
9.4899621
9.4475794
9.4062249
9.3659059
9.3266297
9.2884032
9.2512326
9.2151236
9.1800811
9.1461091
9.1132106
9.0813877
9.0506411
9.0209706
8.9923742
8.9648491
8.9383908
8.9129933
8.8886493
8.8653499
8.8430849
8.8218424
8.8016092
8.7823705
8.7641103
8.746811
8.730454
8.715019
8.7004843
8.6868272
8.6740334
10.366902
10.309443
10.252858
10.197141
10.142294
10.088321
10.035225
9.9830096
9.9316807
9.8812435
9.8317037
9.783068
9.7353436
9.6885379
9.6426591
9.5977156
9.5537161
9.5106695
9.4685848
9.4274712
9.3873375
9.3481924
9.3100444
9.2729013
9.2367706
9.2016588
9.1675721
9.1345152
9.1024924
9.0715066
9.0415595
9.0126518
8.9847827
8.95795
8.9321504
8.9073789
8.883629
8.8608928
8.8391612
8.8184231
8.7986663
8.7798771
8.7620404
8.7451399
8.7291576
8.7140745
8.6998698
8.6865217
8.6740168
10.310919
10.255922
10.201719
10.148306
10.095687
10.043868
9.9928542
9.9426526
9.8932695
9.8447123
9.7969887
9.7501071
9.7040762
9.6589053
9.6146039
9.571182
9.5286496
9.4870171
9.4462948
9.406493
9.3676219
9.3296914
9.2927109
9.2566896
9.2216358
9.1875574
9.1544613
9.1223534
9.091239
9.0611219
9.0320049
9.0038895
8.976776
8.9506633
8.9255489
8.9014287
8.8782973
8.8561479
8.8349721
8.81476
8.7955004
8.7771806
8.7597865
8.7433028
8.7277128
8.7129985
8.6991401
8.6861173
8.6739175
10.253173
10.200692
10.148924
10.097867
10.047529
9.9979163
9.949037
9.9008993
9.8535119
9.806884
9.7610251
9.7159452
9.6716547
9.6281645
9.5854856
9.5436294
9.5026073
9.4624312
9.4231125
9.3846629
9.3470937
9.310416
9.2746404
9.2397771
9.2058356
9.1728248
9.1407526
9.1096261
9.0794513
9.0502332
9.0219756
8.9946809
8.9683505
8.9429842
8.9185803
8.8951361
8.8726469
8.851107
8.8305089
8.8108439
8.7921016
8.7742705
8.7573376
8.7412885
8.7261078
8.7117787
8.698283
8.6856019
8.6737251
10.193798
10.143877
10.09459
10.045935
9.9979226
9.9505612
9.9038608
9.8578316
9.8124841
9.7678292
9.7238782
9.6806428
9.6381349
9.5963668
9.5553512
9.5151009
9.4756286
9.4369474
9.3990703
9.3620099
9.3257789
9.2903894
9.2558533
9.2221818
9.1893855
9.1574743
9.1264571
9.0963422
9.0671364
9.0388458
9.0114752
8.9850281
8.9595066
8.9349117
8.9112427
8.8884978
8.8666734
8.8457647
8.8257653
8.8066675
8.7884619
8.771138
8.7546839
8.7390863
8.7243311
8.7104028
8.6972855
8.6849638
10.132957
10.085632
10.038861
9.9926457
9.9469956
9.9019227
9.8574386
9.8135553
9.7702851
9.7276405
9.6856345
9.6442803
9.6035915
9.5635818
9.5242652
9.485656
9.4477683
9.4106164
9.3742144
9.3385764
9.3037161
9.2696467
9.2363813
9.203932
9.1723107
9.1415282
9.1115944
9.0825187
9.0543089
9.026972
9.0005139
8.9749389
8.9502504
8.9264501
8.9035386
8.8815147
8.8603762
8.840119
8.820738
8.8022262
8.7845755
8.7677762
8.7518176
8.7366873
8.7223723
8.708859
8.6961357
10.07085
10.026146
9.9819178
9.9381674
9.8949075
9.8521512
9.8099121
9.7682038
9.7270402
9.6864355
9.6464043
9.6069612
9.5681213
9.5298997
9.4923119
9.4553733
9.4190994
9.3835058
9.3486077
9.3144203
9.2809585
9.2482368
9.216269
9.1850686
9.1546482
9.1250199
9.0961946
9.0681824
9.0409924
9.0146325
8.9891096
8.9644289
8.9405948
8.9176102
8.8954763
8.8741933
8.8537597
8.8341726
8.8154278
8.7975193
8.7804401
8.7641815
8.7487336
8.734085
8.7202235
8.7071368
10.007718
9.965648
9.9239757
9.8827061
9.8418528
9.8014309
9.7614554
9.7219415
9.6829048
9.6443609
9.6063257
9.5688155
9.5318466
9.4954355
9.4595989
9.4243536
9.3897163
9.3557036
9.322332
9.2896178
9.257577
9.226225
9.1955769
9.165647
9.1364491
9.1079961
9.0803
9.0533718
9.0272217
9.0018585
8.9772899
8.9535225
8.9305613
8.9084101
8.8870715
8.8665464
8.8468344
8.8279336
8.8098407
8.7925509
8.776058
8.7603543
8.7454309
8.7312773
8.7178823
8.705239
9.9438469
9.9044097
9.8652947
9.8265084
9.7880662
9.7499845
9.7122799
9.674969
9.6380687
9.6015962
9.5655687
9.5300037
9.4949188
9.4603319
9.4262608
9.3927234
9.3597376
9.3273212
9.2954917
9.2642664
9.2336624
9.2036961
9.1743836
9.1457403
9.1177808
9.0905189
9.0639678
9.0381393
9.0130445
8.9886933
8.9650942
8.9422548
8.9201811
8.898878
8.8783487
8.8585954
8.8396186
8.8214173
8.8039894
8.7873309
8.7714367
8.7563001
8.7419131
8.7282661
8.715349
8.7031585
9.8795756
9.8427544
9.8061826
9.769868
9.7338273
9.6980784
9.662639
9.6275271
9.592761
9.5583589
9.5243395
9.4907212
9.4575231
9.424764
9.3924629
9.3606387
9.3293105
9.298497
9.2682168
9.2384882
9.2093292
9.1807573
9.1527893
9.1254417
9.0987299
9.0726689
9.0472725
9.0225536
8.9985241
8.9751948
8.9525754
8.9306741
8.909498
8.8890528
8.869343
8.8503714
8.8321395
8.8146476
8.7978942
8.7818766
8.7665906
8.7520305
8.7381892
8.7250583
8.7126287
8.7008994
9.8152994
9.7810607
9.7470014
9.7131309
9.6794669
9.6460282
9.6128338
9.579903
9.547255
9.5149093
9.4828855
9.4512033
9.4198827
9.3889435
9.3584058
9.3282895
9.2986145
9.2694007
9.2406674
9.2124339
9.1847192
9.1575415
9.1309186
9.1048679
9.0794057
9.0545477
9.0303086
9.0067024
8.9837417
8.9614382
8.9398024
8.9188436
8.8985697
8.8789874
8.8601019
8.8419171
8.8244357
8.8076585
8.7915853
8.7762142
8.7615421
8.7475644
8.7342749
8.7216663
8.7097308
8.6984686
9.7514783
9.7197697
9.6881743
9.6567024
9.6253726
9.5942049
9.5632192
9.5324357
9.5018745
9.4715562
9.4415012
9.4117304
9.3822644
9.3531241
9.3243305
9.2959043
9.2678664
9.2402373
9.2130375
9.1862869
9.1600052
9.1342117
9.1089249
9.0841629
9.059943
9.0362816
9.0131943
8.9906958
8.9687997
8.9475184
8.9268633
8.9068445
8.8874709
8.86875
8.8506879
8.8332896
8.8165583
8.8004962
8.7851038
8.7703803
8.7563235
8.7429298
8.7301942
8.7181103
8.7066716
8.6958793
9.6886442
9.6593927
9.6301922
9.6010538
9.5719969
9.5430422
9.5142104
9.4855226
9.4569997
9.428663
9.4005338
9.3726336
9.3449841
9.3176069
9.2905235
9.2637557
9.237325
9.2112527
9.1855599
9.1602675
9.1353958
9.1109648
9.0869938
9.0635017
9.0405064
9.0180252
8.9960744
8.9746694
8.9538246
8.9335533
8.9138676
8.8947785
8.8762957
8.8584274
8.8411809
8.8245617
8.8085742
8.7932213
8.7785045
8.7644239
8.7509784
8.7381653
8.7259806
8.7144193
8.7034758
8.6931529
9.6274093
9.6005192
9.5736223
9.5467305
9.5198637
9.4930433
9.4662905
9.439627
9.4130745
9.3866548
9.3603899
9.334302
9.3084133
9.2827462
9.2573229
9.2321657
9.2072968
9.1827382
9.1585115
9.1346384
9.1111399
9.0880364
9.0653482
9.0430945
9.0212942
8.999965
8.9791241
8.9587876
8.9389706
8.919687
8.9009499
8.8827708
8.8651603
8.8481275
8.8316803
8.8158252
8.8005674
8.7859106
8.7718573
8.7584086
8.7455639
8.7333218
8.7216794
8.7106325
8.7001776
8.690321
9.5684752
9.5438257
9.5191167
9.4943606
9.4695777
9.4447897
9.4200184
9.3952858
9.3706141
9.3460256
9.321543
9.2971888
9.2729858
9.2489568
9.2251246
9.2015121
9.178142
9.1550368
9.1322187
9.1097099
9.0875319
9.0657059
9.0442525
9.0231916
9.0025427
8.9823242
8.9625538
8.9432482
8.9244233
8.9060936
8.8882729
8.8709734
8.8542064
8.8379818
8.8223083
8.807193
8.7926421
8.7786601
8.7652502
8.7524142
8.7401528
8.7284649
8.7173487
8.7068009
8.6968186
9.5126431
9.4900861
9.4674224
9.4446645