/*--------------------------------*- C++ -*----------------------------------*\
| =========                 |                                                 |
| \\      /  F ield         | OpenFOAM: The Open Source CFD Toolbox           |
|  \\    /   O peration     | Version:  2312                                  |
|   \\  /    A nd           | Website:  www.openfoam.com                      |
|    \\/     M anipulation  |                                                 |
\*---------------------------------------------------------------------------*/
FoamFile
{
    version     2.0;
    format      ascii;
    arch        "LSB;label=32;scalar=64";
    class       volScalarField;
    location    "0.1";
    object      Ma;
}
// * * * * * * * * * * * * * * * * * * * * * * * * * * * * * * * * * * * * * //

dimensions      [0 0 0 0 0 0 0];

internalField   nonuniform List<scalar> 
3251
(
0.0042470942
0.0041778048
0.0041088927
0.0040403756
0.0039722719
0.0039046005
0.0038373798
0.0037706286
0.0037043654
0.0036386085
0.0035733761
0.0035086858
0.003444555
0.0033810003
0.0033180382
0.0032556841
0.0031939531
0.0031328593
0.0030724164
0.003012637
0.0029535332
0.0028951159
0.0028373956
0.0027803818
0.0027240831
0.0026685074
0.0026136617
0.0025595524
0.0025061849
0.002453564
0.0024016939
0.0023505779
0.0023002188
0.0022506188
0.0022017794
0.0021537018
0.0021063865
0.0020598337
0.0020140433
0.0019690147
0.0019247472
0.0018812399
0.0018384917
0.0017965015
0.0017552682
0.0017147905
0.0016750671
0.0016360967
0.0015978781
0.0015604102
0.0015236929
0.0014877272
0.0014525175
0.0014180674
0.0013843755
0.001351441
0.0013192646
0.0012878493
0.0042468608
0.0041775845
0.0041086851
0.0040401804
0.003972089
0.0039044295
0.0038372206
0.0037704808
0.0037042288
0.0036384829
0.0035732612
0.0035085814
0.0034444608
0.0033809162
0.0033179639
0.0032556194
0.0031938977
0.0031328131
0.003072379
0.0030126083
0.0029535129
0.002895104
0.0028373918
0.0027803858
0.0027240948
0.0026685266
0.0026136883
0.0025595861
0.0025062256
0.0024536116
0.0024017482
0.0023506388
0.0023002861
0.0022506924
0.0022018592
0.0021537877
0.0021064785
0.0020599317
0.0020141472
0.0019691245
0.0019248628
0.0018813612
0.0018386186
0.0017966341
0.0017554063
0.0017149342
0.0016752165
0.0016362519
0.0015980393
0.0015605779
0.0015238676
0.0014879092
0.0014527063
0.0014182621
0.0013845756
0.0013516461
0.0013194746
0.0012880646
0.0042463845
0.0041771339
0.0041082596
0.0040397797
0.0039717124
0.0039040764
0.0038368905
0.0037701734
0.0037039434
0.0036382191
0.0035730185
0.0035083593
0.0034442588
0.0033807339
0.0033178007
0.003255475
0.0031937716
0.0031327048
0.0030722882
0.0030125346
0.0029534558
0.002895063
0.0028373666
0.0027803761
0.0027241001
0.0026685466
0.0026137226
0.0025596345
0.0025062877
0.0024536871
0.0024018368
0.0023507402
0.0023004002
0.0022508188
0.0022019979
0.0021539384
0.002106641
0.002060106
0.002014333
0.0019693218
0.0019250715
0.0018815812
0.00183885
0.0017968767
0.0017556602
0.0017151993
0.001675493
0.00163654
0.0015983394
0.0015608903
0.0015241928
0.0014882476
0.0014530576
0.0014186254
0.0013849504
0.0013520324
0.0013198724
0.0012884742
0.0042456647
0.0041764525
0.0041076158
0.0040391727
0.0039711413
0.0039035406
0.0038363891
0.0037697055
0.0037035085
0.0036378163
0.0035726471
0.0035080186
0.0034439482
0.0033804525
0.003317548
0.0032552502
0.0031935741
0.0031325339
0.0030721433
0.003012415
0.0029533609
0.0028949923
0.0028373194
0.0027803519
0.0027240983
0.0026685667
0.0026137641
0.0025596968
0.0025063704
0.0024537898
0.002401959
0.0023508816
0.0023005604
0.0022509975
0.0022021947
0.0021541532
0.0021068735
0.0020603559
0.0020146003
0.0019696062
0.001925373
0.0018818997
0.0018391854
0.001797229
0.0017560294
0.0017155856
0.0016758965
0.0016369609
0.001598778
0.0015613472
0.0015246684
0.0014887423
0.0014535712
0.0014191572
0.0013855001
0.0013525999
0.0013204578
0.0012890786
0.0042446999
0.0041755388
0.0041067521
0.0040383578
0.0039703743
0.0039028203
0.0038357145
0.0037690757
0.0037029223
0.0036372729
0.0035721454
0.0035075577
0.0034435271
0.0033800704
0.0033172039
0.0032549432
0.0031933033
0.0031322985
0.0030719424
0.0030122477
0.0029532265
0.0028948899
0.0028372483
0.0027803113
0.0027240875
0.002668585
0.0026138108
0.0025597712
0.002506472
0.0024539179
0.0024021132
0.0023510612
0.002300765
0.0022512267
0.0022024481
0.0021544304
0.0021071742
0.0020606799
0.0020149473
0.0019699761
0.0019257657
0.0018823151
0.0018396234
0.0017976897
0.0017565128
0.0017160918
0.0016764256
0.0016375133
0.001599354
0.0015619473
0.0015252932
0.0014893922
0.001454246
0.0014198565
0.0013862235
0.0013533474
0.0013212299
0.0042435613
0.0041744604
0.0041057325
0.0040373957
0.0039694685
0.0039019695
0.0038349175
0.0037683312
0.0037022293
0.0036366301
0.0035715518
0.0035070121
0.0034430284
0.0033796174
0.0033167956
0.0032545786
0.0031929813
0.0031320181
0.0030717026
0.0030120476
0.002953065
0.0028947662
0.0028371614
0.0027802603
0.0027240716
0.0026686033
0.0026138625
0.0025598557
0.0025065884
0.0024540656
0.0024022915
0.0023512697
0.0023010029
0.0022514937
0.0022027436
0.002154754
0.0021075256
0.0020610588
0.0020153535
0.0019704095
0.001926226
0.0018828023
0.0018401375
0.0017982306
0.0017570807
0.0017166867
0.0016770478
0.0016381631
0.0016000319
0.0015626537
0.0015260286
0.0014901571
0.0014550404
0.00142068
0.001387076
0.0013542287
0.0013221404
0.0042423127
0.0041732795
0.0041046178
0.0040363459
0.003968482
0.003901045
0.0038340536
0.0037675265
0.0037014825
0.0036359399
0.0035709169
0.0035064312
0.0034425003
0.0033791409
0.0033163694
0.0032542015
0.0031926522
0.0031317359
0.003071466
0.0030118556
0.0029529165
0.0028946601
0.0028370967
0.002780236
0.0027240868
0.0026686571
0.002613954
0.002559984
0.0025067528
0.0024542653
0.0024025257
0.0023515378
0.0023013044
0.0022518279
0.0022031101
0.0021551524
0.0021079556
0.00206152
0.0020158457
0.0019709324
0.0019267796
0.0018833866
0.0018407525
0.0017988764
0.0017577574
0.0017173946
0.001677787
0.0016389341
0.001600835
0.0015634896
0.0015268978
0.0014910599
0.0014559769
0.0014216501
0.0013880795
0.0013552657
0.0013232115
0.004240851
0.0041718983
0.0041033154
0.0040351206
0.0039673321
0.0038999688
0.0038330495
0.0037665929
0.0037006178
0.0036351425
0.0035701853
0.0035057639
0.0034418957
0.0033785977
0.0033158861
0.0032537766
0.0031922844
0.0031314237
0.0030712082
0.0030116508
0.0029527635
0.0028945575
0.0028370434
0.0027802308
0.0027241286
0.0026687447
0.0026140864
0.0025601603
0.002506972
0.0024545265
0.0024028282
0.0023518807
0.0023016871
0.0022522497
0.0022035706
0.002155651
0.0021084918
0.0020620936
0.0020164565
0.0019715802
0.0019274643
0.0018841082
0.001841511
0.001799672
0.0017585903
0.001718265
0.0016786954
0.0016398808
0.0016018207
0.0015645148
0.001527963
0.0014921657
0.0014571234
0.001422837
0.0013893069
0.001356534
0.001324522
0.0042391512
0.0041702927
0.004101802
0.0040336973
0.003965997
0.0038987199
0.0038318849
0.0037655108
0.0036996162
0.0036342196
0.0035693394
0.0035049931
0.0034411984
0.003377972
0.0033153304
0.0032532893
0.0031918638
0.0031310683
0.0030709163
0.0030114209
0.0029525941
0.0028944472
0.0028369907
0.0027802344
0.0027241871
0.0026688569
0.0026142511
0.0025603763
0.0025072382
0.0024548419
0.0024031919
0.0023522918
0.0023021448
0.0022527534
0.0022041195
0.0021562446
0.0021091298
0.0020627755
0.002017182
0.0019723491
0.0019282766
0.0018849639
0.0018424102
0.0018006148
0.0017595771
0.0017192961
0.0016797712
0.0016410019
0.0016029876
0.0015657282
0.0015292235
0.0014934737
0.0014584791
0.0014242405
0.0013907582
0.0013580339
0.0042371886
0.0041684388
0.0041000545
0.0040320538
0.0039644552
0.0038972777
0.0038305399
0.0037642609
0.0036984593
0.0036331536
0.0035683621
0.0035041026
0.0034403926
0.003377249
0.0033146882
0.003252726
0.0031913775
0.0031306571
0.0030705785
0.0030111546
0.0029523976
0.0028943189
0.002836929
0.0027802376
0.0027242537
0.0026689855
0.0026144402
0.0025606247
0.0025075446
0.0024552052
0.0024036109
0.0023527656
0.0023026725
0.0022533341
0.0022047526
0.0021569294
0.0021098658
0.0020635623
0.0020180193
0.0019732368
0.0019292144
0.0018859519
0.0018434486
0.0018017038
0.0017607169
0.0017204872
0.0016810141
0.0016422971
0.0016043358
0.0015671299
0.0015306796
0.0014949846
0.0014600451
0.0014258614
0.0013924345
0.0013597668
0.004234937
0.0041663115
0.0040980486
0.0040301667
0.0039626843
0.0038956204
0.0038289937
0.0037628233
0.0036971279
0.003631926
0.0035672358
0.0035030754
0.0034394621
0.003376413
0.0033139445
0.0032520723
0.0031908117
0.0031301771
0.0030701823
0.0030108401
0.0029521629
0.002894162
0.002836848
0.0027802308
0.0027243194
0.0026691219
0.0026146459
0.002560898
0.0025078842
0.0024556098
0.0024040792
0.0023532965
0.0023032649
0.0022539871
0.0022054654
0.0021577014
0.0021106962
0.0020644508
0.0020189655
0.0019742404
0.0019302754
0.0018870702
0.0018446244
0.0018029374
0.0017620086
0.0017218374
0.0016824233
0.0016437659
0.0016058649
0.00156872
0.0015323313
0.0014966985
0.0014618214
0.0014277003
0.0013943365
0.0042323696
0.0041638847
0.0040957593
0.004028012
0.0039606611
0.0038937258
0.0038272249
0.0037611774
0.0036956021
0.0036305177
0.0035659423
0.003501894
0.0034383902
0.0033754481
0.003313084
0.0032513138
0.0031901527
0.0031296152
0.0030697151
0.0030104655
0.0029518785
0.0028939657
0.0028367378
0.0027802045
0.0027243751
0.0026692578
0.0026148601
0.0025611889
0.0025082501
0.0024560492
0.0024045908
0.0023538789
0.002303917
0.0022547078
0.0022062538
0.0021585566
0.0021116176
0.0020654378
0.0020200177
0.0019753576
0.0019314574
0.0018883171
0.0018459362
0.0018043144
0.0017634511
0.001723346
0.0016839984
0.0016454081
0.0016075748
0.0015704984
0.0015341789
0.0014986159
0.0014638087
0.0014297576
0.0013964652
0.0042294583
0.0041611314
0.0040931606
0.0040255644
0.0039583613
0.0038915706
0.003825211
0.0037593017
0.0036938615
0.003628909
0.0035644626
0.0035005403
0.0034371596
0.0033743376
0.0033120909
0.0032504353
0.003189386
0.0031289577
0.0030691642
0.0030100185
0.002951533
0.0028937192
0.0028365879
0.002780149
0.0027244117
0.0026693845
0.0026150748
0.0025614897
0.0025086352
0.0024565169
0.0024051395
0.0023545072
0.0023046235
0.0022554914
0.0022071133
0.0021594912
0.0021126265
0.0020665203
0.0020211733
0.001976586
0.0019327584
0.0018896907
0.0018473825
0.0018058336
0.0017650436
0.0017250122
0.0016857389
0.0016472234
0.0016094655
0.0015724652
0.0015362225
0.0015007369
0.0014660072
0.0014320341
0.0042261735
0.0041580231
0.004090225
0.0040227977
0.0039557598
0.0038891304
0.0038229288
0.0037571738
0.0036918844
0.0036270793
0.003562777
0.0034989954
0.0034357522
0.0033730645
0.0033109488
0.0032494211
0.0031884968
0.0031281904
0.0030685158
0.0030094863
0.0029511141
0.0028934109
0.0028363875
0.002780054
0.0027244197
0.002669493
0.0026152816
0.0025617926
0.0025090323
0.0024570062
0.0024057192
0.0023551757
0.0023053793
0.0022563331
0.0022080397
0.0021605011
0.0021137191
0.0020676949
0.0020224293
0.001977923
0.0019341762
0.0018911891
0.0018489616
0.0018074937
0.001766785
0.0017268352
0.0016876441
0.0016492113
0.0016115367
0.0015746203
0.0015384622
0.0015030616
0.0014684171
0.0014345303
0.0042224844
0.0041545302
0.0040869239
0.0040196842
0.0039528298
0.0038863799
0.0038203536
0.0037547701
0.0036896483
0.003625007
0.0035608647
0.0034972395
0.003434149
0.0033716104
0.0033096404
0.0032482549
0.0031874693
0.0031272984
0.003067756
0.0030088554
0.0029506091
0.0028930288
0.0028361253
0.0027799089
0.0027243889
0.0026695738
0.0026154716
0.0025620894
0.0025094336
0.0024575098
0.0024063232
0.0023558782
0.0023061786
0.0022572276
0.0022090281
0.0021615822
0.0021148918
0.0020689583
0.0020237828
0.001979366
0.0019357084
0.0018928104
0.001850672
0.0018092933
0.0017686741
0.0017288142
0.0016897134
0.0016513714
0.001613788
0.0015769633
0.0015408976
0.0015055899
0.0014710387
0.0042183586
0.0041506213
0.0040832272
0.0040161951
0.0039495436
0.003883292
0.0038174597
0.0037520658
0.0036871294
0.0036226693
0.003558704
0.0034952517
0.0034323301
0.0033699564
0.0033081474
0.0032469192
0.0031862871
0.0031262659
0.0030668697
0.0030081118
0.0029500046
0.0028925601
0.0028357893
0.0027797023
0.0027243086
0.002669617
0.0026156355
0.0025623713
0.0025098309
0.0024580202
0.0024069444
0.0023566082
0.0023070154
0.0022581695
0.0022100735
0.0021627298
0.0021161403
0.0020703067
0.0020252303
0.001980912
0.0019373524
0.0018945522
0.0018525115
0.0018112305
0.0017707093
0.0017309478
0.0016919456
0.0016537026
0.0016162186
0.0015794937
0.0015435283
0.0015083213
0.001473872
0.0042137618
0.0041462636
0.0040791032
0.0040122996
0.0039458716
0.0038798386
0.00381422
0.003749035
0.0036843027
0.0036200421
0.0035562717
0.0034930098
0.0034302743
0.0033680823
0.0033064507
0.0032453956
0.0031849325
0.0031250763
0.0030658411
0.0030072402
0.0029492864
0.0028919915
0.0028353666
0.0027794221
0.0027241676
0.0026696119
0.0026157632
0.0025626288
0.0025102155
0.0024585292
0.0024075753
0.0023573586
0.0023078832
0.0022591528
0.0022111705
0.0021639388
0.0021174601
0.002071736
0.0020267681
0.0019825575
0.0019391052
0.0018964118
0.0018544778
0.0018133034
0.001772889
0.0017332344
0.0016943395
0.001656204
0.0016188277
0.0015822107
0.0015463536
0.0015112555
0.0042086584
0.0041414225
0.0040745187
0.0040079659
0.0039417832
0.00387599
0.0038106059
0.0037456501
0.0036811418
0.0036171002
0.0035535437
0.0034904909
0.0034279595
0.0033659669
0.0033045299
0.0032436648
0.0031833872
0.003123712
0.0030646535
0.003006225
0.0029484393
0.0028913085
0.0028348438
0.0027790557
0.0027239538
0.0026695472
0.0026158441
0.0025628521
0.002510578
0.002459028
0.0024082076
0.0023581219
0.002308775
0.002260171
0.0022123129
0.0021652038
0.002118846
0.0020732415
0.002028392
0.0019842989
0.0019409634
0.0018983862
0.0018565681
0.0018155096
0.0017752109
0.0017356723
0.0016968934
0.0016588741
0.0016216139
0.0015851131
0.0015493726
0.0015143916
0.0042030108
0.0041360618
0.0040694387
0.0040031603
0.0039372459
0.0038717151
0.0038065874
0.0037418823
0.0036776192
0.003613817
0.0035504946
0.0034876704
0.0034253623
0.0033635877
0.0033023637
0.0032417065
0.0031816317
0.0031221545
0.0030632892
0.0030050492
0.0029474475
0.0028904962
0.0028342066
0.0027785894
0.0027236544
0.0026694107
0.0026158668
0.0025630304
0.0025109084
0.0024595073
0.0024088327
0.0023588899
0.0023096833
0.002261217
0.0022134945
0.0021665189
0.0021202927
0.0020748183
0.0020300975
0.001986132
0.0019429231
0.0019004719
0.0018587793
0.001817846
0.0017776725
0.0017382589
0.0016996051
0.0016617108
0.0016245755
0.0015881995
0.0015525842
0.0015177295
0.0041967799
0.0041301439
0.0040638268
0.0039978478
0.003932226
0.0038669813
0.0038021334
0.0037377017
0.0036737058
0.0036101649
0.0035470977
0.0034845228
0.0034224582
0.0033609215
0.0032999297
0.0032394991
0.0031796457
0.0031203844
0.0030617297
0.0030036953
0.0029462941
0.0028895385
0.0028334399
0.002778009
0.0027232559
0.0026691898
0.0026158194
0.0025631524
0.0025111962
0.0024599572
0.0024094413
0.002359654
0.0023106
0.0022622835
0.0022147082
0.0021678775
0.0021217942
0.0020764608
0.0020318795
0.0019880521
0.0019449802
0.0019026651
0.0018611079
0.0018203096
0.0017802707
0.0017409916
0.0017024722
0.0016647121
0.0016277104
0.001591468
0.0015559868
0.001521268
0.0041899249
0.0041236293
0.0040576452
0.0039919917
0.0039266882
0.0038617547
0.003797211
0.0037330768
0.0036693717
0.0036061148
0.0035433253
0.0034810215
0.0034192218
0.0033579438
0.0032972045
0.0032370205
0.0031774077
0.0031183812
0.0030599556
0.0030021448
0.0029449617
0.0028884189
0.0028325279
0.0027772996
0.0027227442
0.0026688712
0.0026156892
0.0025632064
0.0025114301
0.0024603671
0.0024100236
0.002360405
0.0023115164
0.0022633623
0.0022159466
0.0021692728
0.0021233441
0.0020781632
0.0020337325
0.0019900542
0.00194713
0.0019049615
0.00186355
0.0018228966
0.0017830022
0.0017438671
0.0017054916
0.0016678749
0.0016310159
0.001594916
0.0015595781
0.0041824036
0.0041164774
0.0040508546
0.0039855542
0.003920596
0.0038560002
0.0037917866
0.0037279751
0.0036645854
0.0036016368
0.0035391484
0.0034771389
0.0034156266
0.0033546292
0.0032941639
0.0032342474
0.0031748956
0.0031161239
0.0030579469
0.0030003785
0.0029434321
0.0028871201
0.0028314542
0.0027764456
0.0027221046
0.0026684408
0.0026154631
0.0025631799
0.0025115986
0.0024607263
0.0024105693
0.0023611333
0.0023124237
0.0022644451
0.0022172018
0.0021706975
0.0021249356
0.0020799192
0.0020356508
0.0019921329
0.0019493675
0.0019073564
0.0018661011
0.0018256031
0.0017858632
0.0017468821
0.0017086599
0.0016711959
0.0016344889
0.0015985409
0.0015633554
0.0041741724
0.004108646
0.0040434141
0.003978496
0.0039139117
0.0038496813
0.0037858251
0.0037223629
0.0036593146
0.0035966997
0.0035345374
0.0034728464
0.0034116452
0.0033509516
0.0032907829
0.0032311558
0.0031720866
0.0031135906
0.0030556826
0.0029983767
0.0029416863
0.002885624
0.0028302018
0.0027754309
0.0027213218
0.0026678843
0.0026151276
0.00256306
0.0025116895
0.0024610232
0.0024110677
0.0023618289
0.0023133125
0.0022655233
0.0022184658
0.002172144
0.0021265618
0.0020817222
0.0020376282
0.0019942825
0.0019516874
0.0019098449
0.0018687568
0.0018284247
0.0017888496
0.0017500324
0.0017119733
0.0016746713
0.0016381261
0.0041651864
0.0041000918
0.0040352822
0.0039707769
0.0039065963
0.0038427607
0.0037792905
0.0037162056
0.0036535262
0.0035912717
0.0035294615
0.0034681146
0.0034072494
0.0033468839
0.0032870356
0.0032277212
0.0031689572
0.0031107589
0.0030531415
0.002996119
0.0029397051
0.0028839124
0.0028287533
0.0027742389
0.0027203801
0.0026671869
0.0026146685
0.0025628337
0.0025116905
0.0024612462
0.0024115078
0.0023624815
0.002314173
0.0022665876
0.00221973
0.0021736045
0.0021282151
0.0020835653
0.0020396583
0.0019964971
0.0019540842
0.0019124219
0.0018715122
0.0018313568
0.0017919571
0.001753314
0.0017154276
0.0016782972
0.0041553998
0.0040907705
0.004026416
0.0039623557
0.0038986103
0.0038352003
0.0037721461
0.003709468
0.0036471861
0.0035853202
0.0035238897
0.0034629136
0.0034024106
0.0033423988
0.0032828958
0.0032239185
0.0031654834
0.0031076061
0.0030503017
0.0029935847
0.0029374687
0.0028819666
0.0028270909
0.0027728529
0.0027192637
0.0026663335
0.0026140718
0.0025624875
0.0025115888
0.0024613835
0.0024118786
0.0023630807
0.0023149956
0.002267629
0.0022209859
0.0021750709
0.0021298882
0.0020854416
0.0020417347
0.0019987706
0.0019565522
0.001915082
0.0018743623
0.0018343949
0.0017951814
0.0017567228
0.0017190192
0.0016820701
0.0042091384
0.0041447651
0.0040806368
0.0040167719
0.0039531904
0.0038899133
0.0038269611
0.0037643546
0.0037021142
0.0036402601
0.0035788122
0.0035177901
0.003457213
0.0033970997
0.0033374685
0.0032783369
0.0032197223
0.003161641
0.003104109
0.0030471415
0.002990753
0.0029349574
0.0028797678
0.0028251967
0.002771256
0.0027179566
0.0026653091
0.0026133232
0.002562008
0.002511372
0.0024614232
0.0024121689
0.0023636159
0.0023157704
0.0022686383
0.002222225
0.0021765352
0.0021315735
0.0020873441
0.0020438507
0.0020010969
0.0019590857
0.0019178199
0.0018773021
0.0018375343
0.0017985181
0.0017602548
0.0017227447
0.001685988
0.0041970583
0.0041332359
0.0040696452
0.0040063061
0.0039432388
0.0038804646
0.0038180042
0.0037558785
0.0036941081
0.0036327133
0.0035717144
0.003511131
0.0034509824
0.0033912877
0.0033320651
0.0032733325
0.0032151072
0.0031574059
0.0031002446
0.0030436387
0.002987603
0.0029321513
0.0028772972
0.0028230532
0.0027694313
0.0027164429
0.0026640987
0.0026124085
0.0025613819
0.0025110275
0.0024613535
0.0024123676
0.0023640769
0.0023164878
0.0022696065
0.0022234387
0.0021779895
0.0021332638
0.0020892659
0.0020460001
0.00200347
0.0019616791
0.0019206304
0.0018803267
0.0018407702
0.0018019629
0.0017639061
0.0017266005
0.001690047
0.0041839977
0.0041207647
0.0040577502
0.0039949747
0.0039324587
0.0038702236
0.0038082903
0.0037466801
0.0036854136
0.0036245114
0.0035639938
0.0035038807
0.0034441915
0.0033849454
0.0033261609
0.003267856
0.0032100482
0.0031527542
0.0030959902
0.0030397719
0.0029841142
0.0029290311
0.0028745364
0.0028206428
0.0027673625
0.0027147072
0.0026626876
0.0026113141
0.0025605963
0.0025105431
0.0024611631
0.0024124642
0.0023644537
0.0023171385
0.0022705249
0.002224619
0.0021794263
0.0021349519
0.0020912005
0.0020481766
0.0020058842
0.001964327
0.0019235084
0.0018834313
0.0018440984
0.0018055116
0.0017676728
0.0017305828
0.0016942433
0.0041699073
0.0041073047
0.0040449066
0.0039827342
0.0039208082
0.00385915
0.003797781
0.0037367224
0.0036759952
0.0036156202
0.0035556178
0.003496008
0.0034368106
0.0033780447
0.003319729
0.0032618818
0.0032045206
0.0031476625
0.0030913237
0.0030355201
0.0029802667
0.002925578
0.0028714676
0.0028179488
0.0027650338
0.0027127345
0.002661062
0.0026100269
0.0025596389
0.0025099075
0.0024608413
0.0024124486
0.002364737
0.0023177137
0.0022713855
0.0022257585
0.0021808386
0.0021366314
0.0020931418
0.0020503746
0.0020083342
0.0019670246
0.0019264494
0.0018866118
0.0018475147
0.0018091605
0.0017715511
0.001734688
0.0016985732
0.0041547391
0.0040928097
0.0040310702
0.0039695421
0.0039082464
0.0038472046
0.0037864385
0.0037259693
0.0036658184
0.0036060067
0.0035465547
0.0034874828
0.0034288108
0.0033705579
0.0033127433
0.003255385
0.0031985011
0.0031421085
0.003086224
0.0030308633
0.0029760419
0.0029217742
0.0028680743
0.0028149555
0.0027624304
0.0027105111
0.0026592089
0.0026085347
0.0025584985
0.0025091101
0.0024603783
0.0024123118
0.0023649184
0.0023182058
0.0022721809
0.0022268503
0.0021822203
0.0021382966
0.0020950846
0.0020525893
0.0020108156
0.0019697676
0.0019294493
0.0018898643
0.0018510156
0.001812906
0.0017755378
0.0017389127
0.0017030332
0.0041384466
0.0040772352
0.0040161982
0.0039553573
0.0038947338
0.0038343496
0.0037742265
0.0037143862
0.0036548501
0.0035956393
0.0035367746
0.0034782765
0.0034201649
0.0033624594
0.0033051791
0.0032483425
0.0031919676
0.0031360716
0.0030806715
0.0030257832
0.0029714222
0.0029176035
0.0028643411
0.0028116487
0.0027595391
0.0027080246
0.0026571169
0.0026068269
0.0025571652
0.0025081417
0.0024597657
0.0024120459
0.0023649908
0.0023186081
0.0022729053
0.0022278891
0.0021835663
0.0021399428
0.0020970246
0.0020548169
0.0020133247
0.0019725528
0.0019325053
0.001893186
0.0018545985
0.0018167457
0.0017796302
0.0017432543
0.0017076206
0.0041209859
0.004060539
0.0040002499
0.0039401408
0.0038802332
0.0038205494
0.0037611113
0.0037019408
0.0036430595
0.0035844888
0.0035262496
0.0034683626
0.003410848
0.0033537255
0.0032970143
0.0032407332
0.0031849003
0.0031295331
0.0030746487
0.0030202633
0.0029663925
0.0029130516
0.0028602549
0.0028080161
0.0027563485
0.0027052645
0.0026547762
0.0026048947
0.002555631
0.0025069951
0.0024589968
0.0024116451
0.0023649487
0.0023189158
0.0022735542
0.002228871
0.0021848731
0.0021415671
0.0020989591
0.0020570548
0.0020158595
0.0019753782
0.0019356154
0.0018965753
0.0018582618
0.001820678
0.0017838269
0.0017477111
0.0017123336
0.0041023161
0.0040426818
0.0039831879
0.0039238569
0.0038647106
0.0038057715
0.0037470617
0.0036886035
0.0036304186
0.0035725286
0.0035149547
0.0034577176
0.0034008378
0.0033443352
0.0032882292
0.0032325388
0.0031772822
0.0031224772
0.0030681409
0.00301429
0.0029609402
0.002908107
0.0028558049
0.002804048
0.0027528498
0.0027022229
0.0026521797
0.0026027317
0.00255389
0.0025056652
0.0024580672
0.0024111054
0.0023647889
0.0023191262
0.0022741253
0.0022297939
0.0021861393
0.0021431683
0.0021008873
0.0020593024
0.0020184194
0.0019782434
0.0019387795
0.0019000321
0.0018620053
0.0018247027
0.0017881276
0.0017522827
0.0017171716
0.0040824005
0.0040236288
0.0039649789
0.0039064739
0.0038481359
0.0037899874
0.003732051
0.003674349
0.0036169036
0.0035597363
0.0035028687
0.0034463218
0.003390116
0.0033342716
0.0032788081
0.0032237446
0.0031690997
0.0031148914
0.003061137
0.0030078532
0.0029550562
0.0029027615
0.002850984
0.0027997381
0.0027490374
0.002698895
0.0026493234
0.0026003345
0.0025519397
0.0025041499
0.0024569754
0.0024104259
0.0023645109
0.0023192391
0.002274619
0.0022306587
0.0021873658
0.0021447474
0.0021028105
0.0020615613
0.0020210061
0.0019811504
0.0019419995
0.0019035581
0.0018658308
0.0018288215
0.0017925336
0.0017569704
0.0017221356
0.0040612082
0.0040033505
0.0039455951
0.0038879656
0.0038304842
0.0037731738
0.0037160572
0.003659157
0.0036024954
0.0035460944
0.0034899756
0.0034341602
0.0033786689
0.0033235221
0.0032687396
0.0032143407
0.0031603441
0.003106768
0.00305363
0.003000947
0.0029487354
0.002897011
0.002845789
0.0027950839
0.0027449098
0.0026952799
0.0026462071
0.0025977036
0.0025497811
0.0025024509
0.0024557235
0.0024096091
0.0023641175
0.0023192578
0.0022750389
0.0022314692
0.0021885566
0.0021463089
0.0021047331
0.002063836
0.0020236242
0.0019841035
0.0019452796
0.0019071577
0.0018697424
0.0018330382
0.0017970487
0.0017617776
0.0017272286
0.0040387148
0.003981824
0.0039250152
0.0038683121
0.0038117373
0.0037553139
0.003699065
0.0036430134
0.0035871815
0.0035315915
0.0034762652
0.003421224
0.003366489
0.0033120805
0.0032580186
0.0032043228
0.003151012
0.0030981047
0.0030456186
0.0029935709
0.0029419784
0.0028908569
0.0028402219
0.0027900883
0.0027404703
0.0026913816
0.0026428354
0.0025948441
0.0025474198
0.002500574
0.0024543179
0.0024086617
0.0023636158
0.0023191896
0.0022753924
0.0022322329
0.0021897196
0.0021478604
0.0021066629
0.0020661343
0.0020262813
0.0019871104
0.0019486275
0.001910838
0.0018737472
0.0018373595
0.0018016793
0.0017667101
0.0017324562
0.0040149046
0.0039590352
0.0039032262
0.0038475019
0.0037918849
0.0037363988
0.0036810668
0.0036259118
0.0035709567
0.0035162237
0.0034617348
0.0034075118
0.0033535756
0.0032999471
0.0032466465
0.0031936934
0.003141107
0.0030889059
0.0030371081
0.0029857312
0.0029347919
0.0028843066
0.0028342909
0.0027847599
0.0027357283
0.0026872101
0.0026392185
0.0025917667
0.0025448668
0.0024985309
0.0024527702
0.0024075957
0.0023630179
0.0023190467
0.0022756918
0.0022329623
0.002190867
0.0021494143
0.0021086121
0.0020684681
0.0020289894
0.0019901827
0.0019520543
0.0019146101
0.0018778556
0.0018417957
0.0018064348
0.0017717771
0.0017378269
0.0039897724
0.0039349799
0.0038802254
0.0038255334
0.0037709268
0.0037164293
0.0036620645
0.0036078555
0.0035538252
0.0034999963
0.0034463908
0.0033930307
0.0033399373
0.0032871314
0.0032346335
0.0031824635
0.0031306408
0.0030791842
0.0030281119
0.0029774416
0.0029271905
0.0028773751
0.0028280115
0.0027791149
0.0027307003
0.002682782
0.0026353738
0.0025884888
0.0025421398
0.0024963391
0.0024510985
0.0024064291
0.0023623419
0.0023188472
0.0022759551
0.0022336752
0.0021920165
0.002150988
0.002110598
0.0020708544
0.0020317649
0.0019933364
0.0019555758
0.0019184892
0.0018820824
0.0018463608
0.001811329
0.0017769915
0.001743353
0.0039633252
0.0039096665
0.0038560221
0.003802417
0.0037488743
0.0036954179
0.0036420716
0.0035888588
0.0035358025
0.0034829256
0.0034302504
0.003377799
0.0033255927
0.0032736529
0.003222
0.0031706542
0.0031196351
0.0030689617
0.0030186524
0.0029687254
0.0029191979
0.0028700867
0.0028214081
0.0027731779
0.0027254112
0.0026781226
0.0026313263
0.0025850358
0.0025392643
0.0024940243
0.002449328
0.0024051871
0.0023616128
0.0023186159
0.002276207
0.0022343959
0.0021931922
0.0021526052
0.0021126437
0.002073316
0.0020346301
0.0019965934
0.0019592131
0.0019224957
0.0018864474
0.0018510738
0.00181638
0.0017823708
0.0017490511
0.0039355851
0.0038831177
0.00383064
0.0037781773
0.0037257529
0.0036733909
0.0036211153
0.0035689496
0.0035169172
0.003465041
0.0034133436
0.0033618471
0.0033105733
0.0032595434
0.0032087783
0.0031582982
0.003108123
0.003058272
0.0030087638
0.0029596167
0.0029108483
0.0028624758
0.0028145155
0.0027669837
0.0027198958
0.0026732667
0.0026271109
0.0025814424
0.0025362746
0.0024916205
0.0024474927
0.0024039033
0.0023608639
0.0023183858
0.0022764798
0.0022351563
0.0021944255
0.0021542968
0.0021147795
0.0020758824
0.0020376138
0.0019999817
0.0019629934
0.001926656
0.001890976
0.0018559594
0.0018216116
0.0017879377
0.001754943
0.0039065918
0.0038553739
0.00380412
0.0037528557
0.0037016046
0.0036503908
0.0035992386
0.0035481716
0.0034972134
0.0034463871
0.0033957153
0.0033452205
0.0032949245
0.0032448489
0.0031950146
0.003145442
0.0030961513
0.003047162
0.0029984929
0.0029501626
0.0029021889
0.0028545892
0.0028073805
0.0027605789
0.0027142005
0.0026682603
0.0026227734
0.0025777539
0.0025332158
0.0024891724
0.0024456368
0.0024026213
0.0023601382
0.002318199
0.0022768152
0.0022359974
0.0021957562
0.0021561018
0.0021170436
0.0020785909
0.0020407525
0.0020035367
0.0019669513
0.0019310036
0.0018957007
0.0018610488
0.0018270538
0.0017937211
0.0017610564
0.0038764053
0.0038264955
0.0037765229
0.0037265134
0.0036764907
0.0036264793
0.0035765033
0.0035265868
0.0034767533
0.0034270261
0.0033774281
0.0033279818
0.0032787093
0.0032296321
0.0031807715
0.0031321482
0.0030837824
0.0030356938
0.0029879017
0.0029404246
0.0028932809
0.0028464882
0.0028000636
0.0027540237
0.0027083849
0.0026631626
0.0026183721
0.0025740282
0.0025301449
0.0024867363
0.0024438156
0.0024013958
0.0023594894
0.0023181085
0.0022772649
0.0022369699
0.0021972344
0.0021580689
0.0021194836
0.002081488
0.0020440913
0.0020073024
0.0019711293
0.0019355799
0.0019006615
0.0018663807
0.0018327439
0.0017997569
0.0017674258
0.0038451098
0.0037965664
0.0037479324
0.003699234
0.0036504949
0.0036017398
0.0035529929
0.0035042784
0.00345562
0.0034070411
0.0033585647
0.0033102134
0.0032620095
0.0032139747
0.0031661305
0.0031184977
0.0030710967
0.0030239474
0.0029770694
0.0029304816
0.0028842024
0.0028382498
0.0027926413
0.0027473938
0.0027025238
0.0026580474
0.0026139801
0.0025703371
0.0025271329
0.0024843819
0.0024420978
0.0024002941
0.0023589836
0.0023181791
0.0022778927
0.0022381361
0.0021989208
0.0021602578
0.0021221576
0.0020846303
0.0020476855
0.0020113323
0.0019755795
0.0019404352
0.0019059071
0.0018720024
0.0018387276
0.0018060891
0.0017740934
0.0038128166
0.0037656975
0.003718459
0.0036711274
0.0036237266
0.0035762812
0.0035288157
0.0034813542
0.0034339207
0.0033865384
0.0033392307
0.0032920203
0.0032449295
0.0031979803
0.0031511942
0.0031045922
0.003058195
0.0030120228
0.0029660952
0.0029204314
0.0028750502
0.0028299699
0.0027852081
0.0027407823