/*--------------------------------*- C++ -*----------------------------------*\
| =========                 |                                                 |
| \\      /  F ield         | OpenFOAM: The Open Source CFD Toolbox           |
|  \\    /   O peration     | Version:  2312                                  |
|   \\  /    A nd           | Website:  www.openfoam.com                      |
|    \\/     M anipulation  |                                                 |
\*---------------------------------------------------------------------------*/
FoamFile
{
    version     2.0;
    format      ascii;
    arch        "LSB;label=32;scalar=64";
    class       volScalarField;
    location    "0.1";
    object      N2;
}
// * * * * * * * * * * * * * * * * * * * * * * * * * * * * * * * * * * * * * //

dimensions      [0 0 0 0 0 0 0];

internalField   nonuniform List<scalar> 
3251
(
0.71679898
0.71762942
0.71846304
0.7192994
0.720138
0.72097835
0.72181991
0.72266213
0.72350446
0.7243463
0.72518708
0.72602619
0.72686303
0.72769701
0.72852753
0.72935399
0.73017581
0.73099241
0.73180325
0.73260777
0.73340546
0.7341958
0.73497831
0.73575253
0.73651804
0.73727441
0.73802126
0.73875823
0.739485
0.74020126
0.74090673
0.74160117
0.74228434
0.74295607
0.74361616
0.74426449
0.74490091
0.74552535
0.74613772
0.74673795
0.74732603
0.74790192
0.74846563
0.74901717
0.74955656
0.75008385
0.75059909
0.75110232
0.75159362
0.75207303
0.7525406
0.75299627
0.75343999
0.75387203
0.75429265
0.75470201
0.75510018
0.75548725
0.71680378
0.7176341
0.71846759
0.71930382
0.72014229
0.72098252
0.72182396
0.72266606
0.72350827
0.72435
0.72519067
0.72602967
0.7268664
0.72770027
0.72853069
0.72935704
0.73017876
0.73099527
0.73180601
0.73261044
0.73340803
0.73419828
0.7349807
0.73575484
0.73652026
0.73727655
0.73802332
0.73876021
0.7394869
0.74020309
0.74090849
0.74160285
0.74228596
0.74295761
0.74361764
0.7442659
0.74490227
0.74552664
0.74613895
0.74673913
0.74732715
0.74790299
0.74846664
0.74901812
0.74955746
0.7500847
0.75059988
0.75110306
0.75159429
0.75207363
0.75254113
0.75299677
0.75344054
0.75387264
0.75429332
0.7547027
0.75510088
0.75548788
0.71681354
0.71764362
0.71847686
0.71931283
0.72015106
0.72099104
0.72183225
0.72267412
0.7235161
0.72435761
0.72519805
0.72603683
0.72687336
0.72770702
0.72853723
0.72936338
0.7301849
0.73100122
0.73181177
0.73261601
0.73341342
0.73420349
0.73498574
0.73575971
0.73652496
0.73728108
0.73802769
0.73876443
0.73949097
0.74020701
0.74091226
0.74160648
0.74228945
0.74296097
0.74362087
0.744269
0.74490524
0.7455295
0.74614169
0.74674175
0.74732966
0.74790539
0.74846894
0.74902032
0.74955955
0.75008669
0.75060177
0.75110484
0.75159597
0.75207521
0.7525426
0.75299818
0.75344195
0.75387408
0.75429477
0.75470415
0.7551023
0.75548927
0.71682831
0.71765801
0.71849088
0.71932648
0.72016434
0.72100397
0.72184482
0.72268635
0.72352799
0.72436916
0.72520927
0.72604774
0.72688394
0.7277173
0.7285472
0.72937305
0.73019428
0.73101031
0.73182057
0.73262454
0.73342168
0.73421148
0.73499347
0.73576718
0.73653218
0.73728806
0.73803443
0.73877094
0.73949725
0.74021306
0.7409181
0.74161211
0.74229487
0.74296619
0.74362589
0.74427383
0.74490989
0.74553396
0.74614597
0.74674587
0.74733361
0.74790917
0.74847256
0.74902379
0.74956288
0.75008986
0.7506048
0.75110773
0.75159871
0.75207781
0.75254508
0.75300055
0.75344427
0.75387639
0.75429706
0.7547064
0.7551045
0.75549146
0.71684809
0.71767729
0.71850966
0.71934477
0.72018215
0.7210213
0.72186169
0.72270276
0.72354395
0.72438468
0.72522436
0.7260624
0.72689818
0.72773112
0.72856062
0.72938608
0.73020691
0.73102256
0.73183245
0.73263605
0.73343282
0.73422227
0.73500391
0.73577729
0.73654195
0.73729751
0.73804356
0.73877975
0.73950576
0.74022128
0.74092602
0.74161975
0.74230224
0.74297329
0.74363273
0.74428042
0.74491623
0.74554006
0.74615184
0.7467515
0.74733902
0.74791437
0.74847755
0.74902857
0.74956746
0.75009426
0.750609
0.75111175
0.75160255
0.75208148
0.75254858
0.75300392
0.75344755
0.7538796
0.75430021
0.75470948
0.75510747
0.71687148
0.71770009
0.71853187
0.71936641
0.72020322
0.72104182
0.72188165
0.72272219
0.72356285
0.72440306
0.72524223
0.72607977
0.72691506
0.72774752
0.72857654
0.72940153
0.73022191
0.7310371
0.73184655
0.73264971
0.73344606
0.7342351
0.73501633
0.7357893
0.73655358
0.73730875
0.73805443
0.73879026
0.73951591
0.74023107
0.74093548
0.74162888
0.74231104
0.74298177
0.74364091
0.74428829
0.74492381
0.74554736
0.74615886
0.74675826
0.74734552
0.74792062
0.74848355
0.74903434
0.74957299
0.75009956
0.75061408
0.75111662
0.75160722
0.75208594
0.75255286
0.75300804
0.75345155
0.75388349
0.75430401
0.75471317
0.75511098
0.71689774
0.71772568
0.71855681
0.71939071
0.72022689
0.72106486
0.72190409
0.72274402
0.7235841
0.72442373
0.72526233
0.7260993
0.72693405
0.72776596
0.72859445
0.72941892
0.73023878
0.73105347
0.73186243
0.73266511
0.73346098
0.73424955
0.73503033
0.73580285
0.73656669
0.73732143
0.73806669
0.73880211
0.73952736
0.74024214
0.74094616
0.74163918
0.74232099
0.74299137
0.74365016
0.74429721
0.7449324
0.74555563
0.74616682
0.74676592
0.74735289
0.7479277
0.74849036
0.74904088
0.74957928
0.75010559
0.75061987
0.75112217
0.75161254
0.75209105
0.75255777
0.75301277
0.75345612
0.75388794
0.75430834
0.75471736
0.75511497
0.71692893
0.71775609
0.71858644
0.71941957
0.72025501
0.72109225
0.72193075
0.72276998
0.72360935
0.7244483
0.72528622
0.72612253
0.72695663
0.7277879
0.72861576
0.72943961
0.73025887
0.73107296
0.73188133
0.73268344
0.73347875
0.73426676
0.735047
0.73581899
0.73658231
0.73733655
0.73808131
0.73881625
0.73954102
0.74025533
0.74095891
0.74165149
0.74233286
0.74300282
0.7436612
0.74430786
0.74494266
0.74556552
0.74617635
0.74677509
0.74736171
0.74793619
0.74849852
0.74904872
0.74958682
0.75011283
0.75062683
0.75112884
0.75161895
0.7520972
0.75256369
0.75301847
0.75346164
0.75389329
0.75431353
0.75472237
0.75511979
0.71696541
0.71779165
0.71862111
0.71945335
0.72028792
0.7211243
0.72196196
0.72280035
0.72363892
0.72447706
0.7253142
0.72614974
0.72698307
0.7278136
0.72864072
0.72946385
0.7302824
0.7310958
0.73190349
0.73270492
0.73349957
0.73428694
0.73506655
0.73583792
0.73660064
0.73735428
0.73809846
0.73883283
0.73955705
0.74027082
0.74097387
0.74166594
0.74234681
0.74301628
0.74367418
0.74432037
0.74495473
0.74557714
0.74618754
0.74678587
0.74737209
0.74794618
0.74850813
0.74905797
0.7495957
0.75012137
0.75063503
0.75113673
0.75162652
0.75210448
0.75257069
0.75302522
0.75346816
0.75389961
0.75431964
0.75472826
0.71700757
0.71783275
0.71866117
0.71949239
0.72032595
0.72116134
0.72199804
0.72283548
0.7236731
0.72451032
0.72534656
0.7261812
0.72701366
0.72784332
0.7286696
0.7294919
0.73030963
0.73112222
0.73192912
0.73272978
0.73352368
0.73431031
0.73508918
0.73585984
0.73662186
0.73737482
0.73811833
0.73885205
0.73957563
0.74028878
0.74099121
0.74168268
0.74236297
0.74303188
0.74368924
0.74433489
0.74496872
0.74559063
0.74620054
0.74679839
0.74738415
0.74795778
0.7485193
0.74906871
0.74960603
0.75013131
0.75064458
0.75114591
0.75163534
0.75211297
0.75257885
0.75303309
0.75347577
0.75390697
0.75432673
0.75473505
0.71705581
0.71787978
0.71870701
0.71953706
0.72036948
0.72120374
0.72203933
0.72287568
0.72371223
0.7245484
0.7253836
0.72621722
0.72704868
0.72787736
0.72870267
0.72952402
0.73034082
0.73115249
0.73195849
0.73275827
0.7335513
0.73433708
0.73511512
0.73588497
0.73664618
0.73739836
0.73814111
0.73887408
0.73959693
0.74030936
0.7410111
0.7417019
0.74238153
0.74304979
0.74370651
0.74435156
0.74498479
0.74560612
0.74621547
0.74681277
0.747398
0.74797112
0.74853214
0.74908106
0.74961792
0.75014274
0.75065557
0.75115647
0.75164551
0.75212274
0.75258826
0.75304216
0.75348452
0.75391542
0.75433485
0.71711055
0.71793315
0.71875904
0.71958777
0.72041888
0.72125187
0.7220862
0.72292132
0.72375666
0.72459163
0.72542566
0.72625813
0.72708845
0.72791602
0.72874023
0.7295605
0.73037624
0.73118688
0.73199186
0.73279063
0.73358268
0.73436749
0.73514459
0.73591352
0.73667383
0.73742512
0.738167
0.73889912
0.73962115
0.74033277
0.74103372
0.74172375
0.74240263
0.74307016
0.74372617
0.74437052
0.74500308
0.74562376
0.74623246
0.74682915
0.74741377
0.74798631
0.74854676
0.74909513
0.74963146
0.75015577
0.75066811
0.75116853
0.7516571
0.7521339
0.752599
0.75305251
0.75349451
0.75392503
0.75434405
0.71717224
0.7179933
0.71881767
0.71964492
0.72047457
0.72130612
0.72213904
0.72297277
0.72380674
0.72464037
0.72547308
0.72630425
0.7271333
0.72795961
0.72878259
0.72960165
0.73041619
0.73122566
0.73202949
0.73282714
0.73361808
0.73440181
0.73517785
0.73594573
0.73670502
0.73745532
0.73819622
0.73892739
0.73964848
0.7403592
0.74105926
0.74174842
0.74242645
0.74309316
0.74374837
0.74439194
0.74502374
0.74564368
0.74625167
0.74684765
0.7474316
0.74800348
0.74856329
0.74911105
0.74964678
0.75017051
0.75068229
0.75118218
0.75167023
0.75214653
0.75261116
0.75306422
0.7535058
0.75393588
0.71724135
0.71806069
0.71888336
0.71970895
0.72053696
0.72136691
0.72219824
0.72303042
0.72386286
0.724695
0.72552622
0.72635594
0.72718356
0.72800847
0.72883007
0.72964777
0.73046098
0.73126914
0.73207169
0.73286808
0.73365778
0.7344403
0.73521514
0.73598186
0.73674001
0.73748919
0.738229
0.7389591
0.73967915
0.74038885
0.74108792
0.7417761
0.74245319
0.74311897
0.74377329
0.74441598
0.74504693
0.74566604
0.74627323
0.74686843
0.74745162
0.74802276
0.74858186
0.74912893
0.74966399
0.75018708
0.75069824
0.75119753
0.751685
0.75216074
0.75262483
0.75307739
0.75351846
0.753948
0.71731837
0.71813579
0.71895658
0.71978031
0.72060651
0.72143466
0.72226424
0.72309469
0.72392543
0.72475589
0.72558547
0.72641358
0.7272396
0.72806295
0.72888301
0.7296992
0.73051093
0.73131764
0.73211875
0.73291373
0.73370206
0.73448322
0.73525674
0.73602216
0.73677904
0.73752698
0.73826558
0.73899448
0.73971337
0.74042193
0.74111989
0.741807
0.74248303
0.74314779
0.7438011
0.74444283
0.74507283
0.74569102
0.74629731
0.74689164
0.74747398
0.74804431
0.74860262
0.74914892
0.74968323
0.7502056
0.75071607
0.75121469
0.75170152
0.75217663
0.75264012
0.75309208
0.75353259
0.71740382
0.71821911
0.71903782
0.71985949
0.72068367
0.72150984
0.72233747
0.723166
0.72399486
0.72482347
0.72565123
0.72647754
0.72730181
0.72812342
0.72894178
0.72975629
0.73056638
0.73137146
0.73217099
0.73296442
0.73375121
0.73453088
0.73530293
0.73606691
0.73682239
0.73756894
0.73830619
0.73903378
0.73975138
0.74045868
0.74115541
0.74184132
0.74251619
0.74317981
0.74383201
0.74447265
0.74510161
0.74571877
0.74632407
0.74691744
0.74749884
0.74806826
0.74862569
0.74917114
0.74970463
0.75022621
0.75073591
0.75123379
0.7517199
0.75219432
0.75265712
0.75310841
0.75354822
0.71749824
0.71831118
0.71912758
0.71994699
0.72076894
0.72159293
0.72241841
0.72324482
0.7240716
0.72489817
0.72572391
0.72654825
0.72737056
0.72819026
0.72900674
0.7298194
0.73062767
0.73143098
0.73222875
0.73302045
0.73380556
0.73458358
0.73535401
0.7361164
0.73687032
0.73761535
0.73835111
0.73907724
0.73979342
0.74049933
0.74119471
0.74187929
0.74255287
0.74321523
0.74386621
0.74450566
0.74513345
0.74574948
0.74635369
0.74694599
0.74752636
0.74809478
0.74865123
0.74919574
0.74972832
0.75024902
0.75075788
0.75125495
0.75174027
0.75221391
0.75267594
0.75312644
0.71760219
0.71841255
0.71922641
0.72004333
0.72086283
0.72168441
0.72250753
0.72333162
0.72415611
0.72498042
0.72580395
0.72662611
0.72744629
0.72826388
0.72907829
0.72988892
0.73069519
0.73149653
0.73229237
0.73308219
0.73386544
0.73464163
0.73541028
0.73617092
0.73692312
0.73766648
0.7384006
0.73912513
0.73983974
0.74054413
0.74123801
0.74192114
0.74259329
0.74325427
0.7439039
0.74454204
0.74516855
0.74578335
0.74638634
0.74697747
0.74755671
0.74812402
0.7486794
0.74922288
0.74975446
0.75027419
0.75078212
0.75127829
0.75176275
0.75223554
0.7526967
0.75314628
0.71771626
0.71852379
0.71933487
0.72014905
0.72096588
0.72178482
0.72260534
0.72342688
0.72424886
0.72507071
0.72589181
0.72671158
0.72752941
0.72834469
0.72915683
0.72996523
0.73076931
0.7315685
0.73236223
0.73314996
0.73393118
0.73470537
0.73547206
0.73623079
0.73698111
0.73772263
0.73845495
0.73917773
0.73989062
0.74059333
0.74128557
0.7419671
0.7426377
0.74329716
0.74394531
0.74458201
0.74520712
0.74582056
0.74642222
0.74701207
0.74759006
0.74815616
0.74871037
0.7492527
0.74978319
0.75030186
0.75080877
0.75130397
0.75178749
0.75225933
0.75271953
0.75316811
0.71784106
0.71864549
0.71945353
0.72026473
0.72107862
0.72189468
0.72271237
0.72353112
0.72435036
0.72516951
0.72598796
0.72680512
0.72762038
0.72843314
0.7292428
0.73004876
0.73085044
0.73164727
0.73243869
0.73322415
0.73400314
0.73477515
0.7355397
0.73629633
0.7370446
0.7377841
0.73851446
0.73923531
0.73994632
0.7406472
0.74133765
0.74201743
0.74268633
0.74334413
0.74399066
0.74462578
0.74524937
0.74586131
0.74646153
0.74704997
0.74762659
0.74819136
0.74874429
0.74928538
0.74981467
0.75033218
0.75083798
0.75133212
0.75181461
0.75228543
0.75274455
0.75319208
0.71797723
0.71877829
0.71958301
0.72039096
0.72120165
0.72201457
0.72282916
0.72364487
0.72446113
0.72527733
0.7260929
0.72690721
0.72771967
0.72852968
0.72933663
0.73013992
0.73093899
0.73173325
0.73252215
0.73330514
0.7340817
0.73485132
0.73561353
0.73636787
0.7371139
0.73785122
0.73857943
0.73929818
0.74000714
0.74070601
0.74139451
0.74207239
0.74273943
0.74339542
0.74404019
0.74467359
0.74529551
0.74590582
0.74650447
0.74709137
0.7476665
0.74822983
0.74878135
0.74932109
0.74984906
0.75036531
0.7508699
0.75136287
0.75184425
0.75231395
0.75277188
0.71812543
0.71892281
0.71972393
0.72052834
0.72133555
0.72214505
0.72295629
0.7237687
0.7245817
0.72539471
0.72620712
0.72701834
0.72782776
0.72863477
0.72943877
0.73023918
0.7310354
0.73182686
0.73261301
0.73339331
0.73416722
0.73493426
0.73569393
0.73644578
0.73718937
0.7379243
0.73865017
0.73936665
0.74007338
0.74077007
0.74145645
0.74213225
0.74279726
0.74345128
0.74409413
0.74472567
0.74534577
0.74595432
0.74655124
0.74713648
0.74770998
0.74827174
0.74882174
0.74935999
0.74988653
0.7504014
0.75090466
0.75139638
0.75187655
0.75234501
0.7528016
0.71828633
0.71907973
0.71987693
0.7206775
0.72148095
0.72228674
0.72309433
0.72390316
0.72471263
0.72552217
0.72633117
0.72713903
0.72794514
0.7287489
0.72954971
0.73034697
0.7311401
0.73192853
0.73271171
0.73348908
0.73426012
0.73502434
0.73578126
0.7365304
0.73727135
0.73800368
0.73872703
0.73944102
0.74014533
0.74083966
0.74152373
0.74219728
0.7428601
0.74351198
0.74415275
0.74478226
0.74540038
0.74600701
0.74660207
0.74718549
0.74775724
0.74831729
0.74886563
0.74940227
0.74992726
0.75044062
0.75094243
0.75143275
0.75191158
0.71846063
0.71924971
0.72004268
0.7208391
0.72163847
0.72244025
0.7232439
0.72404884
0.7248545
0.72566028
0.72646558
0.7272698
0.72807233
0.72887257
0.72966992
0.73046378
0.73125357
0.73203871
0.73281866
0.73359286
0.7343608
0.73512198
0.7358759
0.73662212
0.7373602
0.73808973
0.73881033
0.73952164
0.74022333
0.7409151
0.74159666
0.74226778
0.74292822
0.74357778
0.7442163
0.74484361
0.74545959
0.74606415
0.74665718
0.74723864
0.74780848
0.74836668
0.74891322
0.74944812
0.74997141
0.75048314
0.75098335
0.75147212
0.71864903
0.71943345
0.72022186
0.7210138
0.72180876
0.72260621
0.7234056
0.72420635
0.72500788
0.7258096
0.72661091
0.7274112
0.72820987
0.7290063
0.72979991
0.73059009
0.73137627
0.73215786
0.73293432
0.7337051
0.73446968
0.73522756
0.73597825
0.73672131
0.73745629
0.73818278
0.73890042
0.73960883
0.74030768
0.74099668
0.74167555
0.74234403
0.7430019
0.74364896
0.74428504
0.74490998
0.74552365
0.74612596
0.74671681
0.74729615
0.74786393
0.74842012
0.74896472
0.74949773
0.75001919
0.75052913
0.7510276
0.7515146
0.71807727
0.71885224
0.71963166
0.72041516
0.72120228
0.7219925
0.72278528
0.72358008
0.72437631
0.72517339
0.72597074
0.72676774
0.72756379
0.72835828
0.72915062
0.72994019
0.7307264
0.73150868
0.73228644
0.73305914
0.73382623
0.73458718
0.7353415
0.73608872
0.73682836
0.73755999
0.73828322
0.73899765
0.73970293
0.74039873
0.74108475
0.7417607
0.74242634
0.74308144
0.7437258
0.74435924
0.74498162
0.74559281
0.74619269
0.74678119
0.74735824
0.74792379
0.74847782
0.74902033
0.7495513
0.75007078
0.75057878
0.75107535
0.75156046
0.71830149
0.71907099
0.71984506
0.7206233
0.72140524
0.72219035
0.72297812
0.72376797
0.72455934
0.72535164
0.72614427
0.72693664
0.72772813
0.72851813
0.72930605
0.73009127
0.73087322
0.7316513
0.73242494
0.73319358
0.73395669
0.73471375
0.73546424
0.7362077
0.73694367
0.73767171
0.73839141
0.7391024
0.73980431
0.74049682
0.74117962
0.74185243
0.74251501
0.74316713
0.74380858
0.74443919
0.74505881
0.74566732
0.74626459
0.74685055
0.74742514
0.7479883
0.74854001
0.74908025
0.74960903
0.75012637
0.75063229
0.75112681
0.7516099
0.71854242
0.71930609
0.72007442
0.72084701
0.72162338
0.72240302
0.7231854
0.72396994
0.72475609
0.72554325
0.72633082
0.7271182
0.72790479
0.72868997
0.72947314
0.7302537
0.73103105
0.73180462
0.73257382
0.73333812
0.73409695
0.73484981
0.7355962
0.73633563
0.73706764
0.73779181
0.73850773
0.73921501
0.7399133
0.74060228
0.74128162
0.74195107
0.74261035
0.74325926
0.74389759
0.74452516
0.74514182
0.74574744
0.74634192
0.74692515
0.74749709
0.74805768
0.74860689
0.7491447
0.74967112
0.75018616
0.75068985
0.75118218
0.75166313
0.7188009
0.7195583
0.72032048
0.72108701
0.72185742
0.72263119
0.72340779
0.72418664
0.72496719
0.72574884
0.72653098
0.72731302
0.72809435
0.72887435
0.72965243
0.73042799
0.73120042
0.73196914
0.7327336
0.73349322
0.73424747
0.73499583
0.7357378
0.73647291
0.73720068
0.7379207
0.73863256
0.73933587
0.74003028
0.74071545
0.7413911
0.74205692
0.74271268
0.74335815
0.74399313
0.74461744
0.74523092
0.74583345
0.74642492
0.74700523
0.74757433
0.74813216
0.74867868
0.7492139
0.74973779
0.75025037
0.75075166
0.75124166
0.75172034
0.71907771
0.7198284
0.72058399
0.72134403
0.72210806
0.72287555
0.72364597
0.72441874
0.72519329
0.72596904
0.72674537
0.72752169
0.72829739
0.72907186
0.72984449
0.73061468
0.73138184
0.73214538
0.73290474
0.73365936
0.7344087
0.73515225
0.73588949
0.73661996
0.7373432
0.73805878
0.73876628
0.73946534
0.74015559
0.7408367
0.74150837
0.74217033
0.74282231
0.7434641
0.74409549
0.7447163
0.74532638
0.7459256
0.74651385
0.74709104
0.74765709
0.74821197
0.74875562
0.74928805
0.74980923
0.75031919
0.75081792
0.75130543
0.7517817
0.71937362
0.72011715
0.72086569
0.72161881
0.72237602
0.72313681
0.72390062
0.72466689
0.72543504
0.72620447
0.7269746
0.72774481
0.72851449
0.72928303
0.73004984
0.7308143
0.73157582
0.73233382
0.73308774
0.73383701
0.73458111
0.7353195
0.73605169
0.73677721
0.7374956
0.73820642
0.73890928
0.73960379
0.74028959
0.74096636
0.74163379
0.7422916
0.74293955
0.7435774
0.74420495
0.74482203
0.74542847
0.74602415
0.74660896
0.74718281
0.74774561
0.74829733
0.74883793
0.74936737
0.74988567
0.75039282
0.75088882
0.75137369
0.75184738
0.71968939
0.72042528
0.72116632
0.72191205
0.722662
0.72341563
0.7241724
0.72493173
0.72569305
0.72645576
0.72721926
0.72798295
0.72874621
0.72950844
0.73026903
0.73102737
0.73178288
0.73253497
0.73328308
0.73402664
0.73476513
0.73549803
0.73622483
0.73694506
0.73765827
0.73836402
0.73906192
0.73975157
0.74043263
0.74110476
0.74176766
0.74242106
0.74306469
0.74369834
0.7443218
0.7449349
0.74553746
0.74612937
0.74671051
0.74728079
0.74784013
0.74838848
0.7489258
0.74945208
0.74996729
0.75047145
0.75096456
0.75144661
0.75191757
0.72002576
0.72075352
0.72148658
0.72222445
0.72296667
0.72371268
0.72446195
0.7252139
0.72596795
0.7267235
0.72747995
0.72823669
0.72899311
0.72974861
0.73050257
0.7312544
0.7320035
0.73274929
0.73349121
0.7342287
0.73496122
0.73568826
0.73640931
0.73712392
0.73783161
0.73853196
0.73922456
0.73990904
0.74058504
0.74125224
0.74191032
0.74255901
0.74319805
0.74382723
0.74444633
0.74505517
0.74565361
0.7462415
0.74681873
0.74738521
0.74794086
0.74848563
0.74901947
0.74954237
0.7500543
0.75055528
0.7510453
0.75152436
0.75199244
0.72038343
0.72110258
0.72182715
0.72255668
0.72329067
0.7240286
0.7247699
0.725514
0.72626032
0.72700825
0.72775721
0.72850657
0.72925572
0.73000406
0.73075098
0.73149588
0.73223816
0.73297726
0.73371259
0.73444361
0.73516979
0.73589059
0.73660554
0.73731415
0.73801597
0.73871058
0.73939756
0.74007654
0.74074717
0.74140911
0.74206206
0.74270574
0.7433399
0.74396432
0.74457879
0.74518312
0.74577716
0.74636078
0.74693385
0.74749629
0.74804802
0.74858898
0.74911913
0.74963843
0.75014689
0.75064449
0.75113124
0.75160713
0.75207213
0.72076308
0.72147309
0.72218867
0.72290935
0.72363463
0.72436398
0.72509683
0.7258326
0.72657072
0.72731058
0.72805157
0.7287931
0.72953453
0.73027528
0.73101472
0.73175226
0.73248732
0.7332193
0.73394764
0.7346718
0.73539123
0.73610542
0.73681388
0.73751613
0.73821173
0.73890023
0.73958124
0.74025438
0.7409193
0.74157566
0.74222317
0.74286154
0.74349052
0.74410989
0.74471943
0.74531897
0.74590835
0.74648743
0.7470561
0.74761426
0.74816182
0.74869874
0.74922496
0.74974047
0.75024523
0.75073925
0.75122254
0.75169507
0.75215682
0.72116531
0.72186566
0.72257173
0.72328304
0.72399911
0.72471937
0.72544327
0.72617023
0.72689967
0.72763097
0.72836353
0.72909675
0.72983002
0.73056271
0.73129423
0.73202398
0.73275137
0.73347581
0.73419675
0.73491363
0.73562592
0.7363331
0.73703468
0.7377302
0.73841918
0.73910122
0.73977591
0.74044286
0.74110172
0.74175218
0.74239391
0.74302665
0.74365015
0.74426416
0.74486849
0.74546296
0.7460474
0.74662167
0.74718567
0.74773929
0.74828245
0.74881508
0.74933716
0.74984863
0.75034949
0.75083972
0.75131934
0.75178831
0.75224663
0.72159067
0.72228082
0.72297685
0.72367828
0.7243846
0.72509527
0.72580971
0.72652736
0.72724761
0.72796987
0.72869352
0.72941796
0.73014258
0.73086676
0.7315899
0.73231141
0.73303068
0.73374716
0.73446026
0.73516944
0.73587417
0.73657394
0.73726825
0.73795663
0.73863863
0.73931383
0.73998182
0.74064223
0.74129469
0.7419389
0.74257453
0.74320131
0.743819
0.74442735
0.74502617
0.74561527
0.74619448
0.74676368
0.74732274
0.74787156
0.74841006
0.74893818
0.74945586
0.74996307
0.7504598
0.75094604
0.75142178
0.75188701
0.75234169
0.72203962
0.72271903
0.72340448
0.72409549
0.72479154
0.72549209
0.72619656
0.72690438
0.72761495
0.72832766
0.72904191
0.72975708
0.73047257
0.73118777
0.73190207
0.73261487
0.73332558
0.73403363
0.73473846
0.73543952
0.73613627
0.73682821
0.73751484
0.73819569
0.73887032
0.73953829
0.74019922
0.74085271
0.74149842
0.74213602
0.74276521
0.74338571
0.74399727
0.74459965
0.74519264
0.74577607
0.74634978
0.74691362
0.74746746
0.74801122
0.7485448
0.74906815
0.7495812
0.75008393
0.75057631
0.75105832
0.75152998
0.75199125
0.7524421
0.72251252
0.72318064
0.72385497
0.72453501
0.72522026
0.72591016
0.72660414
0.72730161
0.72800198
0.72870464
0.72940898
0.7301144
0.73082027
0.731526
0.73223098
0.73293461
0.73363631
0.73433549
0.7350316
0.73572409
0.73641243
0.73709612
0.73777466
0.73844758
0.73911443
0.73977479
0.74042827
0.74107448
0.74171307
0.74234372
0.74296612
0.74358
0.74418509
0.74478118
0.74536804
0.74594551
0.7465134
0.74707159
0.74761995
0.74815838
0.74868679
0.74920511
0.74971329
0.75021129
0.75069908
0.75117666
0.75164402
0.75210113
0.75254795
0.72300961
0.72366588
0.72432854
0.72499708
0.72567098
0.7263497
0.72703266
0.72771926
0.72840891
0.72910101
0.72979494
0.7304901
0.73118587
0.73188165
0.73257683
0.73327081
0.73396302
0.73465288
0.73533982
0.73602331
0.73670281
0.73737781
0.73804784
0.73871242
0.7393711
0.74002346
0.7406691
0.74130765
0.74193876
0.7425621
0.74317736
0.74378427
0.74438257
0.74497204
0.74555246
0.74612365
0.74668544
0.7472377
0.74778029
0.74831311
0.74883608
0.74934912
0.74985218
0.75034522
0.7508282
0.75130112
0.75176396
0.7522167
0.75265929
0.72353096
0.72417485
0.72482528
0.72548177
0.7261438
0.7268108
0.7274822
0.72815741
0.72883583
0.72951685
0.73019987
0.73088427
0.73156944
0.73225478
0.73293968
0.73362355
0.7343058
0.73498587
0.73566319
0.73633723
0.73700745
0.73767335
0.73833444
0.73899026
0.73964037
0.74028433
0.74092176
0.74155227
0.74217552
0.74279119
0.74339896
0.74399856
0.74458974
0.74517227
0.74574593
0.74631054
0.74686593
0.74741196
0.7479485
0.74847545
0.74899272
0.74950022
0.74999792
0.75048575
0.75096369
0.75143172
0.75188983
0.75233798
0.75277614
0.72407651
0.72470746
0.72534513
0.72598904
0.72663865
0.72729341
0.72795273
0.72861603
0.72928269
0.72995213
0.73062372
0.73129686
0.73197094
0.73264535
0.73331949
0.73399277
0.73466461
0.73533443
0.73600168
0.73666582
0.73732632
0.73798269
0.73863443
0.73928109
0.73992221
0.74055738
0.7411862
0.74180831
0.74242333
0.74303097
0.7436309
0.74422285
0.74480658
0.74538183
0.74594842
0.74650614
0.74705483
0.74759435
0.74812456
0.74864536
0.74915666
0.74965838
0.75015046
0.75063285
0.75110552
0.75156844
0.7520216
0.75246496
0.75289848
0.72464598
0.72526345
0.72588783
0.72651862
0.7271553
0.72779728
0.72844401
0.72909488
0.72974928
0.73040663
0.7310663
0.73172769
0.73239019
0.73305319
0.73371609
0.73437831
0.73503926
0.73569838
0.73635512
0.73700892
0.73765928
0.73830569
0.73894767
0.73958475
0.74021649
0.74084248
0.74146231
0.74207563
0.74268207
0.74328131
0.74387306
0.74445703
0.74503296
0.74560063
0.74615982
0.74671036
0.74725205
0.74778477
0.74830838
0.74882277
0.74932784
0.74982352
0.75030974
0.75078645
0.75125362
0.75171122
0.75215922
0.75259758
0.75302625
0.72523885
0.72584233
0.72645291
0.72707007
0.72769329
0.728322
0.72895562
0.72959356
0.73023521
0.73087997
0.73152723
0.73217638
0.73282682
0.73347794
0.73412914
0.73477984
0.73542946
0.73607743
0.73672321
0.73736625
0.73800604
0.73864207
0.73927387
0.73990098
0.74052295
0.74113937
0.74174984
0.742354
0.7429515
0.74354201
0.74412522
0.74470087
0.7452687
0.74582846
0.74637996
0.746923
0.74745742
0.74798306
0.74849979
0.7490075
0.74950609
0.74999548
0.75047561
0.75094642
0.75140787
0.75185992
0.75230255
0.75273571
0.75315934
0.72585438
0.72644337
0.72703964
0.72764268
0.72825195
0.7288669
0.72948693
0.73011145
0.73073986
0.73137156
0.73200594
0.73264239
0.7332803
0.73391908
0.73455813
0.73519686
0.73583471
0.7364711
0.73710549
0.73773735
0.73836615
0.73899141
0.73961264
0.74022938
0.7408412
0.74144768
0.74204843
0.74264308
0.74323128
0.74381271
0.74438707
0.74495408
0.74551348
0.74606504
0.74660855
0.74714381
0.74767066
0.74818895
0.74869854
0.74919931
0.74969117
0.75017404
0.75064785
0.75111253
0.75156805
0.75201436
0.75245142
0.75287919
0.75329758
0.72649151
0.72706555
0.72764704
0.72823549
0.72883035
0.72943106
0.73003703
0.73064768
0.73126239
0.73188058
0.73250162
0.73312492
0.73374986
0.73437587
0.73500233
0.73562868
0.73625433
0.73687873
0.73750132
0.7381216
0.73873902
0.73935311
0.73996339
0.7405694
0.7411707
0.74176689
0.74235757
0.74294237
0.74352094
0.74409297
0.74465815
0.74521621
0.74576689
0.74630995
0.74684518
0.74737239
0.74789141
0.74840208
0.74890428
0.74939787
0.74988277
0.75035889
0.75082615
0.7512845
0.75173388
0.75217426
0.75260558
0.75302777
0.75344075
0.72714887
0.72770751
0.7282738
0.72884722
0.72942723
0.73001327
0.73060476
0.7312011
0.73180169
0.73240593
0.73301322
0.73362294
0.73423451
0.73484733
0.7354608
0.73607436
0.73668742
0.73729943
0.73790986
0.73851817
0.73912385
0.73972641
0.74032538
0.7409203
0.74151075
0.7420963
0.74267658
0.74325121
0.74381985
0.74438217
0.74493788
0.7454867
0.74602836
0.74656265
0.74708934
0.74760824
0.74811917
0.74862199
0.74911655
0.74960274
0.75008046
0.75054961
0.75101012
0.75146194
0.751905
0.75233927
0.75276468
0.75318114
0.75358855
0.72782469
0.72836755
0.72891825
0.72947625
0.73004102
0.73061201
0.73118862
0.73177026
0.73235633
0.73294624
0.73353938
0.73413516
0.73473297
0.73533222
0.73593233
0.73653273
0.73713284
0.73773211
0.73833001
0.73892601
0.73951961
0.7401103
0.74069764
0.74128116
0.74186043
0.74243504
0.74300462
0.74356878
0.74412719
0.74467953
0.7452255
0.74576481
0.74629721
0.74682247
0.74734037
0.74785072
0.74835334
0.74884807
0.74933479
0.74981336
0.75028368
0.75074567
0.75119925
0.75164435
0.75208092
0.75250892
0.75292827
0.75333884
0.72851683
0.72904358
0.72957834
0.73012058
0.73066978
0.73122536
0.73178675
0.73235335
0.73292456
0.7334998
0.73407846
0.73465994
0.73524365
0.73582901
0.73641543
0.73700234
0.73758917
0.73817539
0.73876045
0.73934383
0.73992504
0.74050358
0.74107898
0.74165081
0.74221863
0.74278203
0.74334063
0.74389407
0.744442
0.7449841
0.74552007
0.74604964
0.74657255
0.74708856
0.74759745
0.74809904
0.74859314
0.74907959
0.74955826
0.75002903
0.75049178
0.75094642
0.75139288
0.7518311
0.75226103
0.75268259
0.75309567
0.72922267
0.72973304
0.7302516
0.73077781
0.73131114
0.73185104
0.73239691
0.73294818
0.73350425
0.73406453
0.73462841
0.73519532
0.73576465
0.73633583
0.73690828
0.73748142
0.73805471
0.7386276
0.73919955
0.73977006
0.74033861
0.74090474
0.74146797
0.74202786
0.74258398
0.74313594
0.74368334
0.74422583
0.74476306
0.74529471
0.74582049
0.74634012
0.74685333
0.7473599
0.7478596
0.74835224
0.74883765
0.74931565
0.74978611
0.75024891
0.75070393
0.75115107
0.75159027
0.75202145
0.75244455
0.75285945
0.72993912
0.73043291
0.73093506
0.73144503
0.73196229
0.73248628
0.73301643
0.73355215
0.73409285
0.73463795
0.73518684
0.73573895
0.73629368
0.73685046
0.73740871
0.73796788
0.7385274
0.73908674
0.73964538
0.7402028
0.7407585
0.74131202
0.74186287
0.74241063
0.74295488
0.7434952
0.74403123
0.74456259
0.74508895
0.74560999
0.74612541
0.74663493
0.7471383
0.74763527
0.74812564
0.7486092
0.74908577
0.74955519
0.75001731
0.75047201
0.75091917
0.7513587
0.7517905
0.7522145
0.75263061
0.75303869
0.73066252
0.73113963
0.73162525
0.73211885
0.73261991
0.73312787
0.73364216
0.73416219
0.73468738
0.73521714
0.7357509
0.73628805
0.73682803
0.73737026
0.73791418
0.73845921
0.73900483
0.73955049
0.74009566
0.74063985
0.74118256
0.74172332
0.74226167
0.74279717
0.74332941
0.74385797
0.7443825
0.74490261
0.74541798
0.74592829
0.74643324
0.74693255
0.74742597
0.74791325
0.74839418
0.74886856
0.7493362
0.74979694
0.75025064
0.75069716
0.75113638
0.7515682
0.75199252
0.75240926
0.75281831
0.75321953
0.73138865
0.73184905
0.73231813
0.73279534
0.73328017
0.73377205
0.73427043
0.73477472
0.73528434
0.73579872
0.73631727