/*--------------------------------*- C++ -*----------------------------------*\
| =========                 |                                                 |
| \\      /  F ield         | OpenFOAM: The Open Source CFD Toolbox           |
|  \\    /   O peration     | Version:  2312                                  |
|   \\  /    A nd           | Website:  www.openfoam.com                      |
|    \\/     M anipulation  |                                                 |
\*---------------------------------------------------------------------------*/
FoamFile
{
    version     2.0;
    format      ascii;
    arch        "LSB;label=32;scalar=64";
    class       volScalarField;
    location    "0.1";
    object      nut;
}
// * * * * * * * * * * * * * * * * * * * * * * * * * * * * * * * * * * * * * //

dimensions      [0 2 -1 0 0 0 0];

internalField   nonuniform List<scalar> 
3251
(
0.032941761
0.033063291
0.03319178
0.033327273
0.03346982
0.033619471
0.033776274
0.033940273
0.034111512
0.034290032
0.034475869
0.034669058
0.034869628
0.035077605
0.035293009
0.035515857
0.035746158
0.035983913
0.03622912
0.036481765
0.036741826
0.037009272
0.037284062
0.037566143
0.037855448
0.038151899
0.038455405
0.038765859
0.039083138
0.039407103
0.039737601
0.040074459
0.040417489
0.040766481
0.041121212
0.041481438
0.041846897
0.042217309
0.042592378
0.042971789
0.043355211
0.043742299
0.044132691
0.044526012
0.044921874
0.045319876
0.04571961
0.046120655
0.046522584
0.046924962
0.047327349
0.047729265
0.048130241
0.048529868
0.048927723
0.049323366
0.049716351
0.050106245
0.03294172
0.033063271
0.033191783
0.033327298
0.033469868
0.033619541
0.033776365
0.033940386
0.034111646
0.034290187
0.034476045
0.034669253
0.034869843
0.035077839
0.035293262
0.035516129
0.035746447
0.035984221
0.036229445
0.036482106
0.036742184
0.037009646
0.037284451
0.037566545
0.037855864
0.038152329
0.038455847
0.038766312
0.039083601
0.039407575
0.039738082
0.040074947
0.040417982
0.040766979
0.041121713
0.041481941
0.0418474
0.042217812
0.042592878
0.042972286
0.043355704
0.043742786
0.04413317
0.044526482
0.044922334
0.045320325
0.045720046
0.046121077
0.046522989
0.04692535
0.047327716
0.047729616
0.04813059
0.04853022
0.048928073
0.049323707
0.049716668
0.05010652
0.032941801
0.033063406
0.033191969
0.033327533
0.033470151
0.033619871
0.033776741
0.033940806
0.034112109
0.034290691
0.034476588
0.034669836
0.034870463
0.035078495
0.035293953
0.035516853
0.035747203
0.035985007
0.036230261
0.03648295
0.036743054
0.037010541
0.037285369
0.037567486
0.037856825
0.038153308
0.038456842
0.038767322
0.039084624
0.03940861
0.039739125
0.040075998
0.040419038
0.040768038
0.041122773
0.041483
0.041848456
0.042218862
0.042593921
0.04297332
0.043356726
0.043743794
0.044134164
0.044527458
0.044923291
0.045321261
0.045720959
0.046121966
0.046523852
0.046926184
0.04732852
0.047730395
0.048131356
0.048530975
0.048928816
0.04932443
0.049717357
0.050107168
0.032942003
0.033063692
0.033192335
0.033327977
0.033470668
0.03362046
0.033777399
0.033941531
0.034112898
0.034291542
0.034477499
0.034670804
0.034871486
0.035079571
0.03529508
0.035518028
0.035748424
0.035986272
0.036231566
0.036484295
0.036744435
0.037011956
0.037286816
0.037568962
0.037858328
0.038154835
0.038458391
0.038768889
0.039086207
0.039410206
0.039740732
0.040077612
0.040420657
0.040769659
0.041124393
0.041484615
0.041850065
0.042220461
0.042595508
0.042974891
0.043358279
0.043745327
0.044135673
0.044528942
0.044924746
0.045322687
0.045722353
0.046123325
0.046525175
0.04692747
0.047329766
0.047731606
0.048132541
0.048532138
0.048929955
0.049325542
0.049718428
0.050108192
0.03294233
0.033064132
0.033192883
0.033328629
0.03347142
0.033621308
0.03377834
0.033942561
0.034114015
0.034292741
0.034478778
0.034672159
0.034872913
0.035081068
0.035296643
0.035519654
0.03575011
0.035988015
0.036233363
0.036486141
0.036746328
0.037013893
0.037288793
0.037570975
0.037860374
0.038156911
0.038460493
0.038771014
0.039088351
0.039412366
0.039742903
0.040079791
0.04042284
0.040771843
0.041126574
0.041486789
0.041852228
0.042222611
0.04259764
0.042977002
0.043360366
0.043747386
0.044137701
0.044530937
0.044926705
0.045324606
0.04572423
0.046125159
0.046526964
0.046929211
0.047331458
0.047733255
0.048134153
0.048533716
0.048931499
0.049327047
0.049719884
0.032942755
0.033064693
0.033193572
0.03332944
0.03347235
0.033622352
0.033779494
0.03394382
0.034115376
0.034294199
0.034480329
0.0346738
0.03487464
0.035082876
0.035298528
0.035521613
0.035752139
0.035990109
0.036235518
0.036488354
0.036748595
0.03701621
0.037291156
0.03757338
0.037862816
0.038159386
0.038462998
0.038773544
0.039090902
0.039414933
0.039745482
0.040082378
0.040425431
0.040774433
0.04112916
0.041489366
0.041854792
0.042225157
0.042600165
0.042979502
0.043362838
0.043749825
0.044140105
0.044533301
0.044929027
0.045326883
0.04572646
0.046127339
0.046529092
0.046931286
0.04733348
0.047735226
0.048136079
0.048535599
0.04893334
0.049328841
0.049721619
0.03294326
0.033065348
0.033194372
0.033330378
0.033473422
0.033623552
0.033780816
0.033945261
0.03411693
0.034295863
0.034482097
0.034675667
0.034876603
0.03508493
0.035300668
0.035523835
0.035754438
0.035992481
0.036237959
0.036490859
0.03675116
0.037018829
0.037293826
0.037576095
0.037865573
0.03816218
0.038465823
0.038776396
0.039093776
0.039417825
0.039748388
0.040085292
0.040428348
0.040777349
0.041132069
0.041492266
0.041857676
0.042228022
0.042603006
0.042982315
0.043365619
0.043752571
0.04414281
0.044535964
0.044931643
0.045329449
0.045728974
0.046129798
0.046531494
0.04693363
0.047335766
0.047737457
0.048138259
0.048537729
0.04893542
0.049330865
0.049723586
0.032943885
0.033066152
0.033195347
0.033331518
0.03347472
0.033625002
0.033782413
0.033946998
0.034118802
0.034297864
0.034484222
0.03467791
0.034878959
0.035087393
0.035303234
0.035526497
0.035757191
0.03599532
0.036240879
0.036493854
0.036754224
0.037021958
0.037297013
0.037579336
0.037868862
0.038165511
0.038469191
0.038779795
0.039097201
0.03942127
0.039751847
0.04008876
0.04043182
0.040780819
0.041135532
0.041495715
0.041861108
0.04223143
0.042606386
0.042985662
0.043368927
0.043755837
0.04414603
0.044539132
0.044934757
0.045332506
0.045731969
0.046132729
0.04653436
0.046936429
0.047338498
0.047740123
0.048140863
0.048540273
0.048937903
0.049333282
0.049725944
0.032944643
0.033067117
0.033196513
0.033332877
0.033476263
0.033626723
0.033784305
0.033949055
0.034121016
0.034300229
0.034486731
0.034680557
0.034881737
0.035090296
0.035306256
0.035529631
0.035760432
0.035998661
0.036244312
0.036497375
0.036757826
0.037025634
0.037300757
0.037583142
0.037872722
0.03816942
0.038473142
0.038783782
0.039101217
0.039425309
0.039755902
0.040092825
0.040435888
0.040784884
0.041139587
0.041499755
0.041865126
0.042235422
0.042610344
0.042989581
0.043372803
0.043759663
0.044149802
0.044542845
0.044938407
0.045336088
0.045735481
0.046136168
0.046537723
0.046939715
0.047341707
0.047743256
0.048143922
0.048543261
0.048940817
0.049336119
0.032945543
0.033068258
0.033197885
0.033334471
0.033478071
0.033628737
0.033786516
0.033951456
0.034123599
0.034302986
0.034489654
0.034683639
0.03488497
0.035093673
0.03530977
0.035533274
0.035764197
0.03600254
0.036248299
0.036501461
0.036762004
0.037029897
0.037305098
0.037587553
0.037877196
0.038173949
0.03847772
0.0387884
0.039105868
0.039429985
0.039760596
0.040097529
0.040440595
0.040789587
0.04114428
0.041504429
0.041869775
0.042240039
0.042614923
0.042994115
0.043377286
0.043764089
0.044154166
0.044547142
0.044942631
0.045340236
0.045739548
0.04614015
0.046541619
0.046943524
0.047345427
0.047746889
0.048147469
0.048546722
0.048944189
0.0493394
0.032946601
0.03306959
0.033199481
0.033336321
0.033480166
0.033631066
0.033789071
0.033954227
0.034126578
0.034306163
0.034493022
0.034687188
0.034888692
0.035097559
0.035313811
0.035537463
0.035768524
0.036006997
0.036252878
0.036506153
0.036766802
0.037034791
0.03731008
0.037592614
0.037882328
0.038179144
0.038482968
0.038793693
0.039111198
0.039435343
0.039765974
0.040102919
0.040445988
0.040794975
0.041149654
0.041509783
0.041875099
0.042245326
0.042620167
0.042999308
0.04338242
0.043769159
0.044159165
0.044552064
0.044947471
0.045344988
0.045744209
0.046144716
0.046546087
0.046947892
0.047349695
0.047751057
0.048151537
0.048550688
0.048948048
0.032947828
0.033071128
0.033201319
0.033338447
0.033482569
0.033633736
0.033791996
0.033957398
0.034129983
0.034309794
0.034496867
0.034691239
0.034892938
0.035101991
0.035318418
0.035542236
0.035773454
0.036012074
0.036258093
0.036511496
0.036772262
0.03704036
0.037315748
0.037598371
0.037888165
0.03818505
0.038488934
0.03879971
0.039117256
0.039441432
0.039772085
0.040109042
0.040452114
0.040801095
0.041155758
0.041515862
0.041881146
0.042251331
0.042626121
0.043005204
0.043388251
0.043774917
0.044164842
0.044557655
0.044952969
0.045350388
0.045749505
0.046149906
0.046551167
0.046952859
0.047354548
0.047755796
0.048156159
0.048555191
0.048952426
0.032949241
0.033072891
0.033203418
0.033340871
0.033485305
0.033636771
0.033795319
0.033960996
0.034133846
0.03431391
0.034501226
0.034695827
0.034897746
0.035107007
0.035323632
0.035547637
0.03577903
0.036017815
0.036263988
0.036517534
0.036778432
0.037046652
0.03732215
0.037604873
0.037894755
0.038191718
0.038495669
0.038806501
0.039124092
0.039448303
0.03977898
0.04011595
0.040459025
0.040807997
0.041162643
0.041522719
0.041887965
0.042258103
0.042632837
0.043011854
0.043394827
0.043781411
0.044171246
0.044563962
0.044959172
0.04535648
0.045755482
0.046155762
0.046556899
0.046958466
0.047360027
0.047761144
0.048161372
0.048560266
0.032950856
0.033074897
0.033205801
0.033343617
0.033488399
0.0336402
0.03379907
0.033965056
0.034138201
0.034318548
0.034506134
0.034700993
0.034903157
0.035112651
0.035329496
0.035553709
0.035785298
0.036024267
0.03627061
0.036524316
0.036785362
0.037053716
0.037329337
0.03761217
0.037902151
0.038199201
0.038503226
0.03881412
0.03913176
0.039456009
0.039786711
0.040123695
0.040466772
0.040815736
0.041170361
0.041530405
0.041895609
0.042265693
0.042640364
0.043019308
0.043402198
0.04378869
0.044178425
0.044571032
0.044966126
0.045363312
0.045762184
0.04616233
0.04656333
0.046964755
0.047366173
0.047767141
0.048167212
0.048565953
0.032952692
0.033077168
0.033208491
0.033346709
0.033491879
0.033644053
0.033803281
0.03396961
0.034143084
0.034323745
0.034511631
0.034706776
0.034909212
0.035118965
0.035336055
0.035560498
0.035792305
0.036031477
0.036278011
0.036531893
0.036793102
0.037061606
0.037337362
0.037620318
0.037910407
0.038207552
0.038511658
0.03882262
0.039140315
0.039464605
0.039795335
0.040132334
0.040475413
0.040824366
0.041178968
0.041538976
0.041904132
0.042274157
0.042648757
0.04302762
0.043410418
0.043796808
0.044186431
0.044578918
0.044973883
0.045370932
0.045769661
0.046169658
0.046570504
0.046971773
0.047373031
0.04777383
0.048173718
0.032954768
0.033079725
0.033211512
0.033350177
0.033495776
0.033648362
0.033807986
0.033974694
0.034148532
0.034329541
0.034517759
0.034713221
0.034915958
0.035125996
0.035343356
0.035568055
0.035800102
0.036039499
0.036286242
0.036540319
0.036801708
0.037070376
0.037346282
0.037629372
0.037919581
0.038216829
0.038521025
0.038832062
0.039149816
0.039474151
0.039804912
0.040141926
0.040485007
0.040833947
0.041188522
0.041548491
0.041913593
0.042283552
0.042658074
0.043036846
0.043419542
0.043805819
0.044195319
0.044587672
0.044982494
0.045379392
0.045777963
0.046177795
0.046578471
0.046979567
0.047380647
0.047781257
0.048180932
0.032957105
0.033082593
0.033214891
0.033354047
0.03350012
0.033653161
0.033813221
0.033980348
0.034154586
0.034335978
0.034524561
0.034720372
0.03492344
0.035133793
0.035351451
0.03557643
0.035808741
0.036048385
0.036295359
0.03654965
0.036811236
0.037080084
0.037356154
0.037639392
0.037929731
0.038227094
0.038531388
0.038842506
0.039160325
0.039484708
0.039815501
0.040152533
0.040495614
0.040844539
0.041199084
0.041559009
0.041924052
0.042293938
0.042668373
0.043047045
0.043429628
0.043815781
0.044205145
0.044597351
0.044992016
0.045388748
0.045787143
0.046186792
0.04658728
0.046988185
0.047389069
0.047789469
0.032959729
0.033085798
0.033218657
0.033358353
0.033504945
0.033658485
0.033819024
0.03398661
0.034161288
0.0343431
0.034532085
0.034728278
0.03493171
0.035142407
0.035360391
0.035585678
0.035818278
0.036058193
0.03630542
0.036559945
0.036821746
0.037090792
0.037367041
0.03765044
0.037940922
0.038238409
0.038542809
0.038854015
0.039171905
0.039496341
0.039827168
0.040164217
0.040507299
0.040856207
0.041210719
0.041570594
0.041935572
0.042305377
0.042679716
0.043058278
0.043440738
0.043826753
0.044215968
0.044608013
0.045002506
0.045399054
0.045797257
0.046196705
0.046596986
0.04699768
0.04739835
0.047798534
0.032962663
0.033089369
0.033222841
0.033363128
0.033510287
0.033664373
0.033825436
0.033993524
0.034168683
0.034350955
0.034540379
0.034736989
0.034940819
0.035151892
0.035370233
0.035595856
0.035828772
0.036068983
0.036316485
0.036571265
0.036833301
0.037102563
0.037379007
0.03766258
0.037953218
0.03825084
0.038555356
0.038866657
0.039184623
0.039509115
0.03983998
0.040177047
0.040520128
0.040869018
0.041223493
0.041583312
0.041948218
0.042317935
0.042692169
0.043070611
0.043452935
0.0438388
0.044227851
0.04461972
0.045014024
0.045410372
0.045808363
0.046207589
0.046607641
0.047008105
0.047408539
0.047808495
0.032965937
0.033093337
0.033227477
0.033368407
0.033516186
0.033670867
0.033832501
0.034001137
0.03417682
0.034359593
0.034549494
0.03474656
0.034950822
0.035162306
0.035381035
0.035607024
0.035840283
0.036080815
0.036328617
0.036583675
0.036845967
0.037115462
0.037392118
0.037675881
0.037966687
0.038264456
0.038569096
0.038880501
0.039198549
0.039523102
0.039854007
0.040191093
0.040534172
0.04088304
0.041237474
0.041597233
0.04196206
0.042331679
0.042705798
0.043084108
0.043466284
0.043851986
0.044240859
0.044632534
0.045026633
0.045422762
0.045820521
0.046219503
0.046619301
0.047019513
0.047419695
0.04781939
0.032969581
0.033097734
0.0332326
0.03337423
0.033522681
0.033678009
0.033840264
0.034009495
0.034185747
0.034369064
0.034559485
0.034757046
0.034961778
0.035173707
0.035392857
0.035619243
0.035852875
0.036093756
0.036341883
0.036597241
0.03685981
0.037129559
0.037406444
0.037690413
0.037981401
0.038279328
0.038584103
0.038895619
0.039213754
0.039538373
0.03986932
0.040206425
0.040549502
0.040898346
0.041252734
0.041612427
0.041977167
0.04234668
0.042720673
0.043098839
0.043480854
0.043866378
0.044255057
0.044646523
0.045040398
0.045436288
0.045833794
0.046232507
0.046632022
0.047031958
0.047431881
0.032973627
0.033102596
0.033238248
0.033380636
0.033529817
0.033685845
0.033848773
0.034018649
0.034195519
0.034379425
0.034570409
0.034768505
0.034973746
0.035186158
0.035405764
0.035632579
0.035866615
0.036107873
0.036356351
0.036612035
0.036874903
0.037144925
0.037422058
0.037706248
0.037997432
0.038295529
0.038600449
0.038912085
0.039230315
0.039555002
0.039885994
0.04022312
0.040566193
0.04091501
0.041269348
0.041628968
0.041993613
0.04236301
0.042736867
0.043114877
0.043496716
0.043882047
0.044270515
0.044661755
0.045055386
0.045451019
0.045848249
0.046246664
0.046645857
0.047045492
0.047445181
0.03297811
0.03310796
0.033244462
0.033387669
0.033537639
0.033694425
0.03385808
0.034028653
0.034206189
0.034390733
0.034582325
0.034780999
0.03498679
0.035199723
0.03541982
0.0356471
0.03588157
0.036123236
0.036372092
0.036628127
0.036891318
0.037161634
0.037439033
0.037723463
0.038014857
0.038313137
0.038618212
0.038929976
0.039248307
0.039573068
0.039904107
0.040241254
0.040584322
0.040933108
0.041287391
0.041646931
0.042011474
0.042380744
0.042754453
0.043132294
0.043513944
0.043899065
0.044287305
0.0446783
0.045071669
0.045467022
0.045863954
0.046262042
0.046660854
0.032983068
0.033113868
0.033251286
0.033395377
0.033546197
0.0337038
0.033868239
0.034039562
0.034217818
0.034403048
0.034595294
0.034794592
0.035000974
0.035214468
0.035435096
0.035662874
0.035897813
0.036139917
0.036389181
0.036645592
0.03690913
0.037179762
0.037457448
0.037742133
0.038033753
0.03833223
0.038637471
0.038949372
0.03926781
0.03959265
0.039923738
0.040260907
0.040603968
0.040952721
0.041306942
0.041666396
0.042030826
0.04239996
0.042773508
0.043151166
0.04353261
0.043917506
0.0443055
0.04469623
0.045089317
0.045484369
0.045880981
0.046278719
0.032988536
0.033120359
0.033258765
0.033403807
0.033555542
0.033714024
0.033879306
0.034051437
0.034230464
0.034416433
0.034609383
0.03480935
0.035016368
0.035230465
0.035451661
0.035679976
0.035915418
0.036157991
0.036407692
0.036664508
0.036928417
0.037199388
0.03747738
0.03776234
0.038054201
0.038352888
0.038658307
0.038970353
0.039288905
0.039613828
0.039944969
0.040282159
0.040625212
0.040973927
0.041328082
0.041687441
0.04205175
0.042420736
0.042794111
0.04317157
0.043552793
0.043937445
0.044325175
0.04471562
0.045108403
0.045503134
0.045899407
0.046296801
0.032868102
0.032994548
0.033127481
0.03326695
0.033413014
0.03356573
0.033725154
0.03389134
0.034064337
0.034244193
0.034430952
0.034624656
0.034825342
0.035033042
0.035247783
0.03546959
0.035698478
0.035934459
0.036177535
0.036427704
0.036684952
0.036949259
0.037220592
0.037498912
0.037784164
0.038076284
0.038375193
0.038680801
0.038993002
0.039311676
0.039636686
0.039967881
0.040305093
0.040648136
0.040996809
0.041350892
0.041710148
0.042074325
0.042443151
0.042816339
0.043193586
0.043574571
0.043958961
0.044346407
0.044736546
0.045129004
0.04552339
0.045919299
0.046316331
0.032873476
0.033001167
0.033135287
0.033275894
0.033423051
0.033576818
0.03373725
0.033904403
0.034078326
0.034259069
0.034446674
0.034641185
0.034842638
0.035051067
0.035266498
0.035488957
0.035718458
0.035955014
0.036198628
0.036449296
0.036707006
0.036971736
0.037243456
0.037522125
0.037807689
0.038100083
0.03839923
0.038705038
0.039017403
0.039336205
0.039661307
0.039992559
0.040329792
0.040672823
0.04102145
0.041375454
0.041734599
0.042098634
0.042467288
0.042840275
0.043217292
0.043598022
0.043982131
0.044369272
0.044759084
0.045151194
0.045545213
0.045940736
0.046337379
0.032879445
0.033008448
0.033143832
0.033285654
0.033433979
0.033588867
0.033750376
0.033918561
0.034093472
0.03427516
0.034463669
0.034659041
0.034861312
0.035070518
0.035286686
0.035509838
0.035739994
0.035977163
0.036221349
0.036472549
0.03673075
0.036995932
0.037268063
0.037547103
0.037832998
0.038125683
0.038425082
0.038731103
0.039043642
0.039362578
0.039687777
0.040019087
0.040356342
0.040699358
0.041047934
0.041401852
0.041760877
0.042124759
0.042493227
0.042865998
0.04324277
0.043623226
0.044007034
0.044393849
0.044783312
0.04517505
0.045568677
0.045963791
0.046360018
0.032886057
0.03301645
0.033153177
0.033296291
0.033445858
0.03360194
0.033764595
0.033933879
0.034109844
0.034292538
0.034482008
0.034678296
0.034881439
0.035091471
0.035308422
0.035532313
0.035763164
0.036000985
0.036245779
0.036497544
0.036756268
0.037021929
0.037294496
0.037573929
0.037860175
0.038153169
0.038452834
0.03875908
0.039071802
0.039390879
0.039716179
0.04004755
0.040384827
0.040727824
0.041076344
0.041430169
0.041789065
0.042152781
0.042521051
0.04289359
0.043270099
0.043650262
0.044033749
0.044420216
0.044809306
0.045200648
0.045593858
0.045988537
0.04638432
0.032893363
0.033025232
0.033163382
0.033307868
0.033458755
0.033616105
0.033779977
0.033950428
0.034127511
0.034311274
0.034501765
0.034699025
0.034903093
0.035114003
0.035331785
0.035556461
0.035788049
0.036026561
0.036272001
0.036524365
0.036783642
0.03704981
0.037322839
0.037602689
0.037889306
0.038182626
0.038482572
0.038789054
0.039101968
0.039421194
0.039746599
0.040078033
0.040415329
0.040758306
0.041106764
0.041460488
0.041819244
0.042182784
0.04255084
0.042923131
0.043299359
0.043679209
0.044062354
0.04444845
0.044837143
0.045228064
0.045620831
0.046015048
0.046410356
0.032901425
0.033034854
0.033174513
0.033320451
0.033472735
0.033631429
0.033796591
0.033968279
0.034146546
0.034331442
0.034523014
0.034721304
0.034926352
0.035138192
0.035356853
0.035582359
0.035814728
0.036053972
0.036300094
0.036553092
0.036812953
0.037079658
0.037353175
0.037633464
0.037920472
0.038214136
0.038514378
0.038821109
0.039134224
0.039453606
0.03977912
0.040110617
0.040447933
0.040790885
0.041139275
0.04149289
0.041851496
0.042214845
0.042582674
0.0429547
0.043330628
0.043710145
0.044092924
0.044478626
0.044866897
0.04525737
0.045649667
0.046043395
0.046438197
0.032910304
0.033045384
0.033186635
0.033334108
0.03348787
0.033647983
0.033814509
0.033987504
0.034167023
0.034353116
0.034545831
0.03474521
0.034951293
0.035164116
0.035383706
0.035610089
0.035843282
0.036083297
0.03633014
0.036583806
0.036844284
0.037111554
0.037385585
0.037666337
0.037953757
0.038247781
0.038548334
0.038855325
0.039168651
0.039488194
0.039813821
0.040145384
0.040482717
0.040825641
0.041173957
0.041527453
0.041885898
0.042249044
0.042616629
0.042988373
0.043363982
0.043743144
0.044125536
0.044510818
0.044898641
0.04528864
0.045680438
0.046073646
0.046467911
0.03292007
0.033056889
0.03319982
0.033348911
0.03350423
0.03366584
0.033833803
0.034008177
0.034189016
0.034376371
0.034570291
0.034770818
0.034977993
0.03519185
0.035412419
0.035639726
0.035873787
0.036114616
0.036362217
0.036616586
0.036877713
0.037145577
0.037420148
0.037701385
0.037989237
0.03828364
0.038584518
0.038891782
0.039205327
0.039525038
0.039850782
0.04018241
0.040519759
0.04086265
0.041210885
0.041564253
0.041922525
0.042285454
0.04265278
0.043024223
0.043399492
0.043778278
0.044160258
0.044545097
0.044932444
0.045321941
0.045713211
0.046105869
0.046499565
0.032930793
0.033069443
0.033214139
0.033364932
0.033521889
0.033685074
0.033854549
0.034030373
0.0342126
0.034401283
0.034596469
0.034798203
0.035006526
0.035221471
0.03544307
0.035671347
0.03590632
0.036148003
0.0363964
0.036651508
0.036913315
0.037181803
0.03745694
0.037738686
0.03802699
0.038321788
0.038623006
0.038930553
0.039244327
0.039564211
0.039890074
0.040221768
0.040559131
0.040901984
0.041250131
0.041603361
0.041961448
0.042324145
0.042691194
0.043062319
0.043437227
0.043815614
0.044197158
0.044581526
0.044968372
0.045357336
0.045748048
0.046140125
0.046533219
0.032942549
0.033083119
0.033229668
0.033382246
0.033540921
0.033705758
0.033876819
0.034054164
0.034237848
0.034427923
0.034624439
0.034827439
0.035036965
0.035253051
0.035475729
0.035705023
0.035940953
0.036183531
0.036432761
0.036688642
0.036951162
0.037220301
0.03749603
0.037778308
0.038067084
0.038362295
0.038663865
0.038971707
0.039285717
0.039605781
0.039931766
0.040263526
0.040600899
0.040943708
0.041291759
0.041644842
0.04200273
0.04236518
0.042731936
0.043102721
0.043477248
0.043855212
0.044236295
0.044620167
0.045006482
0.045394886
0.045785009
0.046176471
0.046568931
0.032955416
0.033097994
0.033246482
0.033400927
0.0335614
0.033727966
0.033900687
0.034079624
0.034264832
0.034456364
0.03465427
0.034858595
0.035069379
0.035286659
0.035510466
0.035740824
0.035977753
0.036221266
0.036471367
0.036728055
0.036991319
0.037261138
0.037537483
0.037820315
0.038109582
0.038405222
0.038707159
0.039015306
0.03932956
0.039649807
0.039975916
0.040307742
0.040645123
0.040987882
0.041335828
0.041688752
0.042046428
0.042408616
0.04277506
0.043145486
0.043519609
0.043897127
0.044277724
0.044661071
0.045046827
0.04543464
0.045824143
0.046214959
0.04660675
0.032969473
0.033114147
0.033264657
0.033421052
0.033583401
0.033751771
0.033926224
0.034106822
0.03429362
0.034486673
0.03468603
0.034891737
0.035103835
0.03532236
0.035547343
0.03577881
0.036016781
0.036261268
0.036512277
0.036769805
0.037033843
0.03730437
0.037581356
0.037864763
0.03815454
0.038450624
0.03875294
0.039061402
0.039375908
0.039696343
0.040022577
0.040354467
0.040691851
0.041034555
0.041382387
0.04173514
0.04209259
0.042454499
0.042820613
0.04319066
0.043564357
0.043941403
0.044321487
0.044704282
0.045089451
0.045476642
0.045865493
0.04625563
0.046646719
0.032984802
0.033131657
0.033284271
0.033442694
0.033606996
0.033777242
0.033953498
0.034135824
0.034324278
0.034518914
0.034719781
0.034926925
0.035140389
0.035360209
0.035586416
0.035819037
0.03605809
0.03630359
0.036555542
0.036813943
0.037078783
0.037350044
0.037627696
0.037911698
0.038202002
0.038498545
0.038801253
0.039110038
0.039424802
0.039745428
0.040071788
0.04040374
0.040741123
0.041083763
0.041431472
0.041784042
0.042141252
0.042502866
0.04286863
0.043238276
0.043611524
0.043988075
0.044367619
0.044749834
0.045134385
0.045520923
0.04590909
0.046298516
0.046688869
0.033001484
0.033150601
0.033305399
0.033465926
0.033632253
0.033804447
0.033982573
0.034166693
0.034356864
0.034553142
0.034755575
0.034964211
0.035179092
0.035400255
0.035627732
0.035861548
0.036101724
0.036348273
0.036601201
0.036860506
0.037126178
0.037398197
0.037676536
0.037961154
0.038252001
0.038549017
0.038852127
0.039161244
0.03947627
0.03979709
0.040123577
0.040455587
0.040792964
0.041135534
0.041483108
0.041835482
0.042192438
0.042553738
0.042919133
0.043288358
0.043661132
0.044037162
0.04441614
0.044797747
0.04518165
0.045567505
0.045954957
0.046343638
0.046733221
0.0330196
0.033171056
0.033328111
0.033490815
0.033659237
0.033833446
0.034013507
0.034199482
0.03439143
0.034589406
0.034793459
0.035003639
0.035219985
0.035442537
0.035671326
0.035906378
0.036147714
0.036395347
0.036649283
0.03690952
0.03717605
0.037448852
0.037727898
0.038013149
0.038304555
0.038602056
0.038905577
0.039215034
0.039530327
0.039851342
0.040177954
0.04051002
0.040847385
0.041189875
0.041537304
0.04188947
0.042246154
0.042607124
0.042972131
0.043340912
0.043713189
0.044088672
0.044467057
0.044848026
0.045231251
0.045616392
0.046003096
0.046391001
0.046779783
0.033039228
0.033193094
0.033352477
0.033517423
0.033688005
0.033864292
0.034046348
0.034234237
0.034428017
0.034627744
0.034833468
0.035045238
0.035263096
0.035487079
0.03571722
0.035953546
0.036196076
0.036444825
0.036699799
0.036960996
0.037228407
0.037502013
0.037781786
0.038067686
0.038359665
0.038657662
0.038961603
0.039271405
0.039586968
0.03990818
0.040234915
0.040567032
0.040904377
0.041246779
0.041594052
0.041945995
0.042302393
0.042663013
0.043027611
0.043395926
0.043767682
0.044142592
0.044520356
0.044900659
0.045283177
0.045667573
0.046053498
0.046440595
0.046828543
0.033060441
0.033216783
0.033378556
0.033545808
0.033718609
0.03389703
0.034081137
0.034270992
0.034466655
0.034668181
0.034875623
0.035089027
0.035308438
0.035533891
0.035765422
0.036003055
0.036246812
0.036496706
0.036752745
0.037014926
0.03728324
0.03755767
0.037838185
0.038124749
0.038417312
0.038715814
0.039020183
0.039330333
0.039646168
0.039967576
0.040294431
0.040626595
0.040963913
0.041306216
0.041653321
0.042005027
0.042361122
0.042721375
0.043085544
0.043453369
0.04382458
0.044198892
0.044576006
0.044955614
0.045337394
0.045721015
0.046106131
0.04649239
0.046879476
0.033083306
0.033242182
0.033406401
0.033576012
0.033751086
0.033931693
0.034117899
0.034309767
0.034507359
0.034710728
0.034919928
0.035135007
0.035356006
0.035582966
0.035815918
0.036054889
0.036299901
0.036550966
0.036808093
0.03707128
0.037340517
0.037615786
0.037897059
0.038184298
0.038477455
0.03877647
0.039081271
0.039391773
0.03970788
0.040029482
0.040356454
0.040688657
0.04102594
0.041368135
0.041715058
0.042066513
0.042422288
0.042782156
0.043145874
0.043513189
0.04388383
0.044257516
0.044633953
0.045012836
0.045393848
0.045776663
0.046160941
0.046546334
0.046932531
0.033107882
0.03326934
0.033436054
0.03360807
0.033785461
0.033968297
0.034156645
0.034350568
0.034550127
0.034755377
0.034966371
0.035183157
0.035405778
0.035634273
0.035868675
0.03610901
0.036355301
0.03660756
0.036865795
0.037130004
0.03740018
0.037676302
0.037958345
0.038246269
0.038540027
0.03883956
0.039144796
0.039455651
0.039772029
0.040093822
0.040420905
0.040753142
0.04109038
0.041432455
0.041779184
0.042130374
0.042485812
0.042845275
0.043208523
0.043575303
0.04394535
0.044318385
0.044694117
0.045072245
0.045452458
0.045834435
0.046217845
0.046602347
0.046987634
0.033134215
0.033298294
0.033467539
0.033641999
0.033821744
0.034006845
0.034197369
0.03439338
0.034594937
0.034802098
0.035014915
0.035233436
0.035457705
0.03568776
0.035923634
0.036165355
0.036412943
0.036666414
0.036925772
0.037191019
0.037462145
0.037739132
0.038021952
0.038310568
0.038604932
0.038904985
0.039210657
0.039521864
0.039838512
0.04016049
0.040487679
0.04081994
0.041157125
0.041499068
0.04184559
0.042196498
0.042551583
0.042910623
0.04327338
0.043639605
0.044009034
0.044381391
0.044756389
0.045133731
0.045513113
0.045894219
0.046276729
0.046660315
0.047044681
0.033162335
0.033329062
0.033500868
0.033677797
0.033859923
0.034047315
0.03424004
0.034438163
0.034641743
0.034850838
0.0350655
0.035285777
0.035511712
0.035743345
0.035980709
0.03622383
0.036472731
0.036727424
0.036987919
0.037254212
0.037526296
0.037804154
0.038087756
0.038377067
0.038672039
0.038972614
0.03927872
0.039590277
0.039907189
0.040229348
0.040556634
0.040888911
0.041226031
0.041567831
0.041914132
0.042264744
0.042619459
0.042978058
0.043340305
0.043705952
0.04407474
0.044446393
0.044820629
0.045197154
0.045575668
0.045955865
0.046337438
0.04672008
0.047103528
0.033192255
0.033361646
0.033536026
0.033715441
0.033899963
0.034089661
0.034284604
0.034484853
0.034690471
0.034901514
0.035118034
0.035340079
0.035567694
0.035800916
0.036039779
0.03628431
0.036534531
0.036790456
0.037052091
0.037319436
0.037592483
0.037871213
0.038155599
0.038445606
0.038741184
0.039042277
0.039348815
0.039660716
0.039977886
0.040300218
0.040627593
0.040959876
0.04129692
0.041638564
0.041984631
0.042334932
0.042689262
0.043047402
0.04340912
0.04377417
0.044142294
0.04451322
0.044886666
0.04526234
0.045639947
0.046019187
0.046399767
0.046781416
0.047163939
0.033223963
0.033396019
0.033572977
0.033754881
0.033941802
0.034133811
0.034330975
0.034533356
0.034741016
0.034954011
0.035172394
0.035396212
0.035625509
0.035860324
0.036100689
0.036346633
0.036598176
0.036855332
0.037118109