/*--------------------------------*- C++ -*----------------------------------*\
| =========                 |                                                 |
| \\      /  F ield         | OpenFOAM: The Open Source CFD Toolbox           |
|  \\    /   O peration     | Version:  2312                                  |
|   \\  /    A nd           | Website:  www.openfoam.com                      |
|    \\/     M anipulation  |                                                 |
\*---------------------------------------------------------------------------*/
FoamFile
{
    version     2.0;
    format      ascii;
    arch        "LSB;label=32;scalar=64";
    class       volScalarField;
    location    "0.1";
    object      O2;
}
// * * * * * * * * * * * * * * * * * * * * * * * * * * * * * * * * * * * * * //

dimensions      [0 0 0 0 0 0 0];

internalField   nonuniform List<scalar> 
3251
(
0.18049902
0.18118022
0.18186419
0.18255067
0.18323936
0.18392997
0.18462217
0.18531559
0.18600989
0.18670467
0.18739955
0.18809412
0.18878797
0.18948068
0.19017184
0.19086101
0.19154779
0.19223174
0.19291246
0.19358954
0.19426258
0.19493118
0.19559498
0.1962536
0.1969067
0.19755393
0.19819498
0.19882954
0.19945732
0.20007805
0.20069147
0.20129736
0.20189548
0.20248565
0.20306767
0.20364138
0.20420662
0.20476327
0.2053112
0.2058503
0.20638049
0.20690169
0.20741382
0.20791685
0.20841071
0.20889539
0.20937085
0.20983707
0.21029404
0.21074174
0.21118015
0.21160926
0.21202892
0.21243919
0.21284027
0.21323215
0.21361482
0.21398825
0.18050349
0.18118458
0.18186844
0.18255481
0.18324339
0.1839339
0.18462599
0.18531931
0.18601351
0.1867082
0.18740298
0.18809746
0.18879122
0.18948384
0.19017491
0.190864
0.19155069
0.19223457
0.1929152
0.1935922
0.19426516
0.19493369
0.19559741
0.19625596
0.19690899
0.19755615
0.19819713
0.19883162
0.19945933
0.20007999
0.20069335
0.20129917
0.20189724
0.20248734
0.2030693
0.20364295
0.20420814
0.20476472
0.20531259
0.20585164
0.20638177
0.20690291
0.207415
0.20791796
0.20841178
0.2088964
0.2093718
0.20983796
0.21029487
0.21074251
0.21118086
0.2116099
0.21202955
0.21243985
0.21284093
0.21323281
0.21361548
0.21398887
0.18051255
0.18119342
0.18187706
0.18256321
0.18325159
0.18394188
0.18463377
0.1853269
0.1860209
0.1867154
0.18741
0.18810429
0.18879787
0.18949032
0.19018122
0.19087014
0.19155667
0.19224038
0.19292086
0.1935977
0.1942705
0.19493888
0.19560246
0.19626086
0.19691374
0.19756076
0.1982016
0.19883596
0.19946354
0.20008407
0.20069731
0.201303
0.20190094
0.20249093
0.20307277
0.2036463
0.20421137
0.20476785
0.20531561
0.20585455
0.20638458
0.20690561
0.20741759
0.20792046
0.20841417
0.20889869
0.209374
0.20984006
0.21029687
0.21074442
0.21118267
0.21161162
0.21203122
0.2124415
0.21284255
0.21323439
0.21361704
0.2139904
0.1805262
0.18120674
0.18189005
0.18257588
0.18326394
0.18395393
0.18464552
0.18533835
0.18603207
0.18672628
0.1874206
0.18811462
0.18880794
0.18950013
0.19019077
0.19087944
0.19156571
0.19224918
0.19292942
0.19360603
0.1942786
0.19494676
0.19561011
0.1962683
0.19692096
0.19756778
0.19820841
0.19884257
0.19946995
0.20009029
0.20070333
0.20130885
0.2019066
0.20249641
0.20307808
0.20365144
0.20421634
0.20477265
0.20532025
0.20585903
0.20638891
0.20690979
0.20742162
0.20792434
0.20841791
0.20890229
0.20937745
0.20984338
0.21030006
0.21074746
0.21118559
0.21161442
0.21203393
0.21244415
0.21284514
0.21323691
0.2136195
0.21399288
0.18054444
0.18122453
0.1819074
0.1825928
0.18328045
0.18397004
0.18466122
0.18535367
0.186047
0.18674083
0.18743479
0.18812845
0.18882141
0.18951325
0.19020355
0.19089188
0.19157783
0.19226097
0.19294089
0.19361719
0.19428946
0.19495731
0.19562037
0.19627827
0.19693065
0.19757719
0.19821755
0.19885144
0.19947856
0.20009864
0.20071143
0.2013167
0.20191422
0.20250378
0.20308522
0.20365835
0.20422304
0.20477913
0.20532652
0.20586509
0.20639476
0.20691544
0.20742708
0.20792961
0.20842299
0.20890718
0.20938217
0.20984792
0.21030442
0.21075166
0.21118962
0.21161831
0.2120377
0.21244781
0.2128487
0.21324037
0.21362284
0.18056594
0.18124551
0.18192787
0.18261278
0.18329993
0.18398904
0.18467976
0.18537174
0.18606462
0.18675801
0.18745153
0.18814477
0.18883731
0.18952874
0.19021864
0.19090658
0.19159214
0.1922749
0.19295445
0.19363038
0.19430229
0.19496979
0.1956325
0.19629006
0.19694211
0.19758832
0.19822836
0.19886193
0.19948874
0.20010853
0.20072102
0.201326
0.20192323
0.20251252
0.20309368
0.20366655
0.20423097
0.20478681
0.20533395
0.20587228
0.20640171
0.20692216
0.20743357
0.20793587
0.20842904
0.20891302
0.20938779
0.20985334
0.21030964
0.21075669
0.21119447
0.21162299
0.21204222
0.21245221
0.21285296
0.21324451
0.21362678
0.18059005
0.18126904
0.18195082
0.18263517
0.18332178
0.18401035
0.18470054
0.18539201
0.18608438
0.18677728
0.18747032
0.18816308
0.18885515
0.18954612
0.19023557
0.19092307
0.19160819
0.19229053
0.19296966
0.19364518
0.19431669
0.19498379
0.19564612
0.19630329
0.19695497
0.19760081
0.1982405
0.19887372
0.19950019
0.20011963
0.20073179
0.20133644
0.20193336
0.20252234
0.2031032
0.20367577
0.2042399
0.20479545
0.20534231
0.20588037
0.20640953
0.20692973
0.20744088
0.20794294
0.20843586
0.2089196
0.20939415
0.20985947
0.21031555
0.21076239
0.21119997
0.21162829
0.21204736
0.21245719
0.2128578
0.21324919
0.21363127
0.18061865
0.18129694
0.18197806
0.18266174
0.1833477
0.18403563
0.1847252
0.18541606
0.18610784
0.18680015
0.18749261
0.18818481
0.18887633
0.18956676
0.19025567
0.19094265
0.19162726
0.19230909
0.19298773
0.19366276
0.19433379
0.19500042
0.19566229
0.19631901
0.19697025
0.19761566
0.19825492
0.19888772
0.19951378
0.20013282
0.20074459
0.20134886
0.2019454
0.20253401
0.20311451
0.20368673
0.20425051
0.20480573
0.20535226
0.20589
0.20641885
0.20693873
0.20744959
0.20795135
0.20844399
0.20892746
0.20940173
0.20986679
0.21032261
0.2107692
0.21120655
0.21163465
0.21205351
0.21246315
0.21286358
0.2132548
0.21363671
0.18065207
0.18132956
0.18200988
0.18269279
0.18337799
0.18406519
0.18475403
0.18544418
0.18613526
0.18682689
0.18751868
0.18821022
0.18890109
0.18959088
0.19027917
0.19096554
0.19164955
0.19233079
0.19300885
0.19368331
0.19435379
0.19501987
0.1956812
0.1963374
0.19698812
0.19763302
0.19827178
0.1989041
0.19952968
0.20014825
0.20075957
0.20136339
0.20195949
0.20254767
0.20312775
0.20369956
0.20426294
0.20481777
0.20536392
0.20590128
0.20642976
0.20694929
0.20745979
0.20796122
0.20845352
0.20893667
0.20941063
0.20987538
0.21033091
0.21077721
0.21121428
0.21164212
0.21206074
0.21247015
0.21287037
0.21326139
0.18069067
0.18136722
0.18204663
0.18272865
0.18341298
0.18409932
0.18478732
0.18547665
0.18616693
0.18685777
0.18754878
0.18823956
0.18892969
0.18961875
0.19030632
0.19099198
0.1916753
0.19235586
0.19303325
0.19370706
0.19437689
0.19504235
0.19570305
0.19635864
0.19700877
0.19765308
0.19829127
0.19892302
0.19954806
0.20016609
0.20077688
0.20138018
0.20197578
0.20256346
0.20314306
0.20371439
0.20427731
0.20483169
0.20537739
0.20591432
0.20644239
0.2069615
0.20747161
0.20797264
0.20846456
0.20894734
0.20942093
0.20988533
0.21034052
0.21078649
0.21122325
0.21165079
0.21206913
0.21247828
0.21287824
0.21326899
0.1807348
0.18141029
0.18208865
0.18276965
0.18345298
0.18413834
0.1848254
0.18551378
0.18620314
0.18689308
0.18758321
0.18827312
0.1889624
0.18965063
0.19033738
0.19102223
0.19170475
0.19238454
0.19306117
0.19373423
0.19440332
0.19506805
0.19572805
0.19638295
0.19703239
0.19767604
0.19831357
0.19894468
0.19956908
0.2001865
0.20079669
0.2013994
0.20199442
0.20258154
0.20316058
0.20373137
0.20429377
0.20484762
0.20539282
0.20592926
0.20645684
0.20697549
0.20748514
0.20798573
0.20847722
0.20895957
0.20943275
0.20989675
0.21035155
0.21079715
0.21123354
0.21166074
0.21207876
0.2124876
0.21288727
0.18078484
0.18145913
0.18213631
0.18281616
0.18349836
0.18418262
0.18486858
0.18555591
0.18624422
0.18693314
0.18762227
0.1883112
0.18899951
0.18968679
0.1903726
0.19105654
0.19173817
0.19241707
0.19309284
0.19376505
0.1944333
0.19509722
0.19575642
0.19641052
0.19705919
0.19770208
0.19833887
0.19896926
0.19959295
0.20020967
0.20081917
0.20142121
0.20201557
0.20260205
0.20318047
0.20375065
0.20431245
0.20486572
0.20541035
0.20594623
0.20647327
0.20699138
0.20750051
0.2080006
0.2084916
0.20897347
0.20944619
0.20990973
0.2103641
0.21080927
0.21124525
0.21167206
0.21208972
0.2124982
0.21289749
0.18084122
0.18151414
0.18219
0.18286854
0.18354948
0.18423249
0.18491723
0.18560336
0.18629051
0.18697828
0.18766627
0.18835409
0.18904132
0.18972753
0.1904123
0.1910952
0.19177582
0.19245373
0.19312852
0.19379977
0.19446709
0.19513009
0.19578838
0.1964416
0.1970894
0.19773144
0.19836739
0.19899695
0.19961984
0.20023578
0.20084451
0.20144579
0.20203942
0.20262518
0.20320289
0.20377238
0.2043335
0.20488612
0.2054301
0.20596536
0.20649178
0.2070093
0.20751785
0.20801737
0.20850782
0.20898915
0.20946135
0.20992439
0.21037826
0.21082295
0.21125848
0.21168485
0.21210209
0.21251017
0.18090434
0.18157575
0.18225012
0.18292721
0.18360672
0.18428833
0.18497172
0.18565651
0.18634234
0.18702882
0.18771556
0.18840213
0.18908814
0.18977316
0.19045675
0.19113851
0.191818
0.1924948
0.19316849
0.19383867
0.19450494
0.1951669
0.19582418
0.19647641
0.19712323
0.19776432
0.19839933
0.19902798
0.19964997
0.20026502
0.20087289
0.20147334
0.20206614
0.20265109
0.20322801
0.20379673
0.2043571
0.20490898
0.20545225
0.2059868
0.20651254
0.20702939
0.20753729
0.20803618
0.208526
0.20900674
0.20947836
0.20994083
0.21039415
0.21083831
0.21127331
0.21169919
0.21211597
0.21252355
0.18097466
0.18164438
0.1823171
0.18299257
0.18367049
0.18435056
0.18503242
0.18571572
0.18640009
0.18708514
0.18777047
0.18845566
0.18914032
0.189824
0.19050629
0.19118676
0.19186499
0.19254055
0.19321303
0.19388202
0.19454712
0.19520793
0.19586408
0.1965152
0.19716094
0.19780096
0.19843493
0.19906256
0.19968355
0.20029762
0.20090453
0.20150403
0.20209591
0.20267997
0.20325601
0.20382387
0.2043834
0.20493446
0.20547693
0.2060107
0.20653568
0.20705179
0.20755897
0.20805715
0.20854629
0.20902636
0.20949733
0.20995917
0.21041188
0.21085544
0.21128987
0.2117152
0.21213145
0.18105265
0.18172049
0.18239138
0.18306506
0.18374123
0.18441957
0.18509975
0.1857814
0.18646415
0.18714761
0.18783137
0.18851504
0.18919819
0.1898804
0.19056124
0.19124029
0.19191712
0.19259131
0.19326244
0.19393011
0.1945939
0.19525344
0.19590834
0.19655824
0.19720277
0.19784161
0.19847443
0.19910092
0.1997208
0.20033378
0.20093963
0.20153809
0.20212895
0.20271201
0.20328708
0.20385399
0.20441259
0.20496274
0.20550432
0.20603723
0.20656136
0.20707665
0.20758302
0.20808043
0.20856881
0.20904814
0.2095184
0.20997955
0.21043158
0.21087448
0.21130826
0.21173296
0.2121486
0.18113879
0.18180457
0.18247343
0.18314513
0.18381936
0.18449581
0.18517412
0.18585395
0.18653491
0.18721662
0.18789866
0.18858064
0.18926213
0.18994271
0.19062195
0.19129942
0.19197471
0.19264738
0.19331703
0.19398323
0.1946456
0.19530373
0.19595724
0.19660578
0.19724899
0.19788652
0.19851806
0.1991433
0.19976195
0.20037374
0.20097841
0.20157572
0.20216546
0.20274742
0.20332141
0.20388727
0.20444484
0.20499399
0.20553459
0.20606655
0.20658975
0.20710413
0.20760962
0.20810616
0.20859371
0.20907223
0.20954169
0.21000208
0.21045336
0.21089553
0.21132859
0.21175258
0.18123361
0.18189711
0.18256374
0.18323326
0.18390537
0.18457972
0.18525599
0.18593382
0.18661281
0.18729258
0.18797273
0.18865285
0.18933251
0.1900113
0.19068878
0.19136452
0.19203811
0.19270912
0.19337712
0.19404172
0.1947025
0.19535908
0.19601108
0.19665813
0.19729987
0.19793597
0.1985661
0.19918997
0.19980727
0.20041773
0.20102111
0.20161716
0.20220565
0.2027864
0.20335921
0.20392391
0.20448036
0.2050284
0.20556793
0.20609883
0.20662101
0.20713439
0.20763891
0.2081345
0.20862113
0.20909876
0.20956735
0.2100269
0.21047737
0.21091873
0.21135098
0.21177411
0.18133762
0.18199863
0.18266282
0.18332996
0.18399972
0.18467179
0.18534582
0.18602144
0.18669828
0.18737593
0.18805401
0.18873208
0.18940974
0.19008656
0.19076211
0.19143595
0.19210768
0.19277685
0.19344306
0.19410589
0.19476494
0.19541982
0.19607015
0.19671556
0.1973557
0.19799023
0.19861882
0.19924117
0.19985699
0.200466
0.20106796
0.20166262
0.20224976
0.20282918
0.20340069
0.20396413
0.20451933
0.20506617
0.20560451
0.20613426
0.20665532
0.20716761
0.20767106
0.20816561
0.20865123
0.20912788
0.20959553
0.21005416
0.21050373
0.21094422
0.21137559
0.21179779
0.18145138
0.18210967
0.1827712
0.18343572
0.18410294
0.1847725
0.18544408
0.18611729
0.18679177
0.18746711
0.18814291
0.18881876
0.18949423
0.19016889
0.19084233
0.1915141
0.19218379
0.19285096
0.1935152
0.1941761
0.19483326
0.19548628
0.19613478
0.1967784
0.19741678
0.19804959
0.19867649
0.19929719
0.19991139
0.20051882
0.20111922
0.20171236
0.20229802
0.20287599
0.20344608
0.20400813
0.20456198
0.20510749
0.20564455
0.20617304
0.20669287
0.20720396
0.20770624
0.20819966
0.20868418
0.20915976
0.20962637
0.210084
0.21053261
0.21097214
0.21140253
0.2118238
0.18157548
0.1822308
0.18288942
0.1835511
0.18421553
0.18488237
0.18555127
0.18622187
0.18689377
0.18756659
0.18823991
0.18891333
0.1895864
0.19025872
0.19092985
0.19159936
0.19226682
0.19293181
0.19359391
0.1942527
0.19490779
0.19555878
0.19620529
0.19684696
0.19748342
0.19811435
0.19873941
0.19935831
0.19997074
0.20057644
0.20117515
0.20176664
0.20235067
0.20292705
0.2034956
0.20405613
0.20460851
0.20515258
0.20568823
0.20621534
0.20673384
0.20724362
0.20774463
0.20823682
0.20872013
0.20919454
0.20966003
0.21011657
0.21056414
0.21100264
0.21143195
0.18171051
0.18236259
0.18301806
0.18367665
0.18433805
0.18500192
0.18566792
0.18633566
0.18700477
0.18767484
0.18834547
0.18901624
0.18968672
0.19035648
0.1910251
0.19169215
0.19235719
0.1930198
0.19367956
0.19433606
0.1949889
0.19563768
0.19628203
0.19692157
0.19755595
0.19818483
0.19880789
0.19942482
0.20003533
0.20063915
0.20123602
0.2018257
0.20240797
0.20298263
0.20354949
0.20410838
0.20465915
0.20520165
0.20573577
0.20626139
0.20677843
0.20728679
0.20778642
0.20827726
0.20875926
0.2092324
0.20969666
0.21015203
0.2105985
0.21103587
0.21146388
0.18185709
0.18250566
0.1831577
0.18381294
0.18447105
0.18513171
0.18579456
0.18645921
0.18712528
0.18779237
0.18846007
0.18912797
0.18979562
0.19046262
0.19112852
0.19179289
0.1924553
0.19311533
0.19377256
0.19442657
0.19507697
0.19572335
0.19636534
0.19700257
0.19763469
0.19826135
0.19888224
0.19949704
0.20010546
0.20070723
0.2013021
0.20188983
0.20247019
0.20304298
0.20360801
0.20416511
0.20471413
0.20525493
0.20578739
0.20631139
0.20682685
0.20733367
0.2078318
0.20832117
0.20880175
0.20927351
0.20973643
0.21019053
0.21063582
0.18201585
0.18266061
0.18330894
0.18396055
0.18461512
0.1852723
0.18593173
0.18659303
0.18725582
0.18791969
0.18858422
0.189249
0.1899136
0.1905776
0.19124054
0.19190202
0.19256158
0.19321882
0.1938733
0.19452462
0.19517237
0.19581615
0.1964556
0.19709033
0.19771999
0.19834425
0.19896278
0.19957527
0.20018143
0.20078099
0.20137369
0.20195929
0.20253758
0.20310834
0.2036714
0.20422656
0.2047737
0.20531265
0.20584331
0.20636556
0.2068793
0.20738446
0.20788096
0.20836875
0.20884779
0.20931804
0.2097795
0.21023219
0.18218743
0.18282808
0.18347241
0.18412011
0.18477085
0.18542427
0.18608001
0.1867377
0.18739693
0.18805731
0.18871843
0.18937985
0.19004114
0.19070189
0.19136165
0.19201999
0.19267648
0.1933307
0.19398221
0.19463061
0.1952755
0.19591648
0.19655316
0.19718519
0.1978122
0.19843386
0.19904984
0.19965983
0.20026355
0.20086072
0.20145108
0.20203439
0.20261043
0.20317901
0.20373992
0.204293
0.20483809
0.20537505
0.20590376
0.20642412
0.20693601
0.20743936
0.20793411
0.20842018
0.20889755
0.20936618
0.20982604
0.21027711
0.18174017
0.18237243
0.1830087
0.18364874
0.18429223
0.18493883
0.18558821
0.18623998
0.18689376
0.18754917
0.18820579
0.18886321
0.18952101
0.19017874
0.19083599
0.19149231
0.19214727
0.19280045
0.1934514
0.19409971
0.19474497
0.19538677
0.19602471
0.19665843
0.19728753
0.19791168
0.19853054
0.19914377
0.19975107
0.20035215
0.20094673
0.20153456
0.2021154
0.20268903
0.20325524
0.20381384
0.20436467
0.20490756
0.20544237
0.20596899
0.20648729
0.20699719
0.2074986
0.20799144
0.20847567
0.20895124
0.2094181
0.20987624
0.21032558
0.18194408
0.18257158
0.18320316
0.18383858
0.18447754
0.1851197
0.18576472
0.18641222
0.18706181
0.1877131
0.18836568
0.18901912
0.18967301
0.19032691
0.19098039
0.19163301
0.19228433
0.19293393
0.19358137
0.19422624
0.19486811
0.19550658
0.19614126
0.19677177
0.19739774
0.19801881
0.19863464
0.1992449
0.1998493
0.20044754
0.20103935
0.20162446
0.20220263
0.20277366
0.20333732
0.20389344
0.20444184
0.20498235
0.20551486
0.20603921
0.20655532
0.20706307
0.20756238
0.20805319
0.20853543
0.20900905
0.20947402
0.20993029
0.21037779
0.18216324
0.18278559
0.18341211
0.18404258
0.18467669
0.18531409
0.18595442
0.18659733
0.18724242
0.18788928
0.18853752
0.18918669
0.18983639
0.19048617
0.1911356
0.19178424
0.19243165
0.19307741
0.19372107
0.19436223
0.19500046
0.19563536
0.19626653
0.19689359
0.19751618
0.19813394
0.19874652
0.1993536
0.19995488
0.20055007
0.20113888
0.20172107
0.20229639
0.20286461
0.20342554
0.20397899
0.20452477
0.20506274
0.20559276
0.20611469
0.20662842
0.20713387
0.20763093
0.20811955
0.20859965
0.20907119
0.20953412
0.2099884
0.21043395
0.18239832
0.18301514
0.18363625
0.18426142
0.18489031
0.18552261
0.18615794
0.18679592
0.18743618
0.1880783
0.18872188
0.18936648
0.19001167
0.19065703
0.19130212
0.19194649
0.1925897
0.19323134
0.19387095
0.19450813
0.19514245
0.19577351
0.19640092
0.19702429
0.19764325
0.19825745
0.19886655
0.19947022
0.20006815
0.20066006
0.20124566
0.20182471
0.20239696
0.20296218
0.20352018
0.20407076
0.20461374
0.20514898
0.20567633
0.20619566
0.20670686
0.20720982
0.20770448
0.20819074
0.20866855
0.20913785
0.2095986
0.21005076
0.21049422
0.18265002
0.18326093
0.18387626
0.18449574
0.18511908
0.18574591
0.18637587
0.1870086
0.18764369
0.18828073
0.18891932
0.18955902
0.1901994
0.19084002
0.19148046
0.19212025
0.19275898
0.1933962
0.19403147
0.19466439
0.19529453
0.19592148
0.19654485
0.19716426
0.19777934
0.19838973
0.19899509
0.1995951
0.20018945
0.20077785
0.20136002
0.2019357
0.20250466
0.20306667
0.20362152
0.20416903
0.20470902
0.20524133
0.20576582
0.20628236
0.20679084
0.20729116
0.20778324
0.20826698
0.20874234
0.20920925
0.20966767
0.21011755
0.2105588
0.18291905
0.18352366
0.1841328
0.18474622
0.18536361
0.18598461
0.18660886
0.18723596
0.18786553
0.18849715
0.18913041
0.18976487
0.1904001
0.19103567
0.19167112
0.19230603
0.19293995
0.19357245
0.19420309
0.19483145
0.19545711
0.19607967
0.19669872
0.1973139
0.19792482
0.19853114
0.19913251
0.19972861
0.20031912
0.20090376
0.20148226
0.20205435
0.20261979
0.20317836
0.20372985
0.20427408
0.20481086
0.20534004
0.20586148
0.20637505
0.20688062
0.20737811
0.20786743
0.20834848
0.20882122
0.20928558
0.20974151
0.21018897
0.21062786
0.18320609
0.18380398
0.18440653
0.18501351
0.18562456
0.18623934
0.18685749
0.1874786
0.18810228
0.18872812
0.18935569
0.18998456
0.1906143
0.19124447
0.19187462
0.19250431
0.19313311
0.19376056
0.19438625
0.19500974
0.19563062
0.19624849
0.19686294
0.1974736
0.19808009
0.19868206
0.19927916
0.19987108
0.2004575
0.20103814
0.20161271
0.20218096
0.20274264
0.20329754
0.20384545
0.20438617
0.20491954
0.20544538
0.20596356
0.20647395
0.20697643
0.2074709
0.20795727
0.20843546
0.2089054
0.20936704
0.20982032
0.21026521
0.21070158
0.18351181
0.18410255
0.18469811
0.18529822
0.18590254
0.18651071
0.18712236
0.18773709
0.18835451
0.18897419
0.1895957
0.19021863
0.19084252
0.19146693
0.19209143
0.19271556
0.19333889
0.19396098
0.19458139
0.1951997
0.19581549
0.19642835
0.1970379
0.19764374
0.1982455
0.19884283
0.19943539
0.20002286
0.20060492
0.20118128
0.20175167
0.20231583
0.20287352
0.20342451
0.20396859
0.20450558
0.2050353
0.20555759
0.2060723
0.2065793
0.20707848
0.20756974
0.20805297
0.20852811
0.20899508
0.20945382
0.20990429
0.21034643
0.21078014
0.18383684
0.18442002
0.18500815
0.18560097
0.18619813
0.18679928
0.18740404
0.188012
0.18862275
0.18923589
0.18985097
0.19046757
0.19108524
0.19170354
0.19232202
0.19294025
0.19355776
0.19417414
0.19478893
0.19540173
0.1960121
0.19661964
0.19722396
0.19782468
0.19842141
0.19901381
0.19960154
0.20018426
0.20076168
0.2013335
0.20189944
0.20245925
0.20301268
0.20355951
0.20409953
0.20463255
0.2051584
0.2056769
0.20618792
0.20669133
0.207187
0.20767483
0.20815474
0.20862663
0.20909044
0.20954611
0.20999359
0.21043282
0.21086369
0.1841818
0.18475696
0.18533722
0.18592232
0.18651191
0.18710562
0.18770306
0.18830384
0.18890753
0.18951372
0.19012198
0.19073186
0.19134293
0.19195474
0.19256684
0.19317879
0.19379013
0.19440044
0.19500928
0.19561621
0.19622083
0.19682272
0.1974215
0.19801677
0.19860816
0.19919532
0.19977791
0.20035561
0.2009281
0.20149509
0.20205631
0.20261149
0.20316041
0.20370282
0.20423852
0.20476733
0.20528906
0.20580354
0.20631065
0.20681023
0.20730218
0.20778639
0.20826275
0.20873121
0.20919167
0.20964408
0.21008838
0.21052453
0.2109524
0.18454724
0.18511393
0.18568588
0.18626281
0.18684439
0.18743022
0.18801993
0.1886131
0.18920931
0.18980815
0.19040918
0.19101195
0.19161603
0.19222096
0.1928263
0.19343159
0.1940364
0.19464027
0.19524279
0.19584351
0.19644203
0.19703794
0.19763083
0.19822032
0.19880605
0.19938766
0.19996481
0.20053717
0.20110443
0.2016663
0.20222251
0.2027728
0.20331692
0.20385466
0.20438579
0.20491012
0.20542749
0.20593772
0.20644067
0.20693621
0.20742421
0.20790457
0.2083772
0.20884201
0.20929892
0.20974788
0.21018882
0.2106217
0.21104641
0.18493365
0.18549141
0.18605458
0.18662291
0.18719602
0.18777354
0.18835507
0.18894021
0.18952853
0.19011959
0.19071298
0.19130823
0.19190492
0.19250257
0.19310075
0.19369901
0.19429689
0.19489397
0.1954898
0.19608395
0.19667601
0.19726558
0.19785224
0.19843563
0.19901537
0.1995911
0.20016248
0.20072919
0.20129093
0.20184739
0.2023983
0.2029434
0.20348246
0.20401523
0.20454152
0.20506113
0.20557388
0.20607962
0.20657818
0.20706943
0.20755326
0.20802956
0.20849823
0.20895918
0.20941234
0.20985765
0.21029505
0.21072448
0.21114583
0.18534144
0.18588981
0.18644375
0.187003
0.1875672
0.18813596
0.18870888
0.18928555
0.18986553
0.1904484
0.19103372
0.19162104
0.19220992
0.19279989
0.19339052
0.19398135
0.19457193
0.19516182
0.19575058
0.1963378
0.19692304
0.19750591
0.198086
0.19866293
0.19923634
0.19980586
0.20037116
0.20093191
0.2014878
0.20203854
0.20258385
0.20312348
0.20365718
0.20418472
0.2047059
0.20522052
0.2057284
0.20622938
0.20672331
0.20721004
0.20768947
0.20816148
0.20862597
0.20908286
0.20953206
0.20997352
0.21040718
0.21083297
0.21125078
0.18577095
0.18630945
0.18685369
0.18740342
0.18795824
0.18851779
0.18908165
0.1896494
0.19022061
0.19079485
0.19137168
0.19195065
0.1925313
0.19311319
0.19369585
0.19427885
0.19486173
0.19544405
0.19602537
0.19660527
0.19718332
0.19775913
0.19833229
0.19890242
0.19946915
0.20003213
0.20059101
0.20114547
0.2016952
0.20223991
0.20277932
0.20331318
0.20384124
0.20436327
0.20487906
0.20538842
0.20589117
0.20638713
0.20687618
0.20735815
0.20783294
0.20830043
0.20876052
0.20921313
0.20965817
0.21009557
0.21052529
0.21094725
0.21136134
0.18622239
0.18675055
0.18728463
0.18782435
0.18836935
0.18891923
0.18947357
0.19003196
0.19059396
0.19115914
0.19172705
0.19229723
0.19286924
0.19344262
0.19401692
0.19459168
0.19516646
0.19574082
0.19631431
0.19688651
0.19745701
0.19802538
0.19859125
0.19915422
0.19971393
0.20027002
0.20082215
0.20137
0.20191325
0.20245162
0.20298482
0.20351261
0.20403473
0.20455096
0.20506108
0.20556491
0.20606226
0.20655296
0.20703686
0.20751384
0.20798375
0.20844649
0.20890196
0.20935006
0.20979072
0.21022387
0.21064945
0.21106738
0.21147755
0.18669584
0.18721319
0.18773664
0.1882659
0.18880061
0.18934037
0.18988475
0.19043333
0.19098568
0.19154135
0.19209991
0.19266088
0.19322382
0.19378828
0.1943538
0.19491992
0.1954862
0.1960522
0.19661747
0.19718159
0.19774415
0.19830473
0.19886294
0.1994184
0.19997074
0.20051959
0.20106464
0.20160554
0.20214199
0.20267369
0.20320038
0.2037218
0.20423768
0.20474782
0.205252
0.20575002
0.20624171
0.20672688
0.2072054
0.20767712
0.20814192
0.20859967
0.20905029
0.20949368
0.20992975
0.21035843
0.21077967
0.21119338
0.21159945
0.18719123
0.18769731
0.18820966
0.18872801
0.18925198
0.18978116
0.19031513
0.19085347
0.19139572
0.19194146
0.19249022
0.19304156
0.19359502
0.19415014
0.19470646
0.19526354
0.19582092
0.19637816
0.19693483
0.19749049
0.19804473
0.19859715
0.19914734
0.19969492
0.20023954
0.20078082
0.20131844
0.20185206
0.20238139
0.20290612
0.20342598
0.20394072
0.20445008
0.20495385
0.2054518
0.20594374
0.20642949
0.20690888
0.20738175
0.20784798
0.20830742
0.20875997
0.20920551
0.20964396
0.21007523
0.21049924
0.21091593
0.21132523
0.211727
0.18770832
0.18820268
0.18870348
0.18921047
0.18972325
0.19024141
0.19076453
0.19129217
0.1918239
0.19235927
0.19289783
0.19343911
0.19398266
0.19452803
0.19507475
0.19562238
0.19617047
0.19671856
0.19726624
0.19781306
0.19835861
0.19890249
0.1994443
0.19998366
0.20052021
0.20105358
0.20158343
0.20210946
0.20263133
0.20314878
0.20366151
0.20416927
0.20467182
0.20516892
0.20566036
0.20614595
0.20662551
0.20709885
0.20756584
0.20802632
0.20848017
0.20892728
0.20936752
0.20980082
0.21022708
0.21064622
0.21105817
0.21146287
0.21186015
0.18824665
0.18872884
0.18921767
0.18971285
0.19021401
0.19072072
0.19123256
0.1917491
0.19226988
0.19279446
0.19332238
0.19385319
0.19438643
0.19492165
0.19545837
0.19599616
0.19653456
0.19707313
0.19761143
0.19814904
0.19868554
0.19922052
0.1997536
0.20028438
0.20081251
0.20133763
0.2018594
0.2023775
0.20289162
0.20340147
0.20390676
0.20440726
0.2049027
0.20539285
0.20587752
0.20635649
0.20682959
0.20729664
0.20775749
0.20821199
0.20866002
0.20910146
0.20953619
0.20996413
0.21038517
0.21079924
0.21120626
0.21160616
0.21199877
0.18880553
0.18927515
0.18975158
0.19023455
0.19072367
0.19121851
0.19171866
0.19222367
0.19273309
0.19324648
0.19376337
0.19428331
0.19480585
0.19533051
0.19585685
0.19638441
0.19691275
0.19744141
0.19796998
0.19849801
0.1990251
0.19955084
0.20007483
0.20059671
0.20111609
0.20163263
0.202146
0.20265586
0.20316191
0.20366386
0.20416143
0.20465437
0.20514242
0.20562537
0.20610298
0.20657508
0.20704147
0.20750198
0.20795645
0.20840474
0.20884673
0.20928228
0.20971129
0.21013366
0.21054929
0.21095811
0.21136002
0.21175493
0.21214269
0.18938403
0.18984068
0.19030432
0.19077468
0.19125136
0.19173395
0.19222202
0.19271511
0.19321278
0.19371459
0.19422007
0.19472876
0.1952402
0.19575395
0.19626953
0.1967865
0.19730441
0.19782282
0.19834129
0.1988594
0.19937674
0.19989289
0.20040748
0.20092011
0.20143043
0.20193809
0.20244274
0.20294406
0.20344175
0.20393552
0.20442508
0.20491019
0.20539059
0.20586606
0.20633637
0.20680134
0.20726078
0.20771451
0.20816238
0.20860424
0.20903996
0.20946942
0.20989251
0.21030912
0.21071916
0.21112255
0.21151918
0.21190895
0.21229167
0.1899809
0.19042422
0.1908747
0.19133209
0.19179598
0.19226595
0.19274156
0.19322238
0.19370794
0.1941978
0.19469151
0.19518859
0.1956886
0.19619107
0.19669554
0.19720158
0.19770872
0.19821653
0.19872458
0.19923244
0.1997397
0.20024596
0.20075082
0.20125392
0.20175487
0.20225334
0.20274899
0.20324149
0.20373054
0.20421585
0.20469715
0.20517416
0.20564666
0.2061144
0.20657718
0.20703479
0.20748704
0.20793378
0.20837483
0.20881005
0.2092393
0.20966247
0.21007945
0.21049012
0.2108944
0.2112922
0.2116834
0.21206789
0.21244542
0.19059455
0.19102422
0.19146124
0.19190532
0.19235609
0.19281311
0.19327594
0.19374415
0.19421727
0.19469486
0.19517646
0.19566161
0.19614985
0.19664073
0.19713378
0.19762856
0.19812462
0.19862153
0.19911885
0.19961616
0.20011305
0.20060911
0.20110397
0.20159723
0.20208855
0.20257756
0.20306394
0.20354736
0.20402751
0.20450412
0.2049769
0.20544558
0.20590994
0.20636973
0.20682475
0.20727478
0.20771965
0.20815918
0.20859321
0.20902159
0.2094442
0.2098609
0.21027158
0.21067615
0.21107452
0.21146658
0.21185225
0.21223135
0.19122304
0.1916388
0.19206206
0.19249257
0.19292993
0.19337371
0.19382348
0.19427878
0.19473918
0.19520421
0.19567341
0.19614634
0.19662252
0.19710152
0.19758286
0.19806611
0.19855081
0.19903653
0.19952285
0.20000934
0.20049559
0.2009812
0.20146579
0.20194897
0.2024304
0.20290971
0.20338658
0.20386068
0.20433172
0.20479939
0.20526343
0.20572358
0.20617959
0.20663123
0.20707828
0.20752055
0.20795784
0.20838998
0.20881682
0.20923819
0.20965397
0.21006404
0.21046828
0.21086659
0.21125889
0.2116451
0.21202509
0.19186402
0.19226564
0.19267493
0.19309163
0.19351535
0.19394566
0.19438212
0.19482429
0.19527171
0.19572393
0.1961805
0.19664096
0.19710485
0.19757171
0.19804111
0.19851258
0.19898568
0.19945999
0.19993507
0.20041051
0.20088589
0.20136083
0.20183493
0.20230782
0.20277914
0.20324854
0.2037157
0.20418029
0.204642
0.20510056
0.20555567
0.2060071
0.20645458
0.20689789
0.20733681
0.20777115
0.2082007
0.2086253
0.20904478
0.209459
0.20986782
0.2102711
0.21066875
0.21106066
0.21144675
0.21182694
0.19251468
0.19290201
0.19329716
0.19369989
0.1941098
0.19452646
0.19494944
0.19537828
0.19581254
0.19625177
0.19669551
0.19714331
0.19759471
0.19804926
0.19850651
0.19896602
0.19942734
0.19989004
0.2003537
0.20081791
0.20128224
0.20174632
0.20220976
0.20267218
0.20313323
0.20359256
0.20404984
0.20450475
0.20495699
0.20540627
0.20585231
0.20629487
0.20673368
0.20716853
0.20759919
0.20802545
0.20844714
0.20886407
0.20927609
0.20968303
0.21008476
0.21048115
0.21087208
0.21125745
0.21163715
0.21201098
0.19317171
0.19354467
0.1939256
0.19431427
0.19471026
0.19511317
0.19552255
0.19593795
0.19635894
0.19678505
0.19721584
0.19765085
0.19808964
0.19853174
0.19897672
0.19942413
0.19987353
0.2003245
0.20077661
0.20122945
0.20168262
0.20213571
0.20258836
0.20304019
0.20349085
0.20393999
0.20438727
0.2048324
0.20527505
0.20571495
0.20615182
0.2065854
0.20701545
0.20744174
0.20786403
0.20828215
0.20869588
0.20910506
0.20950952
0.2099091
0.21030366
0.21069307
0.21107721
0.21145597
0.2118292
0.21219671
0.19383127
0.19418987
0.19455658
0.19493116
0.19531323
0.19570236
0.1960981
0.19650003
0.19690769
0.19732064
0.19773843