/*--------------------------------*- C++ -*----------------------------------*\
| =========                 |                                                 |
| \\      /  F ield         | OpenFOAM: The Open Source CFD Toolbox           |
|  \\    /   O peration     | Version:  2312                                  |
|   \\  /    A nd           | Website:  www.openfoam.com                      |
|    \\/     M anipulation  |                                                 |
\*---------------------------------------------------------------------------*/
FoamFile
{
    version     2.0;
    format      ascii;
    arch        "LSB;label=32;scalar=64";
    class       surfaceScalarField;
    location    "0.1";
    object      phi;
}
// * * * * * * * * * * * * * * * * * * * * * * * * * * * * * * * * * * * * * //

dimensions      [1 0 -1 0 0 0 0];

oriented        oriented;

internalField   nonuniform List<scalar> 
6378
(
1.041681e-07
1.4434337e-09
1.0274895e-07
1.4421104e-09
1.013334e-07
1.4405016e-09
9.9921732e-08
1.438612e-09
9.8514256e-08
1.4364294e-09
9.711127e-08
1.4339481e-09
9.5713078e-08
1.4311617e-09
9.4319985e-08
1.4280649e-09
9.29323e-08
1.4246528e-09
9.1550329e-08
1.4209217e-09
9.017438e-08
1.4168685e-09
8.8804757e-08
1.4124912e-09
8.7441764e-08
1.4077891e-09
8.6085701e-08
1.4027624e-09
8.4736865e-08
1.3974125e-09
8.339555e-08
1.3917423e-09
8.2062045e-08
1.3857558e-09
8.0736633e-08
1.3794583e-09
7.9419594e-08
1.3728561e-09
7.81112e-08
1.3659571e-09
7.681172e-08
1.35877e-09
7.5521414e-08
1.3513049e-09
7.4240537e-08
1.3435729e-09
7.2969339e-08
1.3355861e-09
7.1708062e-08
1.3273577e-09
7.0456942e-08
1.3189019e-09
6.9216207e-08
1.3102337e-09
6.7986083e-08
1.301369e-09
6.6766785e-08
1.2923245e-09
6.5558524e-08
1.2831178e-09
6.4361507e-08
1.2737666e-09
6.3175933e-08
1.2642898e-09
6.2001997e-08
1.2547062e-09
6.0839887e-08
1.2450352e-09
5.968979e-08
1.2352963e-09
5.8551885e-08
1.2255088e-09
5.742635e-08
1.2156919e-09
5.6313359e-08
1.205864e-09
5.5213083e-08
1.1960426e-09
5.4125694e-08
1.1862435e-09
5.3051362e-08
1.1764803e-09
5.199026e-08
1.1667644e-09
5.0942562e-08
1.1571039e-09
4.9908445e-08
1.1475045e-09
4.8888086e-08
1.1379708e-09
4.7881664e-08
1.1285079e-09
4.6889358e-08
1.1191261e-09
4.591135e-08
1.109846e-09
4.4947823e-08
1.1007043e-09
4.3998978e-08
1.0917573e-09
4.306505e-08
1.0830845e-09
4.2146309e-08
1.074774e-09
4.1243098e-08
1.0668126e-09
4.0355686e-08
1.0588385e-09
3.9484277e-08
1.0507546e-09
3.8629093e-08
1.0425042e-09
3.7790395e-08
1.034029e-09
1.0252946e-09
1.0416116e-07
2.8838147e-09
1.0274222e-07
2.8798655e-09
1.0132687e-07
2.8753034e-09
9.9915408e-08
2.8701311e-09
9.8508132e-08
2.8643319e-09
9.7105343e-08
2.8578956e-09
9.5707345e-08
2.8508124e-09
9.4314445e-08
2.8430743e-09
9.292695e-08
2.834675e-09
9.1545166e-08
2.8256102e-09
9.0169402e-08
2.8158773e-09
8.8799962e-08
2.805476e-09
8.7437149e-08
2.7944079e-09
8.6081265e-08
2.7826772e-09
8.4732606e-08
2.7702902e-09
8.3391466e-08
2.7572554e-09
8.2058133e-08
2.7435838e-09
8.0732891e-08
2.7292887e-09
7.941602e-08
2.7143857e-09
7.8107793e-08
2.6988924e-09
7.6808477e-08
2.6828287e-09
7.5518334e-08
2.6662166e-09
7.4237619e-08
2.6490802e-09
7.296658e-08
2.6314452e-09
7.170546e-08
2.6133394e-09
7.0454496e-08
2.5947922e-09
6.9213916e-08
2.5758346e-09
6.7983944e-08
2.5564988e-09
6.6764797e-08
2.5368187e-09
6.5556686e-08
2.5168288e-09
6.4359818e-08
2.4965648e-09
6.3174391e-08
2.4760629e-09
6.2000601e-08
2.45536e-09
6.0838637e-08
2.434493e-09
5.9688685e-08
2.4134987e-09
5.8550925e-08
2.3924136e-09
5.7425533e-08
2.3712734e-09
5.6312686e-08
2.3501127e-09
5.5212553e-08
2.3289643e-09
5.4125306e-08
2.307859e-09
5.3051117e-08
2.2868245e-09
5.1990156e-08
2.2658851e-09
5.09426e-08
2.2450615e-09
4.9908623e-08
2.2243708e-09
4.8888404e-08
2.2038271e-09
4.7882124e-08
2.1834446e-09
4.6889964e-08
2.16324e-09
4.5912107e-08
2.143238e-09
4.4948741e-08
2.1234764e-09
4.400007e-08
2.1040072e-09
4.3066328e-08
2.0848961e-09
4.2147775e-08
2.0662013e-09
4.1244741e-08
2.0479219e-09
4.0357488e-08
2.029747e-09
3.9486226e-08
2.0115348e-09
3.8631182e-08
1.9932131e-09
3.7792623e-08
1.9747176e-09
1.9560168e-09
1.041471e-07
4.3239213e-09
1.0272858e-07
4.3173548e-09
1.0131363e-07
4.3098502e-09
9.9902574e-08
4.3014052e-09
9.8495693e-08
4.2919989e-09
9.7093293e-08
4.281617e-09
9.569568e-08
4.2702461e-09
9.4303158e-08
4.2578757e-09
9.2916037e-08
4.244498e-09
9.1534623e-08
4.2301082e-09
9.0159224e-08
4.2147042e-09
8.8790144e-08
4.1982874e-09
8.7427687e-08
4.1808619e-09
8.6072154e-08
4.1624358e-09
8.4723842e-08
4.1430199e-09
8.3383045e-08
4.122629e-09
8.2050051e-08
4.1012808e-09
8.0725144e-08
4.0789966e-09
7.9408605e-08
4.055801e-09
7.8100705e-08
4.0317218e-09
7.6801713e-08
4.0067899e-09
7.551189e-08
3.9810393e-09
7.4231491e-08
3.9545067e-09
7.2960766e-08
3.9272318e-09
7.1699956e-08
3.8992568e-09
7.0449298e-08
3.8706263e-09
6.9209022e-08
3.8413872e-09
6.7979351e-08
3.8115883e-09
6.6760502e-08
3.78128e-09
6.5552687e-08
3.7505145e-09
6.4356112e-08
3.7193448e-09
6.3170977e-08
3.6878249e-09
6.1997477e-08
3.6560093e-09
6.0835802e-08
3.6239525e-09
5.9686137e-08
3.5917086e-09
5.8548664e-08
3.5593313e-09
5.7423559e-08
3.5268729e-09
5.6310997e-08
3.4943839e-09
5.521115e-08
3.4619127e-09
5.412419e-08
3.4295048e-09
5.3050287e-08
3.3972021e-09
5.1989614e-08
3.3650423e-09
5.0942346e-08
3.3330583e-09
4.9908659e-08
3.3012784e-09
4.8888732e-08
3.2697272e-09
4.7882748e-08
3.2384269e-09
4.6890889e-08
3.2074008e-09
4.5913341e-08
3.1766772e-09
4.4950297e-08
3.1462941e-09
4.4001963e-08
3.1162985e-09
4.3068569e-08
3.0867445e-09
4.2150373e-08
3.0576656e-09
4.1247686e-08
3.0290551e-09
4.0360764e-08
3.0006464e-09
3.9489826e-08
2.9722746e-09
3.8635108e-08
2.9438473e-09
3.7796882e-08
2.9152917e-09
2.8866173e-09
1.0412592e-07
5.7636016e-09
1.0270801e-07
5.7544304e-09
1.0129368e-07
5.7439976e-09
9.9883214e-08
5.7322937e-09
9.8476923e-08
5.7192939e-09
9.7075105e-08
5.7049793e-09
9.5678065e-08
5.6893334e-09
9.428611e-08
5.6723433e-09
9.2899547e-08
5.6539995e-09
9.1518684e-08
5.6342968e-09
9.0143828e-08
5.6132338e-09
8.8775286e-08
5.5908132e-09
8.7413359e-08
5.5670422e-09
8.605835e-08
5.5419322e-09
8.4710556e-08
5.5154993e-09
8.337027e-08
5.4877636e-09
8.2037782e-08
5.4587503e-09
8.0713375e-08
5.4284884e-09
7.9397329e-08
5.3970117e-09
7.8089918e-08
5.3643578e-09
7.6791408e-08
5.3305689e-09
7.5502063e-08
5.2956906e-09
7.4222136e-08
5.2597729e-09
7.2951878e-08
5.2228688e-09
7.1691531e-08
5.1850352e-09
7.044133e-08
5.1463319e-09
6.9201508e-08
5.1068215e-09
6.7972286e-08
5.0665693e-09
6.6753883e-08
5.0256427e-09
6.5546511e-08
4.9841108e-09
6.4350375e-08
4.9420444e-09
6.3165676e-08
4.899515e-09
6.199261e-08
4.8565946e-09
6.0831367e-08
4.8133554e-09
5.9682133e-08
4.7698689e-09
5.8545089e-08
4.7262055e-09
5.7420414e-08
4.6824342e-09
5.6308281e-08
4.6386216e-09
5.5208864e-08
4.5948316e-09
5.4122335e-08
4.5511244e-09
5.3048864e-08
4.5075561e-09
5.1988626e-08
4.4641775e-09
5.0941795e-08
4.4210343e-09
4.9908548e-08
4.3781661e-09
4.8889066e-08
4.3356073e-09
4.7883532e-08
4.2933885e-09
4.6892131e-08
4.2515392e-09
4.5915052e-08
4.2100907e-09
4.4952492e-08
4.16908e-09
4.4004656e-08
4.1285488e-09
4.3071776e-08
4.0885402e-09
4.2154105e-08
4.0490678e-09
4.1251935e-08
4.010111e-09
4.0365519e-08
3.9714378e-09
3.9495085e-08
3.9328721e-09
3.8640879e-08
3.8942985e-09
3.7803197e-08
3.8556222e-09
1.0409757e-07
7.202702e-09
1.0268048e-07
7.1909432e-09
1.0126696e-07
7.1776001e-09
9.985729e-08
7.162655e-09
9.8451783e-08
7.1460787e-09
9.7050737e-08
7.1278482e-09
9.565446e-08
7.1079437e-09
9.4263256e-08
7.0863496e-09
9.2877435e-08
7.0630554e-09
9.1497305e-08
7.0380553e-09
9.0123172e-08
7.0113484e-09
8.8755343e-08
6.9829392e-09
8.7394121e-08
6.9528375e-09
8.6039808e-08
6.9210584e-09
8.4692701e-08
6.8876229e-09
8.3353095e-08
6.8525571e-09
8.2021278e-08
6.8158929e-09
8.0697535e-08
6.7776676e-09
7.9382145e-08
6.7379237e-09
7.8075382e-08
6.6967092e-09
7.6777515e-08
6.6540768e-09
7.5488803e-08
6.6100846e-09
7.4209505e-08
6.564795e-09
7.2939868e-08
6.518275e-09
7.1680136e-08
6.4705957e-09
7.0430545e-08
6.4218321e-09
6.9191326e-08
6.3720628e-09
6.7962703e-08
6.3213692e-09
6.6744893e-08
6.2698356e-09
6.553811e-08
6.2175484e-09
6.4342559e-08
6.1645957e-09
6.3158442e-08
6.1110666e-09
6.1985955e-08
6.0570507e-09
6.0825288e-08
6.0026375e-09
5.9676628e-08
5.9479159e-09
5.8540157e-08
5.8929731e-09
5.7416055e-08
5.8378947e-09
5.6304496e-08
5.7827632e-09
5.5205654e-08
5.7276579e-09
5.4119701e-08
5.672654e-09
5.3046811e-08
5.6178216e-09
5.1987156e-08
5.5632251e-09
5.0940911e-08
5.5089225e-09
4.9908257e-08
5.4549649e-09
4.8889373e-08
5.4013968e-09
4.7884444e-08
5.3482565e-09
4.6893659e-08
5.2955791e-09
4.5917208e-08
5.2433983e-09
4.4955292e-08
5.1917495e-09
4.400812e-08
5.1406682e-09
4.3075921e-08
5.0901866e-09
4.2158942e-08
5.0403029e-09
4.1257462e-08
4.99098e-09
4.0371732e-08
4.9420101e-09
3.9501983e-08
4.8932135e-09
3.864847e-08
4.8444545e-09
4.7956123e-09
9.2141994e-08
8.4763163e-09
9.0888111e-08
8.4622846e-09
8.9637371e-08
8.4463827e-09
8.8390035e-08
8.4285855e-09
8.7146369e-08
8.4088599e-09
8.5906643e-08
8.3871791e-09
8.4671127e-08
8.3635203e-09
8.3440093e-08
8.337866e-09
8.2213814e-08
8.3102044e-09
8.0992563e-08
8.2805293e-09
7.9776613e-08
8.2488405e-09
7.8566235e-08
8.2151439e-09
7.7361699e-08
8.1794518e-09
7.616327e-08
8.1417826e-09
7.4971214e-08
8.1021615e-09
7.378579e-08
8.0606198e-09
7.2607254e-08
8.0171957e-09
7.143586e-08
7.9719335e-09
7.0271853e-08
7.9248836e-09
6.9115478e-08
7.8761029e-09
6.7966971e-08
7.825654e-09
6.6826565e-08
7.7736053e-09
6.5694486e-08
7.7200307e-09
6.4570955e-08
7.6650092e-09
6.3456188e-08
7.6086247e-09
6.2350394e-08
7.5509657e-09
6.1253779e-08
7.4921245e-09
6.0166539e-08
7.4321972e-09
5.908887e-08
7.3712829e-09
5.802096e-08
7.3094831e-09
5.6962991e-08
7.2469012e-09
5.5915142e-08
7.1836417e-09
5.4877588e-08
7.1198099e-09
5.3850497e-08
7.0555106e-09
5.2834037e-08
6.9908476e-09
5.1828369e-08
6.9259235e-09
5.0833652e-08
6.8608379e-09
4.9850043e-08
6.7956878e-09
4.8877695e-08
6.7305661e-09
4.7916763e-08
6.665561e-09
4.69674e-08
6.6007554e-09
4.602976e-08
6.5362256e-09
4.5103999e-08
6.4720406e-09
4.4190277e-08
6.4082617e-09
4.3288755e-08
6.3449418e-09
4.2399597e-08
6.2821263e-09
4.1522972e-08
6.2198545e-09
4.0659054e-08
6.1581613e-09
3.980802e-08
6.09708e-09
3.8970059e-08
6.0366404e-09
3.8145371e-08
5.9768656e-09
3.7334173e-08
5.9177419e-09
3.65367e-08
5.8592188e-09
3.5753172e-08
5.8011019e-09
3.4983797e-08
5.7432138e-09
3.4228794e-08
5.6854158e-09
5.6276094e-09
9.4656608e-08
9.7844304e-09
9.3369045e-08
9.7680837e-09
9.2084697e-08
9.7495726e-09
9.0803833e-08
9.7288646e-09
8.9526726e-08
9.7059223e-09
8.8253654e-08
9.680715e-09
8.6984896e-08
9.6532169e-09
8.5720731e-08
9.6234086e-09
8.446144e-08
9.5912769e-09
8.3207305e-08
9.5568153e-09
8.1958606e-08
9.5200244e-09
8.0715622e-08
9.4809115e-09
7.9478629e-08
9.4394913e-09
7.8247904e-08
9.3957859e-09
7.7023716e-08
9.3498247e-09
7.5806334e-08
9.3016446e-09
7.4596021e-08
9.2512899e-09
7.3393038e-08
9.1988121e-09
7.2197637e-08
9.14427e-09
7.101007e-08
9.0877295e-09
6.9830581e-08
9.0292631e-09
6.8659408e-08
8.9689501e-09
6.7496784e-08
8.906876e-09
6.6342937e-08
8.8431322e-09
6.519809e-08
8.7778157e-09
6.4062457e-08
8.7110286e-09
6.2936249e-08
8.6428776e-09
6.1819672e-08
8.5734736e-09
6.0712924e-08
8.5029308e-09
5.9616199e-08
8.4313663e-09
5.8529688e-08
8.3588991e-09
5.7453573e-08
8.2856496e-09
5.6388034e-08
8.2117388e-09
5.5333247e-08
8.1372873e-09
5.4289383e-08
8.0624146e-09
5.325661e-08
7.9872381e-09
5.2235092e-08
7.9118727e-09
5.122499e-08
7.8364296e-09
5.0226464e-08
7.7610159e-09
4.9239674e-08
7.6857332e-09
4.8264777e-08
7.6106774e-09
4.7301934e-08
7.5359369e-09
4.6351307e-08
7.4615924e-09
4.5413059e-08
7.3877152e-09
4.4487357e-08
7.3143671e-09
4.3574374e-08
7.2416002e-09
4.2674283e-08
7.1694578e-09
4.1787265e-08
7.0979756e-09
4.0913506e-08
7.0271841e-09
4.0053199e-08
6.957107e-09
3.9206551e-08
6.8877583e-09
3.8373779e-08
6.8191142e-09
3.7555117e-08
6.7511107e-09
3.6750789e-08
6.6835615e-09
3.5961012e-08
6.6162941e-09
3.5186013e-08
6.5491778e-09
6.4821773e-09
9.723388e-08
1.1127829e-08
9.5911932e-08
1.1109129e-08
9.4593269e-08
1.1087961e-08
9.3278168e-08
1.1064286e-08
9.1966912e-08
1.1038062e-08
9.0659785e-08
1.1009254e-08
8.9357075e-08
1.0977833e-08
8.805907e-08
1.0943778e-08
8.6766059e-08
1.0907074e-08
8.5478332e-08
1.0867715e-08
8.4196177e-08
1.0825702e-08
8.2919881e-08
1.0781044e-08
8.1649729e-08
1.0733758e-08
8.0386005e-08
1.068387e-08
7.9128986e-08
1.0631413e-08
7.7878949e-08
1.0576431e-08
7.6636166e-08
1.0518973e-08
7.5400902e-08
1.04591e-08
7.417342e-08
1.0396877e-08
7.2953977e-08
1.0332381e-08
7.1742825e-08
1.0265693e-08
7.0540209e-08
1.0196905e-08
6.9346369e-08
1.0126114e-08
6.8161539e-08
1.0053424e-08
6.6985949e-08
9.9789442e-09
6.5819821e-08
9.9027923e-09
6.466337e-08
9.8250891e-09
6.351681e-08
9.7459604e-09
6.2380345e-08
9.6655362e-09
6.1254175e-08
9.5839492e-09
6.0138496e-08
9.5013346e-09
5.9033498e-08
9.417829e-09
5.7939366e-08
9.3335696e-09
5.6856282e-08
9.2486929e-09
5.5784422e-08
9.1633342e-09
5.472396e-08
9.0776269e-09
5.3675066e-08
8.9917007e-09
5.2637908e-08
8.905682e-09
5.161265e-08
8.8196919e-09
5.0599459e-08
8.7338461e-09
4.9598497e-08
8.6482534e-09
4.8609931e-08
8.5630152e-09
4.7633928e-08
8.4782234e-09
4.6670659e-08
8.39396e-09
4.5720297e-08
8.3102957e-09
4.478302e-08
8.227289e-09
4.3859008e-08
8.1449871e-09
4.294845e-08
8.0634262e-09
4.2051538e-08
7.9826336e-09
4.1168472e-08
7.9026264e-09
4.0299464e-08
7.8234098e-09
3.9444732e-08
7.7449514e-09
3.8604508e-08
7.6671742e-09
3.7779023e-08
7.5898944e-09
3.6968504e-08
7.5129436e-09
3.6173201e-08
7.4362006e-09
9.9874513e-08
1.2507305e-08
9.8517477e-08
1.2486216e-08
9.7163795e-08
1.2462347e-08
9.5813752e-08
1.2435652e-08
9.4467639e-08
1.2406083e-08
9.312575e-08
1.2373602e-08
9.1788381e-08
1.2338177e-08
9.0455828e-08
1.2299785e-08
8.912839e-08
1.2258409e-08
8.7806363e-08
1.2214043e-08
8.6490046e-08
1.2166689e-08
8.5179733e-08
1.2116357e-08
8.3875719e-08
1.2063067e-08
8.2578294e-08
1.2006849e-08
8.1287745e-08
1.1947741e-08
8.0004357e-08
1.1885792e-08
7.8728407e-08
1.1821058e-08
7.7460172e-08
1.1753606e-08
7.6199921e-08
1.1683513e-08
7.4947918e-08
1.1610863e-08
7.3704421e-08
1.1535748e-08
7.2469686e-08
1.1458272e-08
7.1243957e-08
1.1378543e-08
7.0027478e-08
1.1296678e-08
6.8820483e-08
1.1212801e-08
6.7623202e-08
1.1127043e-08
6.6435858e-08
1.1039541e-08
6.5258669e-08
1.0950435e-08
6.4091849e-08
1.0859871e-08
6.2935602e-08
1.0767998e-08
6.1790131e-08
1.0674968e-08
6.0655633e-08
1.0580934e-08
5.9532298e-08
1.048605e-08
5.8420316e-08
1.0390468e-08
5.7319868e-08
1.029434e-08
5.6231135e-08
1.0197815e-08
5.5154293e-08
1.0101039e-08
5.4089515e-08
1.0004153e-08
5.3036973e-08
9.9072931e-09
5.1996838e-08
9.8105892e-09
5.0969282e-08
9.7141635e-09
4.9954475e-08
9.6181299e-09
4.8952592e-08
9.5225925e-09
4.7963809e-08
9.4276437e-09
4.6988307e-08
9.3333629e-09
4.602627e-08
9.2398156e-09
4.5077887e-08
9.1470522e-09
4.4143351e-08
9.0551095e-09
4.3222863e-08
8.9640107e-09
4.2316631e-08
8.8737667e-09
4.1424868e-08
8.7843742e-09
4.0547796e-08
8.6957936e-09
3.9685645e-08
8.6079354e-09
3.8838654e-08
8.5206116e-09
3.8007065e-08
8.4336589e-09
8.3469831e-09
1.0257915e-07
1.3923654e-08
1.0118633e-07
1.3900146e-08
9.9796931e-08
1.3873537e-08
9.8411246e-08
1.3843771e-08
9.7029575e-08
1.3810799e-08
9.5652221e-08
1.3774576e-08
9.4279489e-08
1.3735069e-08
9.2911684e-08
1.369225e-08
9.1549114e-08
1.3646103e-08
9.0192084e-08
1.3596622e-08
8.8840901e-08
1.3543808e-08
8.749587e-08
1.3487674e-08
8.6157292e-08
1.3428244e-08
8.4825467e-08
1.3365549e-08
8.3500691e-08
1.3299634e-08
8.2183255e-08
1.3230552e-08
8.0873447e-08
1.3158368e-08
7.957155e-08
1.3083155e-08
7.8277842e-08
1.3005e-08
7.6992595e-08
1.2923995e-08
7.5716076e-08
1.2840246e-08
7.4448545e-08
1.2753864e-08
7.3190257e-08
1.2664973e-08
7.1941461e-08
1.2573703e-08
7.07024e-08
1.2480191e-08
6.9473311e-08
1.2384583e-08
6.8254423e-08
1.228703e-08
6.7045963e-08
1.2187689e-08
6.5848149e-08
1.2086722e-08
6.4661195e-08
1.1984295e-08
6.3485309e-08
1.1880576e-08
6.2320694e-08
1.1775734e-08
6.116755e-08
1.1669941e-08
6.002607e-08
1.1563367e-08
5.8896445e-08
1.1456178e-08
5.777886e-08
1.1348541e-08
5.6673498e-08
1.1240618e-08
5.558054e-08
1.1132565e-08
5.4500165e-08
1.1024533e-08
5.3432549e-08
1.0916666e-08
5.2377871e-08
1.08091e-08
5.1336309e-08
1.0701964e-08
5.0308044e-08
1.0595371e-08
4.929326e-08
1.0489426e-08
4.8292144e-08
1.0384217e-08
4.7304888e-08
1.0279815e-08
4.6331686e-08
1.0176275e-08
4.5372741e-08
1.0073633e-08
4.442826e-08
9.9719092e-09
4.3498458e-08
9.8711069e-09
4.2583554e-08
9.7712159e-09
4.1683769e-08
9.6721902e-09
4.0799335e-08
9.5739281e-09
3.9930498e-08
9.4762318e-09
3.9077514e-08
9.378949e-09
1.0534834e-07
1.5377677e-08
1.0391905e-07
1.5351726e-08
1.0249325e-07
1.532234e-08
1.0107123e-07
1.528946e-08
9.9653302e-08
1.5253029e-08
9.8239787e-08
1.5212999e-08
9.6830994e-08
1.5169333e-08
9.5427239e-08
1.5122002e-08
9.4028838e-08
1.5070989e-08
9.2636107e-08
1.5016285e-08
9.124936e-08
1.4957896e-08
8.9868912e-08
1.4895834e-08
8.8495074e-08
1.4830126e-08
8.7128153e-08
1.4760808e-08
8.5768455e-08
1.468793e-08
8.4416281e-08
1.461155e-08
8.3071925e-08
1.453174e-08
8.173568e-08
1.4448583e-08
8.0407832e-08
1.4362172e-08
7.9088661e-08
1.4272612e-08
7.7778442e-08
1.4180017e-08
7.6477443e-08
1.4084513e-08
7.5185928e-08
1.3986234e-08
7.3904152e-08
1.3885323e-08
7.2632366e-08
1.3781935e-08
7.1370815e-08
1.3676227e-08
7.0119737e-08
1.3568368e-08
6.8879363e-08
1.345853e-08
6.7649921e-08
1.3346892e-08
6.6431631e-08
1.3233636e-08
6.522471e-08
1.3118948e-08
6.4029367e-08
1.3003014e-08
6.2845808e-08
1.2886023e-08
6.1674235e-08
1.2768161e-08
6.0514844e-08
1.2649613e-08
5.936783e-08
1.2530562e-08
5.8233381e-08
1.2411185e-08
5.7111686e-08
1.2291655e-08
5.6002931e-08
1.2172139e-08
5.49073e-08
1.2052794e-08
5.3824978e-08
1.1933772e-08
5.2756152e-08
1.1815213e-08
5.170101e-08
1.1697244e-08
5.0659743e-08
1.157998e-08
4.9632544e-08
1.1463517e-08
4.8619614e-08
1.1347934e-08
4.7621154e-08
1.1233289e-08
4.6637374e-08
1.1119618e-08
4.566849e-08
1.1006935e-08
4.4714723e-08
1.0895238e-08
4.3776297e-08
1.0784511e-08
4.2853434e-08
1.0674702e-08
4.1946365e-08
1.0565698e-08
4.105535e-08
1.0457286e-08
1.0349354e-08
1.0818255e-07
1.6870179e-08
1.0671611e-07
1.6841764e-08
1.0525321e-07
1.6809573e-08
1.0379418e-07
1.6773537e-08
1.0233932e-07
1.6733597e-08
1.0088895e-07
1.6689699e-08
9.944341e-08
1.6641803e-08
9.8003014e-08
1.6589877e-08
9.6568092e-08
1.6533904e-08
9.5138968e-08
1.6473875e-08
9.3715967e-08
1.6409795e-08
9.2299411e-08
1.6341681e-08
9.0889623e-08
1.626956e-08
8.9486918e-08
1.6193474e-08
8.8091611e-08
1.6113477e-08
8.6704012e-08
1.6029634e-08
8.5324425e-08
1.5942024e-08
8.3953151e-08
1.5850738e-08
8.2590484e-08
1.5755878e-08
8.1236714e-08
1.5657559e-08
7.9892123e-08
1.5555907e-08
7.8556989e-08
1.5451059e-08
7.7231583e-08
1.5343163e-08
7.5916168e-08
1.5232376e-08
7.4611004e-08
1.5118866e-08
7.3316342e-08
1.5002807e-08
7.203243e-08
1.4884382e-08
7.0759506e-08
1.4763781e-08
6.9497806e-08
1.4641198e-08
6.8247557e-08
1.4516834e-08
6.7008984e-08
1.4390892e-08
6.5782304e-08
1.4263574e-08
6.4567731e-08
1.4135088e-08
6.3365473e-08
1.4005637e-08
6.2175735e-08
1.3875424e-08
6.0998719e-08
1.3744648e-08
5.9834621e-08
1.3613503e-08
5.8683638e-08
1.3482178e-08
5.7545962e-08
1.3350855e-08
5.6421787e-08
1.3219708e-08
5.5311306e-08
1.3088902e-08
5.4214713e-08
1.295859e-08
5.3132204e-08
1.2828912e-08
5.2063977e-08
1.2699993e-08
5.1010235e-08
1.2571939e-08
4.9971183e-08
1.2444835e-08
4.8947033e-08
1.2318742e-08
4.7938e-08
1.2193696e-08
4.6944309e-08
1.2069707e-08
4.5966188e-08
1.1946765e-08
4.5003868e-08
1.1824848e-08
4.405757e-08
1.1703903e-08
4.3127527e-08
1.1583802e-08
4.2214011e-08
1.1464322e-08
1.1108209e-07
1.8401962e-08
1.0957785e-07
1.8371073e-08
1.080772e-07
1.8336052e-08
1.0658048e-07
1.8296828e-08
1.05088e-07
1.8253333e-08
1.0360012e-07
1.8205511e-08
1.0211715e-07
1.8153317e-08
1.0063944e-07
1.8096719e-08
9.9167313e-08
1.8035696e-08
9.7701115e-08
1.7970241e-08
9.6241178e-08
1.790036e-08
9.4787834e-08
1.782607e-08
9.3341414e-08
1.7747403e-08
9.1902245e-08
1.7664406e-08
9.047065e-08
1.7577136e-08
8.9046949e-08
1.7485665e-08
8.7631456e-08
1.7390081e-08
8.6224479e-08
1.729048e-08
8.4826323e-08
1.7186977e-08
8.3437286e-08
1.7079696e-08
8.205766e-08
1.6968774e-08
8.068773e-08
1.685436e-08
7.9327775e-08
1.6736616e-08
7.797807e-08
1.6615714e-08
7.663888e-08
1.6491834e-08
7.5310466e-08
1.6365168e-08
7.3993083e-08
1.6235914e-08
7.268698e-08
1.6104279e-08
7.1392397e-08
1.5970474e-08
7.0109573e-08
1.5834718e-08
6.8838738e-08
1.5697229e-08
6.7580119e-08
1.5558231e-08
6.6333938e-08
1.5417947e-08
6.510041e-08
1.5276598e-08
6.387975e-08
1.5134406e-08
6.2672165e-08
1.4991585e-08
6.1477863e-08
1.4848349e-08
6.0297046e-08
1.4704901e-08
5.9129917e-08
1.4561441e-08
5.7976678e-08
1.4418157e-08
5.6837528e-08
1.4275228e-08
5.5712672e-08
1.4132822e-08
5.4602314e-08
1.399109e-08
5.3506661e-08
1.3850168e-08
5.2425922e-08
1.3710172e-08
5.1360311e-08
1.3571193e-08
5.0310045e-08
1.3433296e-08
4.927535e-08
1.3296515e-08
4.8256458e-08
1.3160858e-08
4.7253605e-08
1.3026305e-08
4.6267027e-08
1.2892831e-08
4.5296947e-08
1.276038e-08
4.43436e-08
1.2628811e-08
1.2497917e-08
1.1404719e-07
1.9973833e-08
1.1250449e-07
1.9940464e-08
1.1096544e-07
1.9902599e-08
1.0943038e-07
1.9860159e-08
1.0789964e-07
1.9813071e-08
1.0637357e-07
1.9761274e-08
1.0485251e-07
1.9704721e-08
1.0333682e-07
1.9643376e-08
1.0182683e-07
1.9577218e-08
1.0032289e-07
1.9506241e-08
9.8825345e-08
1.9430449e-08
9.7334544e-08
1.9349865e-08
9.5850824e-08
1.9264522e-08
9.4374522e-08
1.9174471e-08
9.2905972e-08
1.9079776e-08
9.1445503e-08
1.8980515e-08
8.9993438e-08
1.8876782e-08
8.8550096e-08
1.8768684e-08
8.7115791e-08
1.8656343e-08
8.569083e-08
1.8539895e-08
8.4275513e-08
1.8419489e-08
8.2870136e-08
1.8295286e-08
8.1474986e-08
1.8167462e-08
8.0090347e-08
1.8036202e-08
7.8716493e-08
1.7901703e-08
7.7353695e-08
1.7764171e-08
7.6002214e-08
1.7623821e-08
7.4662308e-08
1.7480877e-08
7.3334229e-08
1.7335568e-08
7.201822e-08
1.7188129e-08
7.0714523e-08
1.7038799e-08
6.9423372e-08
1.6887817e-08
6.8144998e-08
1.6735425e-08
6.6879624e-08
1.6581863e-08
6.5627474e-08
1.6427369e-08
6.4388764e-08
1.6272178e-08
6.316371e-08
1.6116518e-08
6.1952524e-08
1.5960612e-08
6.0755418e-08
1.5804673e-08
5.9572601e-08
1.5648906e-08
5.8404285e-08
1.5493505e-08
5.725068e-08
1.5338651e-08
5.6112001e-08
1.5184508e-08
5.4988463e-08
1.5031223e-08
5.3880284e-08
1.487892e-08
5.2787685e-08
1.4727698e-08
5.1710892e-08
1.4577626e-08
5.0650135e-08
1.4428739e-08
4.9605656e-08
1.4281037e-08
4.8577702e-08
1.4134494e-08
4.7566514e-08
1.3989079e-08
4.6572316e-08
1.3844736e-08
4.5595343e-08
1.3701319e-08
1.1707788e-07
2.1586594e-08
1.154961e-07
2.1550751e-08
1.1391802e-07
2.1510034e-08
1.1234399e-07
2.1464358e-08
1.1077435e-07
2.1413646e-08
1.0920945e-07
2.135783e-08
1.0764967e-07
2.1296862e-08
1.0609534e-07
2.1230702e-08
1.0454683e-07
2.115933e-08
1.030045e-07
2.1082738e-08
1.014687e-07
2.1000933e-08
9.993979e-08
2.0913938e-08
9.8418117e-08
2.0821792e-08
9.6904029e-08
2.0724548e-08
9.539787e-08
2.0622278e-08
9.389998e-08
2.0515064e-08
9.2410692e-08
2.040301e-08
9.0930336e-08
2.0286231e-08
8.9459234e-08
2.0164859e-08
8.7997703e-08
2.003904e-08
8.6546054e-08
1.9908936e-08
8.510459e-08
1.9774721e-08
8.3673611e-08
1.9636583e-08
8.2253407e-08
1.9494722e-08
8.0844263e-08
1.9349351e-08
7.9446458e-08
1.9200691e-08
7.8060264e-08
1.9048976e-08
7.6685946e-08
1.8894445e-08
7.5323765e-08
1.8737345e-08
7.3973976e-08
1.857793e-08
7.2636826e-08
1.8416455e-08
7.1312561e-08
1.825318e-08
7.0001419e-08
1.8088364e-08
6.8703634e-08
1.7922267e-08
6.7419438e-08
1.7755144e-08
6.6149057e-08
1.7587247e-08
6.4892716e-08
1.7418824e-08
6.3650636e-08
1.7250112e-08
6.2423039e-08
1.7081344e-08
6.1210144e-08
1.6912739e-08
6.0012172e-08
1.6744505e-08
5.8829344e-08
1.6576838e-08
5.7661884e-08
1.6409914e-08
5.6510015e-08
1.6243891e-08
5.5373965e-08
1.6078904e-08
5.4253963e-08
1.5915058e-08
5.3150239e-08
1.5752427e-08
5.2063034e-08
1.5591046e-08
5.0992596e-08
1.543091e-08
4.9939181e-08
1.5271983e-08
4.8903042e-08
1.5114229e-08
4.7884405e-08
1.4957593e-08
1.4801944e-08
1.2017404e-07
2.3241046e-08
1.1855259e-07
2.3202743e-08
1.1693488e-07
2.3159176e-08
1.1532126e-07
2.3110255e-08
1.137121e-07
2.3055895e-08
1.1210777e-07
2.2996025e-08
1.1050862e-07
2.2930592e-08
1.0891504e-07
2.2859557e-08
1.0732739e-07
2.2782896e-08
1.0574603e-07
2.2700602e-08
1.0417134e-07
2.2612684e-08
1.0260369e-07
2.2519168e-08
1.0104342e-07
2.2420095e-08
9.9490913e-08
2.2315524e-08
9.794651e-08
2.220553e-08
9.6410563e-08
2.2090206e-08
9.4883418e-08
2.1969661e-08
9.3365414e-08
2.1844019e-08
9.1856884e-08
2.1713423e-08
9.0358154e-08
2.157803e-08
8.8869546e-08
2.1438013e-08
8.7391373e-08
2.1293561e-08
8.5923944e-08
2.1144874e-08
8.4467559e-08
2.0992168e-08
8.3022513e-08
2.0835671e-08
8.1589094e-08
2.0675621e-08
8.0167584e-08
2.0512267e-08
7.8758258e-08
2.0345867e-08
7.7361386e-08
2.0176686e-08
7.5977232e-08
2.0004996e-08
7.4606054e-08
1.983107e-08
7.3248106e-08
1.9655187e-08
7.1903636e-08
1.9477626e-08
7.0572888e-08
1.9298664e-08
6.9256104e-08
1.9118575e-08
6.7953519e-08
1.8937631e-08
6.6665368e-08
1.8756095e-08
6.5391883e-08
1.8574223e-08
6.4133295e-08
1.8392265e-08
6.2889835e-08
1.8210455e-08
6.1661733e-08
1.8029017e-08
6.0449222e-08
1.784816e-08
5.9252534e-08
1.7668073e-08
5.8071903e-08
1.7488925e-08
5.6907564e-08
1.7310861e-08
5.5759756e-08
1.7133995e-08
5.4628716e-08
1.6958406e-08
5.3514688e-08
1.6784131e-08
5.241793e-08
1.661116e-08
5.133871e-08
1.6439441e-08
5.027729e-08
1.6268938e-08
4.9233905e-08
1.6099599e-08
1.2333535e-07
2.4937987e-08
1.2167366e-07
2.4897249e-08
1.2001575e-07
2.4850846e-08
1.1836197e-07
2.4798679e-08
1.167127e-07
2.4740657e-08
1.1506833e-07
2.4676706e-08
1.1342923e-07
2.4606768e-08
1.1179579e-07
2.4530803e-08
1.1016838e-07
2.4448785e-08
1.085474e-07
2.436071e-08
1.0693321e-07
2.4266586e-08
1.0532619e-07
2.4166442e-08
1.0372673e-07
2.4060323e-08
1.0213518e-07
2.3948293e-08
1.0055192e-07
2.3830433e-08
9.89773e-08
2.3706842e-08
9.7411683e-08
2.3577638e-08
9.5855418e-08
2.3442954e-08
9.4308847e-08
2.3302943e-08
9.2772308e-08
2.3157774e-08
9.1246133e-08
2.3007632e-08
8.9730645e-08
2.2852717e-08
8.8226164e-08
2.2693247e-08
8.6733e-08
2.252945e-08
8.5251458e-08
2.2361571e-08
8.3781835e-08
2.2189865e-08
8.2324425e-08
2.2014597e-08
8.0879512e-08
2.1836044e-08
7.9447375e-08
2.1654488e-08
7.802829e-08
2.1470219e-08
7.6622524e-08
2.1283532e-08
7.523034e-08
2.1094722e-08
7.3851998e-08
2.0904087e-08
7.2487752e-08
2.0711925e-08
7.1137852e-08
2.0518527e-08
6.9802547e-08
2.0324184e-08
6.848208e-08
2.0129178e-08
6.7176695e-08
1.9933784e-08
6.5886633e-08
1.9738264e-08
6.4612137e-08
1.9542873e-08
6.3353447e-08
1.9347849e-08
6.2110808e-08
1.9153412e-08
6.0884461e-08
1.8959768e-08
5.9674652e-08
1.8767095e-08
5.8481625e-08
1.8575548e-08
5.7305625e-08
1.8385252e-08
5.6146898e-08
1.8196291e-08
5.5005692e-08
1.8008708e-08
5.388227e-08
1.7822484e-08
5.2776914e-08
1.7637557e-08
5.1689897e-08
1.7453888e-08
1.727144e-08
1.2656128e-07
2.6678209e-08
1.2485882e-07
2.6635075e-08
1.2316015e-07
2.6585861e-08
1.2146566e-07
2.6530458e-08
1.1977573e-07
2.6468771e-08
1.1809076e-07
2.6400721e-08
1.1641114e-07
2.6326247e-08
1.1473727e-07
2.6245306e-08
1.1306953e-07
2.6157873e-08
1.1140833e-07
2.6063942e-08
1.0975406e-07
2.5963526e-08
1.081071e-07
2.5856654e-08
1.0646785e-07
2.5743376e-08
1.0483667e-07
2.5623761e-08
1.0321396e-07
2.5497896e-08
1.0160008e-07
2.5365886e-08
9.9995399e-08
2.5227859e-08
9.8400281e-08
2.5083957e-08
9.6815081e-08
2.4934342e-08
9.5240145e-08
2.4779196e-08
9.3675817e-08
2.4618716e-08
9.2122432e-08
2.4453116e-08
9.0580318e-08
2.4282626e-08
8.9049797e-08
2.4107493e-08
8.7531185e-08
2.3927976e-08
8.6024791e-08
2.3744346e-08
8.4530915e-08
2.3556888e-08
8.3049856e-08
2.3365893e-08
8.1581902e-08
2.3171666e-08
8.0127339e-08
2.2974513e-08
7.8686444e-08
2.2774747e-08
7.7259493e-08
2.2572685e-08
7.5846755e-08
2.2368644e-08
7.4448494e-08
2.2162939e-08
7.3064972e-08
2.1955883e-08
7.1696449e-08
2.1747784e-08
7.0343179e-08
2.1538942e-08
6.9005417e-08
2.1329651e-08
6.7683418e-08
2.1120191e-08
6.6377433e-08
2.0910832e-08
6.5087717e-08
2.0701826e-08
6.3814523e-08
2.0493411e-08
6.2558106e-08
2.0285801e-08
6.1318722e-08
2.0079189e-08
6.0096625e-08
1.987374e-08
5.8892069e-08
1.9669587e-08
5.7705303e-08
1.9466827e-08
5.6536581e-08
1.9265504e-08
5.5386171e-08
1.9065598e-08
5.4254367e-08
1.8867032e-08
5.3141444e-08
1.866979e-08
1.8473877e-08
1.2985105e-07
2.84625e-08
1.2810732e-07
2.8417022e-08
1.263674e-07
2.8365035e-08
1.2463168e-07
2.8306421e-08
1.2290057e-07
2.8241077e-08
1.2117447e-07
2.8168921e-08
1.1945379e-07
2.8089888e-08
1.1773895e-07
2.8003935e-08
1.1603034e-07
2.7911037e-08
1.1432838e-07
2.7811186e-08
1.1263347e-07
2.7704398e-08
1.1094601e-07
2.7590706e-08
1.0926641e-07
2.7470162e-08
1.0759505e-07
2.7342841e-08
1.0593232e-07
2.7208837e-08
1.0427861e-07
2.7068262e-08
1.0263431e-07
2.6921251e-08
1.0099978e-07
2.6767957e-08
9.9375382e-08
2.6608553e-08
9.7761488e-08
2.6443232e-08
9.6158447e-08
2.6272203e-08
9.4566606e-08
2.6095695e-08
9.2986304e-08
2.5913953e-08
9.1417875e-08
2.5727238e-08
8.9861644e-08
2.5535825e-08
8.8317933e-08
2.5340004e-08
8.6787053e-08
2.5140075e-08
8.5269312e-08
2.4936351e-08
8.3765011e-08
2.4729151e-08
8.2274446e-08
2.4518804e-08
8.0797907e-08
2.430564e-08
7.9335679e-08
2.4089997e-08
7.7888042e-08
2.387221e-08
7.6455273e-08
2.3652614e-08
7.5037645e-08
2.3431543e-08
7.3635429e-08
2.3209322e-08
7.2248892e-08
2.2986272e-08
7.08783e-08
2.2762703e-08
6.952392e-08
2.2538913e-08
6.8186017e-08
2.2315188e-08
6.6864856e-08
2.2091797e-08
6.5560704e-08
2.1868989e-08
6.4273828e-08
2.1646995e-08
6.3004494e-08
2.1426016e-08
6.1752968e-08
2.120623e-08
6.051951e-08
2.0987781e-08
5.9304379e-08
2.0770775e-08
5.8107827e-08
2.0555266e-08
5.6930129e-08
2.0341229e-08
5.5771595e-08
2.0128575e-08
5.4632514e-08
1.9917328e-08
1.9707554e-08
1.3320362e-07
3.0291639e-08
1.3141817e-07
3.0243886e-08
1.2963653e-07
3.0189181e-08
1.2785911e-07
3.0127392e-08
1.2608633e-07
3.0058413e-08
1.2431862e-07
2.9982156e-08
1.225564e-07
2.9898555e-08