/*--------------------------------*- C++ -*----------------------------------*\
| =========                 |                                                 |
| \\      /  F ield         | OpenFOAM: The Open Source CFD Toolbox           |
|  \\    /   O peration     | Version:  2312                                  |
|   \\  /    A nd           | Website:  www.openfoam.com                      |
|    \\/     M anipulation  |                                                 |
\*---------------------------------------------------------------------------*/
FoamFile
{
    version     2.0;
    format      ascii;
    arch        "LSB;label=32;scalar=64";
    class       volScalarField;
    location    "0.1";
    object      T;
}
// * * * * * * * * * * * * * * * * * * * * * * * * * * * * * * * * * * * * * //

dimensions      [0 0 0 1 0 0 0];

internalField   nonuniform List<scalar> 
3251
(
468.05263
466.06393
464.05928
462.03933
460.00484
457.95663
455.89561
453.82276
451.73911
449.64578
447.54392
445.43474
443.31949
441.19946
439.07597
436.95036
434.82398
432.6982
430.5744
428.45394
426.33818
424.22847
422.12613
420.03248
417.94877
415.87626
413.81614
411.76958
409.73771
407.72159
405.72226
403.74071
401.77786
399.83459
397.91173
396.01008
394.13036
392.27325
390.43938
388.62936
386.84371
385.08295
383.34752
381.63786
379.95435
378.29734
376.66715
375.06407
373.4884
371.94041
370.42037
368.92853
367.46554
366.0314
364.62582
363.24902
361.90123
360.58275
468.03946
466.05104
464.04666
462.02698
459.99275
457.9448
455.88403
453.81143
451.72803
449.63493
447.53331
445.42437
443.30935
441.18955
439.06628
436.94089
434.81473
432.68917
430.56558
428.44533
426.32978
424.22027
422.11814
420.02468
417.94117
415.86885
413.80893
411.76256
409.73088
407.71495
405.71581
403.73444
401.77177
399.82868
397.90601
396.00453
394.12499
392.26805
390.43437
388.62452
386.83905
385.07846
383.34321
381.63372
379.95039
378.29355
376.66355
375.06066
373.48519
371.93739
370.41756
368.92595
367.46301
366.02881
364.62326
363.24651
361.89875
360.58041
468.01286
466.02496
464.02111
462.00195
459.96824
457.92079
455.86052
453.7884
451.70548
449.61286
447.5117
445.40322
443.28866
441.1693
439.04648
436.92153
434.7958
432.67067
430.5475
428.42767
426.31253
424.20343
422.1017
420.00864
417.92552
415.85359
413.79405
411.74807
409.71676
407.7012
405.70243
403.72142
401.7591
399.81637
397.89405
395.99292
394.11372
392.25712
390.42377
388.61425
386.8291
385.06884
383.33391
381.62475
379.94173
378.28521
376.65552
375.05295
373.47779
371.93032
370.41079
368.91949
367.45673
366.02265
364.61724
363.24063
361.89301
360.57479
467.97281
465.9857
463.98264
461.96425
459.9313
457.8846
455.82506
453.75367
451.67147
449.57955
447.47909
445.3713
443.25741
441.13873
439.01657
436.89227
434.76719
432.6427
430.52016
428.40095
426.28643
424.17794
422.07682
419.98435
417.90183
415.83048
413.77151
411.72609
409.69534
407.68034
405.68211
403.70164
401.73986
399.79765
397.87585
395.97523
394.09653
392.24044
390.40758
388.59854
386.81388
385.05408
383.31963
381.61092
379.92836
378.27229
376.64305
375.04093
373.46621
371.91916
370.40006
368.90915
367.44671
366.01288
364.60773
363.23138
361.88398
360.56575
467.91932
465.93327
463.93125
461.91389
459.88194
457.83623
455.77768
453.70725
451.626
449.53502
447.43549
445.3286
443.21562
441.09783
438.97655
436.85312
434.72891
432.60526
430.48357
428.36519
426.25149
424.14382
422.04349
419.95182
417.87008
415.79951
413.74131
411.69664
409.66664
407.65237
405.65487
403.67512
401.71404
399.77253
397.85142
395.95148
394.07345
392.21801
390.3858
388.5774
386.79337
385.0342
383.30035
381.59225
379.91028
378.2548
376.62613
375.02458
373.45043
371.90393
370.38536
368.89495
367.43294
365.99949
364.59471
363.21873
361.87172
467.85623
465.87143
463.87064
461.85448
459.82372
457.77918
455.72177
453.65248
451.57234
449.48247
447.38402
445.27821
443.1663
441.04956
438.92931
436.80691
434.6837
432.56106
430.44036
428.32296
426.21023
424.10352
422.00414
419.9134
417.83258
415.76292
413.70562
411.66185
409.63272
407.61932
405.62267
403.64376
401.68352
399.74283
397.82252
395.92337
394.04613
392.19146
390.36001
388.55236
386.76906
385.01062
383.27748
381.57008
379.8888
378.234
376.606
375.00511
373.4316
371.88573
370.36777
368.87793
367.41644
365.98346
364.57913
363.20362
361.85728
467.78551
465.8021
463.80268
461.78787
459.75843
457.7152
455.65908
453.59105
451.51216
449.42353
447.3263
445.22169
443.11096
440.9954
438.87632
436.75506
434.63299
432.51148
430.39188
428.27558
426.16394
424.05829
421.95997
419.87029
417.7905
415.72186
413.66557
411.62279
409.59465
407.58221
405.58652
403.60856
401.64924
399.70947
397.79006
395.89181
394.01543
392.16163
390.33102
388.52421
386.74173
384.98409
383.25175
381.54513
379.86462
378.21057
376.58332
374.98315
373.41035
371.86518
370.34787
368.85867
367.39776
365.96533
364.56152
363.18652
361.84085
467.7016
465.71984
463.72204
461.70882
459.68096
457.63927
455.58467
453.51815
451.44075
449.35357
447.25779
445.15461
443.04529
440.93112
438.81342
436.69352
434.5728
432.45261
430.33434
428.21934
426.10898
424.0046
421.90754
419.81909
417.74054
415.67311
413.61801
411.57641
409.54943
407.53815
405.54359
403.56674
401.60853
399.66984
397.7515
395.8543
393.97896
392.12618
390.29658
388.49075
386.70924
384.95255
383.22115
381.51545
379.83584
378.18268
376.55629
374.95697
373.38501
371.84065
370.32413
368.83566
367.37546
365.94368
364.54049
363.1661
361.82102
467.60353
465.62369
463.62779
461.61644
459.5904
457.55052
455.4977
453.43293
451.35726
449.27179
447.1777
445.07619
442.96851
440.85597
438.73987
436.62157
434.50242
432.38379
430.26705
428.15357
426.04471
423.94182
421.84623
419.75923
417.68211
415.61609
413.56239
411.52218
409.49656
407.48662
405.49338
403.51784
401.56091
399.62349
397.70639
395.81042
393.93629
392.08469
390.25626
388.45158
386.6712
384.91563
383.18531
381.48068
379.80212
378.14999
376.52461
374.92628
373.35528
371.81186
370.29624
368.80865
367.34926
365.91825
364.51581
363.14213
467.49027
465.51266
463.51893
461.50973
459.48582
457.44802
455.39725
453.33451
451.26083
449.17734
447.08519
444.9856
442.87982
440.76916
438.65492
436.53845
434.42112
432.30428
430.18932
428.07759
425.97047
423.8693
421.7754
419.69008
417.61461
415.55023
413.49814
411.45951
409.43546
407.42707
405.43537
403.46132
401.50588
399.56992
397.65427
395.75971
393.88697
392.03674
390.20966
388.4063
386.62722
384.87292
383.14386
381.44046
379.7631
378.11215
376.48793
374.89074
373.32085
371.7785
370.26393
368.77733
367.31889
365.88878
364.48721
363.11446
467.36074
465.38567
463.39444
461.3877
459.3662
457.33078
455.28236
453.22193
451.15054
449.06929
446.97937
444.88198
442.77838
440.66986
438.55774
436.44337
434.32811
432.21333
430.1004
427.99068
425.88554
423.78633
421.69437
419.61096
417.53739
415.47487
413.42463
411.38782
409.36557
407.35895
405.36899
403.39667
401.44292
399.50863
397.59462
395.70167
393.83053
391.98186
390.15632
388.35447
386.57688
384.82403
383.0964
381.3944
379.71842
378.06882
376.44591
374.85001
373.28137
371.74026
370.22687
368.74141
367.28405
365.85499
364.45443
467.2138
465.2416
463.2532
461.24925
459.23049
457.19777
455.15201
453.0942
451.0254
448.94671
446.85931
444.76441
442.66327
440.55719
438.44748
436.3355
434.22259
432.11014
429.99951
427.89207
425.78918
423.69219
421.60243
419.5212
417.44977
415.38937
413.34122
411.30648
409.28626
407.28165
405.29367
403.3233
401.37147
399.43907
397.52692
395.63581
393.76647
391.91958
390.09577
388.29564
386.51972
384.76853
383.04251
381.3421
379.66767
378.01959
376.39817
374.80372
373.23651
371.69678
370.18474
368.70056
367.24444
365.81657
364.41729
467.04823
465.07927
463.09407
461.09324
459.07757
457.04789
455.00513
452.95028
450.88439
448.80858
446.72402
444.63193
442.53357
440.43023
438.32324
436.21393
434.10368
431.99385
429.88582
427.78094
425.68059
423.58611
421.49883
419.42004
417.35103
415.29302
413.24723
411.21481
409.19689
407.19454
405.20879
403.24061
401.29095
399.36068
397.45063
395.56158
393.69427
391.84937
390.02752
388.22932
386.45529
384.70595
382.98175
381.28312
379.61044
377.96406
376.34432
374.7515
373.18589
371.64772
370.13719
368.65447
367.19973
365.77324
466.86277
464.89744
462.9158
460.91849
458.90627
456.88
454.8406
452.78905
450.72643
448.65384
446.57247
444.48352
442.38827
440.28801
438.18405
436.07776
433.97048
431.86359
429.75846
427.65646
425.55895
423.46728
421.38277
419.30673
417.24042
415.18509
413.14194
411.11213
409.09677
407.09696
405.1137
403.14799
401.20075
399.27286
397.36516
395.47842
393.61338
391.77071
389.95106
388.155
386.38309
384.63582
382.91366
381.21701
379.54628
377.90182
376.28394
374.69295
373.12912
371.59269
370.08385
368.60277
367.1496
365.72475
466.65607
464.69479
462.71713
460.72373
458.71537
456.69289
454.65722
452.60936
450.55038
448.48138
446.40356
444.31812
442.22634
440.1295
438.02893
435.92599
433.82202
431.71841
429.61652
427.51772
425.42338
423.33484
421.25343
419.18044
417.11715
415.0648
413.02459
410.99768
408.98519
406.9882
405.00773
403.04476
401.10022
399.17499
397.2699
395.38573
393.52322
391.68304
389.86582
388.07217
386.30261
384.55764
382.83774
381.14332
379.47475
377.83241
376.2166
374.62763
373.06579
371.5313
370.02436
368.54512
367.09369
466.42674
464.46994
462.49669
460.50764
458.50354
456.48527
454.45375
452.40999
450.35504
448.29004
446.21615
444.1346
442.04666
439.95363
437.85682
435.75759
433.6573
431.55732
429.45903
427.36379
425.27297
423.1879
421.10992
419.04033
416.98039
414.93135
412.8944
410.87071
408.8614
406.86754
404.89016
402.93023
400.98868
399.0664
397.16421
395.2829
393.42318
391.58576
389.77125
387.98025
386.2133
384.47089
382.7535
381.06152
379.39536
377.75536
376.14185
374.55512
372.99547
371.46313
369.95832
368.48114
367.03171
466.1733
464.22145
462.25308
460.26882
458.26945
456.25583
454.2289
452.18965
450.13917
448.07857
446.00903
443.93179
441.8481
439.75926
437.66661
435.5715
433.47527
431.37931
429.285
427.19369
425.10675
423.02552
420.95134
418.8855
416.82926
414.78388
412.75054
410.73041
408.72461
406.73421
404.76024
402.80367
400.86543
398.94641
397.04742
395.16926
393.31264
391.47826
389.66674
387.87867
386.1146
384.37502
382.66039
380.97112
379.30761
377.6702
376.05921
374.47495
372.91771
371.38776
369.88531
368.41046
465.8942
463.94781
461.98481
460.00583
458.01166
456.00316
453.98127
451.94701
449.90144
447.84569
445.78095
443.70844
441.62944
439.54523
437.45716
435.36657
433.27483
431.1833
429.09336
427.00638
424.92372
422.84673
420.77673
418.71501
416.66286
414.6215
412.59214
410.57593
408.574
406.58741
404.6172
402.66433
400.72973
398.81429
396.91883
395.04414
393.19093
391.3599
389.55167
387.76683
386.00592
384.26944
382.55785
380.87157
379.21097
377.5764
375.96819
374.38664
372.83204
371.30471
369.80489
368.33283
465.58782
463.64743
461.69032
459.71714
457.72868
455.7258
453.70946
451.68066
449.64048
447.59006
445.53059
443.46328
441.38942
439.3103
437.22725
435.14164
433.05481
430.96814
428.88301
426.80079
424.72283
422.65049
420.58508
418.5279
416.48023
414.44329
412.41829
410.40639
408.40871
406.4263
404.46021
402.5114
400.58081
398.6693
396.77772
394.90683
393.05736
391.23
389.42538
387.64408
385.88664
384.15357
382.44532
380.7623
379.10489
377.47344
375.86827
374.28967
372.73797
371.2135
369.71656
368.2475
465.25248
463.31865
461.368
459.40116
457.41894
455.42222
453.41194
451.38913
449.35486
447.31028
445.25656
443.19495
441.12672
439.05317
436.97563
434.89546
432.81402
430.73268
428.65282
426.5758
424.50299
422.43573
420.37535
418.32314
416.28037
414.24828
412.22806
410.22087
408.22784
406.25002
404.28844
402.34407
400.41785
398.51066
396.6233
394.75658
392.9112
391.08786
389.28719
387.50976
385.75612
384.02678
382.32217
380.64273
378.98881
377.36077
375.75891
374.18354
372.63497
371.11362
369.61984
368.15386
464.88641
462.95975
461.01614
459.05623
457.08084
455.09083
453.08718
451.0709
449.04308
447.00487
444.95745
442.90206
440.83998
438.77251
436.70098
434.62676
432.5512
430.47567
428.40157
426.33024
424.26305
422.20135
420.14646
418.09968
416.06226
414.03546
412.02046
410.01842
408.03046
406.05764
404.10099
402.16148
400.24004
398.33754
396.45481
394.59263
392.75172
390.93276
389.13639
387.36319
385.6137
383.88841
382.18779
380.51224
378.86214
377.23781
375.63957
374.06769
372.52251
371.00453
369.51427
464.48778
462.56893
460.63299
458.68063
456.71266
454.72998
452.73354
450.72438
448.70359
446.67232
444.63175
442.58314
440.52776
438.46691
436.40194
434.3342
432.26505
430.19586
428.12802
426.06289
424.00183
421.94619
419.89728
417.8564
415.82483
413.80378
411.79447
409.79804
407.8156
405.84823
403.89695
401.96272
400.04648
398.1491
396.27141
394.41417
392.57812
390.76394
388.97226
387.20365
385.45867
383.73781
382.04152
380.37021
378.72425
377.10398
375.50967
373.94159
372.40002
370.88569
369.39959
464.05467
462.14433
460.21673
458.27257
456.31267
454.33794
452.34934
450.34792
448.33476
446.31103
444.27793
442.23668
440.18858
438.13494
436.07709
434.01639
431.95421
429.89192
427.83089
425.7725
423.7181
421.66904
419.62664
417.59218
415.56695
413.55217
411.54903
409.55869
407.58227
405.62082
403.67537
401.74689
399.8363
397.94448
396.07225
394.22039
392.38962
390.58062
388.79403
387.03042
385.29033
383.57427
381.88268
380.21598
378.57454
376.95867
375.36865
373.80468
372.26694
463.58512
461.68402
459.76547
457.83019
455.87904
453.91293
451.93283
449.9398
447.93493
445.91939
443.89437
441.86112
439.82092
437.77509
435.72497
433.67192
431.61729
429.56248
427.50884
425.45776
423.41059
421.36867
419.33332
417.30584
415.28749
413.2795
411.28306
409.29934
407.32942
405.3744
403.43527
401.51301
399.60855
397.72276
395.85646
394.01042
392.18538
390.382
388.60092
386.84272
385.10794
383.39708
381.71059
380.04888
378.41233
376.80124
375.2159
373.65648
463.07711
461.18603
459.27725
457.35158
455.40989
453.45311
451.48222
449.49827
447.50237
445.49569
443.47942
441.45482
439.42319
437.38582
435.34407
433.29929
431.25285
429.20613
427.16051
425.11734
423.07799
421.0438
419.0161
416.99616
414.98526
412.98462
410.99544
409.01886
407.05601
405.10793
403.17564
401.26013
399.3623
397.48303
395.62314
393.7834
391.96454
390.16724
388.39213
386.63978
384.91074
383.2055
381.52453
379.86822
378.23696
376.63107
375.05083
373.49658
464.39071
462.52873
460.64831
458.75006
456.83476
454.9033
452.95659
450.99564
449.02151
447.0353
445.03819
443.03139
441.01615
438.99376
436.96554
434.93283
432.897
430.85941
428.82144
426.78446
424.74985
422.71896
420.69313
418.67368
416.66189
414.65904
412.66635
410.68501
408.71616
406.76092
404.82035
402.89546
400.98722
399.09655
397.22432
395.37136
393.53843
391.72625
389.93551
388.16683
386.4208
384.69795
382.99879
381.32376
379.67329
378.04774
376.44746
374.87276
373.32406
463.78812
461.9377
460.06875
458.18184
456.27772
454.35727
452.42143
450.47121
448.50766
446.5319
444.54512
442.54852
440.54337
438.53096
436.51261
434.48966
432.46348
430.43544
428.40691
426.37927
424.35389
422.33212
420.3153
418.30476
416.30177
414.3076
412.32348
410.35059
408.39008
406.44306
404.51058
402.59366
400.69327
398.81032
396.94568
395.10018
393.27458
391.4696
389.68593
387.92419
386.18496
384.46878
382.77616
381.10754
379.46335
377.84396
376.24973
374.68098
373.13818
463.13962
461.30175
459.44518
457.57046
455.67837
453.76978
451.84564
449.90696
447.95481
445.99032
444.01465
442.02905
440.03477
438.0331
436.02538
434.01294
431.99716
429.9794
427.96104
425.94345
423.92801
421.91607
419.90896
417.90801
415.91449
413.92967
411.95478
409.99099
408.03945
406.10128
404.17751
402.26917
400.37722
398.50258
396.64612
394.80864
392.99093
391.1937
389.41763
387.66335
385.93144
384.22244
382.53684
380.87512
379.23768
377.62491
376.03717
374.4748
372.9383
462.44298
460.61864
458.77539
456.91378
455.03462
453.13878
451.22721
449.30094
447.36104
445.40864
443.44494
441.47116
439.48856
437.49845
435.50216
433.50103
431.49642
429.48972
427.48229
425.47552
423.47077
421.46939
419.47272
417.48208
415.49875
413.52398
411.559
409.605
407.66311
405.73443
403.82003
401.92091
400.03804
398.17232
396.32463
394.49578
392.68654
390.89763
389.12972
387.38345
385.65939
383.95809
382.28005
380.62572
378.99552
377.38985
375.80907
374.25353
372.72374
461.69592
459.88611
458.05715
456.20962
454.34433
452.46216
450.56409
448.65113
446.72438
444.78498
442.83412
440.87302
438.90297
436.92527
434.94124
432.95225
430.95965
428.96482
426.96913
424.97396
422.98069
420.99065
419.00519
417.02561
415.05321
413.08923
411.1349
409.19139
407.25985
405.34137
403.43702
401.54779
399.67465
397.8185
395.98022
394.16062
392.36046
390.58047
388.82132
387.08363
385.36799
383.67494
382.00498
380.35857
378.73614
377.13807
375.56474
374.01649
372.49384
460.89614
459.10189
457.28824
455.45579
453.60536
451.73784
449.85422
447.95554
446.04288
444.1174
442.18029
440.2328
438.2762
436.3118
434.34093
432.36494
430.3852
428.4031
426.42
424.43727
422.45629
420.47841
418.50496
416.53725
414.57655
412.62414
410.68121
408.74895
406.82849
404.92094
403.02735
401.14871
399.28599
397.4401
395.61189
393.80219
392.01176
390.24131
388.49152
386.76302
385.05639
383.37217
381.71086
380.07292
378.45879
376.86884
375.30346
373.76299
372.24796
460.04132
458.2637
456.46643
454.65011
452.81557
450.96373
449.09558
447.21216
445.31458
443.40399
441.48161
439.54867
437.60646
435.65629
433.6995
431.73744
429.77147
427.80299
425.83335
423.86394
421.89613
419.93125
417.97065
416.01563
414.06747
412.12742
410.19669
408.27646
406.36787
404.472
402.58991
400.7226
398.87103
397.03609
395.21866
393.41954
391.6395
389.87925
388.13947
386.42079
384.72377
383.04898
381.39691
379.76801
378.16273
376.58145
375.02454
373.49237
371.98546
459.12917
457.36931
455.58952
453.79042
451.97285
450.13775
448.28612
446.419
444.53753
442.64287
440.73622
438.81883
436.892
434.95704
433.01529
431.06811
429.11686
427.16293
425.20768
423.25251
421.29875
419.34778
417.4009
415.45944
413.52467
411.59783
409.68013
407.77275
405.87682
403.99343
402.12363
400.26841
398.42873
396.60549
394.79955
393.01172
391.24277
389.4934
387.7643
386.05608
384.36933
382.70459
381.06236
379.44311
377.84725
376.2752
374.72732
373.20398
371.70569
458.15746
456.41651
454.65536
452.87461
451.07514
449.25789
447.42387
445.57415
443.70986
441.83217
439.9423
438.04151
436.13109
434.21236
432.28666
430.35535
428.41981
426.4814
424.54151
422.60152
420.66277
418.72662
416.79439
414.86739
412.9469
411.03414
409.13034
407.23666
405.35424
403.48415
401.62744
399.78511
397.9581
396.14733
394.35364
392.57784
390.8207
389.08292
387.36519
385.66811
383.99228
382.33824
380.70649
379.09749
377.51168
375.94944
374.41116
372.89719
371.40808
457.12401
455.40319
453.66186
451.90065
450.12044
448.32219
446.50693
444.67573
442.82974
440.97013
439.09814
437.21502
435.32208
433.42064
431.51204
429.59764
427.67882
425.75696
423.83343
421.9096
419.98683
418.06647
416.14984
414.23825
412.33295
410.4352
408.5462
406.6671
404.79905
402.94312
401.10034
399.27172
397.45821
395.66069
393.88003
392.11703
390.37245
388.64699
386.94134
385.25612
383.5919
381.94923
380.32861
378.7305
377.15535
375.60353
374.07544
372.57142
371.09203
456.02679
454.32733
452.60706
450.86661
449.10686
447.32881
445.53348
443.72197
441.89544
440.05506
438.20207
436.33776
434.4634
432.58035
430.68993
428.79352
426.8925
424.98823
423.08209
421.17546
419.26968
417.36612
415.46607
413.57085
411.68172
409.79991
407.92663
406.06304
404.21026
402.36937
400.5414
398.72736
396.92816
395.14473
393.37791
391.62849
389.89724
388.18487
386.49205
384.8194
383.16749
381.53689
379.92807
378.34152
376.77766
375.2369
373.7196
372.22613
370.75704
454.86388
453.18707
451.48913
449.77069
448.03265
446.27603
444.50186
442.71125
440.90536
439.0854
437.25259
435.40823
433.55362
431.69008
429.81898
427.94167
426.05953
424.17394
422.28628
420.3979
418.51017
416.62443
414.74199
412.86415
410.99217
409.12729
407.27069
405.42355
403.58697
401.76204
399.94978
398.15118
396.36718
394.59868
392.84652
391.1115
389.39438
387.69588
386.01664
384.35731
382.71845
381.10062
379.50431
377.92999
376.37809
374.84901
373.34313
371.86082
370.40264
453.63357
451.98072
450.30641
448.61128
446.89624
445.16231
443.41055
441.64209
439.85808
438.05975
436.24834
434.42513
432.59144
430.7486
428.89796
427.0409
425.17879
423.313
421.44491
419.57588
417.70727
415.84042
413.97663
412.11721
410.26341
408.41645
406.57753
404.7478
402.92839
401.12035
399.32472
397.54247
395.77456
394.02186
392.28522
390.56544
388.86327
387.17943
385.51457
383.86932
382.24425
380.63992
379.05682
377.49542
375.95616
374.43943
372.94562
371.47509
370.02842
452.33439
450.70685
449.05751
447.38701
445.69628
443.98634
442.25828
440.51324
438.75238
436.97693
435.18814
433.38732
431.57576
429.75482
427.92585
426.09021
424.24928
422.40444
420.55706
418.70851
416.86013
415.01326
413.16921
411.32926
409.49468
407.66668
405.84645
404.03514
402.23386
400.44368
398.66562
396.90066
395.14973
393.41373
391.69348
389.9898
388.30342
386.63505
384.98537
383.35498
381.74447
380.15438
378.58522
377.03745
375.51151
374.00781
372.52671
371.0686
369.63406
450.96517
449.36431
447.74131
446.09678
444.43169
442.74708
441.04404
439.32371
437.58729
435.836
434.07111
432.29392
430.50575
428.70793
426.90183
425.08882
423.27027
421.44756
419.62206
417.79512
415.9681
414.14233
412.31911
410.49973
408.68543
406.87743
405.07693
403.28505
401.50291
399.73157
397.97205
396.22532
394.49231
392.7739
391.07094
389.38421
387.71447
386.06242
384.42872
382.81399
381.21881
379.64372
378.08923
376.55581
375.04389
373.55389
372.08617
370.64113
369.21937
449.52511
447.95233
446.35703
444.73985
443.10176
441.44381
439.76712
438.07283
436.36216
434.63634
432.89664
431.14436
429.38082
427.60738
425.8254
424.03624
422.24128
420.44189
418.63944
416.83528
415.03078
413.22724
411.42597
409.62825
407.83532
406.0484
404.26867
402.49726
400.73527
398.98376
397.24375
395.51621
393.80205
392.10217
390.41739
388.7485
387.09626
385.46136
383.84446
382.24619
380.66712
379.10779
377.56872
376.05037
374.55318
373.07756
371.6239
370.19258
368.78422
448.01385
446.47053
444.90433
443.31588
441.70615
440.07623
438.42723
436.76033
435.07673
433.37768
431.66447
429.93839
428.20077
426.45298
424.69636
422.93228
421.16213
419.38727
417.60907
415.82888
414.04805
412.26789
410.4897
408.71475
406.94429
405.17952
403.42162
401.67172
399.9309
398.20023
396.48072
394.77332
393.07897
391.39853
389.73283
388.08268
386.4488
384.83189
383.23263
381.65162
380.08944
378.54664
377.02373
375.52117
374.03941
372.57887
371.13993
369.72299
368.32869
446.43154
444.91909
443.38337
441.82501
440.24503
438.64449
437.02454
435.38635
433.73116
432.06021
430.37478
428.6762
426.96579
425.24491
423.51491
421.77716
420.03305
418.28393
416.53118
414.77613
413.02014
411.26451
409.51053
407.75948
406.01258
404.27105
402.53604
400.80868
399.09006
397.38123
395.6832
393.99692
392.32331
390.66324
389.01754
387.38699
385.77234
384.17428
382.59347
381.03052
379.48602
377.96051
376.45449
374.96844
373.50281
372.05803
370.63447
369.23257
367.85295
444.77896
443.29874
441.79488
440.268
438.71911
437.1493
435.55974
433.95161
432.32614
430.6846
429.02827
427.35847
425.67655
423.98384
422.28171
420.57154
418.85469
417.13252
415.40641
413.67769
411.94769
410.21774
408.4891
406.76305
405.04081
403.32358
401.61251
399.90874
398.21333
396.52735
394.85177
393.18756
391.53563
389.89685
388.27204
386.66198
385.06741
383.48903
381.92748
380.38339
378.85734
377.34986
375.86146
374.39263
372.94382
371.51545
370.10794
368.7217
367.35741
443.05758
441.61096
440.1403
438.64623
437.12977
435.59203
434.03418
432.45742
430.86298
429.25214
427.62619
425.98645
424.33427
422.67098
420.99797
419.31658
417.6282
415.93419
414.23589
412.53465
410.83181
409.12865
407.42647
405.72651
404.03
402.33813
400.65205
398.97288
397.30169
395.63952
393.98736
392.34616
390.71683
389.10024
387.4972
385.90849
384.33484
382.77695
381.23547
379.71101
378.20416
376.71545
375.24538
373.79445
372.36311
370.9518
369.56094
368.19099
366.84266
441.26972
439.858
438.42185
436.9619
435.47916
433.97478
432.44993
430.90581
429.34367
427.76479
426.17047
424.56204
422.94082
421.30818
419.66548
418.01408
416.35535
414.69064
413.02131
411.34869
409.67411
407.99886
406.32421
404.65141
402.98168
401.3162
399.65611
398.00253
396.35653
394.71913
393.09132
391.47405
389.86821
388.27468
386.69426
385.12773
383.57581
382.03921
380.51856
379.01449
377.52756
376.05832
374.60728
373.1749
371.76166
370.368
368.99437
367.64127
366.30951
439.41861
438.04304
436.64265
435.21805
433.77029
432.30051
430.80988
429.29963
427.77101
426.22531
424.66382
423.08788
421.49882
419.89799
418.28677
416.6665
415.03855
413.40427
411.76501
410.1221
408.47685
406.83055
405.18448
403.53986
401.89792
400.25981
398.62669
396.99965
395.37976
393.76804
392.16547
390.573
388.99151
387.42187
385.86488
384.32132
382.79192
381.27736
379.77828
378.29531
376.829
375.3799
373.94852
372.53532
371.14076
369.76529
368.40939
367.07363
365.75901
437.5086
436.17034
434.80687
433.41879
432.00716
430.57313
429.11789
427.64266
426.14871
424.63732
423.10981
421.56748
420.01169
418.44379
416.86513
415.27708
413.68098
412.07818
410.47004
408.85786
407.24296
405.62662
404.0101
402.39463
400.78141
399.17161
397.56636
395.96676
394.37385
392.78867
391.21218
389.64532
388.08898
386.54401
385.01122
383.49138
381.9852
380.49338
379.01657
377.55536
376.11033
374.682
373.27088
371.87743
370.5021
369.14531
367.80756
366.48951
435.5452
434.24531
432.91981
431.56932
430.19489
428.79768
427.37888
425.93974
424.48151
423.00549
421.51298
420.00532
418.48383
416.94987
415.40479
413.84994
412.28668
410.71634
409.14027
407.55978
405.97616
404.39069
402.80462
401.21918
399.63556
398.05492
396.47837
394.90702
393.34191
391.78404
390.2344
388.6939
387.16343
385.64385
384.13595
382.6405
381.15821
379.68978
378.23585
376.79702
375.37385
373.96688
372.57659
371.20344
369.84784
368.5102
367.19103
433.53534
432.27473
430.98814
429.67616
428.33986
426.98041
425.599
424.19688
422.77531
421.33559
419.87902
418.40693
416.92066
415.42155
413.91095
412.3902
410.86066
409.32365
407.78051
406.23253
404.68102
403.12724
401.57243
400.01781
398.46456
396.91382
395.36673
393.82435
392.28773
390.75788
389.23575
387.72227
386.21832
384.72475
383.24235
381.77188
380.31407
378.86959
377.43909
376.02316
374.62239
373.23729
371.86835
370.51601
369.18068
367.86273
431.48743
430.26686
429.01994
427.74726
426.44987
425.12895
423.78572
422.42141
421.03729
419.63466
418.21482
416.77909
415.32881
413.86532
412.38996
410.90407
409.40898
407.90604
406.39655
404.88182
403.36312
401.84172
400.31884
398.7957
397.27346
395.75328
394.23625
392.72345
391.21593
389.71466
388.22061
386.7347
385.2578
383.79076
382.33436
380.88937
379.4565
378.03644
376.62983
375.23726
373.85931
372.49652
371.14937
369.81834
368.50392
367.20687
429.41161
428.23164
427.02496
425.79214
424.53426
423.25248
421.94802
420.62213
419.27608
417.91114
416.52864
415.12988
413.7162
412.28893
410.84941
409.39896
407.93893
406.47063
404.99536
403.51442
402.02908
400.54059
399.05017
397.55902
396.06831
394.57916
393.09268
391.60994
390.13195
388.65971
387.19417
385.73625
384.2868
382.84668
381.41667
379.99752
378.58996
377.19466
375.81226
374.44338
373.08858
371.74841
370.42338
369.11398
367.82075
366.54454
427.31986
426.18081
425.0147
423.82211
422.60409
421.36183
420.09654
418.80946
417.50187
416.17503
414.83027
413.46888
412.0922
410.70155
409.29826
407.88366
406.45906
405.02578
403.58511
402.13834
400.68672
399.23149
397.77388
396.31506
394.85619
393.3984
391.94277
390.49037
389.04222
387.59928
386.16252
384.73284
383.3111
381.89813
380.49473
379.10165
377.7196
376.34927
374.99129
373.64628
372.31482
370.99744
369.69469
368.40706
367.1351
365.8797
425.22621
424.12813
423.00268
421.8504
420.67235
419.46972
418.24372
416.99559
415.72659
414.43801
413.13114
411.80729
410.46777
409.1139
407.747
406.3684
404.97939
403.58128
402.17536
400.7629
399.34514
397.92332
396.49864
395.07227
393.64537
392.21904
390.79437
389.37242
387.95418
386.54064
385.13273
383.73136
382.33739
380.95165
379.57491
378.20794
376.85145
375.50611
374.17258
372.85147
371.54335
370.24879
368.9683
367.70242
366.4517
365.21703
423.14695
422.08958
421.00453
419.89233
418.75405
417.59086
416.40398
415.19463
413.96408
412.71361
411.4445
410.15804
408.85556
407.53836
406.20774
404.86501
403.51148
402.14844
400.77715
399.39888
398.01486
396.62632
395.23445
393.84042
392.44535
391.05036
389.65652
388.26487
386.87642
385.49213
384.11294
382.73973
381.37338
380.0147
378.66448
377.32347
375.99238
374.67189
373.36264
372.06526
370.78032
369.50838
368.24998
367.00565
365.77597
364.56183
421.10078
420.08349
419.03824
417.96554
416.86647
415.74218
414.59389
413.42282
412.23022
411.01737
409.78555
408.53603
407.27013
405.98914
404.69436
403.38709
402.0686
400.74019
399.40311
398.05861
396.70792
395.35225
393.99278
392.63066
391.26702
389.90296
388.53954
387.1778
385.81873
384.46328
383.1124
381.76697
380.42785
379.09585
377.77175
376.45631
375.15023
373.8542
372.56886
371.29482
370.03268
368.78299
367.54628
366.3231
365.11404
363.92005
419.10905
418.13079
417.12431
416.09013
415.0293
413.94296
412.83234
411.69864
410.54311
409.36701
408.17161
406.95819
405.72804
404.48245
403.22269
401.95006
400.66583
399.37126
398.06761
396.75612
395.43799
394.11443
392.78661
391.45567
390.12272
388.78886
387.45514
386.12258
384.79218
383.46489
382.14163
380.82329
379.51071
378.20471
376.90608
375.61556
374.33385
373.06165
371.79958
370.54828
369.30832
368.08025
366.86462
365.66194
364.47283
363.29837
417.1959
416.25517
415.28599
414.28887
413.26484
412.21506
411.14072
410.04303
408.92323
407.78256
406.62229
405.44369
404.24802
403.03656
401.81059
400.57138
399.32019
398.05827
396.78687
395.50721
394.22049
392.92789
391.63058
390.3297
389.02633
387.72158
386.41647
385.11204
383.80925
382.50907
381.2124
379.92013
378.6331
377.35213
376.07799
374.81143
373.55316
372.30386
371.06417
369.83471
368.61606
367.40876
366.21335
365.0303
363.86011
415.38854
414.4833
413.54941
412.58736