/*--------------------------------*- C++ -*----------------------------------*\
| =========                 |                                                 |
| \\      /  F ield         | OpenFOAM: The Open Source CFD Toolbox           |
|  \\    /   O peration     | Version:  2312                                  |
|   \\  /    A nd           | Website:  www.openfoam.com                      |
|    \\/     M anipulation  |                                                 |
\*---------------------------------------------------------------------------*/
FoamFile
{
    version     2.0;
    format      ascii;
    arch        "LSB;label=32;scalar=64";
    class       volScalarField;
    location    "0.04";
    object      alphat;
}
// * * * * * * * * * * * * * * * * * * * * * * * * * * * * * * * * * * * * * //

dimensions      [1 -1 -1 0 0 0 0];

internalField   nonuniform List<scalar> 
3272
(
0.019959648
0.019904957
0.019853649
0.019805616
0.019760746
0.019718928
0.019680048
0.019643998
0.019610673
0.019582078
0.019554656
0.01952911
0.019506068
0.019485531
0.019468699
0.019452394
0.019438122
0.019425931
0.019415796
0.019407702
0.019401675
0.019397564
0.019395426
0.019395255
0.01939705
0.019400817
0.01940657
0.019414329
0.019424122
0.019436516
0.019450552
0.019466678
0.019485358
0.01950597
0.019528886
0.019554198
0.019581986
0.019612334
0.019645331
0.019681072
0.019719595
0.019761092
0.019805652
0.019853358
0.019904317
0.019958635
0.020016423
0.020077787
0.020142838
0.020211684
0.020284432
0.02036119
0.020442066
0.01993091
0.019876999
0.019826458
0.019779179
0.019735048
0.01969395
0.019655774
0.019620406
0.019587735
0.019559755
0.019532783
0.01950766
0.019484842
0.019465888
0.01944917
0.019433102
0.019419162
0.019407303
0.019397481
0.019389686
0.019383896
0.019380002
0.019378048
0.019378026
0.019379937
0.019383787
0.01938959
0.019397367
0.019407145
0.019419497
0.019433465
0.019449487
0.019468037
0.0194885
0.019511237
0.019536346
0.019563909
0.019594012
0.019626744
0.0196622
0.019700422
0.0197416
0.019785829
0.019833191
0.019883795
0.019937749
0.019995165
0.020056152
0.02012082
0.020189279
0.020261635
0.020337997
0.020418483
0.019878347
0.019825877
0.019776743
0.019730833
0.019688031
0.01964822
0.019611292
0.01957714
0.019545652
0.019518778
0.01949266
0.019468478
0.019446565
0.019428598
0.019412371
0.019396975
0.01938365
0.019372342
0.019363007
0.019355662
0.019350201
0.0193466
0.019344875
0.01934502
0.019347036
0.019350929
0.019356716
0.019364418
0.019374064
0.019386232
0.019399974
0.019415704
0.019433918
0.019454012
0.019476322
0.019500966
0.019528025
0.019557588
0.019589746
0.019624597
0.019662185
0.019702702
0.019746248
0.019792908
0.019842792
0.019896013
0.019952686
0.020012922
0.020076835
0.020144537
0.02021614
0.020291753
0.0203715
0.019807439
0.019756982
0.019709799
0.019665776
0.019624789
0.019586721
0.019551467
0.019518959
0.019489222
0.019463809
0.019438829
0.019415907
0.019395183
0.019378348
0.019362776
0.019348282
0.019335757
0.019325152
0.019316445
0.019309624
0.019304563
0.019301302
0.019299828
0.019300138
0.019302233
0.019306123
0.019311825
0.019319363
0.019328767
0.019340625
0.019354001
0.019369275
0.019386972
0.019406507
0.019428177
0.019452127
0.01947844
0.019507208
0.019538526
0.019572495
0.01960916
0.019648721
0.01969128
0.019736926
0.019785774
0.019837942
0.019893547
0.019952706
0.020015537
0.020082157
0.020152681
0.020227223
0.020305912
0.01972312
0.019675136
0.019630339
0.019588606
0.019549803
0.019513793
0.019480425
0.019449511
0.019423024
0.019398786
0.019375067
0.019353592
0.01933425
0.019318688
0.019303894
0.019290406
0.019278767
0.019268933
0.019260929
0.019254604
0.019249978
0.019247044
0.019245791
0.019246218
0.019248328
0.019252133
0.019257652
0.019264911
0.019273944
0.019285349
0.01929821
0.019312854
0.019329851
0.01934864
0.019369461
0.019392496
0.019417833
0.019445565
0.019475793
0.019508622
0.019544102
0.019582432
0.019623726
0.019668076
0.019715602
0.019766425
0.019820669
0.019878457
0.019939911
0.020005154
0.020074305
0.020147485
0.020224826
0.019629862
0.019584704
0.019542619
0.019503482
0.019467159
0.019433518
0.01940242
0.019373718
0.019349542
0.019326552
0.019304571
0.01928471
0.019267009
0.01925276
0.019238798
0.019226334
0.01921559
0.019206574
0.019199166
0.019193347
0.019189114
0.01918645
0.019185349
0.01918581
0.019187839
0.01919145
0.019196666
0.019203515
0.019212034
0.019222833
0.019235024
0.019248865
0.019264976
0.01928284
0.019302612
0.019324524
0.019348667
0.019375142
0.019404051
0.019435503
0.019469557
0.01950641
0.01954619
0.01958899
0.019634935
0.019684155
0.019736777
0.019792931
0.019852746
0.019916348
0.019983865
0.020055422
0.020131157
0.019531585
0.019489493
0.019450335
0.019413986
0.019380318
0.019349209
0.019320544
0.01929418
0.019272177
0.019250524
0.019230234
0.019211729
0.019196691
0.019183258
0.019170098
0.019158605
0.019148756
0.01914042
0.01913357
0.019128195
0.019124271
0.019121788
0.019120737
0.019121123
0.019122953
0.019126246
0.019131024
0.019137322
0.019145177
0.019155214
0.019166584
0.019179446
0.019194487
0.01921126
0.019229793
0.019250389
0.019273143
0.019298158
0.019325541
0.019355408
0.019387821
0.019422978
0.019461021
0.019502047
0.019546186
0.019593574
0.019644345
0.019698635
0.01975658
0.019818312
0.019883966
0.019953672
0.020027573
0.019431628
0.019392737
0.019356615
0.019323138
0.019292181
0.01926364
0.019237442
0.019213593
0.019193585
0.019173379
0.019154863
0.019138043
0.019124709
0.019111906
0.019099853
0.019089349
0.019080234
0.019072506
0.019066137
0.019061099
0.019057374
0.019054953
0.019053831
0.019054014
0.019055515
0.019058352
0.019062554
0.019068155
0.019075196
0.019084317
0.019094725
0.019106446
0.019120211
0.019135742
0.019152872
0.01917198
0.019193169
0.019216545
0.019242221
0.019270315
0.019300902
0.019334171
0.019370286
0.019409343
0.019451481
0.01949684
0.019545563
0.019597792
0.019653669
0.019713335
0.01977693
0.019844588
0.019916456
0.019332758
0.019297102
0.019264031
0.019233419
0.019205132
0.019179032
0.019154932
0.019134829
0.019115581
0.01909705
0.019080216
0.019065129
0.019053114
0.019040941
0.019029933
0.019020187
0.019011722
0.019004496
0.018998479
0.018993649
0.018989991
0.018987498
0.018986169
0.018986013
0.018987045
0.018989289
0.018992773
0.018997534
0.019003614
0.019011665
0.019021
0.019031498
0.019043653
0.019057796
0.019073426
0.019090904
0.019110376
0.019131958
0.019155768
0.019181931
0.01921053
0.019241748
0.019275772
0.019312697
0.019352668
0.019395833
0.019442341
0.019492342
0.019545987
0.019603423
0.019664798
0.019730251
0.01979992
0.019237191
0.019204715
0.019174625
0.0191468
0.019121114
0.019097476
0.019075919
0.019058027
0.019039878
0.019022958
0.01900742
0.018994971
0.018983327
0.018971868
0.018961611
0.018952524
0.018944561
0.018937688
0.018931878
0.018927109
0.018923372
0.018920662
0.018918983
0.018918346
0.018918771
0.018920285
0.018922919
0.018926709
0.018931689
0.018938467
0.018946583
0.018955671
0.018966277
0.018978825
0.018992811
0.019008518
0.019026138
0.019045791
0.019067601
0.0190917
0.019118178
0.019147209
0.019179006
0.019213663
0.019251331
0.019292166
0.019336323
0.01938396
0.019435235
0.019490308
0.019549339
0.019146641
0.019117211
0.019089954
0.019064744
0.019041427
0.019019794
0.019001904
0.01898479
0.018967974
0.018952588
0.018938667
0.018927652
0.018916256
0.01890559
0.018895981
0.018887385
0.018879761
0.01887308
0.018867316
0.018862454
0.018858486
0.018855412
0.018853238
0.01885198
0.018851661
0.018852312
0.018853973
0.018856696
0.01886055
0.018865649
0.018872459
0.01888008
0.018889056
0.018899882
0.01891212
0.018925938
0.018941592
0.018959204
0.018978905
0.019000829
0.01902508
0.019051814
0.019081276
0.019113557
0.019148814
0.01918721
0.019228907
0.01927407
0.019322865
0.019375457
0.019432018
0.019062379
0.0190358
0.019011182
0.018988414
0.018967396
0.018948172
0.018932343
0.018916014
0.018900611
0.018886357
0.01887491
0.018864021
0.018853007
0.018842954
0.018833807
0.018825522
0.018818064
0.018811406
0.018805527
0.018800414
0.018796064
0.018792478
0.018789667
0.01878765
0.018786453
0.018786111
0.018786667
0.018788174
0.018790693
0.018794292
0.018799576
0.01880561
0.018812854
0.01882182
0.018832229
0.018844067
0.018857665
0.018873148
0.01889065
0.018910315
0.018932257
0.018956611
0.018983654
0.019013476
0.01904624
0.019082116
0.019121271
0.019163879
0.01921011
0.019260138
0.019314139
0.018985274
0.018961301
0.018939069
0.018918445
0.018899192
0.01888342
0.018867985
0.018852773
0.018838703
0.018825803
0.018815469
0.018804536
0.018794113
0.018784485
0.018775612
0.018767457
0.018759989
0.018753186
0.018747029
0.018741511
0.01873663
0.018732392
0.018728809
0.018725904
0.018723705
0.01872225
0.018721584
0.01872176
0.01872284
0.018724891
0.018728554
0.018732932
0.018738414
0.018745267
0.018753811
0.018763628
0.018775102
0.018788389
0.018803627
0.018820962
0.018840544
0.018862462
0.01888702
0.018914324
0.018944538
0.018977836
0.019014393
0.019054389
0.019098001
0.019145409
0.019196794
0.01891586
0.018894219
0.018874138
0.018855553
0.018838393
0.018824317
0.018809402
0.018795307
0.018782031
0.018771349
0.018760716
0.018749971
0.018739918
0.018730515
0.018721727
0.018713521
0.018705871
0.018698758
0.018692169
0.018686098
0.018680546
0.018675522
0.018671042
0.01866713
0.018663817
0.018661143
0.018659154
0.018657906
0.018657461
0.018657889
0.018659848
0.018662492
0.018666089
0.018670938
0.018677457
0.018685203
0.018694499
0.018705539
0.018718467
0.018733435
0.018750599
0.018770052
0.018792085
0.018816836
0.018844465
0.01887515
0.018909075
0.018946425
0.018987384
0.019032139
0.019080876
0.018854372
0.018834732
0.018816451
0.018799531
0.01878542
0.018771045
0.018757066
0.018743987
0.018731779
0.018721828
0.018710896
0.018700464
0.018690578
0.018681207
0.018672319
0.018663888
0.018655892
0.018648314
0.018641146
0.018634383
0.018628031
0.0186221
0.01861661
0.018611585
0.01860706
0.018603075
0.018599679
0.018596928
0.018594886
0.018593623
0.018593809
0.018594671
0.018596328
0.018599152
0.018603583
0.01860923
0.01861631
0.018625072
0.018635663
0.018648238
0.018662959
0.018679928
0.018699417
0.018721599
0.018746626
0.018774685
0.018805964
0.018840655
0.018878949
0.018921038
0.018967115
0.018800836
0.018782851
0.018765955
0.018751963
0.018738094
0.018724063
0.018710889
0.018698495
0.018688074
0.018677187
0.01866638
0.018656036
0.018646118
0.018636592
0.018627432
0.018618612
0.018610116
0.01860193
0.018594047
0.018586467
0.018579197
0.018572251
0.018565649
0.018559419
0.018553597
0.018548225
0.018543353
0.018539037
0.018535342
0.018532333
0.018530682
0.018529735
0.018529423
0.0185302
0.018532482
0.018536024
0.018540872
0.018547343
0.018555586
0.018565761
0.018578032
0.018592516
0.018609459
0.018629071
0.0186515
0.018676935
0.018705573
0.018737609
0.018773243
0.018812672
0.018856093
0.018755208
0.018738708
0.018723469
0.018710674
0.018696674
0.018683297
0.018670678
0.018659989
0.018649033
0.018637834
0.018627036
0.018616588
0.018606454
0.018596602
0.018587007
0.018577649
0.018568512
0.018559586
0.018550867
0.018542358
0.018534067
0.01852601
0.01851821
0.018510696
0.018503506
0.018496684
0.018490282
0.018484358
0.018478975
0.018474189
0.018470612
0.018467845
0.018465571
0.018464342
0.018464315
0.018465795
0.01846843
0.018472612
0.018478512
0.018486293
0.018496124
0.018508136
0.018522547
0.018539606
0.018559452
0.018582283
0.018608298
0.018637702
0.018670697
0.018707487
0.018748273
0.018717046
0.018701695
0.018688698
0.018675036
0.018661549
0.018648412
0.018637403
0.018626494
0.018614892
0.018603636
0.018592666
0.01858194
0.018571423
0.018561088
0.018550913
0.01854088
0.018530975
0.018521193
0.018511531
0.018501994
0.018492593
0.018483345
0.018474274
0.018465411
0.018456796
0.018448474
0.018440501
0.018432939
0.018425863
0.01841937
0.018413615
0.018409047
0.018404844
0.018401567
0.018399387
0.018398713
0.018399156
0.018401061
0.018404633
0.018410039
0.018417453
0.018427022
0.018438927
0.01845346
0.018470755
0.018491013
0.01851444
0.018541244
0.018571635
0.018605824
0.018644012
0.018685879
0.018672744
0.018659143
0.018645636
0.018632592
0.018620017
0.018609317
0.018597492
0.018585805
0.018574324
0.018563016
0.018551852
0.018540802
0.018529844
0.018518958
0.01850813
0.018497348
0.018486609
0.018475912
0.018465264
0.018454677
0.018444171
0.018433769
0.018423506
0.018413422
0.018403563
0.018393986
0.018384756
0.018375947
0.018367649
0.018359954
0.018353469
0.018347327
0.018342001
0.018337704
0.018334877
0.018333155
0.018332804
0.018334075
0.018337135
0.018342161
0.018349331
0.018358771
0.018370814
0.0183856
0.018403329
0.018424212
0.018448461
0.018476295
0.018507932
0.018662577
0.018648993
0.018635286
0.018622003
0.018609092
0.018597692
0.018585574
0.018573458
0.018561472
0.018549591
0.01853779
0.018526043
0.018514328
0.018502623
0.018490913
0.018479186
0.018467432
0.01845565
0.018443841
0.018432014
0.018420181
0.018408363
0.018396586
0.018384884
0.018373297
0.018361875
0.018350674
0.018339758
0.018329203
0.01831909
0.01830951
0.018301102
0.018293032
0.018285675
0.018279286
0.018274316
0.018270469
0.018267896
0.018266903
0.01826766
0.018270346
0.018275146
0.018282186
0.018291784
0.018304113
0.018319366
0.018337758
0.018359507
0.018384835
0.018413957
0.018644379
0.018630492
0.01861691
0.018603628
0.018591742
0.018579122
0.01856651
0.018553992
0.018541531
0.018529096
0.018516662
0.018504206
0.018491709
0.018479152
0.018466521
0.018453807
0.018441004
0.018428109
0.018415126
0.018402064
0.018388938
0.018375768
0.018362583
0.018349415
0.018336307
0.018323307
0.018310473
0.018297869
0.018285569
0.018273652
0.01826221
0.018251896
0.018241929
0.01823257
0.018224126
0.018217015
0.018211095
0.018206346
0.018203137
0.018201641
0.018202039
0.018204519
0.01820922
0.018216431
0.018226362
0.0182392
0.018255164
0.018274476
0.018297361
0.018324036
0.018631017
0.018617176
0.018603501
0.018591108
0.018577975
0.018564822
0.018551735
0.01853867
0.018525592
0.018512473
0.018499288
0.018486016
0.018472639
0.018459141
0.018445511
0.018431739
0.018417822
0.018403758
0.018389553
0.018375216
0.018360763
0.018346215
0.0183316
0.018316952
0.018302313
0.018287733
0.018273269
0.018258984
0.018244952
0.018231252
0.018217972
0.018205773
0.018193952
0.018182638
0.018172227
0.018162901
0.018154969
0.018148128
0.018142759
0.018139067
0.018137236
0.018137457
0.018139882
0.01814477
0.018152372
0.018162862
0.018176467
0.018193412
0.018213928
0.01823823
0.018622564
0.018608514
0.018595584
0.018581874
0.018568174
0.018554497
0.018540808
0.018527074
0.018513265
0.018499354
0.01848532
0.018471142
0.018456806
0.018442296
0.018427602
0.018412717
0.018397638
0.018382364
0.018366903
0.018351263
0.018335461
0.018319518
0.018303464
0.018287331
0.018271164
0.01825501
0.018238928
0.018222981
0.018207241
0.018191787
0.018176698
0.01816263
0.018148999
0.018135766
0.018123394
0.018112025
0.01810207
0.018093194
0.018085723
0.018079896
0.018075899
0.018073928
0.018074147
0.018076783
0.018082126
0.018090343
0.018101662
0.018116317
0.018134541
0.018618645
0.018604943
0.018590581
0.018576309
0.018562029
0.018547705
0.018533304
0.018518799
0.018504163
0.018489375
0.018474413
0.018459259
0.0184439
0.018428322
0.018412517
0.018396478
0.018380201
0.01836369
0.018346949
0.01832999
0.018312828
0.018295486
0.018277993
0.018260382
0.018242696
0.018224984
0.018207305
0.018189722
0.018172309
0.018155142
0.018138292
0.018122341
0.018106955
0.018091858
0.018077576
0.018064248
0.018052315
0.018041467
0.018031956
0.01802406
0.018017966
0.018013873
0.018011961
0.018012422
0.01801558
0.0180216
0.018030713
0.018043152
0.018059148
0.018618505
0.018603776
0.018588937
0.01857405
0.018559085
0.018544014
0.018528812
0.018513453
0.018497917
0.018482182
0.018466231
0.018450048
0.01843362
0.018416934
0.018399983
0.018382761
0.018365266
0.0183475
0.018329469
0.018311185
0.018292663
0.018273926
0.018255003
0.018235927
0.018216742
0.018197496
0.018178247
0.018159061
0.018140014
0.018121191
0.018102701
0.01808473
0.01806768
0.018050811
0.01803468
0.018019459
0.018005598
0.017992852
0.017981367
0.017971472
0.017963353
0.01795721
0.017953245
0.017951617
0.017952663
0.017956568
0.017963555
0.017973861
0.017987715
0.018620996
0.018605707
0.018590242
0.018574647
0.018558912
0.018543017
0.018526942
0.018510666
0.018494172
0.01847744
0.018460456
0.018443205
0.018425674
0.018407854
0.018389736
0.018371315
0.018352591
0.018333565
0.018314244
0.018294638
0.018274766
0.018254647
0.018234311
0.018213792
0.018193133
0.018172382
0.018151598
0.018130846
0.018110202
0.018089753
0.0180696
0.018049857
0.018031097
0.018012511
0.017994597
0.017977555
0.017961799
0.017947232
0.01793385
0.01792203
0.017911964
0.01790385
0.017897899
0.017894273
0.017893286
0.017895158
0.017900104
0.017908365
0.017920166
0.018626238
0.018610265
0.018594069
0.018577687
0.018561113
0.018544332
0.01852733
0.01851009
0.018492596
0.018474833
0.018456785
0.018438441
0.018419789
0.018400819
0.018381525
0.018361901
0.018341947
0.018321665
0.018301062
0.018280149
0.018258941
0.018237462
0.018215738
0.018193804
0.018171702
0.018149482
0.0181272
0.018104923
0.018082725
0.018060692
0.01803892
0.018017509
0.017997079
0.017976837
0.017957209
0.017938453
0.017920773
0.017904473
0.01788929
0.017875623
0.017863686
0.017853682
0.017845823
0.017840282
0.017837346
0.01783727
0.017840261
0.017846564
0.018633747
0.018617012
0.018600011
0.01858278
0.018565315
0.018547605
0.018529639
0.018511402
0.018492882
0.018474065
0.018454937
0.018435488
0.018415707
0.018395584
0.018375114
0.018354292
0.018333117
0.018311592
0.018289724
0.018267522
0.018245004
0.01822219
0.018199109
0.018175794
0.018152287
0.018128638
0.018104901
0.018081144
0.018057441
0.018033874
0.018010537
0.017987531
0.017965487
0.017943651
0.017922366
0.017901926
0.017882494
0.017864478
0.01784757
0.01783213
0.017818401
0.017806586
0.0177969
0.017789527
0.017784727
0.017782787
0.017783907
0.017788326
0.0186431
0.01862555
0.018607694
0.018589571
0.01857118
0.018552512
0.018533557
0.018514306
0.018494745
0.018474864
0.018454652
0.018434096
0.018413188
0.018391919
0.018370283
0.018348276
0.018325897
0.018303149
0.018280038
0.018256575
0.018232775
0.01820866
0.018184257
0.0181596
0.01813473
0.018109695
0.018084552
0.018059365
0.018034207
0.018009162
0.017984319
0.01795978
0.017936184
0.01791282
0.017889941
0.017867881
0.017846794
0.017827121
0.017808564
0.017791428
0.017775984
0.017762439
0.017751007
0.017741885
0.017735305
0.017731586
0.017730921
0.017733547
0.018653921
0.01863552
0.018616778
0.018597737
0.018578398
0.018558756
0.018538803
0.01851853
0.018497927
0.018476984
0.01845569
0.018434036
0.018412012
0.018389612
0.018366827
0.018343656
0.018320097
0.018296152
0.018271828
0.018247135
0.018222089
0.01819671
0.018171026
0.018145069
0.01811888
0.018092508
0.018066007
0.018039443
0.018012887
0.01798642
0.017960133
0.017934123
0.017909035
0.017884212
0.017859805
0.017836196
0.017813533
0.017792272
0.017772144
0.017753388
0.017736308
0.017721112
0.017708014
0.017697227
0.017688954
0.017683538
0.017681173
0.017682095
0.018665878
0.018646603
0.018626958
0.018606987
0.018586693
0.018566073
0.018545121
0.01852383
0.018502192
0.018480197
0.018457836
0.0184351
0.018411979
0.018388468
0.01836456
0.018340251
0.018315541
0.018290431
0.018264928
0.018239042
0.018212788
0.018186186
0.018159264
0.018132053
0.018104594
0.018076935
0.01804913
0.018021243
0.017993346
0.017965519
0.017937849
0.017910431
0.017883908
0.017857697
0.017831832
0.017806746
0.017782584
0.017759797
0.017738178
0.017717879
0.017699243
0.017682475
0.017667792
0.01765542
0.017645545
0.017638509
0.01763453
0.017633834
0.018678675
0.018658518
0.018637964
0.018617062
0.018595817
0.018574225
0.018552284
0.018529988
0.01850733
0.018484301
0.018460893
0.018437098
0.018412906
0.018388312
0.01836331
0.018337895
0.018312068
0.018285829
0.018259185
0.018232146
0.018204727
0.018176947
0.018148832
0.018120416
0.018091737
0.018062843
0.018033788
0.018004635
0.017975456
0.017946331
0.017917344
0.017888583
0.017860672
0.017833143
0.017805895
0.01777941
0.017753828
0.01772956
0.017706535
0.017684774
0.01766466
0.0176464
0.017630214
0.01761633
0.017604939
0.017596367
0.017590856
0.017588627
0.018692053
0.018671016
0.018649559
0.018627735
0.01860555
0.018583002
0.01856009
0.01853681
0.018513154
0.018489116
0.018464687
0.018439861
0.018414629
0.018388984
0.018362922
0.018336438
0.018309531
0.018282203
0.01825446
0.018226311
0.018197771
0.018168859
0.018139601
0.018110029
0.018080182
0.018050107
0.018019857
0.017989497
0.017959096
0.017928735
0.017898501
0.017868474
0.017839192
0.017810421
0.017781871
0.017754065
0.017727171
0.017701414
0.017677082
0.017653947
0.017632431
0.017612758
0.017595147
0.017579829
0.017567004
0.017556976
0.017550015
0.017546334
0.01870579
0.018683879
0.018661535
0.018638806
0.018615701
0.01859222
0.018568361
0.018544122
0.018519496
0.018494479
0.018469062
0.018443238
0.018417
0.018390342
0.018363257
0.018335742
0.018307797
0.018279422
0.018250624
0.01822141
0.018191797
0.018161801
0.01813145
0.018100774
0.018069812
0.01803861
0.018007221
0.01797571
0.017944147
0.017912614
0.017881204
0.017850032
0.017819315
0.017789405
0.01775964
0.017730578
0.017702413
0.017675323
0.017649707
0.017625275
0.017602434
0.017581421
0.017562462
0.017545787
0.017531606
0.017520202
0.01751187
0.017506819
0.018719691
0.018696921
0.01867371
0.018650101
0.018626103
0.018601716
0.018576941
0.018551774
0.018526212
0.018500249
0.018473879
0.018447095
0.018419889
0.018392256
0.018364189
0.018335686
0.018306746
0.018277369
0.01824756
0.01821733
0.01818669
0.018155661
0.018124267
0.018092539
0.018060515
0.018028241
0.017995771
0.017963166
0.0179305
0.017897852
0.01786532
0.017833013
0.017801065
0.017770007
0.01773909
0.017708838
0.017679465
0.017651139
0.017624297
0.01759864
0.017574545
0.017552268
0.017532034
0.017514077
0.017498615
0.017485912
0.017476288
0.017469946
0.018733594
0.018709979
0.018685929
0.018661472
0.018636612
0.018611353
0.018585695
0.018559636
0.018533174
0.018506303
0.018479018
0.018451313
0.01842318
0.018394613
0.018365608
0.018336161
0.01830627
0.018275936
0.018245165
0.018213965
0.018182349
0.018150337
0.018117951
0.018085223
0.018052191
0.0180189
0.017985403
0.017951763
0.01791805
0.017884346
0.017850746
0.017817355
0.017784285
0.017752125
0.017720116
0.017688738
0.017658223
0.017628738
0.017600737
0.017573926
0.017548647
0.017525177
0.017503741
0.017484574
0.017467905
0.017453978
0.017443136
0.017435579
0.018747352
0.018722917
0.018698062
0.018672791
0.018647106
0.018621011
0.018594507
0.018567595
0.018540271
0.018512533
0.018484374
0.018455789
0.018426771
0.018397315
0.018367415
0.018337068
0.018306272
0.018275029
0.018243343
0.018211222
0.01817868
0.018145734
0.018112408
0.018078733
0.018044747
0.018010493
0.017976024
0.017941404
0.017906702
0.017871999
0.017837389
0.017802973
0.017768859
0.017735655
0.017702616
0.017670175
0.017638584
0.017608009
0.017578916
0.017551019
0.017524626
0.017500032
0.017477465
0.017457158
0.017439352
0.017424275
0.017412286
0.017403588
0.018832967
0.018809518
0.018785476
0.018760791
0.018735614
0.018709997
0.018683954
0.018657482
0.01863059
0.01860328
0.018575554
0.01854741
0.018518845
0.018489854
0.018460433
0.018430574
0.018400273
0.018369523
0.018338322
0.018306669
0.018274563
0.018242009
0.018209017
0.018175597
0.018141768
0.018107554
0.018072984
0.018038095
0.018002932
0.017967547
0.017932002
0.017896366
0.017860722
0.017825159
0.017789778
0.017754686
0.017720499
0.017686492
0.017653051
0.017620448
0.017588849
0.017558728
0.017529814
0.017502372
0.017476723
0.017453091
0.017431712
0.017412836
0.01739668
0.017383612
0.017373846
0.018848082
0.018823959
0.018799201
0.018773853
0.018748001
0.018721643
0.018694872
0.018667653
0.018640004
0.01861193
0.018583431
0.018554509
0.01852516
0.018495382
0.018465167
0.018434512
0.01840341
0.018371857
0.018339848
0.018307383
0.018274462
0.018241089
0.018207273
0.018173025
0.018138363
0.01810331
0.018067896
0.018032158
0.017996138
0.01795989
0.017923475
0.017886961
0.01785043
0.017813971
0.017777684
0.017741676
0.017706566
0.017671652
0.017637271
0.017603718
0.017571159
0.017540071
0.017510206
0.017481782
0.017455142
0.017430511
0.017408126
0.017388238
0.017371073
0.017356994
0.01734623
0.018862658
0.018837895
0.018812481
0.018786488
0.018759969
0.01873295
0.018705485
0.018677548
0.018649185
0.018620388
0.018591159
0.018561501
0.018531412
0.018500889
0.018469926
0.018438519
0.018406661
0.018374349
0.018341579
0.018308349
0.018274659
0.018240515
0.018205922
0.018170895
0.018135449
0.018099608
0.018063401
0.018026863
0.017990039
0.017952981
0.017915748
0.01787841
0.017841046
0.017803747
0.01776661
0.017729745
0.017693771
0.017658007
0.017622746
0.017588305
0.017554846
0.01752285
0.017492097
0.017462753
0.017435187
0.017409621
0.017386291
0.017365451
0.017347339
0.017332317
0.017320622
0.018876639
0.018851273
0.018825246
0.018798636
0.018771489
0.018743836
0.018715712
0.018687128
0.018658074
0.018628598
0.018598681
0.018568331
0.018537545
0.01850632
0.018474653
0.018442538
0.01840997
0.018376944
0.018343458
0.018309508
0.018275097
0.018240227
0.018204906
0.018169147
0.018132965
0.018096384
0.018059433
0.018022146
0.017984568
0.01794675
0.017908751
0.017870641
0.017832498
0.017794412
0.017756481
0.017718814
0.017682031
0.017645477
0.017609394
0.017574122
0.017539822
0.017506973
0.017475392
0.017445191
0.01741676
0.017390322
0.017366108
0.017344371
0.017325367
0.017309468
0.017296911
0.018889977
0.018864045
0.018837443
0.018810252
0.018782514
0.01875426
0.018725521
0.018696312
0.018666646
0.018636514
0.018605951
0.018574952
0.018543511
0.018511629
0.018479301
0.018446522
0.018413287
0.018379593
0.018345434
0.018310811
0.018275723
0.018240174
0.018204171
0.018167726
0.018130856
0.018093583
0.018055935
0.018017948
0.017979664
0.017941135
0.017902421
0.017863589
0.017824719
0.017785898
0.017747226
0.01770881
0.017671273
0.017633982
0.017597133
0.017561089
0.017526007
0.017492351
0.017460002
0.017429005
0.01739977
0.017372519
0.01734748
0.017324896
0.017305047
0.017288343
0.017274987
0.018902634
0.018876175
0.018849034
0.018821299
0.018793006
0.01876419
0.018734877
0.018705085
0.01867483
0.018644119
0.018612931
0.018581326
0.018549274
0.018516777
0.018483831
0.018450431
0.018416573
0.018382253
0.018347467
0.018312214
0.018276493
0.018240309
0.018203669
0.018166584
0.018129071
0.018091152
0.018052854
0.018014213
0.017975272
0.017936081
0.017896699
0.017857195
0.017817647
0.017778142
0.017738778
0.017699665
0.017661425
0.017623451
0.01758589
0.017549131
0.01751333
0.017478897
0.01744584
0.017414109
0.017384129
0.017356126
0.017330321
0.017306935
0.018914586
0.018887636
0.018859995
0.018831751
0.018802943
0.018773601
0.018743754
0.01871342
0.018682616
0.01865136
0.018619602
0.018587425
0.018554804
0.018521733
0.01848821
0.018454232
0.018419794
0.01838489
0.018349519
0.018313679
0.018277369
0.018240594
0.01820336
0.01816568
0.018127568
0.018089046
0.018050144
0.018010895
0.017971342
0.017931534
0.017891532
0.017851403
0.017811224
0.017771083
0.017731078
0.017691316
0.017652423
0.017613816
0.017575595
0.017538175
0.017501731
0.017466521
0.017432826
0.017400422
0.017369754
0.017341058
0.017314553
0.01892582
0.018898413
0.018870308
0.018841594
0.018812307
0.018782478
0.018752135
0.018721298
0.018689983
0.018658204
0.018625953
0.018593232
0.018560077
0.018526473
0.018492415
0.018457899
0.018422921
0.018387476
0.018351561
0.018315175
0.018278318
0.018240993
0.018203208
0.018164974
0.018126306
0.018087226
0.018047762
0.018007949
0.017967827
0.017927449
0.017886871
0.017846161
0.017805398
0.017764667
0.017724067
0.017683704
0.017644205
0.017605013
0.017566179
0.017528144
0.017491086
0.017455206
0.017420893
0.017387867
0.017356565
0.017327236
0.017300108
0.01893633
0.0189085
0.018879966
0.018850818
0.018821089
0.01879081
0.018760009
0.018728707
0.018696921
0.018664662
0.018631933
0.018598744
0.018565074
0.018530978
0.018496425
0.018461411
0.018425932
0.018389985
0.018353567
0.018316675
0.018279311
0.018241478
0.018203182
0.018164435
0.018125252
0.018085655
0.018045671
0.018005335
0.017964688
0.01792378
0.01788267
0.017841424
0.01780012
0.017758844
0.017717693
0.017676775
0.017636714
0.017596981
0.017557581
0.017518977
0.017481343
0.017444864
0.017409974
0.017376373
0.017344487
0.017314576
0.017286873
0.01894614
0.018917896
0.018888968
0.018859422
0.018829288
0.018798596
0.018767374
0.018735643
0.018703422
0.018670723
0.018637553
0.018603927
0.018569788
0.018535235
0.018500224
0.01846475
0.01842881
0.018392399
0.018355516
0.018318157
0.018280325
0.018242022
0.018203255
0.018164034
0.018124376
0.018084301
0.018043838
0.018003019
0.017961887
0.017920491
0.01787889
0.017837149
0.017795347
0.017753568
0.017711909
0.017670477
0.017629896
0.017589666
0.017549743
0.017510613
0.017472448
0.017435425
0.017400001
0.01736587
0.017333446
0.017303001
0.017274765
0.018955469
0.018926603
0.018897319
0.018867411
0.018836906
0.018805836
0.018774228
0.018742105
0.018709485
0.018676381
0.018642806
0.018608772
0.018574218
0.018539232
0.018503802
0.018467905
0.01843154
0.018394703
0.018357391
0.018319603
0.01828134
0.018242604
0.018203403
0.018163746
0.018123651
0.018083136
0.018042231
0.018000969
0.01795939
0.017917545
0.017875492
0.017833297
0.017791036
0.017748795
0.017706669
0.017664764
0.017623703
0.017583015
0.017542612
0.017502999
0.017464344
0.017426826
0.01739091
0.017356292
0.017323374
0.017292437
0.01726371
0.018964342
0.018934688
0.018905028
0.018874793
0.018843953
0.018812539
0.018780579
0.018748097
0.018715112
0.018681639
0.018647689
0.01861327
0.018578365
0.018542968
0.018507153
0.018470868
0.018434113
0.018396884
0.01835918
0.018320998
0.018282339
0.018243206
0.018203606
0.01816355
0.018123053
0.018082136
0.018040825
0.017999156
0.017957168
0.017914911
0.017872443
0.017829831
0.01778715
0.017744486
0.017701933
0.017659593
0.017618088
0.017576981
0.017536139
0.017496081
0.01745698
0.017419009
0.017382643
0.017347578
0.017314207
0.017282819
0.017253639
0.018972316
0.01894231
0.018912105
0.018881582