/*--------------------------------*- C++ -*----------------------------------*\
| =========                 |                                                 |
| \\      /  F ield         | OpenFOAM: The Open Source CFD Toolbox           |
|  \\    /   O peration     | Version:  2312                                  |
|   \\  /    A nd           | Website:  www.openfoam.com                      |
|    \\/     M anipulation  |                                                 |
\*---------------------------------------------------------------------------*/
FoamFile
{
    version     2.0;
    format      ascii;
    arch        "LSB;label=32;scalar=64";
    class       volScalarField;
    location    "0.04";
    object      CO2;
}
// * * * * * * * * * * * * * * * * * * * * * * * * * * * * * * * * * * * * * //

dimensions      [0 0 0 0 0 0 0];

internalField   nonuniform List<scalar> 
3272
(
0.027871452
0.028527131
0.029176027
0.029817231
0.030449816
0.031072841
0.031685357
0.032286415
0.03287506
0.033438767
0.033995214
0.034539122
0.035065452
0.035572646
0.036052668
0.036521867
0.036970313
0.037396287
0.037798546
0.038175925
0.038527304
0.038851598
0.039147755
0.039414758
0.039651631
0.039857447
0.040031341
0.04017251
0.040280227
0.040352679
0.040391503
0.040395237
0.040363896
0.040296302
0.040192602
0.040052778
0.039876852
0.039664962
0.039417358
0.039134407
0.038820695
0.038469761
0.038084346
0.037666319
0.037216637
0.036736369
0.036226692
0.035688876
0.035124282
0.034534353
0.033920598
0.033284581
0.032627904
0.027983421
0.028640567
0.029290936
0.029933621
0.030567693
0.031192204
0.031806202
0.032408739
0.032998888
0.033564097
0.034122869
0.034669179
0.035199006
0.035701977
0.036185777
0.036657866
0.037108501
0.037536509
0.037940763
0.038320138
0.038673523
0.038999831
0.039298
0.039567005
0.039805859
0.040013628
0.040189431
0.040332456
0.040441963
0.040516087
0.040556512
0.040561754
0.040531785
0.04046547
0.040362885
0.040224019
0.040048887
0.039837614
0.039590441
0.039307726
0.038994082
0.038642993
0.038257194
0.037838563
0.037388056
0.036906741
0.036395795
0.035856492
0.035290201
0.034698376
0.034082546
0.033444295
0.032785154
0.028192603
0.028852301
0.02950524
0.030150514
0.030787196
0.031414328
0.032030929
0.032636007
0.03322862
0.033796304
0.034358799
0.034908154
0.035441013
0.035946165
0.036434649
0.036910177
0.037364263
0.037795785
0.03820361
0.038586604
0.038943647
0.039273637
0.039575498
0.039848185
0.040090695
0.040302073
0.040481418
0.040627896
0.040740743
0.040818001
0.040861434
0.040869528
0.040842166
0.040778303
0.040677871
0.04054088
0.040367324
0.040157308
0.039911057
0.03962891
0.039315522
0.038964297
0.038577929
0.038158327
0.03770644
0.037223333
0.03671018
0.036168259
0.035598943
0.035003693
0.034384046
0.033741592
0.033077867
0.028486057
0.029149032
0.029805279
0.03045391
0.03109401
0.031724628
0.032344742
0.032953143
0.033548071
0.034119131
0.034686615
0.035239931
0.035776776
0.036285648
0.036780258
0.037260212
0.03771889
0.038155139
0.038567799
0.038955719
0.039317756
0.039652789
0.039959719
0.040237477
0.040485035
0.040701411
0.040885676
0.041036966
0.041154483
0.041236138
0.041283805
0.041295938
0.041272288
0.04121194
0.04111462
0.040980369
0.040809149
0.040601038
0.040356233
0.040075051
0.039762199
0.039410996
0.039024031
0.038603277
0.038149671
0.037664272
0.037148251
0.036602884
0.03602955
0.035429714
0.034804926
0.034156788
0.033486848
0.028852381
0.029519018
0.030178974
0.030831393
0.031475413
0.032110189
0.032734961
0.03334921
0.033940044
0.0345181
0.035091841
0.035649888
0.036191327
0.036704689
0.037206347
0.037691618
0.038155815
0.03859775
0.039016243
0.039410118
0.039778213
0.04011938
0.040432493
0.040716457
0.040970212
0.041192745
0.041383091
0.041540347
0.041663678
0.041750825
0.041803791
0.041821018
0.041802073
0.041746217
0.041652903
0.041522213
0.041354072
0.04114852
0.040905721
0.040625959
0.040314004
0.039963103
0.039575652
0.039153728
0.038698255
0.03821028
0.037690968
0.037141592
0.036563532
0.035958264
0.035327345
0.034672396
0.033994981
0.029281469
0.029951842
0.030615582
0.031271851
0.031919792
0.032558533
0.033187227
0.033805135
0.034398193
0.034984142
0.03556257
0.03612543
0.036670858
0.037189335
0.037698667
0.038189965
0.038660386
0.039108731
0.039533807
0.039934422
0.040309393
0.040657546
0.040977727
0.041268809
0.041529698
0.041759342
0.041956738
0.04212094
0.042251065
0.042344651
0.042403837
0.042427098
0.042413753
0.042363282
0.042274809
0.042148463
0.041984125
0.04178179
0.04154158
0.041263743
0.04095311
0.040602897
0.040215187
0.039792217
0.03933489
0.038844239
0.038321417
0.037767694
0.037184451
0.036573167
0.035935414
0.035272828
0.034586995
0.029764337
0.030438254
0.031105601
0.031765555
0.032417251
0.033059738
0.03369201
0.034313266
0.034909677
0.035503578
0.036087382
0.036657025
0.037200271
0.037727214
0.038244737
0.038742583
0.039219697
0.039674935
0.040107112
0.040515027
0.040897473
0.041253253
0.041581182
0.041880097
0.042148867
0.042386399
0.042591646
0.042763614
0.04290137
0.043002216
0.043068411
0.043098543
0.043091601
0.043047333
0.042964476
0.042843218
0.042683384
0.04248492
0.042247899
0.041972524
0.041663689
0.041314641
0.040926994
0.040503214
0.040044181
0.039550908
0.039024533
0.038466318
0.037877641
0.037259986
0.036614937
0.035944147
0.035249225
0.030292956
0.030969986
0.031640532
0.032303803
0.032958949
0.033604948
0.034240464
0.034863669
0.035464225
0.036065332
0.036653714
0.037227761
0.037774217
0.038310666
0.038834186
0.039338491
0.039822418
0.040284776
0.040724353
0.041139922
0.041530252
0.041894114
0.042230289
0.042537578
0.042814808
0.043060843
0.043274588
0.043455003
0.043601102
0.043709922
0.043783789
0.043821534
0.043821722
0.043784375
0.043707872
0.043592398
0.043437741
0.043243788
0.043010559
0.042738204
0.042431675
0.04208434
0.041697151
0.041272892
0.040812412
0.040316698
0.03978687
0.039224179
0.038629996
0.038005807
0.037353205
0.03667386
0.035969403
0.030860136
0.031539635
0.032212747
0.032878727
0.033536816
0.034186252
0.03482655
0.0354434
0.036055129
0.036661188
0.037253762
0.037830891
0.038382081
0.038927443
0.039456941
0.039967681
0.040458443
0.040928002
0.041375115
0.04179853
0.042196987
0.042569224
0.042913986
0.043230035
0.043516154
0.043771158
0.043993908
0.044183316
0.044338362
0.044455803
0.044537884
0.04458388
0.044591947
0.044561993
0.0444926
0.044383557
0.044234714
0.044045894
0.043817049
0.043548272
0.043244568
0.042899555
0.042513273
0.042088935
0.041627354
0.041129484
0.040596424
0.040029405
0.039429791
0.038799064
0.038138822
0.037450737
0.03673638
0.031459447
0.032140611
0.032815508
0.033483418
0.034143579
0.034795005
0.035435866
0.036054221
0.036674011
0.037284183
0.037882215
0.038454705
0.039016024
0.039568794
0.040104283
0.040621379
0.041118898
0.041595611
0.042050262
0.042481575
0.042888262
0.043269028
0.043622581
0.04394764
0.044242939
0.044507244
0.044739361
0.044938157
0.045102613
0.04522942
0.045320146
0.045374914
0.045391423
0.045369388
0.045307719
0.04520571
0.045063286
0.044880192
0.044656308
0.044391652
0.044091271
0.043749233
0.043364339
0.042940376
0.042478108
0.041978453
0.041442476
0.040871389
0.040266539
0.039629403
0.038961571
0.032085121
0.032767026
0.033442835
0.034111923
0.034773793
0.035428344
0.036060297
0.036687694
0.037312433
0.037925473
0.03852491
0.039099424
0.039670008
0.040227802
0.04076886
0.041292014
0.041796059
0.042279753
0.042741822
0.043180965
0.043595865
0.043985195
0.044347624
0.044681825
0.044986482
0.045260301
0.045502013
0.045710374
0.045884149
0.046022009
0.046121512
0.046185281
0.046210668
0.046197025
0.04614362
0.046049199
0.045913762
0.045736971
0.04551861
0.045258587
0.044961932
0.044623546
0.044240548
0.04381746
0.043354978
0.04285397
0.042315468
0.041740658
0.04113087
0.04048756
0.039812227
0.032731956
0.033413548
0.034089207
0.034758286
0.035420022
0.036072675
0.036703719
0.037338367
0.037965406
0.038582346
0.039174781
0.039757937
0.040335493
0.04089792
0.04144413
0.041972964
0.04248321
0.042973611
0.043442874
0.043889677
0.044312673
0.0447105
0.045081788
0.045425165
0.045739268
0.046022744
0.046274267
0.046492538
0.046676299
0.046824356
0.046933421
0.047006638
0.047041355
0.047036547
0.046991881
0.046905561
0.046777647
0.046607726
0.046395486
0.046140645
0.045847747
0.045513688
0.045133196
0.044711538
0.044249358
0.043747479
0.043206898
0.042628774
0.042014418
0.041365275
0.040682833
0.033395267
0.03407543
0.034749897
0.035418271
0.036080853
0.036721476
0.037360654
0.03799816
0.038625906
0.039241989
0.039834545
0.040426245
0.041007156
0.041573604
0.042124446
0.0426585
0.043174539
0.043671292
0.044147447
0.044601656
0.045032544
0.045438714
0.045818759
0.04617126
0.046494805
0.046787991
0.047049436
0.047277786
0.047471732
0.047630026
0.047748932
0.04783187
0.047876274
0.047880747
0.047845102
0.047767413
0.047647494
0.047484992
0.047279609
0.047031281
0.046740427
0.04641151
0.046034648
0.045615004
0.045153657
0.04465141
0.04410923
0.043528246
0.042909748
0.042255169
0.041565997
0.034070815
0.03474831
0.035420149
0.036085558
0.036743715
0.037381419
0.038025958
0.038663354
0.039292763
0.03989875
0.040500002
0.041096417
0.041680121
0.042250006
0.042804924
0.043343686
0.043865054
0.044367742
0.044850419
0.045311713
0.04575022
0.046164508
0.04655313
0.046914624
0.047247529
0.047550391
0.047821771
0.04806026
0.048264488
0.048433132
0.04856206
0.048654866
0.04870923
0.048723379
0.048696923
0.048628302
0.04851675
0.048362015
0.048163702
0.047921577
0.047635546
0.047311205
0.046938419
0.046521242
0.046061215
0.045559096
0.045015806
0.044432442
0.043810264
0.043150688
0.042455202
0.034754878
0.035428655
0.036097031
0.036758973
0.03740272
0.038049107
0.03869269
0.039328124
0.039954351
0.040558824
0.04116675
0.041764524
0.042350321
0.042922996
0.04348139
0.044024305
0.044550494
0.045058653
0.045547433
0.046015438
0.046461233
0.046883353
0.04728031
0.047650599
0.04799271
0.048305136
0.048586385
0.048834989
0.049049522
0.049228596
0.049367683
0.049470409
0.049534938
0.049559003
0.049541956
0.049482704
0.049379831
0.049233182
0.049042258
0.048806705
0.048526311
0.048206872
0.047838692
0.047424419
0.046966183
0.046464676
0.04592077
0.045335515
0.044710141
0.044046039
0.043344693
0.035443981
0.036113076
0.036777892
0.037423265
0.038069392
0.038717418
0.039358338
0.039991477
0.040605476
0.04121979
0.04182853
0.042427032
0.043014239
0.043589042
0.04415029
0.044696778
0.045227248
0.045740383
0.046234811
0.046709111
0.04716182
0.047591437
0.047996435
0.048375264
0.048726366
0.04904818
0.049339157
0.049597776
0.049822559
0.05001209
0.050161488
0.050274096
0.050348913
0.050383047
0.050375581
0.050325916
0.050231988
0.050093716
0.049910503
0.049681891
0.049407573
0.049093372
0.048730377
0.048319434
0.047863447
0.04736303
0.046818995
0.046232343
0.045604265
0.044936125
0.0442294
0.03613443
0.036796628
0.037451111
0.038089539
0.038738653
0.039382962
0.040020262
0.040639243
0.041257716
0.041874446
0.042482487
0.043080966
0.043668879
0.044245144
0.044808616
0.045358087
0.045892287
0.046409881
0.046909478
0.04738963
0.047848845
0.048285588
0.04869829
0.049085359
0.049445186
0.049776155
0.050076658
0.050345108
0.050579974
0.050779862
0.050939952
0.05106231
0.051147404
0.051191668
0.051193936
0.051153924
0.051069214
0.05093956
0.050764349
0.050543004
0.050275078
0.04996629
0.049609063
0.049201865
0.048748572
0.04824971
0.047706023
0.047118461
0.046488172
0.04581649
0.045104881
0.036823018
0.037477227
0.038114471
0.038758941
0.039402837
0.040043844
0.040665077
0.041283429
0.041905124
0.042519564
0.04312607
0.043723777
0.044311701
0.044888773
0.045453849
0.046005715
0.046543088
0.047064618
0.047568891
0.048054434
0.048519725
0.048963195
0.049383235
0.049778208
0.050146456
0.050486307
0.050796085
0.05107412
0.051318742
0.051528233
0.051700578
0.05183225
0.05192729
0.051981651
0.05199384
0.05196335
0.051888124
0.051767292
0.05160035
0.051386614
0.05112542
0.050821742
0.050470897
0.050067909
0.049617756
0.049120896
0.048578016
0.047990015
0.047357998
0.046683267
0.045967273
0.037508438
0.038142223
0.03878147
0.039421192
0.040057406
0.040689164
0.04130252
0.04192432
0.042541708
0.043152923
0.043757098
0.044353314
0.04494058
0.045517825
0.046083901
0.046637586
0.047177584
0.047702526
0.048210978
0.048701443
0.049172367
0.049622146
0.050049134
0.050451651
0.050827988
0.05117642
0.051495212
0.051782628
0.052036936
0.052256408
0.052439353
0.052580914
0.052685881
0.052750347
0.052772495
0.052751534
0.052685903
0.052574045
0.052415602
0.052209901
0.051956555
0.051655868
0.051312366
0.050914403
0.050467795
0.049973346
0.049431699
0.048843707
0.048210428
0.047533131
0.038176676
0.038808569
0.039442897
0.040074393
0.040702768
0.04131628
0.041935532
0.042552599
0.04316522
0.043772548
0.04437371
0.044967779
0.045553757
0.046130571
0.046697067
0.047252013
0.0477941
0.048321941
0.04883408
0.049328995
0.049805103
0.050260765
0.050694298
0.051103978
0.05148805
0.051844738
0.052172253
0.052468802
0.052732603
0.052961893
0.05315496
0.053306343
0.053421103
0.053495629
0.053527713
0.053516264
0.053460256
0.053357434
0.053207549
0.05300983
0.052763705
0.05246877
0.052131181
0.051738815
0.051296041
0.050804349
0.05026432
0.049676749
0.049042646
0.048363234
0.038843775
0.039469996
0.0400945
0.040716935
0.041325802
0.041941395
0.04255562
0.043166672
0.043773987
0.04437683
0.044974367
0.045565686
0.046149791
0.046725606
0.047291974
0.04784765
0.04839131
0.048921553
0.049436898
0.049935799
0.050416643
0.050877759
0.051317424
0.051733875
0.05212531
0.052489905
0.052825818
0.053131206
0.053404234
0.053643091
0.053846001
0.054007045
0.054131365
0.054215847
0.054257786
0.054255805
0.054209352
0.054115594
0.053974286
0.053784567
0.05354572
0.053257185
0.052925407
0.05253899
0.052100294
0.051611657
0.05107359
0.05048682
0.049852305
0.049171235
0.039505867
0.040120556
0.040734497
0.041336071
0.041945282
0.04255411
0.04316089
0.04376526
0.044366681
0.044964468
0.045557818
0.046145833
0.046727525
0.047301816
0.047867541
0.048423445
0.048968192
0.049500359
0.050018446
0.05052088
0.05100602
0.051472162
0.051917546
0.052340368
0.052738783
0.053110917
0.05345488
0.053768777
0.054050721
0.054298856
0.05451136
0.054681903
0.054815484
0.054909761
0.054961408
0.054968914
0.054931715
0.05484712
0.054714366
0.054532672
0.054301191
0.054019246
0.053693285
0.053313174
0.052878757
0.052393439
0.05185764
0.051272016
0.050637467
0.049955161
0.040155454
0.040758415
0.04135033
0.041951059
0.042551712
0.043151521
0.043750164
0.044347238
0.044942208
0.045534407
0.046123055
0.046707264
0.047286051
0.047858334
0.048422942
0.04897861
0.049523984
0.050057625
0.050578011
0.051083543
0.051572552
0.0520433
0.052493993
0.052922785
0.053327789
0.053707085
0.05405873
0.054380777
0.054671288
0.054928369
0.055150197
0.055330159
0.055472652
0.05557651
0.055637674
0.055654572
0.055626402
0.055550927
0.0554267
0.055253047
0.055029001
0.054753711
0.054433404
0.054059947
0.05363
0.053148241
0.052614987
0.052030819
0.05139658
0.040788855
0.041371446
0.041961987
0.042552047
0.04314226
0.043732478
0.044322411
0.04491165
0.045499666
0.046085802
0.046669287
0.04724924
0.047824677
0.048394516
0.048957576
0.049512578
0.050058156
0.05059285
0.051115117
0.051623333
0.052115799
0.052590746
0.053046345
0.053480711
0.053891914
0.054277986
0.054636934
0.054966755
0.05526545
0.055531067
0.055761822
0.055951456
0.056102431
0.056215538
0.056285978
0.056312079
0.056292755
0.056226283
0.05611052
0.055944914
0.055728397
0.055459907
0.055144613
0.054778102
0.054352931
0.053874961
0.053344495
0.052762066
0.052128503
0.041406404
0.041981639
0.04255863
0.043136738
0.043715928
0.044296034
0.044876765
0.045457709
0.046038335
0.04661799
0.047195907
0.047771207
0.048342904
0.048909909
0.049471032
0.050024982
0.050570374
0.051105733
0.051629491
0.05214
0.052635532
0.053114288
0.053574402
0.054013953
0.054430967
0.054823433
0.055189306
0.055526522
0.055833002
0.056106652
0.056345275
0.056546083
0.056704743
0.056826527
0.056905963
0.056941041
0.056930365
0.056872729
0.056765329
0.056607736
0.056398906
0.056138143
0.055825761
0.055466363
0.055046851
0.054572828
0.054045345
0.053464884
0.052832265
0.042014345
0.042575109
0.043138507
0.043704133
0.04427183
0.044841394
0.045412517
0.045984781
0.04655765
0.047130471
0.047702475
0.04827278
0.048840397
0.049404228
0.04996307
0.050515621
0.051060478
0.051596146
0.052121035
0.052633473
0.053131702
0.053613894
0.054078148
0.054522506
0.054944955
0.055343437
0.055715862
0.056060109
0.056374041
0.056655499
0.056902292
0.05711222
0.057279125
0.057409312
0.057497488
0.057541302
0.057539073
0.057490031
0.057390858
0.057241116
0.057039712
0.056785773
0.056478677
0.056124998
0.055711331
0.055241351
0.054716992
0.054138685
0.053507235
0.042604731
0.043150903
0.043700532
0.044253354
0.044809217
0.045367905
0.045929101
0.046492377
0.047057192
0.047622888
0.048188693
0.04875372
0.049316969
0.049877332
0.050433597
0.050984444
0.051528454
0.052064111
0.052589803
0.053103832
0.053604415
0.05408969
0.054557726
0.055006528
0.055434044
0.055838175
0.056216785
0.056567706
0.056888753
0.057177725
0.057432427
0.05765071
0.057825689
0.057963977
0.058060627
0.058112906
0.058118987
0.05807813
0.057987096
0.057845002
0.057650817
0.057403502
0.057102197
0.056753903
0.056346183
0.055880277
0.055359141
0.05478313
0.043176961
0.043708273
0.044243921
0.044783701
0.045327484
0.045875052
0.046426081
0.046980136
0.04753667
0.048095017
0.048654396
0.049213913
0.049772558
0.050329212
0.050882646
0.051431527
0.051974416
0.052509776
0.053035975
0.053551287
0.054053904
0.054541933
0.055013412
0.05546631
0.055898539
0.05630796
0.056692394
0.057049632
0.057377443
0.057673592
0.057935849
0.058162025
0.058344778
0.058490808
0.058595645
0.058656108
0.058670301
0.05863728
0.058554199
0.058419562
0.05823243
0.057991629
0.057696155
0.057353019
0.056951368
0.056489546
0.055971721
0.055398242
0.043730349
0.044246568
0.044768057
0.045294628
0.045826165
0.046362448
0.046903148
0.047447822
0.047995912
0.048546746
0.049099531
0.049653362
0.050207218
0.050759966
0.051310361
0.051857053
0.052398585
0.052933399
0.053459839
0.053976156
0.054480513
0.05497099
0.055445593
0.055902257
0.056338859
0.056753222
0.057143127
0.057506324
0.057840544
0.05814351
0.058412959
0.058646649
0.058836862
0.058990247
0.059102965
0.059171319
0.059193352
0.05916788
0.059092514
0.058965135
0.0587849
0.05855052
0.058260806
0.057922439
0.057526966
0.057069269
0.056554811
0.055983923
0.044264253
0.044765234
0.045272451
0.045785719
0.046304919
0.046829828
0.047360108
0.047895307
0.048434856
0.048978071
0.049524148
0.05007217
0.0506211
0.05116979
0.051716981
0.052261302
0.052801277
0.053335328
0.053861776
0.054378846
0.054884676
0.055377318
0.055854746
0.056314865
0.056755515
0.057174485
0.057569517
0.057938321
0.058278589
0.05858801
0.058864285
0.059105138
0.059302515
0.059462853
0.059583134
0.059659066
0.059688641
0.059670433
0.059602521
0.059482187
0.059308696
0.059080686
0.058796784
0.058462351
0.058073076
0.057619728
0.057108675
0.056540428
0.044778133
0.045263819
0.045756733
0.046256674
0.046763519
0.047277035
0.047796872
0.048322566
0.048853535
0.049389082
0.04992839
0.050470526
0.051014439
0.051558965
0.052102824
0.05264463
0.053182886
0.05371599
0.054242242
0.054759843
0.055266905
0.055761451
0.056241428
0.056704708
0.057149098
0.057572353
0.057972176
0.058346242
0.058692201
0.059007707
0.059290437
0.059538113
0.059742413
0.059909298
0.060036803
0.060119981
0.060156784
0.060145546
0.060084806
0.059971285
0.05980436
0.059582706
0.059305393
0.058972874
0.058589714
0.058141345
0.057633722
0.05706815
0.045271561
0.045741985
0.046220636
0.046707303
0.047201845
0.047704016
0.048213449
0.048729666
0.049252071
0.049779953
0.050312479
0.0508487
0.051387548
0.051927841
0.052468283
0.053007464
0.053543868
0.054075874
0.054601756
0.055119692
0.055627769
0.056123983
0.056606252
0.057072419
0.057520259
0.057947491
0.058351785
0.058730775
0.059082073
0.059403292
0.059692084
0.059946219
0.060157336
0.060330349
0.060464703
0.060554778
0.060598481
0.06059392
0.060540035
0.060433078
0.06027246
0.060056818
0.059785085
0.059456547
0.059078132
0.058634729
0.058130499
0.057567607
0.045744224
0.046199498
0.046664003
0.047137515
0.047619874
0.048110808
0.048609935
0.049116758
0.049630666
0.050150932
0.050676708
0.051207027
0.051740803
0.052276834
0.052813804
0.053350285
0.053884739
0.054415522
0.054940887
0.055458989
0.055967888
0.056465556
0.056949882
0.05741868
0.057869695
0.058300614
0.058709071
0.059092662
0.059448955
0.059775515
0.060069938
0.060330027
0.060548224
0.060726881
0.060867617
0.060964232
0.061014497
0.061016347
0.060968924
0.060868319
0.060713718
0.060503786
0.060237288
0.059913198
0.059539083
0.059100566
0.058599644
0.058039409
0.046195927
0.046636232
0.047086772
0.047547315
0.048017671
0.048497538
0.048986508
0.049484068
0.049989592
0.050502336
0.051021434
0.051545902
0.052074634
0.052606407
0.053139887
0.053673622
0.054206055
0.054735521
0.055260248
0.055778369
0.056287921
0.056786849
0.057273016
0.05774421
0.058198144
0.058632475
0.059044803
0.059432686
0.05979365
0.060125196
0.060424794
0.060689771
0.060916373
0.061099812
0.061246375
0.061349164
0.061405649
0.06141368
0.06137229
0.061277799
0.061128949
0.060924467
0.060662993
0.06034336
0.059973267
0.059539579
0.059041867
0.058484251
0.046626601
0.047052163
0.047488973
0.047936794
0.048395388
0.048864407
0.049343419
0.049831892
0.050329185
0.050834538
0.051347069
0.051865771
0.05238952
0.052917072
0.05344707
0.053978043
0.054508411
0.055036488
0.05556048
0.056078498
0.056588554
0.057088569
0.057576382
0.058049752
0.058506367
0.058943851
0.059359775
0.05975166
0.060116993
0.060453226
0.060757771
0.061027955
0.061260967
0.061449714
0.06160179
0.061710427
0.061772811
0.06178673
0.061751039
0.06166238
0.061519022
0.061319758
0.061063125
0.060747818
0.060381433
0.059952524
0.059457934
0.058902894
0.047036353
0.047447338
0.04787072
0.048306124
0.048753252
0.04921169
0.049680985
0.050160584
0.050649834
0.051147963
0.051654068
0.052167122
0.052685979
0.053209374
0.053735926
0.054264144
0.054792428
0.055319068
0.05584225
0.056360062
0.056870493
0.057371443
0.057860724
0.05833607
0.058795143
0.059235539
0.059654798
0.060050411
0.060419829
0.060760468
0.061069714
0.06134492
0.061583485
0.061777421
0.061934724
0.062048902
0.062116873
0.062136375
0.062106077
0.062022963
0.061884841
0.061690578
0.061438627
0.061127511
0.060764349
0.060340173
0.059848663
0.059296154
0.047425664
0.047821813
0.048232207
0.048655546
0.049091562
0.049539728
0.049999581
0.050470551
0.050951979
0.051443078
0.051942927
0.052450479
0.052964561
0.053483886
0.054007053
0.054532548
0.055058748
0.055583924
0.056106241
0.056623764
0.057134461
0.057636208
0.058126796
0.058603934
0.059065259
0.05950834
0.05993069
0.060329771
0.060703004
0.061047776
0.06136145
0.061641386
0.061885
0.062083855
0.062246077
0.062365493
0.062438745
0.062463526
0.062438325
0.062360468
0.062227326
0.062037854
0.061790468
0.061483575
0.061122744
0.060703264
0.060214933
0.059664898
0.046726324
0.047066765
0.047422637
0.047796125
0.048175452
0.048573734
0.048985355
0.049410687
0.049848918
0.050299635
0.050762245
0.051236095
0.051720386
0.052214177
0.052716394
0.053225841
0.053741208
0.05426107
0.054783892
0.05530803
0.055831733
0.056353147
0.056870315
0.057381184
0.05788361
0.05837536
0.058854122
0.059317507
0.059763062
0.060188273
0.060590575
0.060967363
0.061315998
0.061633823
0.061918182
0.062166466
0.06236994
0.062536766
0.062661119
0.062739348
0.062769108
0.062748716
0.062675828
0.062547406
0.062362501
0.062119581
0.061817545
0.061457126
0.061042513
0.060557662
0.060010029
0.047117552
0.047443078
0.047784357
0.048142026
0.048513861
0.048896375
0.049295857
0.049711078
0.050139706
0.050581621
0.051036156
0.051502695
0.051980423
0.052468372
0.052965443
0.053470416
0.053981954
0.054498609
0.055018825
0.055540938
0.056063177
0.056583665
0.057100428
0.057611393
0.058114393
0.058607175
0.059087406
0.059552676
0.060000507
0.060428362
0.060833652
0.061213747
0.061565984
0.061887684
0.06217617
0.062428796
0.062636593
0.062807708
0.0629367
0.063019609
0.063054053
0.063038185
0.062969979
0.062846008
0.062665407
0.062426626
0.062128484
0.061770317
0.06135919
0.060877781
0.060332469
0.047487304
0.0477978
0.048124732
0.048468178
0.048827125
0.04920054
0.049592324
0.049993322
0.050412567
0.050846054
0.051292799
0.051752313
0.052223744
0.052706088
0.053198222
0.053698897
0.05420675
0.054720313
0.055238007
0.055758146
0.056278941
0.056798497
0.057314818
0.057825813
0.058329296
0.058822996
0.059304556
0.059771547
0.06022147
0.060651765
0.061059822
0.061442986
0.061798574
0.062123884
0.062416211
0.06267288
0.062884716
0.063059812
0.063193151
0.06328045
0.063319288
0.063307667
0.063243856
0.063124068
0.0629475
0.062712552
0.062417918
0.062062519
0.061654376
0.061176247
0.060633155
0.047835572
0.048131392
0.0484445
0.04877476
0.049121692
0.049484917
0.049865666
0.050262165
0.050668963
0.051093501
0.051532705
0.051985506
0.052450927
0.052927919
0.053415337
0.053911904
0.054416232
0.054926829
0.055442095
0.055960325
0.05647971
0.056998337
0.057514193
0.058025166
0.058529054
0.059023566
0.059506328
0.05997489
0.060426733
0.060859277
0.061269891
0.061655899
0.062014598
0.062343261
0.062639162
0.062899592
0.063115194
0.063293975
0.063431379
0.063522783
0.063565734
0.063558089
0.063498392
0.063382525
0.063209725
0.06297834
0.062686973
0.062334424
0.061929025
0.061454017
0.060913021
0.048162639
0.048444332
0.048744228
0.049062093
0.049397649
0.049750654
0.050121357
0.050508789
0.050912254
0.051325907
0.051756396
0.052202844
0.052662568
0.05313447
0.053617404
0.054110065
0.054611038
0.055118805
0.055631748
0.056148143
0.056666162
0.057183875
0.057699251
0.058210162
0.058714388
0.05920962
0.059693467
0.060163461
0.060617065
0.061051678
0.061464651
0.06185329
0.062214868
0.062546643
0.062845861
0.063109787
0.063328896
0.063511078
0.063652273
0.063747508
0.063794298
0.063790369
0.063734502
0.063622311
0.063453023
0.063224954
0.062936645
0.062586877
0.062184101
0.061712101
0.061173081
0.048468915
0.048737122
0.049024454
0.049330616
0.049655386
0.049998516
0.050359866
0.050738764
0.051134582
0.05154645
0.051965298
0.052404921
0.052859278
0.053326353
0.053805045
0.05429401
0.054791805
0.055296888
0.055807621
0.056322263
0.056838968
0.05735579
0.057870681
0.058381498
0.058886005
0.059381875
0.059866702
0.060338001
0.060793215
0.061229731
0.061644877
0.062035942
0.062400183
0.062734835
0.063037128
0.063304299
0.063526669
0.063711983
0.063856706
0.063955505
0.06400587
0.064005414
0.063953085
0.063844348
0.063678323
0.063453334
0.063167872
0.062820766
0.04875489
0.049010295
0.049285727
0.049580846
0.049895418
0.050229152
0.050581739
0.050952613
0.051341287
0.051748148
0.052162555
0.052592703
0.053041687
0.053504179
0.053978878
0.054464366
0.054959167
0.055461717
0.05597036
0.056483337
0.056998787
0.057514748
0.058029158
0.058539858
0.059044596
0.059541032
0.060026743
0.060499228
0.060955916
0.061394175
0.061811319
0.062204619
0.062571314
0.062908625
0.063213761
0.06348394
0.063709338
0.06389753
0.064045527
0.064147635
0.064201314
0.064204123
0.064155024
0.064049523
0.063886531
0.063664397
0.063381575
0.049021112
0.049264423
0.049528629
0.049813351
0.05011832
0.050443191
0.050787559
0.05115087
0.051532549
0.051931995
0.052345941
0.052769855
0.053210345
0.053668551
0.05413952
0.054621757
0.055113752
0.055613924
0.0561206
0.056632006
0.057146265
0.057661402
0.05817534
0.058685906
0.059190834
0.059687771
0.06017428
0.060647843
0.061105877
0.061545732
0.061964708
0.062360061
0.062729015
0.063068775
0.063376536
0.063649498
0.063877705
0.064068534
0.064219564
0.064324736
0.064381481
0.064387337
0.064341201
0.06423871
0.064078532
0.063859039
0.063578704
0.049268187
0.049500114
0.049753769
0.050028741
0.050324706
0.050641264
0.050977945
0.051334167
0.051709276
0.052102421
0.052511692
0.052936333
0.053366786
0.053820066
0.054287584
0.054766799
0.05525618
0.055754132
0.056258967
0.056768897
0.057282034
0.057796387
0.058309867
0.058820289
0.059325374
0.059822755
0.060309981
0.060784524
0.061243784
0.061685098
0.062105751
0.062502985
0.062874011
0.063216021
0.063526198
0.063801732
0.064032543
0.064225788
0.064379618
0.064487618
0.064547196
0.064555873
0.064512463
0.064412759
0.06425519
0.064038132
0.063760108
0.049496879
0.049718003
0.04996178
0.050227649
0.050515211
0.050824012
0.051153529
0.051503147
0.05187216
0.052259699
0.052664596
0.053087194
0.053513309
0.053959263
0.054423676
0.0549001
0.055387059
0.055882949
0.05638607
0.056894624
0.057406708
0.057920321
0.058433362
0.058943635
0.059448848
0.059946622
0.060434495
0.060909926
0.0613703
0.061812945
0.06223513
0.062634084
0.063007005
0.063351075
0.06366347
0.063941376
0.064174605
0.064370056
0.064526463
0.064637066
0.064699253
0.06471053
0.064669627
0.064572496
0.06441734
0.064202548
0.063926667
0.049709176
0.049918713
0.050153315
0.050410726
0.050690484
0.050992083
0.051314954
0.051658448
0.052021827
0.052404239
0.052804816
0.053224033
0.053649395
0.054087476
0.054548417
0.055022257
0.055506984
0.056000969
0.056502505
0.05700978
0.057520883
0.058033803
0.058546428
0.059056549
0.059561867
0.060059991
0.060548445
0.061024679
0.061486067
0.061929922
0.062353502
0.062754024
0.063128673
0.063474621
0.063789043
0.064069132
0.064304615
0.064502081
0.064660846
0.064773835
0.064838416
0.06485208
0.06481348
0.064718718
0.064565792
0.064353112
0.064079233
0.049905578
0.050103344
0.050329045
0.05057864
0.050851186
0.05114613
0.051462864
0.051800705
0.05215889
0.052536567
0.052932867
0.053347115
0.053774612
0.054206938
0.054662261
0.055133852
0.055616539
0.056108773
0.056608848
0.057114943
0.057625138
0.058137413
0.058649645
0.059159618
0.059665022
0.060163454
0.060652432
0.061129392
0.061591698
0.062036651
0.062461499
0.062863445
0.063239663
0.063587317
0.06390358
0.064185669
0.064423274
0.064622578
0.064783482
0.064898652
0.064965421
0.06498127
0.064944777
0.064852189
0.06470132
0.064490607
0.064218618
0.050084133
0.050273471
0.050489619
0.050732064