/*--------------------------------*- C++ -*----------------------------------*\
| =========                 |                                                 |
| \\      /  F ield         | OpenFOAM: The Open Source CFD Toolbox           |
|  \\    /   O peration     | Version:  2312                                  |
|   \\  /    A nd           | Website:  www.openfoam.com                      |
|    \\/     M anipulation  |                                                 |
\*---------------------------------------------------------------------------*/
FoamFile
{
    version     2.0;
    format      ascii;
    arch        "LSB;label=32;scalar=64";
    class       volScalarField;
    location    "0.04";
    object      H2O;
}
// * * * * * * * * * * * * * * * * * * * * * * * * * * * * * * * * * * * * * //

dimensions      [0 0 0 0 0 0 0];

internalField   nonuniform List<scalar> 
3272
(
0.022818113
0.023354912
0.023886157
0.024411105
0.024928997
0.025439061
0.025940523
0.026432604
0.026914522
0.027376024
0.027831583
0.028276876
0.028707777
0.029123012
0.029516002
0.029900132
0.03026727
0.030616011
0.030945337
0.031254294
0.031541965
0.031807462
0.032049923
0.032268516
0.032462441
0.032630942
0.032773306
0.03288888
0.032977068
0.033036383
0.033068168
0.033071225
0.033045567
0.032990228
0.03290533
0.032790857
0.032646828
0.032473356
0.032270645
0.032038995
0.031782162
0.031494855
0.031179319
0.030837084
0.030468933
0.030075743
0.029658474
0.029218169
0.028755941
0.028272971
0.027770496
0.027249794
0.026712178
0.022909781
0.02344778
0.023980232
0.024506393
0.025025501
0.025536783
0.026039458
0.02653275
0.0270159
0.027478631
0.027936093
0.028383352
0.028817117
0.029228894
0.029624977
0.030011472
0.030380404
0.03073081
0.031061769
0.03137236
0.031661674
0.031928818
0.032172927
0.032393159
0.032588707
0.032758805
0.032902734
0.033019827
0.033109479
0.033170164
0.033203259
0.033207551
0.033183016
0.033128725
0.033044739
0.032931051
0.032787672
0.032614704
0.032412346
0.03218089
0.031924112
0.031636678
0.031320828
0.030978099
0.030609273
0.030215225
0.029796917
0.029355395
0.028891777
0.028407255
0.027903081
0.027380551
0.026840918
0.023081036
0.023621125
0.02415568
0.024683961
0.025205207
0.025718634
0.02622344
0.026718812
0.027203979
0.027668737
0.028129246
0.028578999
0.029015245
0.029428809
0.029828727
0.030218037
0.030589794
0.030943077
0.031276959
0.031590514
0.031882822
0.032152981
0.032400112
0.032623359
0.0328219
0.032994953
0.033141781
0.033261701
0.033354088
0.033417339
0.033452897
0.033459523
0.033437122
0.033384838
0.033302615
0.033190462
0.033048373
0.032876435
0.032674831
0.03244384
0.032187272
0.031899727
0.031583411
0.031239887
0.03086993
0.030474415
0.030054302
0.029610636
0.029144542
0.028657215
0.028149916
0.027623945
0.027080559
0.023321285
0.023864057
0.02440132
0.024932348
0.025456392
0.025972674
0.026480356
0.026978448
0.027465511
0.027933033
0.028397626
0.028850622
0.029290132
0.029706741
0.030111674
0.030504608
0.030880124
0.031237276
0.031575118
0.031892704
0.032189101
0.03246339
0.03271467
0.032942068
0.033144742
0.033321887
0.033472743
0.033596603
0.033692813
0.033759664
0.033798688
0.033808621
0.033789259
0.033739853
0.033660178
0.033550268
0.033410092
0.033239713
0.033039293
0.032809092
0.032552963
0.032265436
0.031948631
0.031604163
0.0312328
0.030835408
0.030412946
0.02996646
0.029497076
0.029005995
0.028494487
0.027963862
0.027415388
0.023621191
0.024166961
0.024707261
0.02524139
0.025768644
0.02628833
0.026799825
0.027302705
0.027786416
0.028259665
0.028729381
0.02918625
0.029629521
0.030049806
0.030460509
0.030857796
0.03123783
0.031599639
0.031942255
0.032264717
0.032566073
0.032845383
0.033101726
0.033334205
0.033541953
0.033724138
0.033879972
0.034008717
0.034109687
0.034181033
0.034224396
0.0342385
0.03422299
0.034177261
0.034100865
0.033993871
0.033856215
0.033687932
0.033489154
0.033260116
0.03300472
0.032717441
0.032400238
0.032054813
0.031681921
0.031282421
0.030857264
0.030407495
0.029934242
0.029438714
0.028922187
0.028385986
0.027831392
0.023972481
0.02452131
0.025064708
0.02560199
0.026132453
0.026655385
0.027170091
0.027675967
0.028161498
0.028641209
0.029114763
0.029575572
0.030022109
0.030446582
0.030863567
0.031265789
0.031650918
0.032017974
0.03236598
0.03269396
0.033000946
0.033285975
0.033548105
0.033786411
0.033999999
0.034188006
0.034349613
0.034484043
0.034590575
0.034667193
0.034715648
0.034734692
0.034723767
0.034682447
0.034610014
0.034506576
0.034372034
0.034206384
0.034009726
0.033782264
0.033527951
0.033241235
0.03292382
0.032577538
0.032203129
0.031801437
0.031373407
0.030920079
0.030442583
0.02994213
0.029420007
0.028877554
0.028316069
0.024367801
0.024919531
0.025465882
0.02600618
0.026539718
0.027065717
0.027583352
0.028091969
0.028580245
0.029066467
0.029544423
0.030010784
0.030455535
0.030886938
0.03131063
0.031718212
0.032108821
0.032481521
0.03283534
0.033169296
0.033482402
0.033773676
0.034042148
0.034286867
0.034506907
0.034701372
0.034869406
0.035010194
0.035122974
0.035205536
0.035259729
0.035284398
0.035278715
0.035242473
0.035174639
0.035075366
0.034944511
0.03478203
0.034587983
0.034362537
0.034109696
0.033823933
0.03350657
0.033159625
0.032783819
0.03237998
0.031949042
0.031492036
0.031010091
0.030504423
0.029976327
0.029427157
0.028858231
0.024800577
0.025354856
0.025903825
0.02644684
0.026983202
0.027512076
0.028032367
0.028542579
0.029034249
0.029526371
0.030008073
0.030478041
0.03092542
0.031364605
0.031793207
0.032206077
0.032602263
0.032980792
0.033340669
0.033680892
0.034000452
0.034298342
0.034573566
0.034825141
0.035052107
0.035253533
0.035428525
0.035576229
0.035695839
0.035784929
0.035845403
0.035876305
0.035876459
0.035845883
0.03578325
0.035688713
0.035562096
0.035403309
0.035212366
0.034989392
0.034738439
0.034454079
0.034137091
0.033789754
0.033412763
0.033006926
0.032573161
0.03211249
0.031626038
0.03111502
0.030580741
0.030024567
0.029447834
0.025264922
0.025821222
0.026372293
0.026917525
0.027456296
0.027987984
0.028512191
0.0290172
0.029518017
0.030014192
0.030499327
0.030971818
0.031423073
0.031869555
0.03230305
0.032721189
0.033122972
0.033507395
0.033873443
0.034220089
0.034546302
0.034851049
0.035133303
0.035392049
0.035626292
0.035835062
0.036017425
0.036172492
0.036299427
0.036395575
0.036462774
0.036500431
0.036507035
0.036482512
0.036425701
0.036336428
0.036214572
0.036059986
0.035872632
0.035652587
0.035403947
0.035121489
0.034805243
0.034457841
0.034079948
0.033672347
0.033235935
0.032771722
0.032280823
0.031764453
0.031223918
0.030660589
0.030075751
0.025755573
0.026313236
0.026865768
0.02741258
0.027953048
0.028486364
0.029011032
0.029517273
0.030024691
0.030524233
0.031013837
0.031482529
0.031942075
0.032394624
0.032833024
0.033256366
0.03366368
0.034053961
0.03442618
0.034779292
0.035112243
0.035423973
0.035713424
0.035979546
0.036221305
0.036437689
0.036627721
0.036790474
0.036925113
0.037028928
0.037103205
0.037148043
0.037161559
0.037143519
0.037093031
0.037009517
0.036892916
0.036743019
0.036559727
0.036343055
0.036097135
0.035817113
0.035502003
0.035154908
0.034776454
0.03436739
0.033928591
0.033461046
0.032965861
0.032444244
0.031897496
0.026267807
0.026826076
0.027379355
0.027927132
0.028468999
0.029004874
0.029522248
0.030035893
0.030547361
0.031049251
0.031540005
0.032010354
0.032477486
0.032934148
0.033377107
0.033805409
0.034218066
0.034614062
0.034992354
0.035351876
0.035691551
0.036010293
0.03630701
0.036580617
0.036830037
0.037054211
0.037252098
0.037422681
0.03756495
0.037677814
0.037759276
0.037811484
0.037832268
0.037821098
0.037777376
0.037700075
0.037589193
0.037444456
0.037265686
0.037052807
0.036809938
0.036532904
0.036219348
0.035872969
0.035494339
0.035084169
0.034643302
0.03417271
0.033673482
0.03314681
0.03259392
0.026797364
0.027355378
0.027908534
0.028456303
0.028998061
0.029532382
0.030049012
0.030568593
0.031081944
0.031587027
0.032072049
0.032549474
0.033022313
0.033482767
0.033929945
0.034362897
0.03478063
0.035182117
0.035566299
0.035932092
0.036278395
0.036604093
0.036908063
0.037189184
0.037446336
0.037678416
0.037884336
0.038063032
0.038213475
0.038334689
0.038423979
0.038483922
0.038512343
0.038508408
0.038471839
0.038401171
0.038296448
0.038157336
0.037983577
0.03777494
0.037535147
0.037261656
0.03695015
0.036604943
0.03622656
0.035815677
0.035373108
0.034899803
0.034396834
0.033865387
0.033306677
0.027340411
0.027897254
0.028449435
0.028996627
0.029539077
0.03006355
0.030586839
0.031108759
0.03162269
0.032127072
0.032612191
0.033096612
0.033572198
0.034035944
0.034486914
0.034924139
0.035346616
0.035753303
0.036143126
0.036514983
0.036867747
0.037200276
0.037511415
0.037800005
0.038064888
0.038304917
0.038518959
0.038705907
0.03886469
0.038994283
0.039091631
0.039159532
0.039195885
0.039199547
0.039170364
0.039106761
0.039008584
0.038875546
0.0387074
0.038504096
0.038265977
0.037996695
0.037688162
0.037344603
0.036966902
0.036555717
0.036111839
0.035636192
0.035129834
0.034593935
0.034029716
0.027893476
0.028448136
0.028998165
0.029542929
0.030081757
0.030603839
0.031131518
0.031653348
0.03216864
0.032664756
0.033156996
0.033645276
0.034123149
0.034589708
0.035044015
0.035485095
0.035911934
0.036323481
0.036718644
0.037096301
0.037455302
0.037794477
0.038112638
0.03840859
0.038681137
0.038929087
0.039151263
0.039346512
0.039513712
0.039651779
0.039757332
0.039833311
0.039877819
0.039889402
0.039867743
0.039811563
0.039720236
0.039593556
0.039431199
0.039232974
0.038998803
0.038733268
0.038428071
0.038086531
0.037709912
0.037298831
0.036854045
0.036376449
0.035867078
0.035327089
0.034757701
0.028453513
0.029005128
0.029552322
0.030094248
0.030621278
0.03115047
0.031677365
0.032197589
0.032710276
0.033205153
0.033702856
0.034192248
0.034671835
0.035140679
0.035597832
0.036042312
0.036473097
0.036889123
0.037289283
0.037672434
0.038037403
0.038382989
0.038707974
0.039011126
0.03929121
0.03954699
0.039777246
0.039980776
0.040156412
0.040303019
0.040416888
0.040500989
0.040553818
0.04057352
0.040559563
0.040511054
0.040426833
0.040306773
0.040150466
0.03995762
0.039728064
0.039466542
0.039165116
0.038825954
0.038450801
0.038040222
0.03759493
0.037115788
0.036603799
0.036060105
0.035485919
0.029017676
0.029565458
0.030109736
0.030638098
0.031167077
0.03169761
0.032222326
0.03274067
0.033243346
0.03374628
0.034244649
0.034734638
0.035215379
0.035685966
0.036145454
0.036592859
0.037027151
0.03744725
0.037852033
0.038240339
0.038610967
0.038962691
0.039294259
0.039604403
0.039891847
0.040155314
0.040393534
0.040605263
0.040789291
0.040944458
0.041066769
0.04115896
0.041220212
0.041248157
0.041242045
0.041201385
0.041124487
0.041011285
0.04086129
0.040674127
0.040449545
0.040192312
0.039895131
0.039558696
0.039185383
0.038775696
0.038330299
0.037850013
0.03733581
0.036788811
0.036210221
0.02958294
0.030125076
0.030660895
0.031183571
0.031714994
0.032242485
0.032764236
0.033270991
0.03377733
0.034282241
0.034780039
0.035270008
0.035751327
0.03622311
0.03668442
0.037134267
0.037571612
0.037995362
0.038404377
0.038797474
0.039173429
0.039530986
0.039868862
0.040185752
0.040480339
0.040751301
0.040997319
0.041217097
0.04140938
0.041573027
0.041704091
0.041804264
0.04187393
0.041910168
0.041912025
0.041879268
0.041809916
0.04170377
0.041560326
0.041379113
0.041159764
0.040906962
0.040614504
0.040281135
0.039910027
0.039501614
0.039056502
0.03857547
0.038059458
0.037509558
0.036926969
0.030146681
0.030682276
0.031203982
0.031731604
0.032258756
0.032783543
0.033292141
0.03379838
0.034307356
0.034810393
0.035306934
0.035796272
0.0362776
0.036750043
0.037212666
0.037664474
0.038104417
0.038531389
0.038944232
0.039341743
0.039722672
0.040085737
0.04042962
0.040752981
0.041054463
0.041332695
0.041586308
0.041813933
0.042014203
0.042185711
0.042326808
0.042434608
0.042512416
0.042556921
0.042566899
0.042541938
0.042480351
0.042381427
0.042244752
0.042069769
0.041855932
0.041607313
0.04132008
0.040990157
0.04062162
0.040214845
0.039770394
0.039289003
0.038771577
0.038219181
0.037633002
0.030707829
0.031226703
0.031750048
0.032273783
0.032794646
0.03331186
0.03381401
0.034323072
0.034828523
0.035328919
0.035823551
0.036311669
0.036792458
0.037265043
0.037728485
0.038181782
0.038623873
0.039053639
0.039469904
0.039871443
0.040256984
0.040625214
0.040974786
0.041304323
0.041612427
0.041897685
0.042158677
0.042393983
0.042602182
0.042781861
0.042931637
0.043047532
0.043133468
0.043186245
0.043204378
0.043187217
0.043133486
0.043041908
0.042912192
0.042743787
0.042536375
0.042290205
0.042008983
0.041683174
0.04131754
0.040912739
0.040469298
0.039987913
0.039469453
0.038914956
0.031254909
0.031772234
0.032291553
0.032808553
0.033322998
0.033825275
0.034332251
0.034837439
0.035338986
0.0358362
0.036328366
0.036814725
0.03729446
0.037766693
0.038230478
0.038684808
0.039128609
0.039560748
0.039980032
0.040385215
0.040775
0.041148047
0.041502976
0.041838378
0.042152814
0.042444831
0.042712964
0.042955747
0.043171718
0.043359436
0.043517498
0.043641434
0.043735388
0.043796401
0.043822668
0.043813294
0.043767442
0.043683262
0.043560552
0.043398682
0.043197181
0.042955721
0.04267934
0.042358113
0.041995618
0.041593074
0.041150957
0.040669918
0.040150783
0.039594554
0.031801057
0.032313739
0.032825015
0.033334597
0.033833071
0.034337051
0.034839912
0.035340175
0.035837378
0.03633092
0.036820119
0.037304226
0.037782428
0.038253843
0.038717523
0.03917245
0.03961754
0.040051645
0.040473554
0.040882
0.041275662
0.041653174
0.042013124
0.042354068
0.042674533
0.042973023
0.043248033
0.043498051
0.043721577
0.043917127
0.044083247
0.044215093
0.044316872
0.044386037
0.044420372
0.044418751
0.04438072
0.044303961
0.044188274
0.044032952
0.04383741
0.043601189
0.043329565
0.043013209
0.042654052
0.04225401
0.041813499
0.041333115
0.040813643
0.040256058
0.032343106
0.032846346
0.033348975
0.033841478
0.034340234
0.034838676
0.035335441
0.035830233
0.036322612
0.036812015
0.037297785
0.037779188
0.038255414
0.038725581
0.039188735
0.039643849
0.040089828
0.040525508
0.040949662
0.041361
0.04175818
0.042139806
0.042504439
0.042850599
0.043176778
0.043481441
0.043763041
0.044020025
0.04425085
0.044453996
0.044627971
0.044767593
0.044876954
0.044954139
0.044996422
0.045002567
0.044972112
0.044902855
0.044794171
0.044645419
0.044455907
0.044225082
0.04395822
0.043647027
0.043291373
0.042894048
0.042455394
0.041975949
0.041456449
0.040897851
0.032874917
0.033368556
0.033853151
0.034344963
0.034836712
0.035327771
0.035817875
0.036306694
0.03679379
0.037278619
0.03776054
0.038238827
0.038712674
0.039181197
0.039643437
0.040098357
0.04054485
0.040981737
0.041407773
0.041821648
0.042221995
0.042607392
0.042976371
0.043327419
0.043658992
0.043969518
0.044257407
0.044521064
0.044758903
0.044969372
0.045150981
0.045298315
0.045414972
0.0455
0.045550074
0.045563909
0.045540846
0.045479055
0.045377352
0.045235184
0.045051759
0.044826381
0.044564149
0.044258403
0.043906409
0.043511998
0.043075427
0.042597174
0.042077928
0.033393477
0.033870439
0.03435391
0.034836987
0.035320189
0.035803395
0.036286368
0.036768773
0.037250177
0.037730041
0.038207735
0.038682537
0.039153643
0.039620165
0.040081137
0.040535513
0.040982172
0.041419921
0.041847497
0.042263569
0.042666746
0.043055582
0.043428576
0.043784188
0.044120836
0.044436909
0.044730778
0.045000799
0.045245338
0.045462796
0.045651713
0.045806965
0.045930567
0.046023166
0.046080835
0.046102204
0.046086384
0.046031963
0.045937189
0.045801609
0.045624349
0.045404538
0.04514641
0.044846351
0.044498267
0.044106957
0.043672669
0.043195839
0.042677147
0.033899059
0.034369999
0.034842376
0.035315668
0.035789845
0.036264773
0.036740213
0.037215827
0.03769118
0.038165738
0.038638874
0.039109867
0.039577911
0.040042113
0.040501499
0.040955013
0.041401521
0.041839814
0.04226861
0.042686559
0.043092247
0.0434842
0.043860892
0.044220748
0.044562154
0.044883462
0.045182999
0.045459075
0.045709988
0.045934022
0.046129381
0.046293781
0.046423675
0.046523378
0.046588411
0.04661713
0.046608389
0.046561203
0.046473276
0.046344256
0.046173288
0.045959804
0.045704059
0.045409824
0.045066373
0.044678294
0.044246448
0.043771231
0.043253311
0.034396775
0.034855867
0.035317116
0.035780189
0.036244958
0.036711255
0.037178829
0.037647336
0.038116339
0.038585302
0.039053596
0.039520501
0.039985204
0.040446807
0.040904326
0.041356694
0.041802765
0.042241311
0.042671033
0.043090561
0.043498457
0.043893223
0.044273304
0.044637096
0.044982951
0.045309185
0.045614086
0.045895919
0.046152932
0.046383359
0.046585406
0.046757273
0.046893916
0.047000499
0.047072688
0.047108558
0.047106733
0.047066583
0.046985391
0.046862798
0.046697911
0.046490013
0.046238596
0.045949043
0.045610377
0.045225608
0.04479632
0.044322866
0.043805903
0.034880118
0.035327265
0.035777241
0.036229832
0.036684912
0.037142305
0.037601751
0.0380629
0.038525309
0.03898844
0.03945166
0.039914242
0.040375368
0.040834133
0.041289542
0.041740516
0.042185892
0.04262443
0.043054809
0.04347564
0.043885463
0.044282754
0.044665931
0.045033361
0.045383364
0.045714223
0.046024187
0.046311484
0.046574322
0.046810901
0.047019423
0.047198129
0.047341383
0.047454598
0.047533724
0.047576525
0.047581504
0.047548054
0.047473526
0.047357194
0.047198217
0.046995742
0.046749066
0.046463922
0.046130125
0.045748691
0.045322042
0.044850467
0.035348599
0.035783579
0.036222109
0.036664023
0.037109213
0.037557502
0.038008624
0.038462224
0.038917853
0.039374967
0.039832926
0.040290998
0.040748356
0.041204083
0.041657175
0.042106539
0.042550997
0.042989292
0.043420086
0.043841968
0.044253456
0.044653001
0.045038997
0.045409781
0.045763642
0.046098832
0.046413565
0.046706032
0.046974408
0.047216863
0.04743157
0.047616738
0.047766356
0.047885911
0.047971739
0.04802124
0.048032859
0.048005826
0.047937808
0.047827582
0.047674378
0.047477237
0.047235335
0.046954412
0.046625584
0.046247495
0.045823556
0.045354053
0.035801652
0.036224276
0.036651214
0.037082314
0.037517478
0.037956529
0.038399195
0.038845114
0.039293831
0.039744794
0.040197354
0.040650771
0.041104208
0.041556738
0.042007342
0.042454914
0.042898261
0.043336108
0.0437671
0.044189804
0.044602717
0.045004266
0.045392819
0.045766686
0.046124128
0.046463364
0.046782576
0.047079922
0.047353545
0.047601581
0.047822176
0.048013496
0.048169221
0.048294796
0.048387078
0.048443038
0.048461077
0.048440223
0.048378521
0.048274237
0.048126681
0.047934796
0.04769761
0.047420591
0.047096821
0.046722108
0.046300926
0.045833546
0.036238755
0.036648903
0.037064158
0.037484365
0.03790943
0.038339168
0.038773304
0.039211467
0.039653191
0.040097916
0.040544985
0.040993645
0.041443049
0.041892257
0.042340237
0.042785868
0.043227942
0.043665164
0.044096162
0.044519483
0.044933602
0.045336923
0.04572779
0.046104485
0.046465241
0.046808248
0.047131657
0.047433594
0.047712168
0.047965488
0.048191672
0.048388857
0.048550448
0.048681715
0.048780188
0.048842352
0.048866566
0.048851659
0.04879606
0.048697544
0.048555508
0.048368838
0.04813641
0.047862612
0.047543916
0.047172764
0.04675437
0.046289151
0.036659464
0.037057091
0.037460635
0.037869932
0.038284882
0.038705293
0.039130879
0.03956126
0.03999596
0.040434407
0.040875934
0.041319776
0.041765073
0.042210871
0.042656124
0.043099696
0.043540361
0.043976809
0.044407646
0.044831402
0.045246529
0.04565141
0.046044362
0.046423645
0.046787464
0.047133979
0.047461311
0.047767555
0.048050789
0.048309091
0.048540559
0.04874333
0.048910589
0.049047215
0.049151602
0.0492197
0.04924983
0.04924063
0.049190902
0.049097964
0.048961304
0.048779837
0.048552804
0.048280573
0.047966884
0.047599808
0.047184222
0.046721193
0.037063429
0.037448561
0.037840429
0.038238858
0.038643736
0.039054858
0.039471927
0.039894549
0.040322238
0.040754409
0.041190384
0.041629383
0.042070534
0.042512867
0.042955322
0.043396745
0.043835894
0.044271442
0.044701977
0.045126007
0.045541965
0.045948211
0.046343041
0.046724687
0.04709133
0.047441101
0.047772093
0.048082369
0.048369973
0.048632953
0.048869384
0.049077442
0.049250282
0.049391927
0.04950192
0.049575664
0.049611444
0.04960771
0.049563594
0.04947603
0.049344533
0.049167989
0.048945523
0.048676552
0.048366747
0.048003737
0.047590928
0.047130093
0.037450394
0.037823123
0.038203409
0.038591069
0.038985972
0.039387896
0.039796526
0.040211458
0.04063219
0.041058127
0.041488575
0.041922742
0.04235974
0.042798584
0.043238197
0.043677409
0.044114962
0.044549509
0.044979621
0.045403787
0.045820418
0.046227854
0.046624367
0.047008168
0.047377411
0.0477302
0.0480646
0.048378642
0.048670337
0.048937688
0.04917873
0.049391663
0.049570299
0.049716564
0.049831783
0.049910881
0.049952032
0.049953547
0.049914722
0.049832357
0.049705787
0.049533917
0.049315738
0.049050409
0.048744123
0.048385113
0.047975013
0.047516354
0.0378202
0.038180673
0.038549526
0.038926569
0.039311645
0.039704508
0.040104823
0.040512171
0.040926039
0.041345818
0.0417708
0.042200177
0.042633045
0.043068403
0.043505158
0.043942123
0.044378021
0.044811489
0.045241079
0.045665261
0.046082426
0.046490894
0.046888915
0.047274677
0.047646309
0.048001892
0.048339461
0.048657018
0.048952536
0.049223969
0.049469248
0.049686182
0.049871699
0.050021878
0.050141869
0.050226021
0.050272265
0.05027884
0.050244954
0.050167595
0.050045733
0.049878326
0.049664259
0.049402578
0.049099587
0.04874453
0.048337058
0.047880542
0.038172788
0.038521192
0.038878804
0.039245432
0.039620879
0.04000486
0.040397023
0.040796932
0.041204061
0.041617789
0.042037394
0.042462051
0.042890839
0.043322742
0.043756646
0.044191349
0.044625557
0.045057888
0.045486877
0.045910973
0.046328551
0.046737909
0.047137278
0.047524822
0.047898648
0.048256813
0.048597326
0.048918159
0.049217254
0.049492524
0.049741853
0.04996305
0.050153815
0.05030834
0.050432844
0.050521784
0.050572857
0.050584252
0.050555032
0.050482448
0.050365082
0.050201947
0.049991843
0.049733704
0.049433748
0.049082604
0.048677688
0.048223281
0.038508248
0.038844719
0.039191338
0.039547799
0.039913858
0.040289178
0.040673385
0.041066029
0.041466574
0.041874387
0.042288731
0.042708764
0.043133548
0.043562046
0.04399313
0.044425578
0.044858079
0.045289234
0.045717559
0.046141487
0.046559373
0.046969496
0.047370066
0.047759227
0.048135066
0.048495615
0.048838858
0.049162743
0.049465183
0.049744061
0.049997237
0.050222547
0.050417858
0.050576632
0.050705414
0.05079889
0.050854538
0.050870504
0.050845699
0.050777654
0.050664575
0.050505534
0.050299263
0.050044556
0.049747239
0.049399969
0.048997574
0.04854524
0.038826974
0.039151298
0.039487284
0.039833868
0.04019083
0.04055774
0.040934217
0.041319796
0.041713937
0.042115995
0.042525218
0.042940746
0.04336162
0.043786787
0.044215099
0.044645317
0.045076113
0.04550607
0.045933686
0.046357378
0.046775481
0.047186257
0.047587897
0.047978526
0.048356208
0.048718955
0.049064729
0.049391453
0.049697016
0.049979277
0.05023608
0.050465261
0.050664706
0.050827506
0.050960316
0.051058081
0.051118051
0.05113834
0.051117708
0.051053967
0.050944965
0.050789846
0.050587313
0.050336062
0.050040653
0.049697228
0.049297436
0.048847127
0.03825443
0.038533147
0.038824496
0.039130267
0.039440819
0.039766889
0.040103879
0.040452095
0.040810871
0.041179869
0.041558604
0.041946541
0.042343026
0.042747287
0.043158448
0.043575528
0.043997454
0.044423061
0.04485109
0.045280197
0.045708949
0.046135826
0.046559227
0.046977471
0.047388803
0.047791394
0.048183352
0.048562721
0.048927493
0.04927561
0.049604971
0.049913444
0.050198869
0.050459069
0.050691871
0.050895139
0.051061721
0.051198301
0.051300107
0.051364153
0.051388517
0.051371822
0.051312149
0.051207011
0.051055631
0.050856755
0.05060948
0.050314409
0.049974969
0.049578026
0.049129683
0.038574725
0.03884123
0.039120633
0.039413453
0.039717871
0.040031032
0.040358084
0.040698023
0.041048936
0.041410728
0.041782852
0.042164803
0.042555915
0.042955394
0.043362343
0.043775759
0.044194551
0.044617532
0.045043429
0.045470878
0.04589843
0.046324549
0.046747619
0.047165941
0.047577742
0.047981179
0.04837434
0.048755252
0.049121887
0.049472169
0.049803976
0.050115156
0.05040353
0.050666903
0.050903083
0.051109906
0.051280028
0.051420118
0.051525723
0.0515936
0.051621798
0.051608808
0.051552968
0.051451474
0.051303618
0.05110813
0.050864044
0.050570815
0.050234229
0.049840104
0.049393662
0.038877438
0.039131638
0.039399295
0.039680471
0.039974338
0.04028005
0.0406008
0.040929093
0.041272326
0.041627218
0.041992964
0.042369164
0.04275512
0.043150011
0.043552916
0.043962814
0.04437859
0.044799039
0.04522287
0.045648704
0.046075074
0.04650043
0.046923138
0.047341485
0.047753682
0.048157869
0.048552118
0.04893444
0.049302788
0.049655067
0.049989139
0.050302832
0.050593949
0.050860277
0.051099603
0.051309736
0.051483164
0.051626513
0.051735677
0.051807148
0.051838944
0.05182943
0.051777189
0.05167912
0.051534565
0.051342215
0.051101
0.050810038
0.050475895
0.050084456
0.049639831
0.039162562
0.039404747
0.039661086
0.039931467
0.040215497
0.040512866
0.040824582
0.041149193
0.041482234
0.0418298
0.042189372
0.042560076
0.042941113
0.043331622
0.043730667
0.044137202
0.044550091
0.044968112
0.045389955
0.045814226
0.046239442
0.046664037
0.047086364
0.047504693
0.047917222
0.048322075
0.048717307
0.049100915
0.049470835
0.049824955
0.050161121
0.050477143
0.050770806
0.05103988
0.051282131
0.051495343
0.051671854
0.051818221
0.051930712
0.052005544
0.052040707
0.052034448
0.051985575
0.051890716
0.051749246
0.051559813
0.051321274
0.051032645
0.050700748
0.050311863
0.049868954
0.039430329
0.039660949
0.039906471
0.040166704
0.040441421
0.040730423
0.041033914
0.041351101
0.041681415
0.042020069
0.042372507
0.042738009
0.043114382
0.043500723
0.043896097
0.044299435
0.044709577
0.045125281
0.045545223
0.045967991
0.046392089
0.046815936
0.047237869
0.047656148
0.048068953
0.048474396
0.048870517
0.049255297
0.049626658
0.049982472
0.05032057
0.050638745
0.050934766
0.051206386
0.051451354
0.051667427
0.05184681
0.051995961
0.052111556
0.052189524
0.052227831
0.052224614
0.052178877
0.052087026
0.051948432
0.051761714
0.051525678
0.051239326
0.050909577
0.050523155
0.050081863
0.039681075
0.039900653
0.040135889
0.040386542
0.040652428
0.040933345
0.041229179
0.04153938
0.041863432
0.042200625
0.042543533
0.042903448
0.043275426
0.043657816
0.044049717
0.044450029
0.044857569
0.045271076
0.045689209
0.046110541
0.046533563
0.046956681
0.047378218
0.047796419
0.048209454
0.048615419
0.049012343
0.04939819
0.049770871
0.050128242
0.050468118
0.05078828
0.051086481
0.051360458
0.051607942
0.051826673
0.052008725
0.052160441
0.052278924
0.05235981
0.052401043
0.05240067
0.052357828
0.052268806
0.052132883
0.051948687
0.051714982
0.051430808
0.0399152
0.040124298
0.040349792
0.040591402
0.04084894
0.041122165
0.041410825
0.041714456
0.04203266
0.042365754
0.042705025
0.043057184
0.043424763
0.043803401
0.044192033
0.044589498
0.044994586
0.04540602
0.045822441
0.046242411
0.046664406
0.047086819
0.047507961
0.047926067
0.048339291
0.048745719
0.049143367
0.049530186
0.049904073
0.050262871
0.050604383
0.050926374
0.051226585
0.051502738
0.051752551
0.051973744
0.052158275
0.052312346
0.05243351
0.052517105
0.052561051
0.052563351
0.052523154
0.052436781
0.052303341
0.052121482
0.051889938
0.040133154
0.04033235
0.040548653
0.040781753
0.041031428
0.041297397
0.041579328
0.041876768
0.042189245
0.042516268
0.042855162
0.043202216
0.043562841
0.04393797
0.044323549
0.044718352
0.045121144
0.045530631
0.045945442
0.046364125
0.046785145
0.047206883
0.047627639
0.048045635
0.048459016
0.048865854
0.049264154
0.049651856
0.050026844
0.05038695
0.050729962
0.051053633
0.051355693
0.051633851
0.051885812
0.052109284
0.052296115
0.052452346
0.052575992
0.052662096
0.052708552
0.052713346
0.052675575
0.052591667
0.052460531
0.052280834
0.052051326
0.040335432
0.040525308
0.040732973
0.040958091
0.041200394
0.041459558
0.041735195
0.042026831
0.042333929
0.042655794
0.04299086
0.04333851
0.043690918
0.044062015
0.044444767
0.044837096
0.045237749
0.045645418
0.046058722
0.046476197
0.046896298
0.047317394
0.047737775
0.048155653
0.048569162
0.048976364
0.049375251
0.049763755
0.050139747
0.050501047
0.050845432
0.051170644
0.0514744
0.051754401
0.05200834
0.052233917
0.05242288
0.052581088
0.052707027
0.052795446
0.052844222
0.052851325
0.052815786
0.052734159
0.052605159
0.052427456
0.05219984
0.040522659
0.040703692
0.04090327
0.041120934
0.041356359
0.041609172
0.041878944
0.042165173
0.042467281
0.042784556
0.043116042
0.043462019
0.043810875
0.044175974
0.044556185
0.044946229
0.045344898
0.045750879
0.04616278
0.046579128
0.046998367
0.047418857
0.04783888
0.048256635
0.048670249
0.049077773
0.04947719
0.04986642
0.050243325
0.050605715
0.050951354
0.051277974
0.051583281
0.051864968
0.052120723
0.052348242
0.052539185
0.052699199
0.052827248
0.052917798
0.05296871
0.052977942
0.052944455
0.052864935
0.05273791
0.052562061
0.0523362
0.040696465
0.040868011
0.041060078
0.041270818
0.041499854
0.04174677
0.042011102
0.042292317
0.042589812
0.04290289
0.043230838
0.043574047
0.043922288
0.044280941
0.044658309
0.045046238
0.04544308
0.045847501
0.046258104
0.046673405
0.047091841
0.047511764
0.047931446
0.048349078
0.048762777
0.049170586
0.04957048
0.049960368
0.050338102
0.050701482
0.051048264
0.051376167
0.051682889
0.051966114
0.052223529
0.052452835
0.052645622
0.052807286
0.052937266
0.053029769
0.053082641
0.053093828
0.053062226
0.052984645
0.052859446
0.052685327
0.052461105
0.040857258
0.041019167
0.041203947
0.041408288
0.041631419
0.041872887
0.042132194
0.042408781
0.042702024
0.043011225
0.043335673
0.043674814
0.044024802
0.044378743
0.044751512
0.0451376
0.045532771
0.045935759
0.046345166
0.046759501
0.047177194
0.047596588
0.048015949
0.048433459
0.048847229
0.049255291
0.049655613
0.050046095
0.050424581
0.050788861
0.05113668
0.051465749
0.051773756
0.052058377
0.052317299
0.052548243
0.052742768
0.052905936
0.053037667
0.053131955
0.053186619
0.053199594
0.053169717
0.053093917
0.052970402
0.052797893
0.052575218
0.041003439