/*--------------------------------*- C++ -*----------------------------------*\
| =========                 |                                                 |
| \\      /  F ield         | OpenFOAM: The Open Source CFD Toolbox           |
|  \\    /   O peration     | Version:  2312                                  |
|   \\  /    A nd           | Website:  www.openfoam.com                      |
|    \\/     M anipulation  |                                                 |
\*---------------------------------------------------------------------------*/
FoamFile
{
    version     2.0;
    format      ascii;
    arch        "LSB;label=32;scalar=64";
    class       volScalarField;
    location    "0.04";
    object      Ma;
}
// * * * * * * * * * * * * * * * * * * * * * * * * * * * * * * * * * * * * * //

dimensions      [0 0 0 0 0 0 0];

internalField   nonuniform List<scalar> 
3272
(
0.0034177262
0.0034431986
0.00346792
0.0034917805
0.0035146744
0.0035365046
0.003557179
0.0035765981
0.0035946258
0.0036113616
0.0036264519
0.0036399379
0.0036518812
0.0036622648
0.0036711069
0.0036780498
0.0036831634
0.0036864415
0.0036878901
0.0036875067
0.0036852843
0.0036812181
0.0036753085
0.0036675609
0.0036579868
0.0036466033
0.0036334312
0.003618493
0.0036018103
0.0035834801
0.0035634592
0.0035418248
0.0035186516
0.0034939065
0.0034676655
0.0034399857
0.0034109284
0.0033805571
0.0033489356
0.0033161291
0.0032822036
0.0032472238
0.0032112593
0.0031743784
0.0031366516
0.0030981499
0.003058945
0.0030191087
0.0029787131
0.0029378304
0.002896532
0.0028548903
0.00281298
0.0033912988
0.0034153391
0.0034385506
0.0034608268
0.0034820658
0.0035021749
0.0035210718
0.0035386729
0.0035548539
0.003569705
0.003582881
0.0035944157
0.0036042984
0.0036126444
0.0036192644
0.0036240092
0.003626995
0.0036281769
0.0036275345
0.0036250596
0.0036207483
0.0036146013
0.003606624
0.0035968272
0.003585227
0.0035718445
0.0035567059
0.0035398393
0.0035212691
0.0035010846
0.0034792439
0.0034558311
0.0034309308
0.0034045219
0.0033766839
0.003347473
0.0033169479
0.0032851706
0.0032522055
0.0032181186
0.0031829775
0.003146847
0.003109799
0.0030719022
0.0030332277
0.0029938468
0.0029538315
0.0029132536
0.002872185
0.0028306972
0.002788861
0.0027467463
0.0027044261
0.0033931708
0.0034162699
0.0034384577
0.0034596308
0.0034796912
0.003498551
0.003516133
0.0035323602
0.00354712
0.0035604994
0.0035721648
0.0035821858
0.0035905217
0.0035972638
0.0036021923
0.003605239
0.0036065259
0.003606005
0.0036036554
0.0035994706
0.00359345
0.0035855977
0.003575923
0.0035644403
0.0035511689
0.0035361331
0.0035193623
0.0035008883
0.0034807378
0.0034590001
0.0034356352
0.0034107268
0.0033843655
0.0033565371
0.0033273229
0.0032967819
0.0032649719
0.0032319546
0.0031977945
0.0031625586
0.0031263152
0.0030891296
0.0030510746
0.0030122197
0.0029726361
0.0029323955
0.0028915699
0.0028502312
0.0028084509
0.0027663004
0.0027238498
0.0026811683
0.002638328
0.0034094106
0.0034315591
0.0034526977
0.0034727275
0.0034915562
0.0035091033
0.0035252971
0.0035400581
0.0035533083
0.0035650989
0.0035751167
0.0035834767
0.0035901118
0.003595112
0.0035982329
0.003599469
0.0035989194
0.0035965477
0.003592339
0.0035862909
0.0035784069
0.0035686951
0.003557169
0.0035438468
0.0035287512
0.0035119102
0.0034933563
0.0034731244
0.0034512437
0.0034278059
0.0034027741
0.0033762303
0.0033482695
0.003318882
0.0032881496
0.003256136
0.0032228992
0.0031885015
0.0031530077
0.0031164854
0.003079004
0.0030406286
0.0030014331
0.0029614871
0.0029208622
0.0028796303
0.0028378633
0.0027956329
0.0027530104
0.0027100667
0.0026668715
0.0026234932
0.0025800032
0.0034391581
0.0034603207
0.0034803597
0.0034991815
0.0035166993
0.0035328443
0.0035475614
0.0035607527
0.0035725102
0.003582563
0.0035907851
0.003597344
0.003602135
0.0036052491
0.0036064307
0.0036057339
0.0036032195
0.0035988646
0.0035926624
0.0035846157
0.0035747324
0.0035630256
0.003549513
0.0035342169
0.0035171642
0.003498386
0.0034779185
0.0034558
0.0034320616
0.0034067975
0.0033799749
0.0033516733
0.0033219924
0.0032909261
0.0032585545
0.0032249474
0.0031901635
0.0031542656
0.0031173193
0.0030793928
0.0030405562
0.0030008747
0.0029604226
0.0029192696
0.0028774878
0.002835149
0.0027923249
0.002749087
0.0027055063
0.002661653
0.0026175964
0.0025734041
0.0025291464
0.0034816759
0.0035018008
0.003520678
0.0035382187
0.003554338
0.0035689751
0.0035821092
0.0035936806
0.0036037724
0.0036120111
0.00361838
0.003623004
0.0036258295
0.0036269254
0.0036260425
0.0036232937
0.0036186983
0.0036122446
0.0036039337
0.0035937738
0.003581778
0.0035679641
0.0035523543
0.0035349752
0.0035158576
0.0034950365
0.0034725516
0.0034484443
0.0034227478
0.0033955587
0.0033668487
0.0033366939
0.0033051993
0.0032723622
0.0032382582
0.0032029655
0.0031665428
0.0031290535
0.003090564
0.0030511428
0.0030108611
0.0029697837
0.002927985
0.0028855352
0.0028425062
0.0027989696
0.0027549972
0.0027106598
0.002666028
0.0026211715
0.0025761587
0.0025310566
0.0024859344
0.0035359856
0.003555001
0.0035726401
0.0035888197
0.0036034464
0.0036164454
0.0036278363
0.0036376555
0.00364598
0.0036523241
0.0036567464
0.0036593037
0.0036601357
0.0036590556
0.0036559788
0.0036510621
0.003644276
0.0036356165
0.0036250921
0.0036127163
0.0035985075
0.0035824882
0.0035646854
0.0035451297
0.0035238558
0.0035009025
0.003476313
0.0034501322
0.0034223949
0.0033931999
0.0033625241
0.0033304392
0.0032970559
0.0032623764
0.0032264662
0.0031894155
0.0031512826
0.0031121309
0.0030720273
0.0030310411
0.0029892441
0.0029467007
0.0029034853
0.0028596681
0.0028153208
0.0027705151
0.0027253219
0.0026798118
0.0026340547
0.0025881195
0.002542074
0.0024959842
0.0024499183
0.0036010721
0.0036188836
0.0036351911
0.0036499227
0.0036629732
0.0036742312
0.0036837181
0.0036916065
0.0036979873
0.0037023272
0.003704711
0.0037051441
0.0037038031
0.0037004497
0.0036951251
0.0036879318
0.0036788514
0.0036678873
0.0036550539
0.0036403704
0.0036238599
0.0036055498
0.0035854714
0.0035636594
0.0035401523
0.0035149924
0.0034882263
0.0034599026
0.0034300579
0.0033987917
0.0033660873
0.0033320119
0.00329668
0.0032601061
0.0032223352
0.0031834712
0.0031435739
0.0031027064
0.0030609358
0.0030183318
0.0029749672
0.0029309054
0.0028862206
0.0028409829
0.002795264
0.0027491348
0.0027026657
0.0026559268
0.002608987
0.0025619146
0.0025147764
0.0024676376
0.0024205652
0.0036759047
0.0036923754
0.003707203
0.0037203336
0.0037316959
0.0037411943
0.0037487658
0.0037547197
0.0037588251
0.0037609608
0.0037611464
0.0037593652
0.0037557421
0.0037500308
0.0037423748
0.0037328126
0.0037213462
0.0037079894
0.0036927627
0.0036756908
0.0036568019
0.0036361281
0.0036137049
0.0035895709
0.0035637678
0.0035363412
0.0035073412
0.0034768204
0.0034448183
0.0034114321
0.0033766544
0.0033405461
0.0033032022
0.0032646952
0.0032250342
0.0031843207
0.0031426217
0.0031000013
0.0030565272
0.0030122691
0.0029673007
0.0029216845
0.002875494
0.002828799
0.0027816708
0.0027341798
0.0026863957
0.0026383876
0.0025902236
0.0025419709
0.0024936953
0.0024454619
0.0023973356
0.0037594912
0.0037744732
0.0037876706
0.0037990482
0.0038085631
0.0038161478
0.003821769
0.0038256113
0.0038273988
0.0038272331
0.0038250585
0.0038210188
0.003814923
0.0038067598
0.0037966684
0.0037846466
0.0037707095
0.0037548802
0.0037371854
0.003717655
0.0036963222
0.0036732237
0.0036483988
0.0036218898
0.0035937415
0.0035640019
0.0035327237
0.0034999637
0.0034657674
0.0034302226
0.0033933413
0.0033551626
0.0033157951
0.0032753188
0.0032337409
0.0031911542
0.0031476317
0.003103237
0.0030580378
0.0030121041
0.0029655107
0.0029183186
0.0028706005
0.0028224257
0.0027738653
0.0027249887
0.0026758648
0.0026265615
0.002577146
0.0025276841
0.0024782404
0.003850852
0.0038641837
0.0038755935
0.0038850678
0.0038925872
0.0038980673
0.0039016812
0.0039031897
0.0039026076
0.0039000409
0.0038954454
0.0038889398
0.00388028
0.0038696038
0.0038569769
0.0038424088
0.0038259235
0.0038075505
0.0037873221
0.0037652731
0.0037414416
0.0037158682
0.0036885963
0.0036596714
0.0036291413
0.0035970565
0.0035634712
0.0035284445
0.0034920341
0.0034542787
0.0034152786
0.0033750227
0.0033336205
0.0032911595
0.0032476517
0.0032031797
0.003157824
0.0031116461
0.0030647134
0.0030170955
0.0029688684
0.0029200919
0.0028708371
0.0028211731
0.0027711702
0.0027208969
0.002670421
0.0026198093
0.0025691277
0.0025184404
0.0024678126
0.0039490287
0.0039605356
0.0039699915
0.0039774043
0.003982765
0.0039860484
0.0039873732
0.003986428
0.0039834106
0.0039783147
0.0039712868
0.003962129
0.003950832
0.0039375545
0.0039223074
0.0039051163
0.0038860139
0.003865035
0.0038422169
0.003817599
0.0037912238
0.0037631357
0.0037333815
0.0037020099
0.0036690717
0.0036346194
0.0035987087
0.0035613991
0.0035227491
0.0034827984
0.0034416585
0.0033993154
0.0033558753
0.0033114247
0.0032659885
0.0032196308
0.0031724431
0.0031244843
0.0030758206
0.0030265213
0.0029766626
0.0029263043
0.0028755149
0.0028243635
0.002772919
0.0027212491
0.0026694202
0.0026174979
0.0025655467
0.0025136294
0.0024618094
0.004053085
0.0040625781
0.0040699057
0.0040750911
0.0040781012
0.004079141
0.0040779
0.0040744087
0.0040688263
0.004061154
0.0040515027
0.0040396061
0.0040256331
0.0040096623
0.0039917187
0.003971838
0.003950059
0.0039264214
0.0039009669
0.0038737396
0.0038447855
0.0038141526
0.0037818907
0.0037480515
0.0037126881
0.0036758554
0.0036376105
0.0035980136
0.0035571243
0.0035149829
0.0034717046
0.0034272768
0.0033818071
0.0033353554
0.0032880062
0.0032397777
0.0031907683
0.0031410399
0.0030906577
0.0030396904
0.0029882089
0.0029362824
0.0028839702
0.0028313426
0.0027784671
0.0027254102
0.0026722369
0.0026190115
0.0025657969
0.0025126544
0.0024596456
0.0041621053
0.0041693845
0.0041744322
0.0041772402
0.004177804
0.0041762992
0.0041723602
0.0041662156
0.0041579065
0.0041476448
0.0041351727
0.0041204995
0.0041037723
0.004085034
0.0040643293
0.0040417023
0.0040171969
0.0039908573
0.0039627298
0.0039328619
0.0039013033
0.0038681051
0.0038333198
0.0037970014
0.0037592054
0.0037199884
0.0036794091
0.003637529
0.0035944088
0.0035500886
0.0035046833
0.0034581831
0.0034106888
0.003362269
0.0033130134
0.0032629339
0.0032121217
0.0031606431
0.0031085619
0.0030559459
0.0030028645
0.0029493889
0.0028955738
0.0028414892
0.0027872012
0.0027327749
0.0026782739
0.002623761
0.0025692975
0.0025149429
0.002460757
0.0042751955
0.0042799994
0.0042826429
0.0042829774
0.004281056
0.0042766839
0.0042699675
0.0042610165
0.0042499082
0.004236827
0.0042214556
0.0042039638
0.0041844053
0.0041628393
0.0041393214
0.0041139023
0.0040866309
0.0040575561
0.004026728
0.0039941979
0.0039600185
0.0039242436
0.0038869282
0.0038481283
0.003807901
0.0037663047
0.0037233993
0.0036792474
0.0036339114
0.003587431
0.003539918
0.0034913671
0.0034418692
0.0033915063
0.0033403664
0.0032884631
0.0032358742
0.0031826721
0.0031289184
0.0030746804
0.0030200265
0.0029650284
0.0029097373
0.0028542218
0.0027985464
0.0027427752
0.0026869701
0.0026311921
0.0025755009
0.0025199543
0.00246461
0.0043915899
0.0043935271
0.004393558
0.0043915851
0.0043868224
0.0043795043
0.0043698957
0.0043580157
0.0043440922
0.0043279392
0.0043096304
0.0042892263
0.0042667696
0.0042423239
0.0042159493
0.0041877013
0.0041576334
0.004125799
0.004092252
0.004057047
0.0040202393
0.0039818852
0.0039420416
0.0039007662
0.0038581175
0.0038141549
0.0037689392
0.0037225341
0.0036750037
0.0036263889
0.0035767945
0.0035262225
0.0034747487
0.0034224727
0.0033694749
0.0033157813
0.0032614483
0.0032065556
0.0031511624
0.0030953353
0.0030391416
0.0029826533
0.0029259189
0.0028690039
0.0028119721
0.002754886
0.002697806
0.002640791
0.002583899
0.0025271861
0.0024707079
0.0045106642
0.0045094378
0.0045064691
0.0045019601
0.0044942527
0.0044839472
0.004471319
0.004456566
0.0044395358
0.0044203116
0.0043989922
0.0043755986
0.0043501833
0.0043228101
0.0042935406
0.0042624336
0.0042295466
0.0041949368
0.0041586611
0.0041207769
0.0040813419
0.0040404142
0.0039980524
0.0039543154
0.0039092627
0.0038629545
0.0038154518
0.0037668185
0.0037171202
0.0036664034
0.0036147569
0.0035622021
0.0035087902
0.0034546416
0.0033998027
0.0033443605
0.0032883217
0.0032317758
0.0031747817
0.0031174039
0.003059708
0.0030017666
0.0029436261
0.002885348
0.0028269952
0.0027686289
0.0027103075
0.0026520882
0.0025940271
0.0025361783
0.0024785953
0.0046313352
0.004627473
0.0046214327
0.0046133352
0.0046025509
0.004589197
0.0045736441
0.0045557684
0.0045355809
0.0045132755
0.0044888798
0.004462441
0.0044340198
0.0044036806
0.0043714867
0.0043374995
0.0043017798
0.0042643873
0.0042253818
0.0041848226
0.0041427693
0.0040992814
0.0040544188
0.0040082414
0.0039608092
0.003912183
0.0038624238
0.0038115949
0.003759762
0.0037069845
0.0036532972
0.0035988061
0.0035435068
0.0034875228
0.0034309016
0.0033737376
0.0033160327
0.0032578733
0.0031993203
0.0031404343
0.003081278
0.0030219233
0.0029624176
0.0029028163
0.0028431817
0.0027835734
0.002724048
0.0026646608
0.0026054658
0.0025465152
0.0024878605
0.0047529576
0.0047463427
0.0047370588
0.0047254658
0.004711386
0.004694863
0.0046761479
0.0046550051
0.0046316704
0.0046062164
0.0045786962
0.0045491724
0.0045177115
0.0044843798
0.0044492427
0.0044123643
0.0043738074
0.0043336341
0.004291906
0.0042486841
0.0042040293
0.0041580022
0.0041106634
0.0040620732
0.0040122923
0.0039613812
0.003909401
0.003856414
0.0038024842
0.0037476721
0.0036920095
0.0036356131
0.0035784707
0.0035206989
0.0034623453
0.0034035023
0.0033441757
0.0032844457
0.0032243781
0.0031640287
0.0031034579
0.0030427288
0.0029819029
0.0029210215
0.0028601472
0.0027993378
0.0027386485
0.0026781326
0.002617842
0.0025578267
0.0048751458
0.0048652096
0.0048526194
0.0048375954
0.0048201085
0.0048003727
0.0047782195
0.0047538171
0.0047272536
0.0046985966
0.0046679143
0.0046352767
0.0046007538
0.0045644147
0.0045263267
0.0044865558
0.0044451668
0.0044022234
0.0043577884
0.0043119241
0.0042646921
0.0042161537
0.0041663698
0.0041154009
0.0040633076
0.0040101502
0.0039559893
0.0039008861
0.0038449036
0.0037881021
0.0037305131
0.0036722547
0.0036133149
0.0035538025
0.0034937674
0.0034332937
0.0033723953
0.0033111411
0.0032496054
0.0031878388
0.0031258987
0.0030638449
0.0030017418
0.0029396252
0.0028775551
0.0028155879
0.0027537769
0.0026921733
0.0026308273
0.0025697866
0.0049970519
0.0049836288
0.0049676089
0.0049490846
0.0049282579
0.0049049787
0.0048794312
0.0048516962
0.0048218421
0.0047899422
0.0047560704
0.0047203001
0.0046827042
0.0046433534
0.0046023169
0.0045596622
0.0045154554
0.0044697611
0.0044226432
0.0043741643
0.0043243866
0.0042733715
0.0042211799
0.0041678721
0.0041135084
0.0040581484
0.0040018519
0.0039446792
0.0038866922
0.0038279512
0.0037684872
0.0037084154
0.003647727
0.0035865217
0.0035248568
0.0034628011
0.0034003844
0.0033376564
0.0032747014
0.0032115661
0.0031483046
0.0030849744
0.0030216406
0.0029583354
0.002895115
0.0028320345
0.0027691455
0.0027064973
0.0026441376
0.0025821121
0.0051181429
0.0051011361
0.0050815258
0.0050595556
0.0050350821
0.0050083024
0.0049793139
0.00494819
0.0049150052
0.0048798357
0.0048427577
0.0048038468
0.0047631772
0.0047208211
0.0046768487
0.0046313283
0.0045843267
0.0045359092
0.0044861399
0.0044350816
0.0043827965
0.0043293456
0.0042747895
0.0042191882
0.0041626009
0.0041050866
0.0040467042
0.0039875126
0.0039275727
0.0038669452
0.00380566
0.0037438272
0.0036814431
0.0036185958
0.003555358
0.0034917583
0.0034278799
0.003363735
0.0032994115
0.0032349576
0.0031704242
0.0031058664
0.0030413497
0.0029769036
0.0029125796
0.0028484315
0.0027845094
0.0027208604
0.0026575301
0.0025945619
0.0052379727
0.0052172239
0.0051940471
0.0051683161
0.0051402403
0.0051099202
0.0050774464
0.0050429009
0.0050063628
0.0049679106
0.0049276222
0.0048855742
0.0048418413
0.0047964965
0.0047496103
0.0047012514
0.0046514868
0.0046003817
0.0045479999
0.0044944042
0.0044396561
0.0043838162
0.0043269444
0.0042690996
0.0042103404
0.0041507246
0.0040903097
0.0040291533
0.003967315
0.0039048555
0.0038418058
0.003778266
0.0037142411
0.0036498043
0.0035850393
0.0035199652
0.0034546715
0.0033891634
0.003323523
0.0032578019
0.0031920474
0.0031263117
0.0030606602
0.0029951218
0.0029297414
0.0028645722
0.0027996624
0.0027350575
0.0026708002
0.0053560878
0.0053315806
0.0053045094
0.0052750711
0.00524335
0.0052094499
0.0051734652
0.0051354825
0.005095584
0.0050538501
0.0050103596
0.0049651894
0.0049184146
0.0048701078
0.0048203395
0.0047691781
0.0047166901
0.0046629404
0.0046079921
0.0045519073
0.0044947466
0.0044365698
0.0043774357
0.0043174023
0.0042565267
0.0041948658
0.0041324754
0.0040694117
0.0040057322
0.0039414966
0.0038767416
0.0038115474
0.0037459398
0.0036799693
0.0036137314
0.003547241
0.0034805845
0.0034137675
0.0033468625
0.0032799263
0.0032130022
0.0031461391
0.0030794002
0.0030128185
0.0029464297
0.002880286
0.0028144343
0.002748918
0.0026837773
0.0054720431
0.005443558
0.0054126622
0.0053794656
0.0053440649
0.0053065638
0.0052670584
0.0052256376
0.0051823857
0.0051373842
0.0050907122
0.0050424464
0.0049926614
0.004941429
0.0048888192
0.0048348995
0.0047797355
0.0047233911
0.0046659286
0.0046074087
0.0045478912
0.0044874344
0.004426096
0.0043639326
0.004301
0.0042373535
0.0041730477
0.0041081369
0.0040426766
0.0039767242
0.0039103297
0.0038435176
0.003776393
0.0037089501
0.0036412955
0.0035734455
0.0035054796
0.0034374085
0.0033692915
0.0033011927
0.0032331509
0.0031652131
0.0030974309
0.0030298554
0.0029625067
0.0028954354
0.0028286874
0.0027623045
0.0026963243
0.0055853845
0.0055529437
0.0055181732
0.0054811879
0.0054420901
0.0054009823
0.0053579606
0.0053131148
0.0052665299
0.0052182875
0.0051684664
0.0051171423
0.0050643887
0.0050102765
0.0049548742
0.0048982481
0.0048404624
0.0047815798
0.004721661
0.0046607656
0.0045989516
0.0045362761
0.0044727952
0.0044085639
0.0043436365
0.0042780667
0.0042119075
0.0041452115
0.0040780318
0.0040104232
0.0039424368
0.0038740895
0.0038054962
0.0037366391
0.0036676237
0.0035984715
0.0035292477
0.0034599786
0.0033907031
0.0033214936
0.0032523851
0.0031834214
0.0031146498
0.0030461259
0.0029778647
0.0029099123
0.0028423135
0.0027751084
0.0027083323
0.0056958558
0.0056594195
0.0056207514
0.0055799678
0.0055371732
0.0054924687
0.0054459497
0.0053977056
0.0053478208
0.0052963761
0.0052434491
0.0051891141
0.0051334431
0.0050765051
0.005018367
0.0049590934
0.0048987469
0.0048373882
0.0047750766
0.0047118697
0.004647824
0.0045829948
0.0045174364
0.0044512023
0.004384345
0.0043169163
0.0042489676
0.0041805496
0.0041117132
0.0040425108
0.0039729928
0.0039031745
0.0038331694
0.0037629573
0.0036926383
0.0036222449
0.0035518046
0.0034813952
0.003411018
0.0033407497
0.0032706252
0.0032006851
0.003130974
0.0030615489
0.002992422
0.0029236343
0.0028552298
0.0027872465
0.0058031658
0.0057627183
0.00572015
0.0056755767
0.0056291025
0.005580827
0.0055308439
0.005479241
0.0054261013
0.0053715039
0.0053155245
0.0052582355
0.0051997065
0.0051400047
0.0050791946
0.0050173389
0.004954498
0.0048907307
0.0048260941
0.0047606441
0.004694435
0.0046275205
0.0045599527
0.0044917833
0.004423063
0.0043538417
0.0042841689
0.0042140934
0.0041436641
0.004072931
0.004001944
0.0039307164
0.0038593581
0.0037878495
0.0037162833
0.0036446972
0.0035731097
0.0035016067
0.0034301812
0.0033589053
0.0032878151
0.003216948
0.0031463458
0.0030760658
0.0030061195
0.0029365414
0.0028673751
0.0027986565
0.00590707
0.0058626159
0.0058161633
0.0057678257
0.0057177053
0.0056658991
0.0056124984
0.0055575885
0.0055012501
0.0054435599
0.005384591
0.0053244132
0.0052630937
0.0052006969
0.005137285
0.0050729182
0.0050076545
0.0049415504
0.004874661
0.0048070396
0.0047387388
0.0046698098
0.0046003031
0.0045302681
0.0044597535
0.0043888073
0.0043174771
0.0042458097
0.0041738518
0.0041016518
0.0040292583
0.0039566828
0.0038840302
0.0038112836
0.0037385266
0.0036658025
0.003593125
0.0035205798
0.0034481585
0.0033759254
0.0033039194
0.0032321738
0.0031607279
0.0030896385
0.0030189183
0.002948594
0.0028787092
0.0028092978
0.0060073642
0.0059589274
0.005908624
0.0058565637
0.0058028453
0.0057475625
0.005690803
0.0056326493
0.0055731787
0.0055124649
0.0054505777
0.0053875842
0.0053235483
0.0052585317
0.0051925937
0.0051257918
0.0050581814
0.0049898164
0.0049207495
0.0048510317
0.0047807132
0.0047098431
0.0046384696
0.0045666402
0.0044944014
0.0044217992
0.0043488791
0.0042756859
0.0042022644
0.0041286609
0.0040549232
0.0039810612
0.0039071734
0.0038332467
0.0037593552
0.0036855481
0.0036118352
0.0035382993
0.0034649339
0.0033917934
0.0033189203
0.0032463442
0.0031741015
0.0031022458
0.0030307963
0.0029597696
0.0028892085
0.0028191459
0.0061038822
0.0060515051
0.0059974009
0.0059416745
0.0058844201
0.0058257273
0.0057656795
0.0057043553
0.0056418282
0.0055781683
0.0055134418
0.0054477122
0.0053810404
0.0053134845
0.005245101
0.0051759442
0.0051060668
0.0050355201
0.0049643539
0.0048926169
0.004820357
0.0047476208
0.0046744543
0.0046009028
0.0045270107
0.004452822
0.0043783801
0.0043037277
0.0042289076
0.0041539639
0.0040789435
0.0040038561
0.0039287919
0.0038537428
0.0037787721
0.0037039364
0.003629242
0.0035547656
0.0034805067
0.0034065074
0.0033328152
0.0032594555
0.0031864639
0.0031138809
0.0030417458
0.0029700601
0.002898864
0.0028281902
0.006196494
0.006140236
0.0060823966
0.0060230746
0.0059623589
0.0059003339
0.0058370785
0.0057726663
0.0057071668
0.0056406456
0.0055731653
0.0055047855
0.0054355632
0.0053655533
0.0052948088
0.0052233809
0.0051513194
0.0050786726
0.0050054876
0.0049318107
0.004857687
0.004783161
0.0047082762
0.0046330758
0.0045576019
0.0044818966
0.0044060009
0.0043299559
0.0042538019
0.0041775812
0.0041013389
0.0040250869
0.0039489037
0.0038727894
0.0037967945
0.0037209837
0.0036453614
0.0035699914
0.0034948895
0.0034200791
0.0033456141
0.0032715159
0.0031978178
0.0031245555
0.003051774
0.0029794698
0.0029076787
0.0028364327
0.0062851039
0.00622504
0.0061635447
0.0061007102
0.0060366191
0.0059713502
0.0059049767
0.0058375673
0.0057691865
0.0056998956
0.0056297527
0.0055588132
0.0054871304
0.0054147555
0.0053417379
0.0052681257
0.0051939652
0.0051193021
0.0050441806
0.0049686443
0.0048927357
0.0048164969
0.0047399691
0.0046631931
0.0045862092
0.004509057
0.0044317757
0.0043544042
0.004276981
0.0041995457
0.0041221414
0.0040447858
0.0039675367
0.0038904148
0.003813451
0.0037367179
0.0036602238
0.0035839973
0.003508105
0.0034325314
0.0033573382
0.0032825453
0.0032081833
0.0031342848
0.0030608968
0.0029880136
0.0029156659
0.0028438852
0.0063696477
0.0063058667
0.0062408077
0.006174555
0.0061071847
0.0060387688
0.0059693749
0.0058990659
0.0058279013
0.0057559374
0.0056832277
0.0056098235
0.0055357738
0.0054611259
0.0053859258
0.005310218
0.0052340458
0.0051574516
0.0050804769
0.0050031625
0.0049255485
0.0048476743
0.004769579
0.004691301
0.0046128784
0.0045343488
0.0044557494
0.0043771171
0.0042984886
0.0042199011
0.0041413945
0.0040629999
0.0039847238
0.0039066563
0.0038287785
0.0037511744
0.0036738523
0.0035968308
0.0035201871
0.0034438959
0.0033680179
0.0032925727
0.0032175882
0.0031430943
0.0030691386
0.0029957145
0.0029228473
0.0028505681
0.0064500905
0.0063826938
0.0063141743
0.0062446076
0.0061740626
0.0061026047
0.0060302946
0.0059571897
0.0058833438
0.0058088082
0.0057336316
0.0056578607
0.0055815405
0.0055047142
0.005427424
0.0053497111
0.0052716154
0.0051931763
0.0051144324
0.0050354218
0.004956182
0.0048767499
0.0047971623
0.0047174553
0.004637665
0.0045578268
0.0044779761
0.0043981477
0.0043183765
0.0042386974
0.0041591472
0.0040797601
0.0040005311
0.0039215624
0.0038428228
0.0037643974
0.0036862947
0.0036085283
0.0035311764
0.0034542113
0.0033776905
0.0033016342
0.0032260671
0.0031510168
0.0030765305
0.0030026024
0.0029292515
0.0028565084
0.0065264244
0.0064555238
0.0063836569
0.0063108888
0.0062372814
0.0061628924
0.0060877762
0.0060119839
0.0059355635
0.005858561
0.0057810203
0.0057029834
0.005624491
0.0055455824
0.005466296
0.0053866693
0.0053067392
0.0052265418
0.005146113
0.005065488
0.0049847017
0.0049037888
0.0048227836
0.0047417202
0.0046606323
0.0045795535
0.0044985171
0.0044175562
0.0043367037
0.0042559924
0.0041754564
0.0040951304
0.0040150064
0.0039351862
0.0038556353
0.0037764372
0.0036976008
0.0036191358
0.0035411185
0.003463522
0.0033863991
0.0033097712
0.0032336601
0.0031580909
0.0030831093
0.0030087125
0.0029349122
0.0028617386
0.0065986651
0.0065243826
0.0064492891
0.0063734395
0.0062968878
0.0062196843
0.0061418764
0.006063509
0.0059846241
0.0059052622
0.0058254623
0.0057452619
0.0056646972
0.0055838035
0.0055026153
0.0054211667
0.0053394913
0.0052576223
0.0051755925
0.0050934345
0.0050111807
0.0049288634
0.0048465146
0.0047641662
0.0046818499
0.0045995973
0.0045174398
0.0044354087
0.0043535349
0.0042718495
0.0041903843
0.0041091736
0.0040282078
0.0039475854
0.0038672723
0.0037873484
0.0037078238
0.0036287042
0.0035500638
0.0034718768
0.003394191
0.0033170296
0.0032404117
0.00316436
0.0030889157
0.0030140842
0.0029398676
0.0028662953
0.0068948763
0.0068196866
0.0067436621
0.006666846
0.0065893165
0.0065111233
0.006432318
0.006352945
0.0062730477
0.006192666
0.0061118387
0.0060306016
0.0059489896
0.0058670371
0.0057847767
0.0057022402
0.0056194589
0.0055364636
0.005453285
0.0053699533
0.0052864987
0.0052029513
0.005119341
0.0050356978
0.0049520515
0.0048684319
0.0047848689
0.0047013921
0.0046180313
0.004534816
0.0044517756
0.0043689394
0.0042863365
0.004203997
0.0041219544
0.0040401978
0.0039588217
0.0038777937
0.0037971895
0.0037170203
0.0036372886
0.0035580656
0.0034793276
0.0034011166
0.0033234585
0.0032463692
0.0031698714
0.0030939931
0.0030187598
0.0029441589
0.0028702182
0.0069694101
0.0068905921
0.0068111197
0.006731033
0.0066503842
0.006569227
0.0064875981
0.0064055303
0.0063230629
0.0062402279
0.0061570579
0.0060735824
0.0059898308
0.0059058328
0.0058216163
0.0057372087
0.0056526374
0.0055679294
0.005483112
0.0053982123
0.0053132575
0.005228275
0.005143292
0.0050583362
0.004973435
0.0048886163
0.0048039076
0.0047193369
0.004634932
0.0045507205
0.0044667303
0.0043829889
0.0042995239
0.0042163633
0.0041335402
0.004051042
0.0039689593
0.0038872619
0.0038060211
0.0037252494
0.0036449462
0.0035651798
0.0034859287
0.0034072287
0.0033291087
0.0032515816
0.0031746686
0.0030983923
0.0030227852
0.0029478296
0.0028735494
0.0070395773
0.0069572817
0.0068745108
0.0067912962
0.0067076742
0.0066236873
0.0065393608
0.0064547323
0.0063698211
0.0062846549
0.0061992607
0.0061136613
0.0060278811
0.0059419448
0.0058558759
0.0057696976
0.0056834332
0.0055971061
0.0055107403
0.0054243599
0.0053379891
0.0052516526
0.0051653753
0.0050791823
0.0049930991
0.0049071512
0.0048213644
0.0047357647
0.0046503781
0.0045652307
0.0044803485
0.0043957576
0.0043114839
0.0042275537
0.0041439997
0.0040608074
0.0039780636
0.003895741
0.0038139057
0.0037325717
0.0036517361
0.0035714637
0.0034917358
0.0034125814
0.0033340329
0.0032560999
0.0031788024
0.0031021598
0.0030262071
0.0029509248
0.0028763322
0.0071054517
0.0070198357
0.0069339195
0.0068477249
0.0067612748
0.0066745988
0.0065877153
0.0065006472
0.0064134209
0.0063260482
0.0062385488
0.0061509403
0.0060632418
0.0059754742
0.005887656
0.0057998064
0.0057119448
0.0056240911
0.005536266
0.0054484907
0.0053607866
0.0052731759
0.0051856809
0.0050983247
0.0050111305
0.0049241219
0.0048373227
0.0047507573
0.0046644498
0.0045784248
0.0044927068
0.0044073203
0.0043222897
0.0042376399
0.0041534025
0.0040695619
0.0039862012
0.0039032956
0.0038209063
0.0037390487
0.0036577182
0.0035769754
0.0034968054
0.0034172296
0.0033382844
0.0032599761
0.0031823234
0.0031053436
0.0030290725
0.00295349
0.0028786108
0.0071671236
0.0070783484
0.0069894445
0.0069004212
0.0068112895
0.0067220666
0.0066327631
0.0065433927
0.0064539695
0.0063645132
0.0062750299
0.0061855264
0.0060960194
0.0060065263
0.0059170608
0.005827638
0.0057382737
0.0056489843
0.0055597875
0.0054707015
0.0053817452
0.0052929382
0.0052043006
0.0051158532
0.0050276172
0.0049396145
0.0048518669
0.0047643972
0.0046772278
0.0045903818
0.0045038823
0.0044177523
0.0043320149
0.0042466934
0.0041618186
0.0040773738
0.0039934383
0.0039099905
0.0038270862
0.0037447419
0.0036629528
0.0035817725
0.0035011936
0.0034212283
0.0033419166
0.0032632621
0.0031852824
0.0031079922
0.003031428
0.0029555703
0.0028804291
0.0072246977
0.0071329279
0.0070411961
0.0069494979
0.0068578323
0.0067662047
0.0066746182
0.0065830779
0.0064915898
0.0064001621
0.0063088141
0.0062175307
0.0061263236
0.0060352094
0.0059441971
0.0058532977
0.0057625233
0.0056718875
0.0055814046
0.0054910902
0.0054009608
0.0053110335
0.0052213263
0.0051318578
0.0050426475
0.0049537152
0.0048650813
0.0047767667
0.0046887926
0.0046011804
0.0045139518
0.0044271286
0.0043407326
0.0042547854
0.0041693174
0.0040843106
0.0039998411
0.0039158902
0.0038325083
0.0037497127
0.0036675003
0.003585912
0.0035049561
0.0034246322
0.0033449827
0.0032660096
0.0031877295
0.0031101541
0.0072782911
0.0071836926
0.0070892943
0.0069950758
0.0069010243
0.0068071342
0.0067134008
0.0066198216
0.006526395
0.0064331214
0.0063400144
0.0062470658
0.0061542666
0.0060616341
0.0059691732
0.0058768917
0.0057847981
0.0056929028
0.0056012174
0.005509755
0.0054185295
0.0053275558
0.0052368499
0.0051464285
0.005056309
0.0049665098
0.0048770496
0.0047879477
0.0046992239
0.0046108983
0.0045229913
0.0044355233
0.004348515
0.0042619866
0.0041759675
0.0040904389
0.0040054745
0.003921058
0.0038372343
0.0037540216
0.003671422
0.0035894481
0.0035081481
0.0034274949
0.0033475349
0.0032682694
0.0031897141
0.0073280306
0.0072307708
0.0071338673
0.0070372832
0.0069409931
0.0068449813
0.0067492358
0.0066537469
0.0065585065
0.0064635088
0.0063687552
0.0062742427
0.0061799618
0.0060859116
0.0059920984
0.005898527
0.0058052025
0.0057121325
0.005619326
0.0055267935
0.0054345466
0.0053425983
0.0052509625
0.0051596539
0.0050686885
0.0049780829
0.0048878543
0.0047980206
0.0047086003
0.0046196121
0.0045310753
0.0044430091
0.004355433
0.0042683658
0.004181836
0.004095824
0.004010402
0.0039255559
0.0038413243
0.0037577266
0.0036747659
0.0035924453
0.003510825
0.0034298694
0.0033496245
0.0032700912
0.0031912842
0.0073740476