/*--------------------------------*- C++ -*----------------------------------*\
| =========                 |                                                 |
| \\      /  F ield         | OpenFOAM: The Open Source CFD Toolbox           |
|  \\    /   O peration     | Version:  2312                                  |
|   \\  /    A nd           | Website:  www.openfoam.com                      |
|    \\/     M anipulation  |                                                 |
\*---------------------------------------------------------------------------*/
FoamFile
{
    version     2.0;
    format      ascii;
    arch        "LSB;label=32;scalar=64";
    class       volScalarField;
    location    "0.04";
    object      N2;
}
// * * * * * * * * * * * * * * * * * * * * * * * * * * * * * * * * * * * * * //

dimensions      [0 0 0 0 0 0 0];

internalField   nonuniform List<scalar> 
3272
(
0.73283255
0.7324141
0.73202759
0.73167399
0.73135392
0.73106795
0.73081652
0.73060005
0.73041883
0.73027603
0.73016688
0.73009291
0.73005485
0.73005266
0.73008561
0.73015475
0.73025926
0.73039875
0.73057281
0.73078095
0.73102262
0.73129715
0.73160383
0.73194187
0.73231039
0.73270846
0.73313507
0.73358916
0.7340696
0.7345672
0.73509547
0.73564758
0.73621277
0.73680629
0.73741941
0.73805007
0.73869675
0.73935796
0.7400322
0.74071801
0.74140493
0.74210718
0.74281847
0.74353531
0.74425624
0.74497985
0.7457047
0.74642942
0.74715265
0.74787309
0.74858946
0.74930051
0.75000494
0.73256147
0.73214262
0.731756
0.73140252
0.73108282
0.73079743
0.73054681
0.73033135
0.73015135
0.73000995
0.72990228
0.72983003
0.72979387
0.72979373
0.72982887
0.7299004
0.73000739
0.73014951
0.73032633
0.73053737
0.73078204
0.7310597
0.73136962
0.731711
0.73208298
0.7324846
0.73291486
0.73337271
0.73385701
0.73435848
0.73489074
0.73544708
0.7360164
0.73661394
0.73723131
0.73786626
0.73851728
0.73918289
0.73986158
0.74055187
0.74124319
0.74194993
0.74266578
0.74338719
0.7441127
0.74484088
0.74557029
0.74629957
0.74702733
0.74775229
0.74847317
0.74918874
0.74989762
0.73205463
0.73163563
0.73124928
0.7308965
0.7305779
0.73029401
0.73004528
0.72983209
0.72965475
0.72951627
0.72941164
0.72934291
0.72931052
0.72931437
0.7293539
0.72943001
0.72954183
0.729689
0.7298711
0.73008763
0.73033799
0.73062155
0.73093756
0.73128522
0.73166365
0.7320719
0.73250897
0.7329738
0.73346528
0.73397388
0.73451339
0.73507742
0.73565427
0.73625915
0.73688435
0.73752719
0.7381862
0.73885987
0.73954671
0.74024522
0.74094457
0.74165951
0.7423837
0.74311346
0.74384734
0.74458387
0.74532163
0.74605922
0.74679527
0.74752846
0.74825751
0.74898117
0.74969805
0.73134186
0.73092335
0.73053807
0.73018692
0.72987047
0.72958925
0.72934368
0.72913421
0.72896133
0.72882736
0.72872743
0.72866399
0.72863728
0.72864703
0.72869302
0.72877582
0.72889464
0.72904911
0.72923879
0.72946317
0.72972165
0.73001357
0.73033818
0.73069468
0.73108217
0.73149973
0.73194633
0.73242091
0.73292237
0.73344086
0.73399031
0.73456492
0.73515211
0.73576701
0.73640303
0.73705681
0.73772685
0.73841165
0.73910972
0.73981954
0.74052995
0.74125612
0.74199177
0.74273302
0.7434784
0.74422643
0.74497567
0.7457247
0.74647214
0.74721666
0.74795695
0.74869176
0.74941966
0.73044916
0.73003219
0.72964915
0.72930088
0.72898794
0.72871078
0.72846975
0.72826504
0.72810023
0.72797171
0.72787812
0.72782177
0.72780261
0.72782016
0.72787464
0.72796617
0.72809405
0.72825791
0.72845729
0.72869167
0.72896043
0.72926291
0.72959835
0.72996594
0.73036479
0.73079396
0.73125242
0.73173912
0.73225295
0.73278362
0.73334524
0.73393284
0.73453277
0.73515977
0.73580913
0.73647635
0.73715994
0.73785841
0.73857025
0.73929395
0.74001788
0.74075772
0.7415074
0.74226272
0.74302217
0.74378428
0.74454757
0.74531061
0.74607201
0.74683041
0.74758448
0.74833296
0.74907438
0.72939939
0.72898539
0.7286061
0.72826232
0.72795457
0.72768328
0.72744878
0.72725132
0.72709458
0.72697343
0.72688851
0.72684125
0.72683158
0.72685885
0.72692381
0.727026
0.72716489
0.72734009
0.72755114
0.72779747
0.72807848
0.72839349
0.72874174
0.72912239
0.72953458
0.72997734
0.73044966
0.73095048
0.73147868
0.7320235
0.73259907
0.73320176
0.73381646
0.73445711
0.73512188
0.73580461
0.73650383
0.73721803
0.73794572
0.73868535
0.73942481
0.74018025
0.74094604
0.7417175
0.74249312
0.74327139
0.74405082
0.74482997
0.7456074
0.74638175
0.74715169
0.7479159
0.74867289
0.72821294
0.72780367
0.72742994
0.7270925
0.72679183
0.72652834
0.72630238
0.72611418
0.7259671
0.72585536
0.72578103
0.72574476
0.72574645
0.72578541
0.72586272
0.72597743
0.72612918
0.72631755
0.72654205
0.72680213
0.72709716
0.72742645
0.72778923
0.72818468
0.7286119
0.72906995
0.72955782
0.73007444
0.73061871
0.73117929
0.73177019
0.73238979
0.73302121
0.73367652
0.73435841
0.73505831
0.73577479
0.73650638
0.73725155
0.73800879
0.73876537
0.73953787
0.74032142
0.74111069
0.74190414
0.74270023
0.74349747
0.74429437
0.74508951
0.74588148
0.74666893
0.74745053
0.74822476
0.72690815
0.72650568
0.72613958
0.72581055
0.72551903
0.72526538
0.72505002
0.7248734
0.72473769
0.72463747
0.72457563
0.72455227
0.72456698
0.72461982
0.72471113
0.72484014
0.72500647
0.72520971
0.72544933
0.72572478
0.72603541
0.72638053
0.72675937
0.7271711
0.72761482
0.72808958
0.72859439
0.72912821
0.72968993
0.73026757
0.73087467
0.7315126
0.7321633
0.73283392
0.73353403
0.73425233
0.73498732
0.73573755
0.73650151
0.73727764
0.73805259
0.73884318
0.7396458
0.74045417
0.74126673
0.74208194
0.74289827
0.74371423
0.74452836
0.74533924
0.7461455
0.7469458
0.74773856
0.72550176
0.72510839
0.72475221
0.72443386
0.72415369
0.72391197
0.72370881
0.72354785
0.72342389
0.72333755
0.72329012
0.72328155
0.72331113
0.72337969
0.72348672
0.7236317
0.72381424
0.7240339
0.72429015
0.72458243
0.72491008
0.7252724
0.72566861
0.72609788
0.72655932
0.72705197
0.72757487
0.72812699
0.72870732
0.72930318
0.72992642
0.73058166
0.73125827
0.73194515
0.73266243
0.73339984
0.73415423
0.73492405
0.73570778
0.73650381
0.73729811
0.73810744
0.7389301
0.73975854
0.74059118
0.74142647
0.74226286
0.74309884
0.74393293
0.74476368
0.74558971
0.74640964
0.74722164
0.72400909
0.72362731
0.7232835
0.72297824
0.72271181
0.7224845
0.72229674
0.72215118
0.72204195
0.72197166
0.72194061
0.72194852
0.72199502
0.72208092
0.7222053
0.72236781
0.72256806
0.72280558
0.72307983
0.72339025
0.72373616
0.72411686
0.72453157
0.72497945
0.72545961
0.72597109
0.72651291
0.72708413
0.72768403
0.72830038
0.7289408
0.72961578
0.73031346
0.73101966
0.73175481
0.73251222
0.73328677
0.73407692
0.73488115
0.73569787
0.73651229
0.73734068
0.7381841
0.7390333
0.7398867
0.74074275
0.74159987
0.74245656
0.74331128
0.74416257
0.74500898
0.72244429
0.72207672
0.72174783
0.72145811
0.7212077
0.72099658
0.72082868
0.72069871
0.72060676
0.72055444
0.72054161
0.72056761
0.72063308
0.72073775
0.72088102
0.72106253
0.72128185
0.72153853
0.72183201
0.72216171
0.72252697
0.72292708
0.72336125
0.72382864
0.72432834
0.72485937
0.72542067
0.72601105
0.72662909
0.72727258
0.72793004
0.72862393
0.72934232
0.73006883
0.73082175
0.73159977
0.73239498
0.7332059
0.73403109
0.73486911
0.73570448
0.73655192
0.73741656
0.73828693
0.7391615
0.74003871
0.74091701
0.74179483
0.74267065
0.74354295
0.74440997
0.72082047
0.72046984
0.72015851
0.7198869
0.71965518
0.71946372
0.71931528
0.71920363
0.71913143
0.719099
0.71910604
0.7191521
0.71923807
0.719363
0.71952656
0.71972838
0.71996803
0.72024502
0.72055881
0.72090881
0.72129435
0.72171473
0.72216917
0.72265681
0.72317677
0.72372804
0.72430959
0.72492028
0.72555889
0.7262242
0.72690144
0.72761465
0.72835415
0.72910296
0.72987297
0.73067175
0.73148774
0.73231953
0.73316573
0.73402525
0.73488331
0.7357495
0.73663537
0.737527
0.73842288
0.73932144
0.7402211
0.74112028
0.74201742
0.74291097
0.7437991
0.71914984
0.71881889
0.71852775
0.71827668
0.7180655
0.71789825
0.71776909
0.71767855
0.71762798
0.71761723
0.71764559
0.7177138
0.71782148
0.71796807
0.71815322
0.71837655
0.71863762
0.71893594
0.71927098
0.71964214
0.72004876
0.72049013
0.72096548
0.72147399
0.72201475
0.72258682
0.72318916
0.72382069
0.72448029
0.72516677
0.72586399
0.72659585
0.72735432
0.7281328
0.72891829
0.72973628
0.73057294
0.7314254
0.73229193
0.73317051
0.73405817
0.73494191
0.7358474
0.7367601
0.73767724
0.73859716
0.73951821
0.74043878
0.74135729
0.74227216
0.74318152
0.71744375
0.71713525
0.71686698
0.71663923
0.71645208
0.71630829
0.71620136
0.71613432
0.71610721
0.71611957
0.71617131
0.71626296
0.71639369
0.71656317
0.71677105
0.71701695
0.71730041
0.71762095
0.71797803
0.71837106
0.7187994
0.71926233
0.71975912
0.72028894
0.72085092
0.72144413
0.72206759
0.72272025
0.72340103
0.72410877
0.72482632
0.72557716
0.72635691
0.72715818
0.72796366
0.72880005
0.72965755
0.73053088
0.73141834
0.73231818
0.7332287
0.73413281
0.73505799
0.73599181
0.73693015
0.73787132
0.73881366
0.73975552
0.7406953
0.7416314
0.7425619
0.71571274
0.71542931
0.71518635
0.71498415
0.71482532
0.71470433
0.71462261
0.71458083
0.71457883
0.71461571
0.7146927
0.71480887
0.71496386
0.71515735
0.71538898
0.71565836
0.71596503
0.71630852
0.7166883
0.71710378
0.71755434
0.71803928
0.71855787
0.71910931
0.71969276
0.72030731
0.72095203
0.72162592
0.72232798
0.72305713
0.72379528
0.72456471
0.72536582
0.72618886
0.72701525
0.72786922
0.72874758
0.72964176
0.73055018
0.73147122
0.73240329
0.73332787
0.7342723
0.73522713
0.7361865
0.73714871
0.7381121
0.73907502
0.74003584
0.74099294
0.74194438
0.71396661
0.71371077
0.71349523
0.71332395
0.71319093
0.7130964
0.71304184
0.713027
0.7130512
0.71311489
0.71321799
0.71335985
0.71354017
0.71375863
0.71401486
0.71430848
0.71463905
0.71500609
0.71540907
0.71584745
0.71632059
0.71682784
0.71736847
0.71794171
0.71854674
0.71918269
0.71984865
0.7205437
0.72126695
0.72201755
0.72277675
0.72356395
0.724386
0.72523028
0.72607937
0.72694947
0.72784829
0.728763
0.72969209
0.73063399
0.73158714
0.73253206
0.73349493
0.73447051
0.73545059
0.7364335
0.7374176
0.73840123
0.73938275
0.74036053
0.74133256
0.71221459
0.71198906
0.71180476
0.71166325
0.71155823
0.71149291
0.71146718
0.71148051
0.71153278
0.71162443
0.71175468
0.71192323
0.71212979
0.71237402
0.71265558
0.71297406
0.71332905
0.71372009
0.71414667
0.71460825
0.71510422
0.71563395
0.71619674
0.71679184
0.71741844
0.71807571
0.71876275
0.71947866
0.72022264
0.72099429
0.72177622
0.72258011
0.72342161
0.72428387
0.72516361
0.72604663
0.72696415
0.72789884
0.72884808
0.72981035
0.73078427
0.7317497
0.73272992
0.73372584
0.73472617
0.73572933
0.73673368
0.73773757
0.73873936
0.73973739
0.74072961
0.71046517
0.71027217
0.71012229
0.71000958
0.70993582
0.70990135
0.70990582
0.70994862
0.71003066
0.710151
0.71030936
0.71050546
0.710739
0.71100966
0.71131709
0.71166092
0.71204074
0.7124561
0.71290652
0.71339148
0.71391041
0.71446268
0.71504763
0.71566454
0.71631262
0.71699104
0.7176989
0.71843522
0.71919887
0.71998829
0.72080021
0.72161943
0.72247862
0.72336082
0.72426274
0.72516412
0.72609851
0.72705274
0.72802151
0.72900338
0.7299974
0.73098492
0.73198102
0.73299652
0.73401645
0.73503927
0.73606332
0.73708694
0.73810847
0.73912627
0.74013821
0.70872566
0.70856998
0.7084515
0.70837163
0.7083307
0.70832846
0.70836398
0.70843832
0.70855062
0.70870054
0.7088878
0.70911214
0.70937326
0.70967084
0.71000456
0.71037407
0.71077897
0.71121884
0.71169324
0.71220165
0.71274354
0.71331831
0.71392533
0.7145639
0.71523328
0.71593264
0.71666111
0.71741772
0.71820139
0.71901089
0.71984491
0.72068273
0.72155951
0.7224615
0.72338385
0.7243043
0.72525437
0.72622768
0.72721528
0.72821544
0.72922606
0.73024328
0.73125215
0.73228523
0.73332405
0.73436589
0.73540903
0.73645178
0.73749246
0.73852943
0.70700603
0.70688449
0.70680082
0.70675579
0.70674903
0.70677966
0.70684838
0.70695466
0.70709803
0.70727824
0.70749502
0.70774811
0.70803723
0.70836208
0.70872237
0.70911774
0.70954786
0.71001232
0.71051069
0.71104251
0.71160726
0.71220439
0.7128333
0.71349331
0.71418372
0.71490374
0.71565255
0.71642922
0.71723278
0.71806218
0.71891639
0.71977286
0.7206666
0.72158792
0.72253008
0.72347009
0.72443444
0.7254264
0.72643241
0.72745092
0.72848019
0.72951841
0.7305445
0.73159382
0.732651
0.73371127
0.73477287
0.7358341
0.73689322
0.73794813
0.70530779
0.70522318
0.70517654
0.70516768
0.70519571
0.70526117
0.70536356
0.70550243
0.70567752
0.70588855
0.70613529
0.70641748
0.70673488
0.7070872
0.70747418
0.7078955
0.70835084
0.70883983
0.70936208
0.70991715
0.71050458
0.71112384
0.71177435
0.7124555
0.71316661
0.71390694
0.7146757
0.71547205
0.7162951
0.71714392
0.71801755
0.71889228
0.71980192
0.72074173
0.72170281
0.72266437
0.72364144
0.72465109
0.7256749
0.72671133
0.72775885
0.7288159
0.72985946
0.730924
0.73199902
0.73307711
0.73415653
0.73523558
0.7363125
0.73738505
0.70363763
0.7035923
0.7035839
0.70361178
0.7036764
0.70377721
0.70391377
0.70408579
0.70429304
0.70453526
0.70481223
0.70512372
0.70546952
0.70584938
0.70626304
0.70671025
0.7071907
0.70770406
0.70824999
0.70882808
0.7094379
0.71007896
0.71075074
0.71145264
0.71218403
0.71294423
0.71373249
0.71454803
0.71539005
0.71625773
0.71715025
0.71804299
0.71896726
0.71992419
0.7209001
0.72189077
0.72287935
0.72390323
0.72494413
0.72599785
0.72706292
0.7281379
0.72919873
0.73027725
0.73136954
0.7324648
0.73356136
0.73465756
0.73575167
0.73684139
0.70200165
0.70199668
0.70202698
0.70209333
0.70219498
0.70233154
0.70250271
0.70270825
0.70294792
0.70322152
0.70352884
0.70386968
0.70424386
0.70465118
0.70509141
0.70556432
0.70606967
0.70660715
0.70717646
0.70777724
0.70840908
0.70907156
0.70976417
0.71048639
0.7112376
0.71201716
0.71282438
0.71365853
0.71451886
0.71540473
0.71631566
0.71722672
0.71816465
0.71913866
0.72013172
0.72114237
0.72214665
0.72318369
0.72424107
0.72531134
0.72639318
0.72748543
0.72856379
0.72965486
0.73076374
0.73187543
0.7329884
0.73410102
0.73521164
0.70040435
0.70043999
0.70051076
0.70061578
0.70075478
0.70092745
0.70113351
0.70137274
0.70164494
0.70194994
0.70228756
0.70265766
0.70306008
0.70349465
0.7039612
0.70445955
0.70498947
0.70555072
0.70614303
0.70676608
0.70741952
0.70810296
0.70881593
0.70955795
0.71032845
0.71112683
0.71195242
0.71280452
0.7136824
0.71458547
0.71551379
0.71644519
0.71739559
0.71838574
0.71939547
0.72042364
0.72144411
0.72249318
0.72356644
0.72465245
0.72574998
0.72685841
0.72795612
0.72905823
0.73018251
0.73130977
0.73243836
0.73356658
0.73469224
0.69884904
0.69892705
0.69903815
0.69918216
0.69935877
0.6995677
0.69980872
0.70008164
0.70038631
0.70072258
0.70109033
0.70148945
0.70191983
0.70238135
0.70287387
0.70339727
0.70395136
0.70453594
0.7051508
0.70579565
0.70647019
0.70717406
0.70790687
0.70866814
0.70945737
0.71027398
0.71111733
0.71198671
0.71288134
0.71380024
0.71474181
0.71570142
0.71666176
0.71766553
0.71869101
0.71973562
0.72077274
0.72183245
0.72292089
0.72402172
0.72513349
0.72625402
0.72737824
0.72848963
0.72962625
0.73076828
0.73191175
0.73305487
0.73419525
0.69734012
0.69746027
0.69761198
0.6977951
0.69800936
0.69825453
0.69853041
0.69883686
0.69917376
0.69954103
0.69993859
0.70036638
0.70082434
0.70131238
0.70183044
0.70237842
0.70295619
0.7035636
0.70420047
0.70486658
0.70556167
0.70628542
0.70703748
0.70781742
0.70862477
0.70945901
0.71031951
0.7112056
0.71211649
0.71305121
0.71400853
0.714987
0.71596124
0.71697778
0.71801794
0.7190777
0.72013362
0.72120249
0.7223049
0.72341987
0.72454572
0.72568062
0.72682246
0.72794707
0.72909501
0.73025115
0.73140881
0.73256623
0.73372096
0.69587981
0.69604222
0.69623456
0.69645673
0.6967085
0.69698969
0.69730016
0.69763981
0.69800859
0.69840646
0.6988334
0.69928939
0.69977442
0.70028848
0.70083154
0.70140355
0.70200444
0.70263411
0.70329242
0.7039792
0.70469423
0.70543725
0.70620794
0.70700593
0.70783079
0.70868203
0.70955907
0.71046128
0.71138792
0.71233813
0.71331096
0.71430552
0.71529383
0.71632232
0.71737585
0.7184465
0.71952881
0.72060516
0.72171845
0.72284691
0.72398642
0.72513538
0.72629223
0.72743039
0.7285887
0.72975838
0.73092958
0.73210065
0.69447041
0.69467497
0.69490775
0.69516871
0.69545766
0.6957745
0.69611913
0.69649153
0.69689169
0.69731963
0.69777539
0.69825901
0.69877055
0.69931003
0.69987748
0.7004729
0.70109629
0.70174758
0.70242669
0.7031335
0.70386784
0.70462949
0.70541817
0.70623357
0.70707529
0.70794288
0.70883583
0.70975355
0.71069535
0.71166051
0.71264822
0.71365766
0.7146596
0.71569936
0.71676628
0.71785037
0.71894972
0.72003796
0.72116116
0.72230252
0.72345507
0.72461738
0.72578814
0.72693979
0.72810729
0.72928991
0.73047384
0.73165696
0.69311373
0.69336013
0.69363296
0.69393226
0.69425791
0.69460986
0.6949881
0.69539264
0.69582356
0.69628094
0.69676488
0.69727548
0.69781285
0.69837708
0.69896824
0.69958641
0.70023161
0.70090385
0.70160309
0.70232926
0.70308223
0.70386183
0.70466784
0.70549997
0.70635789
0.70724119
0.70814939
0.70908197
0.71003831
0.71101777
0.71201967
0.71304323
0.71405834
0.71510859
0.71618863
0.71728599
0.71839957
0.71950025
0.72063255
0.72178625
0.72295113
0.72412595
0.7253098
0.72647538
0.72765085
0.72884561
0.73004154
0.73123637
0.69181115
0.69209886
0.69241118
0.69274821
0.69310992
0.69349632
0.69390746
0.69434345
0.69480442
0.69529051
0.69580189
0.69633873
0.69690119
0.69748942
0.69810358
0.69874376
0.69941006
0.70010253
0.70082118
0.701566
0.7023369
0.70313377
0.70395642
0.70480461
0.70567805
0.70657637
0.70749916
0.70844592
0.70941613
0.71040922
0.71142462
0.7124617
0.71348961
0.71454947
0.71564207
0.71675204
0.71787865
0.7189918
0.7201322
0.72129762
0.72247403
0.72366028
0.7248559
0.72603743
0.7272197
0.72842524
0.72963244
0.73083846
0.69056361
0.69089195
0.69124303
0.69161704
0.69201403
0.69243409
0.69287733
0.69334395
0.69383414
0.69434813
0.69488614
0.69544841
0.69603517
0.69664663
0.69728299
0.69794442
0.69863105
0.699343
0.70008034
0.70084308
0.7016312
0.70244462
0.7032832
0.70414676
0.70503504
0.70594771
0.7068844
0.70784467
0.70882804
0.70983404
0.71086222
0.71191223
0.71295281
0.71402137
0.71512581
0.71624751
0.71738627
0.71851241
0.71965978
0.72083618
0.72202327
0.72321965
0.72442305
0.72562698
0.72681477
0.72802837
0.7292461
0.73046269
0.68937171
0.68973981
0.69012877
0.69053888
0.69097026
0.69142307
0.69189752
0.69239387
0.69291239
0.69345339
0.69401716
0.694604
0.69521421
0.69584806
0.6965058
0.69718767
0.69789385
0.69862451
0.69937976
0.70015968
0.70096428
0.70179354
0.70264735
0.70352558
0.704428
0.70535435
0.70630426
0.70727735
0.70827317
0.70929129
0.71033141
0.71139366
0.71244744
0.71352374
0.71463901
0.7157713
0.71692081
0.71806223
0.71921508
0.72040139
0.72159851
0.72280484
0.72401834
0.72523637
0.7264333
0.72765424
0.72888191
0.7301085
0.68823569
0.68864255
0.68906838
0.68951358
0.68997834
0.69046291
0.69096758
0.69149268
0.69203857
0.69260563
0.69319423
0.69380474
0.69443751
0.69509288
0.69577116
0.69647264
0.69719756
0.69794613
0.69871853
0.69951487
0.70033522
0.70117958
0.70204792
0.70294011
0.703856
0.70479533
0.70575779
0.70674302
0.70775058
0.70878002
0.70983103
0.71090412
0.71197338
0.71305624
0.71418086
0.71532246
0.71647863
0.71764274
0.71879817
0.71999237
0.72119903
0.722415
0.72363853
0.72486788
0.72607442
0.72730209
0.72853924
0.72977526
0.68715549
0.68759995
0.68806152
0.68854071
0.68903778
0.68955304
0.69008687
0.69063968
0.69121192
0.69180404
0.6924165
0.69304972
0.69370413
0.69438012
0.69507807
0.69579831
0.69654115
0.69730684
0.6980956
0.6989076
0.69974294
0.70060169
0.70148383
0.70238931
0.70331797
0.70426963
0.70524398
0.70624069
0.70725931
0.70829933
0.70936002
0.71043985
0.71153187
0.71261851
0.71375075
0.71490141
0.71606671
0.71724443
0.71840725
0.71960828
0.72082395
0.72204908
0.72328212
0.72452158
0.72573763
0.72697128
0.72821745
0.72946234
0.6861308
0.68661154
0.68710763
0.68761962
0.68814784
0.68869266
0.68925453
0.68983396
0.69043148
0.69104763
0.69168293
0.6923379
0.693013
0.69370871
0.69442544
0.69516358
0.6959235
0.69670549
0.69750983
0.69833672
0.69918632
0.70005873
0.70095398
0.70187205
0.70281282
0.70377614
0.70476174
0.7057693
0.70679839
0.70784845
0.70891871
0.71000787
0.71111379
0.71220819
0.71334759
0.71450703
0.71568149
0.71686972
0.71804076
0.7192481
0.7204723
0.72170605
0.72294797
0.72419683
0.72542241
0.72666125
0.7279159
0.72916907
0.68516124
0.68567659
0.68620589
0.68674944
0.68730761
0.6878808
0.68846956
0.68907446
0.68969616
0.69033527
0.69099239
0.6916681
0.69236295
0.69307744
0.69381205
0.69456724
0.6953434
0.69614089
0.69696002
0.69780104
0.69866417
0.69954952
0.70045718
0.70138716
0.70233938
0.70331372
0.70430995
0.70532776
0.70636675
0.70742638
0.70850595
0.70960452
0.71072117
0.71182389
0.7129702
0.71413811
0.71532127
0.71651866
0.71769778
0.71891087
0.72014313
0.72138494
0.72263501
0.72389257
0.72512833
0.7263715
0.72763393
0.72889478
0.68424655
0.68479404
0.6853553
0.68592913
0.68651603
0.68711637
0.6877308
0.68836002
0.68900475
0.68966573
0.69034363
0.69103909
0.6917527
0.69248505
0.69323665
0.69400801
0.69479958
0.69561176
0.69644491
0.69729931
0.69817523
0.69907282
0.6999922
0.70093343
0.70189646
0.70288119
0.70388743
0.70491491
0.70596326
0.70703197
0.70812044
0.70922795
0.71035387
0.71146467
0.71261749
0.71379345
0.71498481
0.71619057
0.71737743
0.71859567
0.71983553
0.7210848
0.72234219
0.72360717
0.72485522
0.72610174
0.72737084
0.72863875
0.68169005
0.68224451
0.68280931
0.68338716
0.6839622
0.68455474
0.68515748
0.6857719
0.68639813
0.68703701
0.68768933
0.68835595
0.6890377
0.68973532
0.69044951
0.69118093
0.6919302
0.69269791
0.69348458
0.69429073
0.69511681
0.69596319
0.69683024
0.69771823
0.69862736
0.6995578
0.70050962
0.70148282
0.70247734
0.70349301
0.70452959
0.70558675
0.70666404
0.70776093
0.70887681
0.71001113
0.71112954
0.7122884
0.71347196
0.71467101
0.71588457
0.71707882
0.71830162
0.71954863
0.72080482
0.72206862
0.72333765
0.72460382
0.72585182
0.72712584
0.72840021
0.6807729
0.68136554
0.68196518
0.68257332
0.68318799
0.68380399
0.68443308
0.68507395
0.68572474
0.68638683
0.68706101
0.68774836
0.68844977
0.68916606
0.68989799
0.69064625
0.69141153
0.69219444
0.69299559
0.6938155
0.69465468
0.69551356
0.69639252
0.69729187
0.69821187
0.69915271
0.70011449
0.70109725
0.70210096
0.70312548
0.70417061
0.70523605
0.7063214
0.7074262
0.7085499
0.70969196
0.7108175
0.71198185
0.71317256
0.71437878
0.7155997
0.71680106
0.71802784
0.71928159
0.7205443
0.72181442
0.72308972
0.72436678
0.72561987
0.72689814
0.72817842
0.67991156
0.68053967
0.6811723
0.68181054
0.682454
0.68310194
0.6837622
0.68442095
0.68509474
0.68577883
0.68647361
0.68718052
0.6879005
0.68863442
0.68938308
0.69014724
0.69092761
0.69172487
0.69253965
0.69337253
0.69422404
0.69509467
0.69598482
0.69689485
0.69782506
0.69877565
0.69974678
0.7007385
0.70175082
0.70278364
0.70383678
0.70490998
0.70600289
0.70711509
0.70824607
0.70939531
0.71052751
0.71169682
0.71289417
0.71410707
0.71533491
0.71654327
0.71777351
0.71903356
0.72030242
0.72157869
0.72286052
0.72414578
0.72540478
0.72668693
0.72797261
0.67910437
0.67976582
0.6804297
0.68109707
0.68176834
0.68244412
0.68312794
0.68381849
0.68450816
0.68521157
0.68592559
0.68665093
0.6873884
0.68813892
0.68890333
0.68968246
0.69047703
0.69128778
0.69211537
0.69296043
0.69382352
0.69470517
0.69560583
0.69652588
0.69746564
0.69842537
0.69940524
0.70040535
0.70142572
0.70246629
0.70352692
0.70460737
0.70570735
0.70682645
0.70796422
0.70912013
0.71025852
0.71143228
0.71263575
0.71385477
0.71508908
0.71630463
0.71753784
0.71880369
0.72007828
0.7213604
0.72264852
0.7239409
0.72520592
0.72649142
0.72778203
0.6783497
0.67904258
0.67973601
0.68043115
0.68112881
0.68183001
0.68253681
0.68324935
0.6839684
0.68468582
0.68541532
0.68615803
0.68691196
0.68767806
0.68845727
0.68925044
0.69005836
0.69088176
0.69172137
0.69257784
0.69345178
0.69434375
0.69525423
0.69618364
0.69713234
0.6981006
0.69908864
0.70009657
0.70112446
0.70217226
0.70323987
0.70432708
0.70543363
0.70655917
0.70770326
0.70886538
0.71000953
0.71118722
0.7123963
0.71362081
0.71486093
0.71608448
0.71732015
0.71859108
0.71987095
0.72115854
0.72245262
0.72375172
0.72502274
0.72631059
0.72760561
0.67764587
0.67836833
0.67908963
0.67981102
0.68053354
0.68125837
0.68198704
0.68272036
0.68345935
0.68420474
0.68494264
0.68570028
0.68646968
0.68725036
0.68804342
0.68884975
0.68967015
0.6905054
0.69135624
0.69222338
0.69310747
0.69400907
0.69492872
0.69586687
0.6968239
0.69780012
0.69879576
0.69981098
0.70084586
0.70190039
0.70297448
0.70406799
0.70518065
0.70631216
0.70746212
0.70863
0.70977952
0.71096069
0.71217487
0.71340413
0.71464875
0.71588246
0.71711987
0.7183948
0.71967951
0.72097214
0.72227177
0.72357762
0.67699114
0.67774139
0.67848887
0.67923495
0.67998079
0.68072766
0.68147695
0.68222978
0.68298757
0.68375346
0.6845106
0.68527676
0.68606007
0.68685429
0.68766031
0.68847894
0.689311
0.69015731
0.69101864
0.69189573
0.69278926
0.69369984
0.69462803
0.69557431
0.69653908
0.6975227
0.69852541
0.6995474
0.70058877
0.70164954
0.70272966
0.70382898
0.70494731
0.70608436
0.70723976
0.70841301
0.70956753
0.71075176
0.7119706
0.71320389
0.71444987
0.71569906
0.7169363
0.71821406
0.71950307
0.72080023
0.72210475
0.6763837
0.67715997
0.67793196
0.67870115
0.67946881
0.68023625
0.68100483
0.68177585
0.68255067
0.68333076
0.68411286
0.68489143
0.68568147
0.68648836
0.68730646
0.68813657
0.68897951
0.68983611
0.69070721
0.69159355
0.69249586
0.69341478
0.6943509
0.69530472
0.69627669
0.69726716
0.69827643
0.69930469
0.70035207
0.70141861
0.7025043
0.70360901
0.70473257
0.70587473
0.70703517
0.70821341
0.7093726
0.71055956
0.71178273
0.71301996
0.71426949
0.7155276
0.71676754
0.71804787
0.71934076
0.72064188
0.72194976
0.67582177
0.67662226
0.6774171
0.67820786
0.67899585
0.67978244
0.68056902
0.68135694
0.68214757
0.68294203
0.68373963
0.6845419
0.68533406
0.68615106
0.68698045
0.68782125
0.68867429
0.68954047
0.69042062
0.69131555
0.69222601
0.69315266
0.69409612
0.69505692
0.69603554
0.69703235
0.69804767
0.69908173
0.70013466
0.70120654
0.70229735
0.70340702
0.7045354
0.70568227
0.70684737
0.70803025
0.70919383
0.71038323
0.71161045
0.71285152
0.71410501
0.7153692
0.71661257
0.71789536
0.71919178
0.72049643
0.72180745
0.67530397
0.6761264
0.67694246
0.67775328
0.67856018
0.67936455
0.68016784
0.68097146
0.68177679
0.68258504
0.68339701
0.68421637
0.68501954
0.6858408
0.68668087
0.68753159
0.68839402
0.68926906
0.6901576
0.69106047
0.69197845
0.69291224
0.69386248
0.69482974
0.69581449
0.69681715
0.69783806
0.69887745
0.69993549
0.70101227
0.70210781
0.70322203
0.70435482
0.70550601
0.70667539
0.70786259
0.70903034
0.71022192
0.7114529
0.71269763
0.71395495
0.71522382
0.71647061
0.71775574
0.71905537
0.72036321
0.72167721
0.67483403
0.67567037
0.6765062
0.67733563
0.67816005
0.6789809
0.67979967
0.68061781
0.68143677
0.68225789
0.68308263
0.68391506
0.6847346
0.68555754
0.68640638
0.68726627
0.68813737
0.68902061
0.68991689
0.69082709
0.691752
0.69269237
0.69364885
0.69462204
0.69561244
0.69662048
0.69764651
0.69869081
0.69975354
0.70083482
0.70193468
0.70305307
0.70418989
0.70534501
0.7065183
0.70770952
0.70888127
0.71007485
0.71130927
0.71255741
0.71381826
0.715091
0.716341
0.71762826
0.71893084
0.72024153
0.72155826
0.67441019
0.67525397
0.6761065
0.67695316
0.67779376
0.67862982
0.67946286
0.6802944
0.68112593
0.68195889
0.68279484
0.68363574
0.684476
0.68530303
0.6861554
0.68702397
0.68790309
0.68879387
0.68969727
0.6906142
0.69154549
0.6924919
0.69345411
0.69443274
0.69542831
0.69644128
0.69747202
0.6985208
0.69958783
0.70067323
0.70177703
0.70289921
0.70403969
0.70519837
0.7063752
0.70757013
0.70874584
0.70994127
0.71117872
0.71243001
0.71369406
0.71497014
0.71622307
0.71751225
0.71881751
0.72013075
0.72144987
0.67401869
0.67487926
0.67574143
0.67660412
0.67745962
0.67830966
0.67915582
0.67999968
0.68084275
0.68168657
0.6825327
0.68338283
0.68423732
0.68507407
0.68592713
0.68680349
0.68768993
0.68858764
0.68949758
0.69042068
0.6913578
0.69230973
0.69327718
0.69426078
0.69526108
0.69627856
0.69731358
0.69836646
0.69943741
0.70052655
0.70163394
0.70275957
0.70390335
0.70506522
0.70624518
0.70744347
0.70862334
0.70982045
0.71106049
0.71231465
0.71358158
0.71486058
0.71611615
0.71740704
0.71871473
0.72003023
0.72135133
0.66888268
0.66987805
0.67085155
0.67180452
0.6727388
0.67365916
0.6745424
0.67541058
0.67628684
0.67715596
0.67801881
0.678877
0.67973212
0.68058575
0.68143947
0.68229489
0.68315369
0.6840183
0.68486866
0.68572107
0.68660359
0.68749672
0.68840077
0.68931667
0.6902454
0.69118784
0.6921448
0.69311702
0.69410515
0.69510976
0.69613133
0.69717027
0.69822687
0.69930138
0.70039392
0.70150457
0.7026333
0.70378005
0.70494473
0.70612738
0.70732852
0.70851319
0.70971169
0.71095389
0.71221059
0.71348008
0.71476165
0.7160196
0.71731202
0.71862189
0.71993942
0.72126212
0.66846599
0.66947781
0.67047135
0.67144292
0.67239464
0.6733291
0.67424007
0.67511496
0.6759994
0.67688115
0.6777557
0.67862486
0.67949025
0.68035349
0.68121622
0.68208005
0.68294659
0.68381701
0.68468496
0.68553782
0.68642288
0.68732229
0.68823213
0.68915347
0.69008731
0.69103457
0.6919961
0.69297265
0.69396489
0.6949734
0.69599869
0.69704116
0.69810114
0.69917886
0.70027448
0.70138806
0.70251959
0.70366899
0.70483615
0.70602098
0.70722399
0.70841519
0.70961432
0.71085823
0.71211713
0.71338887
0.71467273
0.71593281
0.71722656
0.71853842
0.71985778
0.72118204
0.66809516
0.66911663
0.67012834
0.67111686
0.67208438
0.67303318
0.67396399
0.67485199
0.67574056
0.67663365
0.67751881
0.67839792
0.67927262
0.68014458
0.68101545
0.68188689
0.6827605
0.68363753
0.68451732
0.68537472
0.68626042
0.68716558
0.68808066
0.68900691
0.68994537
0.690897
0.69186266
0.69284312
0.69383906
0.69485109
0.69587973
0.69692539
0.69798841
0.69906904
0.70016743
0.70128365
0.70241769
0.70356944
0.70473874
0.70592525
0.70712793
0.70832989
0.70952761
0.71077278
0.71203358
0.71330731
0.71459319
0.71585517
0.7171501
0.71846374
0.71978478
0.7211106
0.66776649
0.66879367
0.66982057
0.67082446
0.67180628
0.67276832
0.67371374
0.67461929
0.67550928
0.67641192
0.67730664
0.67819475
0.67907786
0.67995767
0.68083587
0.68171416
0.68259419
0.68347752
0.68436608
0.6852301
0.68611526
0.68702555
0.68794533
0.688876
0.68981861