/*--------------------------------*- C++ -*----------------------------------*\
| =========                 |                                                 |
| \\      /  F ield         | OpenFOAM: The Open Source CFD Toolbox           |
|  \\    /   O peration     | Version:  2312                                  |
|   \\  /    A nd           | Website:  www.openfoam.com                      |
|    \\/     M anipulation  |                                                 |
\*---------------------------------------------------------------------------*/
FoamFile
{
    version     2.0;
    format      ascii;
    arch        "LSB;label=32;scalar=64";
    class       volScalarField;
    location    "0.04";
    object      Qdot;
}
// * * * * * * * * * * * * * * * * * * * * * * * * * * * * * * * * * * * * * //

dimensions      [1 -1 -3 0 0 0 0];

internalField   nonuniform List<scalar> 
3272
(
13877.944
16645.645
19835.967
23487.876
27639.453
32327.2
37585.295
43444.823
49932.932
56920.221
64642.823
73072.91
82154.125
91863.536
102020.18
112966.39
124488.85
136523.67
149005.56
161859.5
175000.58
188334.2
201756.65
215155.87
228412.79
241402.73
253997.15
266065.44
277476.95
287933.6
297621.95
306303.23
313738.38
320047.12
325044.71
328651.62
330810.86
331483.45
330649.65
328309.59
324534.97
319284.13
312633.76
304676.88
295509.08
285241.29
273997.63
261912.91
249129.91
235796.41
222062.2
208076.05
193983.24
14530.531
17414.17
20735.124
24533.158
28847.026
33713.741
39167.809
45240.518
51959.389
59189.757
67186.976
75913.052
85328.724
95234.135
105752.66
117065.29
128951.4
141356.43
154215.88
167453.84
180983.68
194708.64
208522.54
222310.7
235951.28
249316.71
262275.5
274694.04
286438.73
297202.27
307177.28
316121.78
323785.56
330291.19
335452.19
339184.48
341429.25
342145.93
341313.49
338931.17
335071.98
329692
322868.87
314697.45
305275.24
294715.61
283145.71
270703.84
257536.77
243796.72
229638.31
215215
200674.19
15824.659
18935.193
22511.169
26593.846
31223.22
36437.186
42270.624
48754.532
55915.917
63611.222
72129.201
81400.102
91390.145
101869.11
113041
125013.51
137580.93
150687.19
164264.44
178233.26
192503.12
206972.97
221532
236060.66
250431.95
264512.98
278166.73
291254.01
303635.56
314986.11
325509.46
334958.8
343062.44
349948.38
355427.92
359407.19
361823.64
362633.45
361812.98
359359.67
355348.58
349731.88
342588.21
334015.96
324116
313006.17
300819.06
287699.43
273801.26
259284.7
244312.75
229047.55
213645.02
17815.303
21268.038
25227.414
29736.773
34837.891
40570.02
46968.483
54061.916
61864.86
70245.994
79530.512
89598.612
100427.83
111762.23
123886.2
136815.09
150372.01
164496.32
179115.27
194144.19
209486.91
225036.3
240675.06
256276.79
271707.32
286826.28
301488.89
315548
328856.21
341061.79
352383.99
362571.9
371321.48
378767.67
384721.65
389073.18
391753.81
392714.72
391928.18
389388.69
385173.78
379230.28
371636.98
362497.29
351916.56
340018.69
326943.85
312845.77
297888.68
282244.02
266086.96
249592.33
232928.89
20615.004
24536.822
29019.6
34109.222
39849.857
46283.462
53449.948
61389.317
69949.596
79289.301
89599.935
100725.29
112660.6
125123.84
138496.42
152681.24
167535.06
182991.52
198971.76
215384.57
232126.71
249083.47
266129.49
283129.85
299941.44
316414.5
332394.54
347724.32
362246.08
375573.09
387943.4
399106.06
408711.84
416902.05
423494.55
428353.54
431402.53
432585.66
431869.42
429243.94
424789.12
418445.41
410289.62
400431.6
388981.87
376071.57
361850.18
346482.66
330146.22
313026.79
295315.27
277203.14
258876.13
24392.484
28927.541
34091.067
39931.442
46494.669
53823.571
61957.434
70932.678
80552.427
91117.443
102683.66
115129.86
128423.8
142298.33
157224.15
172971.55
189434.47
206540.11
224202.72
242323.6
260791.33
279482.42
298262.13
316985.62
335499.3
353642.48
371249.19
388150.27
404175.65
418894.92
432566.71
444949.24
455632.13
464758.07
472166.66
477683.1
481220.54
482714
482122.2
479429.1
474716.26
467917.16
459102.95
448391.25
435897.91
421762.12
406143.97
389221.5
371187.33
352244.87
332604.18
312477.27
292071.11
29375.876
34690.302
40714.047
47497.786
55088.783
63529.338
72855.696
83101.025
94039.237
106103.86
119212.45
133309.46
148070.02
163730.86
180530.14
198155.88
216545.58
235621.11
255289.67
275444.36
295964.76
316717.63
337557.82
358329.44
378867.22
398998.14
418543.39
437320.39
455145.13
471534.5
486766.67
500627.16
512625.16
522888.08
531307.29
537649.07
541814.3
543726.61
543334.61
540613.91
535646.21
528358.11
518809.44
507126.8
493431.07
477869.65
460614.03
441856.81
421808.07
400691.34
378739.14
356187.78
333269.79
35858.353
42143.731
49232.399
57177.018
66025.784
75819.568
86587.101
98337.442
110872.2
124715.56
139636.4
155617.45
172253.72
190057.55
208976.43
228788.17
249420.34
270786.04
292783.67
315297.06
338195.92
361336.49
384562.41
407705.87
430588.96
453025.39
474822.42
495783.06
515708.2
534052.36
551105.43
566713.29
580298.15
591909.96
601548.55
608902.37
613855.87
616318.72
616226.51
613543.62
608349.4
600564.74
590229.92
577481.77
562445.19
545275.31
526155.23
505292.95
482917.58
459275.07
434623.35
409226.55
383347.05
44204.927
51680.364
60065.109
69413.143
79773.9
91191.817
103711.48
117058.46
131640.25
147522.28
164548.69
182675.65
201527.87
221791.97
243143.71
265455.72
288646.48
312620.07
337265.63
362457.29
388054.48
413902.5
439833.3
465666.58
491211.17
516266.74
540626.02
564077.45
586407.6
606999.81
626122.48
643708.3
659275.77
672463.92
683512.83
692080.71
698005.14
701175.82
701511.08
698960.46
693597.36
685339.57
674196.63
660316.92
643827.53
624890.11
603698.81
580477.15
555474.26
528960.26
501220.94
472551
443245.63
54859.377
63772.214
73710.72
84728.755
96874.061
110183.56
124665.64
140043.21
156947.67
175165.61
194657.89
214955.21
236530.13
259537.14
283637.84
308761.27
334819.7
361709.35
389310.55
417487.91
446090.65
474953.08
503895.38
532724.53
561235.58
589213.42
616435.3
642675.15
667712.75
690892.51
712361.02
732240.34
749952.31
765017.31
777719.18
787734.4
794840.25
798904.73
799825.72
797534.12
792092.53
783420.82
771483.04
756440.63
738420.1
717587.52
694146.57
668335.68
640424.15
610707.36
579500.94
68349.693
78974.048
90748.579
103726.98
117960.15
133504.47
149999.17
167918.42
187405.64
208239.84
230372.47
253333.05
277958.37
303932.31
331072.5
359298.65
388514.94
418609.42
449453.84
480903.65
512798.26
544961.44
577201.84
609313.84
641078.53
672264.82
702630.65
731923.27
759875.21
786184.11
810236.14
832640.79
852752.37
869969.55
884566.73
896282
904803.76
909976
911672.6
909801.14
904405.94
895418.93
882740.16
866545.19
846956.16
824140.33
798308.54
769712.49
738640.88
705414.03
670376.92
85290.817
97922.815
111832.59
127069.31
143672.1
161643.96
180623.46
201406.14
223725.84
247535.69
272242.54
298437.15
326354.13
355572.73
386022.73
417617.52
450254.24
483813.51
518159.21
553138.46
588581.68
624302.86
660100
695755.69
731037.91
765701.06
799487.21
832127.55
863344.69
892859.17
919853.92
945066.63
967864.5
987551.13
1004283.7
1017964
1028155.6
1034675.3
1037369
1036115.5
1030923.2
1021760.2
1008441.1
991150.98
970003.63
945163.64
916845.65
885311.99
850869.11
813862.36
774668.99
106384.21
121335.34
137691.73
155503.38
174836.18
195210.39
217277.44
241130.46
266529.52
293415.39
321209.19
350979.31
382309.53
415010.8
449004.37
484196.75
520478.59
557724.02
595790.2
634517.07
673727.31
713226.39
752802.85
792228.78
831260.42
869639.23
907093.16
943338.64
978083.3
1011030.2
1041230.9
1069491.6
1095190.8
1117844.8
1136921.2
1152806.1
1164935.6
1173065
1177007.8
1176617.1
1171797
1162635.9
1148839.1
1130561.5
1107918.1
1081066.3
1050220.1
1015648.8
977673.66
936663.19
893027.36
132412.16
149996.91
169100.54
189751.78
211966.39
235270.51
260703.71
287823.07
316630.14
346373.65
377930.88
411385.23
446338.13
482719.67
520445.94
559418.36
599522.66
640627.97
682586.27
725231.9
768381.35
811833.18
855368.07
898749.14
941722.48
984018.03
1025351
1065423.4
1103926.7
1140543.5
1174201.1
1205760.2
1234693.7
1260426.4
1282227.1
1300580.4
1314937.2
1324959.1
1330422.8
1331144.1
1326983.1
1318018.6
1303938.6
1284830.1
1260806.8
1232012.5
1198655.2
1161005.8
1119396.2
1074214.9
1025903.6
164230.07
184760.27
206914.91
230700.56
255671.13
282650.16
311514.53
342072.42
374289.45
407453.53
442970.64
480144.39
518871.14
559074.75
600667.07
643546.06
687594.26
732677.63
778644.77
825326.3
872534.41
920062.57
967685.44
1015158.9
1062220.5
1108590.4
1153972.1
1198055
1240516.1
1281020.6
1318367
1353434.1
1385865.8
1414921.1
1439747.3
1460827.6
1477709.1
1489920.8
1497200
1499321.3
1496103.4
1487588.7
1473467.3
1453735.3
1428503.8
1397896.1
1362107.2
1321404
1276123.3
1226669.4
1173513.2
202744.83
226512.5
252028.1
278672.16
307267.4
337971.03
370423.56
404608.35
439859.07
477287.29
516634.81
557635.79
600226.67
644330.84
689858.99
736707.91
784758.99
833877.08
883909.46
934685.08
986013.87
1037686.3
1089472.8
1141124
1192370.6
1242924.2
1292478.4
1340711.3
1387288.8
1431868.5
1473125
1511867.1
1548025.7
1580648.5
1608828.9
1632864.9
1652562.4
1667265.9
1676668.9
1680499.9
1678531.1
1670753.6
1656874.8
1636775.2
1610561.2
1578328.4
1540251.5
1496586
1447667.3
1393909.8
1335810.2
248872.54
276071.27
304925.29
334954.1
367502.45
401905.5
438068.1
475288.9
514617.94
556078.55
599260.95
644119.53
690592.78
738605.77
788070.44
838884.69
890931.04
944075.4
998165.94
1053032.1
1108483.7
1164310.3
1220280.2
1276140.5
1331616.8
1386413.2
1440213.9
1492685.1
1543482.3
1592270.2
1637706.6
1680245.3
1720287.4
1756598.7
1788695.1
1815824.5
1838583.6
1856077.3
1867918.3
1873782.7
1873389.4
1866661.3
1853343.5
1833175
1806254.4
1772641.1
1732481.9
1686012.6
1633560.1
1575541.9
1512476.1
303533.36
334342.93
366277.67
400545.2
436848.34
475108.29
514271.56
555337.18
598822.65
644068.89
691048.23
739716.15
790013.98
841870.13
895199.99
949904.83
1005870.6
1062966.6
1121044
1179935.1
1239451.6
1299384.2
1359501.3
1419548.2
1479247
1538295.7
1596368.6
1653115
1708156.5
1761068.3
1811299.9
1857682.9
1901691.1
1941965.4
1977955.4
2008591.2
2034644.2
2055227.6
2069822.4
2078050.9
2079575.4
2074223.3
2061809.1
2041908.7
2014601.2
1979903
1937924.3
1888873.9
1833061.3
1770899.3
1702922.7
367678.09
401548.62
437643.59
475771.91
515740.84
557509.23
600078.58
645340.21
692478.77
741394.46
792049.14
844397.59
898384.5
953943.21
1010994.6
1069445.5
1129187.6
1190095.7
1252026.3
1314816.5
1378282.1
1442216.8
1506390.9
1570550.1
1634414.9
1697679.3
1760010.6
1821048.2
1880402.3
1937651.4
1992351.7
2042891.5
2091013.7
2135440.3
2175484.7
2209890.3
2239458.8
2263420.1
2281076.6
2291997.4
2295794.5
2292145.2
2280988.9
2261733.9
2234393.1
2198947.4
2155462.7
2104111.4
2045178
1979062.5
441462.95
479391.12
519394.15
561184.17
604760.2
649254.26
696163.46
744999.76
795632.08
848030.3
902160.48
957982.29
1015446.7
1074494.4
1135053.7
1197039.4
1260351
1324870.7
1390462.4
1456969.7
1524214.5
1591995.4
1660086.3
1728235.3
1796163
1863561.7
1930095
1995396.6
2059070.7
2120693.8
2179822.3
2234622.4
2286947.8
2335674
2379946.8
2418361.3
2451626.1
2479234
2500244.6
2514173.1
2520570.2
2519036.2
2509450.9
2491230.6
2464232.8
2428409.3
2383772.7
2330450.9
2268697.4
2198924.7
526572.75
568382.51
611929.23
657206.81
703328.36
751838.01
802199.46
854316.32
908187.4
963797.92
1021124.7
1080137.1
1140795.4
1203050
1266839.1
1332087.1
1398703
1466578.6
1535586.7
1605579
1676385
1747809.9
1819632.7
1891605.1
1963450
2034860
2105496.6
2174990.3
2242940.8
2308918.5
2372466.6
2431572.3
2488128
2541250.5
2589883.1
2632593.1
2669688.6
2701168.2
2725799.3
2743034.3
2752358.2
2753299.2
2745638.9
2728838.7
2702575.4
2666766.3
2621362.7
2566439.1
2502207.8
2429070
623622.66
668781.52
715609.49
763175.25
813070.19
864737.28
918085.89
973135.7
1029896
1088365.7
1148534.6
1210384.4
1273887.3
1339005.4
1405688.5
1473872.5
1543477.4
1614405.6
1686540.2
1759742.5
1833850.7
1908677.5
1984008.6
2059600.6
2135179.8
2210440.2
2285043.3
2358617.2
2430758.3
2501032.7
2568975.9
2632408.2
2693168.7
2750718.8
2803651
2851213.8
2892228.4
2927674.6
2956162.4
2976979
2989538.2
2993293.4
2987908
2972907.8
2947774.9
2912384.5
2866618.6
2810489.5
2744157.7
2668001.9
732702.77
780878.22
829672.8
880738.87
933417.8
987692.41
1043589.3
1101135.8
1160352.9
1221253.5
1283841.8
1348113.6
1414054.8
1481640.7
1550833.9
1621582.8
1693819.6
1767458.4
1842393.2
1918495.8
1995613.9
2073568.6
2152153.1
2231129.8
2310229.1
2389147.7
2467547.2
2545054.1
2621262
2695736.1
2768021.9
2835814.9
2900729.6
2962765.5
3020196.3
3072365.6
3117628.1
3157183.8
3189742.8
3214389.5
3230467.7
3237355.2
3234579.6
3221741.7
3198130.8
3163565.7
3117852.5
3060933.2
2992905.9
853846.32
903817.63
955815.44
1009180
1064017.5
1120375.7
1178298.5
1237826.8
1298996
1361834.1
1426370.5
1492597.3
1560524
1630139.8
1701421.1
1774329.4
1848809.4
1924787.4
2002168.8
2080836.2
2160647.1
2241431.8
2322990.9
2405093.4
2487474.7
2569833.9
2651833.2
2733096.4
2813211.1
2891737.1
2968246.2
3040542.2
3109512.3
3176006.8
3237977.8
3294739.5
3344402.2
3388166.8
3424980.9
3453672.7
3473521.1
3483832.6
3483985.4
3473640.2
3451933.1
3418592.9
3373347.7
3316070.7
3246861.6
987184.57
1039488.1
1093129.5
1148103.4
1204474.7
1262306.6
1321659.6
1382590.3
1445149.7
1509381.8
1575321.7
1642995.7
1712419.1
1783595.4
1856531.9
1931170
2007483.2
2085409.6
2164866
2245745.8
2327916.2
2411216.6
2495455.5
2580408.6
2665816.1
2751380.4
2836763.9
2921586.3
3005422.2
3087791.9
3168123.5
3245549.2
3318327.1
3389105.9
3455598.9
3516967.9
3571155.7
3619172.9
3660384.3
3693296.4
3717124.2
3731102.2
3734513.8
3726932.8
3707506.2
3675770.6
3631395.4
3574174.9
3504176.4
1133228.5
1186568.4
1241148.2
1297002.5
1354203.6
1412829.3
1472956.4
1534657.9
1598000.7
1663044.6
1729840.3
1798428.8
1868840
1941090.9
2015184.6
2091108.5
2168831.8
2248330.2
2329481.2
2412212.6
2496401.1
2581894.8
2668509.9
2756028.6
2844196.3
2932718.8
3021259.3
3109435.6
3196815.9
3282912.1
3367168.4
3448967.6
3525807.2
3600786.8
3671749
3737697.5
3796606.6
3848866.9
3894554.2
3931821.7
3959807.7
3977672.6
3984615.7
3980059
3963234.5
3933458.5
3890333.2
3833564.9
3763168.8
1290989.2
1344537.3
1399248.5
1455191.6
1512459.2
1571147.2
1631349
1693153.9
1756644.3
1821894.8
1888970.6
1957926.4
2028805.2
2101636.7
2176435.8
2253201.3
2331913.3
2412532.1
2494995
2579249.9
2665114.6
2752478
2841163.6
2930959.8
3021617.1
3112844.9
3204308.4
3295625.4
3386362.9
3476033.4
3564094.5
3649964.2
3730819.6
3809893.5
3885225.5
3955509.9
4019664.2
4076086.5
4126190.8
4167911.5
4200196.4
4222128.6
4232822
4231535.6
4217595.7
4190104.6
4148585.5
4092645.8
1459857.6
1512682.7
1566640.9
1621826.6
1678354.8
1736339.5
1795890.7
1857112.3
1920100.9
1984944.3
2051720.2
2120495.1
2191323.4
2264245.4
2339286.4
2416454.7
2495740
2577111.3
2660514.7
2745871.2
2833074.2
2922032.1
3012486.5
3104274.7
3197151.9
3290831.1
3384980.2
3479218.4
3573113.3
3666179.3
3757877.1
3847620
3932379.9
4015421.9
4095079.5
4169823.1
4238741.5
4299583
4354104.3
4400345.8
4437032.6
4463172.7
4477796.4
4479993
4469179.2
4444267.3
4404696.9
4350086.2
1639003.4
1690110
1742379.8
1795926.8
1850885.3
1907385.5
1965551.7
2025500.4
2087339.6
2151167.7
2217072.2
2285129.2
2355401.6
2427938.2
2502772.3
2579920
2659378.4
2741123.5
2825108.5
2911261
2999480.8
3089636.9
3181620
3275121.9
3369954.6
3465834.6
3562432.3
3659368.8
3756213.4
3852481.8
3947634.8
4041077.6
4129612
4216469.6
4300372.1
4379525.4
4453030.3
4518328
4577238.2
4628036.8
4669190.1
4699638.4
4718334.7
4724194.9
4716701.3
4694624.5
4657291.2
4604282.3
1827405.7
1875763.6
1925385.5
1976398.8
2028952.6
2083189.7
2139244.8
2197243.3
2257301.3
2319524.3
2384006.5
2450830.1
2520063.8
2591762.2
2665963.8
2742690
2821943
2903704.3
2987931.8
3074558.4
3163488.6
3254596.2
3347721.5
3442733
3539266.1
3637102.8
3735916
3835328.6
3934911.3
4034181.3
4132601.3
4229574.4
4321750.9
4412248.2
4500280
4583739.3
4661717.8
4731455.4
4794681.6
4850037.2
4895682.3
4930495
4953361.5
4963049.9
4959015.2
4939990.3
4905141.8
4853992.2
2023884.9
2068455.9
2114470.6
2162063.5
2211392.5
2262607.8
2315849.4
2371247.3
2428921.1
2488979.3
2551518.9
2616624.7
2684367.9
2754805.3
2827978.3
2903910.7
2982607.5
3064053.1
3148208.7
3235010
3324365.1
3416151.1
3510211.5
3606352.6
3704417
3803976.5
3904779.2
4006449.1
4108558
4210624.4
4312115.7
4412448
4508148.6
4602092.4
4694107.3
4781734
4864069.7
4938243.7
5005669.8
5065542.1
5115665.2
5154853.1
5181905.9
5195627.8
5195121.5
5179324.2
5147168
5098113.4
2227135.3
2266898.5
2308370.3
2351684.8
2397001.9
2444472.5
2494236.3
2546422.3
2601148.5
2658522
2718638.2
2781580.4
2847418.7
2916209
2987992
3062791.5
3140612.8
3221440.7
3305237.3
3391940
3481458.3
3573671.2
3668424.2
3765525.6
3864743.3
3965889.4
4068465.3
4172180.8
4276606.6
4381260.7
4485615.4
4589121.2
4688284
4785466.6
4881281.6
4972898.6
5059416.9
5138131.9
5209586.8
5273882.7
5328439.6
5371997.3
5403287
5421061
5424180.4
5411731.8
5382435.7
5335679.6
2435759.3
2469735
2505772.6
2543997.7
2584564.6
2627617.6
2673289.4
2721702
2772966.3
2827182.9
2884441.1
2944818.5
3008380.1
3075177.6
3145248.1
3218612.2
3295272.8
3375213.1
3458394.2
3544752.7
3634198.1
3726610
3821834.3
3919680.5
4019917.2
4122268.6
4226511.8
4332070.5
4438610.4
4545642.9
4652631.6
4759057.5
4861791.4
4961975.3
5061347.7
5156747
5247052.2
5330791.2
5405966.8
5474505.8
5533430.1
5581321.6
5616844.3
5638676.1
5645481
5636461.1
5610154.1
5565864
2648302
2675573.3
2705347.9
2737735.6
2772876.4
2810900.4
2851926
2896061.7
2943405.9
2994047.2
3048063.9
3105523.8
3166483.3
3230986.2
3299062.5
3370727.2
3445978.4
3524795
3607135
3692932.8
3782096.2
3874503.5
3970000.5
4068396
4169458.9
4272913.2
4378545
4485757
4594219.3
4703430
4812807.9
4921626
5028553.5
5131333.8
5233979.5
5333017.8
5427167.4
5515237.1
5594348.8
5666978.9
5730180.6
5782340.5
5822056.5
5847931
5858446.2
5852896.4
5829671.3
5787978.2
2863282.5
2883016
2905776.9
2931654.9
2960767.1
2993221
3029113.7
3068533.5
3111560.3
3158265.4
3208711.8
3262953.2
3321033.2
3382984.6
3448827.6
3518568.6
3592198.2
3669689.3
3750994.7
3836044.7
3924743.8
4016968.2
4112561.5
4211331.7
4313046.6
4417429.4
4524153.9
4632964.3
4743173.1
4854391.1
4966023.6
5077358.8
5187534.9
5293161
5398909.8
5501441
5599318.2
5691391.1
5774392.7
5850976.2
5918347.8
5974685.3
6018526.4
6048403.9
6062627.1
6060551.7
6040466.2
6001466.6
3079223.4
3090687.8
3105775.7
3124557.2
3147119.5
3173539.3
3203884.9
3238218.1
3276594.3
3319062.7
3365666.1
3416440.1
3471412.3
3530601.1
3594014
3661646.3
3733478.9
3809476.6
3889585.3
3973729.5
4061809.1
4153696.6
4249232.8
4348223.5
4450434.8
4555588.6
4663357.4
4773358.5
4885286.4
4998353.9
5112102.3
5225848.4
5338845.9
5447256.3
5555954.7
5661824.5
5763270.2
5859126.9
5945895.9
6026277.1
6097693.6
6158095.8
6205966.8
6239781.4
6257694.8
6259062.1
6242141.8
6205899.2
3294680.7
3297261.1
3304118.1
3315308.1
3330885.6
3350888.2
3375348
3404294.1
3437752
3475743.7
3518287.6
3565397.8
3617082.4
3673342.3
3734169.9
3799547
3869443
3943812.5
4022592.9
4105701.4
4193032.2
4284452.8
4379800.4
4478877.5
4581448.2
4687232.2
4795900.5
4907068.9
5020440.6
5135207.3
5250924.1
5366923.6
5482481.7
5593534.8
5705017
5814062.8
5918906.5
6018360
6108749
6192755.5
6268076.4
6332410.9
6384189.9
6421839.2
6443434
6448173.6
6434413.9
6400962.2
3559870.9
3537592.7
3520381.3
3508322.4
3501494.4
3499656.7
3502852.2
3511099.6
3524384.1
3542695.5
3566024.5
3594361.2
3627696.1
3666019.6
3709320.4
3757584.4
3810792.6
3868919.8
3931932.4
3999786.2
4072424.1
4149773.6
4231743.6
4318221
4409067.6
4504115.8
4603164.7
4705975.1
4812264.7
4921702.5
5033903
5148419.4
5264900.7
5382437.4
5500527.3
5618445.1
5731981.1
5846072.4
5958125.7
6066193.3
6169066.7
6262920.8
6350368.6
6429441.1
6497560.4
6553102.5
6594406.2
6619744.5
6627733.2
6617099.2
6586447.2
3805795.3
3770666.7
3741749.6
3718928.2
3702100.3
3691333.2
3686223.3
3686886.8
3693234.4
3705209.6
3722760.5
3745836.4
3774392.4
3808387.3
3847781.9
3892537.1
3942611.9
3997961.5
4058534.8
4124272.9
4195105.5
4270948.9
4351702.3
4437245
4527431.9
4622090
4721014.1
4823961.5
4930647.3
5040738.5
5153848.1
5269528.7
5387439.6
5506652.1
5626675.1
5746777.2
5862635.3
5979158
6094047
6205162.6
6311282.6
6408447.8
6499146.5
6581808.3
6653557.3
6712724.7
6757602.8
6786481.7
6797670.1
6790101.9
6762239.4
4048725.4
4000258
3959177.2
3925233.1
3898249.2
3878099.6
3864481.9
3857470.7
3856741.6
3862265
3873943.3
3891678.8
3915388.5
3944996.8
3980434.1
4021634.3
4068532.3
4121061.9
4179153.7
4242732.1
4311712.9
4386000
4465482.5
4550030.4
4639491.7
4733687.3
4832406.9
4935404.2
5042391.2
5153032.7
5266940.4
5383665.9
5502878.5
5623629.8
5745437
5867562.4
5985585.5
6104363.1
6221914.5
6335899.9
6445094.5
6545426.5
6639182.7
6725262.6
6800476.5
6863118.5
6911438.8
6943691.6
6957990.8
6953407.5
6928305.9
4287161
4225007.8
4171467.6
4126167.2
4088830.7
4059211.1
4037017.3
4022079.8
4014305
4013329
4019103.7
4031474.9
4050321.8
4075532
4107003.2
4144640.5
4188353.3
4238053.1
4293650.4
4355052.3
4422159.6
4494863.3
4573041.1
4656554.1
4745241.9
4838919.2
4937370.3
5040344.8
5147551.4
5258652.6
5373258.3
5490919.5
5611121.6
5733475.4
5856926.7
5980924.7
6100961.6
6221821.3
6341861.3
6458534.5
6570628.4
6674007.5
6770627.3
6859941.5
6938446.4
7004399.1
7056005
7091472.2
7108774.3
7107088.1
7084695.7
4519744.5
4443704.6
4377551.7
4320785.2
4273020.6
4233905.7
4203097.1
4180321.6
4165325.5
4157957.5
4157860.5
4164894
4178908
4199750.7
4227285.2
4261386.7
4301938
4348826.7
4401943
4461175.8
4526410.2
4597523.7
4674382.5
4756837.6
4844720.5
4937838.9
5035971.8
5138863.9
5246220.7
5357702.2
5472916.5
5591413.5
5712678.3
5836330.4
5961294.1
6087022.9
6208929
6331703.8
6454059.9
6573231.7
6688031.9
6794395
6893680.3
6986025.7
7067641.5
7136731.6
7191453.8
7229970.9
7250180.6
7251373.3
7231617.3
4745264
4655280.8
4576492.8
4508266.5
4450103.3
4401547.5
4362177.1
4331627.7
4309570
4295709.3
4289920.8
4291683
4300936.2
4317479.9
4341141.7
4371765.5
4409206.7
4453329
4504001.1
4561093.6
4624475.4
4694010.2
4769552.1
4850942
4938003.1
5030535.8
5128313.1
5231075.3
5338524.2
5450317
5566060.2
5685302.4
5807528.1
5932365.4
6058718.4
6186045
6309683
6434213.7
6558717
6680189.6
6797443.8
6906856.3
7008587.4
7103728.4
7188274.4
7260324.6
7317989.2
7359382.6
4962661.6
4858814.1
4767489.9
4687916.9
4619479.4
4561615.7
4513814.7
4475623.4
4446633.2
4426450.1
4415013.5
4411664
4416264
4428610.7
4448493.5
4475724.9
4510132.3
4551555
4599840.2
4654839.8
4716406.5
4784389.6
4858631.5
4938962.8
5025197.7
5117129.5
5214525.5
5317120.9
5424613.8
5536658.6
5652859.8
5772765.1
5895858.1
6021550.8
6149402.5
6278202.2
6403443.2
6529580.5
6656071.1
6779649.3
6898933.5
7011756.9
7115609.5
7213300.7
7300589.7
7375423.4
7435876.6
5171034.5
5053527.3
4949876.5
4859167
4780664.2
4713698.7
4657665.4
4612024.5
4576292.9
4550038.6
4532951.9
4524697.4
4524811.2
4533092.5
4549315.9
4573263.4
4604734.4
4643543.5
4689516.4
4742486.4
4802289.8
4868762.1
4941733.4
5021024.1
5106439.6
5197766.1
5294764.6
5397165.7
5504663.5
5616909.6
5733506.4
5854000.4
5977874.7
6104541.2
6233567.6
6363724.1
6490448
6618053.9
6746387.4
6871939
6993316.3
7108852.4
7214930
7315000.8
7404854.7
7482301.3
7545499.5
5369626.9
5238785.5
5123117.9
5021567.7
4933283.7
4857487.7
4793478.7
4740630.8
4698386.3
4666252.9
4643821
4630676.8
4626564.5
4630927.6
4643632.8
4664424.4
4693073.8
4729371.2
4773121.1
4824138.1
4882242.5
4947256
5018996.7
5097274.8
5181887.2
5272612.6
5369206.3
5471393.9
5578865.5
5691269.9
5808207.3
5929222.8
6053799.2
6181348.9
6311449
6442853.8
6570950
6699897.1
6829938.2
6957336
7080718.1
7198583.3
7306812.8
7409107.9
7501354.7
7581234.8
7646989.3
5557738.4
5414091.8
5286805.6
5174784.9
5077068.6
4992769.7
4921091
4861321.6
4812829.3
4775055.3
4747510.6
4729713.8
4721529.9
4722166.5
4731510.6
4749290
4775247.4
4809148.2
4850776.1
4899927.5
4956407.2
5020023.2
5090582.1
5167883.9
5251717.2
5341853.6
5438042.4
5540004.3
5647425.8
5759952.4
5877182.1
5998658.6
6123864.4
6252212.7
6383291.2
6515843.5
6645211.8
6775382.9
6907000.2
7036113.3
7161365.3
7281304.3
7391555
7495919.1
7590391.9
7672538.1
7740651.6
5733797.3
5579103.8
5440651.8
5318591.4
5211846.3
5119419.6
5040418.4
4974048.8
4919604.9
4876461.8
4844063.7
4821872.8
4809751.8
4806903.4
4813052.8
4827976.8
4851383
4883012.5
4922628.7
4970010.7
5024947.9
5087235.3
5156668.1
5233036.7
5316121.5
5405687.2
5501477.2
5603207.6
5710560.9
5823179.7
5940659.5
6062542.6
6188310.6
6317378.3
6449345.1
6582950.3
6713503.8
6844791
6977853.9
7108550.2
7235526.7
7357340.6
7469465.2
7575743.4
7672280
7756530.2
7826814.8
5897339.2
5733277
5584475.5
5452858.5
5337533.1
5237392.3
5151449.5
5078829.3
5018755.1
4970537.9
4933565.3
4907284.5
4891316.3
4885249.6
4888392.9
4900629.8
4921634.4
4951125.8
4988847.9
5034563
5088046.1
5149079.4
5217447.3
5292931.1
5375303.2
5464321.5
5559724.1
5661222.3
5768494.8
5881181.1
5998874.5
6121115.1
6247383.7
6377095.9
6509597.1
6644431.6
6776102.3
6908406.6
7042781.7
7174932
7303488.5
7427006.3
7540856.2
7648895.7
7747337.9
7833532.7
7905808.9
6050568.4
5875711.7
5718220.9
5577546.8
5454125.2
5346714.5
5254236.6
5175737.9
5110373.5
5057393.5
5016132
4985995.3
4966479.2
4957346.4
4957700.4
4967419
4986177.1
5013669.1
5049619.7
5093775.2
5145896.8
5205754.8
5273123.3
5347774.7
5429473.8
5517972.5
5613003.1
5714272.7
5821456.3
5934190.3
6052065.3
6174619.5
6301331.9
6431617.8
6564827.6
6700538.2
6833290.6
6966515.1
7102068.7
7235546.2
7365543.4
7490610.3
7606040.4
7715693
7815887.3
7903870.3
7977965.2
7546110.4
7213735.2
6915192.6
6647514.3
6407871.2
6193171
6006681.1
5841652
5692690.5
5561690.2
5447476.3
5348888.7
5264899.5
5194598.6
5137178.3
5091921.8
5058191.1
5035411
5023359.1
5021161
5028533
5045204.1
5070839.1
5105143.8
5147850.1
5198705.8
5257470.1
5323907.3
5397781.6
5478850.7
5566860.3
5661537.8
5762586.1
5869676.5
5982442.4
6100471.8
6223300.3
6350404.4
6481196.8
6615027.7
6751503.7
6885365.8
7019398.7
7156001.9
7290680.5
7421984.6
7548457.3
7665328.2
7776451.3
7878249.4
7967869.8
8043618.8
7747416.8
7398885.3
7084454.9
6802733.4
6550645.9
6325391.3
6126492.1
5954322.5
5798437
5660359.3
5539822.8
5435563.5
5346482.1
5271606.8
5210075.6
5161123.5
5124072.1
5098327.7
5083467.4
5078972.1
5084174.7
5098922.4
5122844.1
5155630.4
5196999.1
5246686.1
5304439.9
5370015.9
5443170.4
5523654.4
5611208
5705553.9
5806390.9
5913386.9
6026172.5
6144332.9
6267400.9
6394849.5
6526085.6
6660447.1
6797521.1
6932657.6
7067340.1
7204861.4
7340618.7
7473102.9
7600846.9
7719025.8
7831483.3
7934743
8025857.1
8103118.2
7930474.7
7568904.3
7239731.1
6944964.3
6681342.9
6445968
6236693.4
6056532.5
5894896.3
5750311.4
5623946.1
5514460
5420690
5341606.8
5276297
5223950.6
5183850.1
5155367.6
5137976.3
5131346.3
5134565.8
5147549.6
5169901.7
5201296.9
5241440.1
5290055.9
5346883.1
5411668.6
5484161.4
5564106.6
5651238.9
5745276.6
5845914.6
5952817.9
6065613.9
6183885.4
6307162.2
6434913
6566536.3
6701341.5
6838691.2
6975574.2
7110612.1
7248920
7385639.4
7519183.9
7648073.2
7767433.8
7881096.3
7985681.8
8078152.8
8156790.3
8095822.5
7723453.1
7381137
7074352.1
6800118.7
6555373.6
6337274.1
6148606.8
5982193.2
5831775.9
5700078.7
5585811.8
5487757.8
5404833.3
5336076.8
5280636.2
5237757.5
5206776.1
5187102.5
5178507.6
5179933.3
5191310.4
5212235
5242365.6
5281394.4
5329035.9
5385019.9
5449085.6
5520975.4
5600428.7
5687175.3
5780929.4
5881382.6
5988196.7
6100996.6
6219362.5
6342821.1
6470836.9
6602799.5
6737998.6
6875761.8
7013863.4
7149436
7288438.1
7426013.9
7560507
7690423.2
7810845.8
7925591
8031372.7
8125069.8
8204952.8
8243951.7
7861924.2
7508985.5
7191140.4
6907226.4
6653969.4
6428646
6230787.2
6060404.9
5905041.1
5768486.4
5649880.5
5547944.1
5461541.9
5389667.2
5331429.2
5286039.7
5252801.6
5231081.9
5220684.9
5220508.8
5230433.8
5250070.9
5279061.1
5317084.9
5363847.6
5419070.8
5482486.7
5553831.6
5632839.8
5719236.8
5812733
5913016.6
6019746.9
6132546.2
6250992.2
6374609.2
6502857.4
6635119.5
6770674.5
6908879.8
7047915.4
7184041.9
7323668.9
7462006.4
7597344
7728176
7849547.8
7965260
8072114.6
8166913.3
8247915.6
8378044.3
7984986.2
7623494.2
7295637
7002981.7
6742029.4
6509903
6304668.5
6129827.3
5970405.8
5829458.1
5706949.1
5601526.6
5512004.3
5437334.1
5376589.5
5328951.9
5293696.1
5270163.9
5258109.1
5256526.6
5265150.6
5283637.4
5311608.5
5348734.2
5394711.3
5449254.3
5512089
5582946.4
5661556
5747639.3
5840903.3
5941033.6
6047686.6
6160482.6
6278997.1
6402751.8
6531204.1
6663731.9
6799611.3
6938245.4
7078010
7214668.9
7354859.8
7493873.1
7629958.7
7761602.4
7883816.7
8000387
8108197.6
8203979.4
8285980.5
8497806.2
8093395.4
7724979.9
7388214.9
7087759.5
6819925.2
6581632
6370242.1
6190967.3
6028167
5883299.9
5757317.6
5648796.7
5556503.7
5479352.5
5416384.7
5366754.2
5329713.6
5304609.3
5291007.2
5288221.9
5295691.6
5313162.2
5340231.8
5376562.9
5421844.9
5475786
5538106.3
5608532.1
5686788.5
5772593.6
5865651.5
5965644.9
6072228.3
6185019.7
6303592.7
6427467.2
6556098.1
6688861.3
6825034.8
6964062.5
7104409.7
7241557
7382252.8
7521862.4
7658605.9
7790963.7
7913920.4
8031246.3
8139901.9
8236554.7
8319440.8
8603540.8
8187725.2
7813803.2
7469307.4
7161982.6
6888076.5
6644330.9
6427727.7
6244244
6078649
5930332.2
5801297.5
5690055.9
5595331.1
5516003.7
5451086.8
5399709.9
5361105.7
5334607.6
5319686.3
5315830.3
5322289.1
5338870.7
5365151.8
5400787.9
5445462.1
5498876.9
5560747.5
5630795.7
5708743.2
5794305
5887182.3
5987055.6
6093577.4
6206364.1
6324987.4
6448965.6
6577752.2
6710722.7
6847159
6986536.5
7127358.1
7264939.8
7406082.2
7546213.6
7683530.9
7816511.4
7940116
8058101.2
8167497.2
8264915.6
8348579.7
8695949
8268469.3
7890308.6
7539407.6
7226110.7
6946930.4
6698467.4
6477469.2
6290039.5
6122184.4
5970885.8
5839208.6
5725611.2
5628781.5
5547571.3
5480968.6
5428082
5388126.1
5360416.6
5344372.7
5339584.8
5345170.3
5360984
5386584.8
5421621.3
5465771.4
5518732.4
5580215.2
5649938
5727619.4
5812971.4
5905693.1
6005463
6111931.8
6224714.3
6343380.9
6467448.6
6596370
6729521
6866188.5
7005870
7147081.7
7285041.5
7426573
7567155.8
7704968.3
7838485.8
7962649.5
8081203.7
8191241.2
8289326.2
8373669
8776085.2
8336046.8