/*--------------------------------*- C++ -*----------------------------------*\
| =========                 |                                                 |
| \\      /  F ield         | OpenFOAM: The Open Source CFD Toolbox           |
|  \\    /   O peration     | Version:  2312                                  |
|   \\  /    A nd           | Website:  www.openfoam.com                      |
|    \\/     M anipulation  |                                                 |
\*---------------------------------------------------------------------------*/
FoamFile
{
    version     2.0;
    format      ascii;
    arch        "LSB;label=32;scalar=64";
    class       volScalarField;
    location    "0.04";
    object      T;
}
// * * * * * * * * * * * * * * * * * * * * * * * * * * * * * * * * * * * * * //

dimensions      [0 0 0 1 0 0 0];

internalField   nonuniform List<scalar> 
3272
(
465.23995
468.26074
471.22981
474.14618
477.00877
479.81659
482.56878
485.2646
487.90343
490.43294
492.93614
495.39336
497.786
500.11115
502.33574
504.53974
506.68157
508.75755
510.76622
512.70635
514.57683
516.37658
518.10452
519.75951
521.34042
522.84608
524.27536
525.62709
526.90015
528.07454
529.18408
530.21396
531.14716
532.01011
532.78955
533.4836
534.09126
534.61165
535.04401
535.38772
535.63895
535.8033
535.87811
535.86271
535.757
535.56099
535.27478
534.89861
534.4328
533.87781
533.23415
532.50242
531.68321
465.90383
468.9222
471.88865
474.80216
477.66167
480.46619
483.21486
485.90696
488.54203
491.06784
493.57078
496.02798
498.42553
500.72041
502.95138
505.15756
507.29841
509.37282
511.37989
513.31862
515.18797
516.9869
518.71432
520.36911
521.95012
523.4562
524.8862
526.23897
527.51337
528.68928
529.80055
530.83273
531.76821
532.63331
533.41526
534.11191
534.72227
535.24545
535.68066
536.02726
536.28132
536.44852
536.52612
536.51342
536.41029
536.21669
535.93273
535.55861
535.09465
534.54132
533.89919
533.16888
532.35061
467.14349
470.15642
473.11697
476.0242
478.87708
481.67463
484.41589
487.10001
489.72648
492.24389
494.74351
497.19412
499.58492
501.86951
504.10161
506.30298
508.43922
510.50953
512.51305
514.44879
516.31578
518.11295
519.83923
521.49351
523.07463
524.58144
526.01278
527.3675
528.64448
529.82325
530.93771
531.97412
532.91388
533.78311
534.57002
535.27184
535.88759
536.41633
536.85726
537.20964
537.4694
537.64234
537.72562
537.71845
537.62062
537.43207
537.15283
536.78305
536.32302
535.77316
535.13397
534.40602
533.58944
468.88042
471.88394
474.83454
477.73141
480.57365
483.36034
486.09042
488.76215
491.37154
493.87672
496.3705
498.81052
501.19073
503.46406
505.69568
507.88862
510.01743
512.08124
514.07915
516.0102
517.8734
519.66771
521.39206
523.04532
524.62636
526.13401
527.56711
528.92451
530.20505
531.3878
532.50656
533.54884
534.49465
535.36971
536.16386
536.8733
537.497
538.03398
538.48337
538.84437
539.11263
539.29417
539.38602
539.38723
539.29753
539.11675
538.84486
538.48193
538.02817
537.48392
536.84963
536.12577
535.31241
471.04479
474.03409
476.9699
479.85161
482.67865
485.45062
488.16765
490.83108
493.38889
495.89071
498.37715
500.803
503.16843
505.42721
507.65538
509.83704
511.95577
514.01068
516.00085
517.92536
519.78321
521.57338
523.29481
524.94638
526.52694
528.03535
529.47042
530.83097
532.11583
533.30344
534.42739
535.477
536.43046
537.31274
538.11624
538.83556
539.46962
540.01738
540.47787
540.85021
541.12969
541.32262
541.42589
541.43835
541.35961
541.18941
540.92761
540.57418
540.12923
539.59301
538.96586
538.2482
537.43997
473.5742
476.54365
479.45901
482.31985
485.12566
487.87603
490.5708
493.21037
495.73856
498.23464
500.70087
503.107
505.44924
507.69047
509.91184
512.07954
514.18557
516.2291
518.2093
520.12525
521.97603
523.76062
525.47797
527.12698
528.7065
530.21537
531.6524
533.01637
534.30609
535.49927
536.62902
537.68729
538.64992
539.54047
540.35525
541.08654
541.73319
542.29408
542.76814
543.15439
543.44771
543.6547
543.77217
543.79869
543.73374
543.57694
543.32801
542.98681
542.55333
542.0277
541.41017
540.70102
539.90014
476.41261
479.35598
482.24474
485.07862
487.85715
490.57969
493.24548
495.85477
498.35329
500.83832
503.28214
505.67182
507.96006
510.193
512.40455
514.55565
516.64621
518.67573
520.64352
522.54879
524.39061
526.16803
527.87999
529.52541
531.10314
532.612
534.05077
535.41823
536.71313
537.91242
539.0483
540.11648
541.08998
541.98945
542.81724
543.56235
544.22357
544.79972
545.28963
545.69219
546.00179
546.22536
546.3597
546.40299
546.35459
546.21395
545.98066
545.65444
545.23514
544.72275
544.1174
543.41926
542.62811
479.50955
482.4201
485.27568
488.07625
490.82149
493.51056
496.14145
498.71033
501.17813
503.64414
506.05787
508.41676
510.67023
512.8947
515.08283
517.21292
519.28453
521.29708
523.2499
525.14219
526.97308
528.74162
530.44676
532.08742
533.66244
535.17063
536.61076
537.98158
539.28182
540.48757
541.62937
542.70842
543.69561
544.60437
545.44635
546.20677
546.88426
547.47755
547.98536
548.40643
548.73457
548.97703
549.13075
549.19339
549.16416
549.04235
548.8274
548.51885
548.11641
547.61991
547.02935
546.34477
545.56583
482.81944
485.69003
488.50546
491.26594
493.97166
496.6229
499.22119
501.71242
504.17403
506.60782
508.98631
511.30572
513.52751
515.73699
517.89826
520.00394
522.05344
524.04615
525.9814
527.85842
529.67635
531.43423
533.13104
534.76567
536.33695
537.84366
539.28456
540.65842
541.96406
543.17667
544.32315
545.41056
546.42064
547.33935
548.19399
548.97064
549.66578
550.27786
550.8054
551.24696
551.59571
551.85914
552.03454
552.11895
552.11136
552.0109
551.81684
551.52855
551.14556
550.66753
550.09428
549.42569
548.66107
486.30114
489.12449
491.89271
494.60623
497.26528
499.86934
502.41472
504.85763
507.29641
509.69143
512.0367
514.28362
516.49218
518.67735
520.80912
522.88741
524.91187
526.88201
528.79718
530.65667
532.45961
534.20506
535.89199
537.51926
539.08566
540.58992
542.03076
543.40698
544.71791
545.94007
547.09175
548.19036
549.21532
550.14817
551.01661
551.8109
552.52506
553.15742
553.70632
554.17017
554.5414
554.8276
555.02681
555.13515
555.15147
555.0747
554.90393
554.63833
554.27725
553.82014
553.26657
489.91749
492.68636
495.4005
498.06082
500.66865
503.22701
505.68014
508.10141
510.50197
512.85084
515.14473
517.34387
519.5327
521.68181
523.78031
525.82797
527.82448
529.76937
531.66205
533.50181
535.2878
537.01908
538.6946
540.31317
541.87354
543.37432
544.81398
546.19081
547.50262
548.74575
549.90119
551.0087
552.04739
552.99553
553.87789
554.69091
555.42523
556.07908
556.65071
557.13841
557.5339
557.84441
558.06926
558.20348
558.24572
558.19475
558.04944
557.80879
557.47193
557.0381
556.5063
493.63484
496.342
498.99501
501.59476
504.14165
506.63251
509.02307
511.41258
513.76244
516.06705
518.27656
520.45119
522.6091
524.71902
526.78107
528.79513
530.76094
532.67807
534.54596
536.3639
538.13107
539.84652
541.50915
543.11777
544.67106
546.16757
547.60571
548.98377
550.29991
551.55234
552.71605
553.83295
554.88572
555.85164
556.74742
557.57976
558.33497
559.0112
559.60656
560.11934
560.54118
560.87716
561.12917
561.29089
561.3608
561.33747
561.21956
561.00586
560.6953
560.2869
559.77949
497.42283
500.06136
502.64682
505.1811
507.6686
510.05259
512.41261
514.7515
517.04317
519.2845
521.43576
523.58327
525.69531
527.76263
529.78519
531.76289
533.69546
535.5825
537.42347
539.21767
540.96428
542.66232
544.31069
545.90815
547.45335
548.9448
550.38089
551.75991
553.08008
554.3396
555.5115
556.6367
557.70075
558.6939
559.60117
560.45147
561.22797
561.92715
562.54672
563.08432
563.53718
563.89891
564.17875
564.36926
564.46831
564.47421
564.38539
564.20041
563.91798
563.53693
563.05593
501.25404
503.81713
506.32772
508.78638
511.19339
513.50395
515.82066
518.09663
520.33238
522.47696
524.59977
526.70473
528.76812
530.79002
532.77044
534.70928
536.60632
538.46117
540.27329
542.042
543.76644
545.44564
547.07846
548.66363
550.19976
551.68532
553.11868
554.4981
555.82177
557.0878
558.26795
559.40162
560.47986
561.49146
562.41597
563.28384
564.08228
564.80511
565.44989
566.01419
566.49569
566.88551
567.19432
567.41486
567.54432
567.5808
567.52249
567.36774
567.11502
566.76297
566.3101
505.10423
507.58629
510.0175
512.39751
514.68757
516.96506
519.21434
521.42014
523.58231
525.66086
527.74645
529.79642
531.80836
533.78227
535.71816
537.61596
539.47544
541.29624
543.07781
544.81946
546.52032
548.17937
549.79547
551.36729
552.8934
554.37222
555.8021
557.18128
558.50793
559.78014
560.9686
562.11006
563.20258
564.23132
565.17431
566.05925
566.88005
567.62698
568.29752
568.88913
569.39935
569.8181
570.15657
570.4081
570.56899
570.63713
570.61049
570.4872
570.26552
569.94385
569.52055
508.95129
511.34759
513.69803
515.9526
518.18511
520.4028
522.5782
524.71244
526.7706
528.82128
530.84891
532.84169
534.79987
536.72358
538.6129
540.46777
542.28796
544.07311
545.82266
547.53589
549.21191
550.84968
552.448
554.0055
555.52069
556.99195
558.41757
559.79575
561.12474
562.40283
563.60007
564.74819
565.85442
566.89969
567.86327
568.76402
569.60711
570.37823
571.07473
571.69393
572.23319
572.68141
573.04985
573.33304
573.52611
573.62672
573.63265
573.54179
573.35218
573.06201
572.66949
512.77365
515.07557
517.32142
519.48469
521.66026
523.79911
525.89736
527.92102
529.93152
531.92858
533.89342
535.82683
537.72926
539.60095
541.44201
543.25238
545.03184
546.78001
548.4963
550.17998
551.83011
553.4456
555.02521
556.56753
558.07099
559.5339
560.95444
562.33074
563.66104
564.94417
566.15258
567.30595
568.42405
569.48214
570.47535
571.38846
572.25232
573.04741
573.76981
574.41664
574.98516
575.46337
575.86173
576.177
576.4027
576.53632
576.57543
576.5177
576.36095
576.10315
575.74235
516.55292
518.75673
520.87462
522.99006
525.08072
527.14206
529.12346
531.08168
533.03993
534.96834
536.86825
538.74049
540.58558
542.40379
544.19525
545.9599
547.6975
549.40763
551.08969
552.74288
554.36625
555.95865
557.51879
559.04519
560.5362
561.99005
563.40477
564.77824
566.10808
567.39115
568.62169
569.77814
570.90557
571.97866
572.99207
573.92358
574.80672
575.62562
576.3737
577.04791
577.64557
578.15489
578.58272
578.93012
579.18862
579.35551
579.42816
579.40401
579.28065
579.05583
578.72749
520.27797
522.34298
524.39751
526.42867
528.42694
530.39245
532.28474
534.19023
536.07283
537.93044
539.76378
541.5735
543.36005
545.12371
546.8646
548.58262
550.27751
551.94881
553.59588
555.21789
556.81382
558.3825
559.92254
561.43241
562.91039
564.35462
565.76304
567.13341
568.46326
569.74986
570.99033
572.15499
573.29186
574.37991
575.41162
576.3624
577.26386
578.10636
578.87974
579.58069
580.20571
580.75043
581.20605
581.5849
581.87611
582.07633
582.18265
582.19227
582.10257
581.9111
523.89791
525.88529
527.85372
529.78997
531.69623
533.5399
535.38583
537.2139
539.02053
540.80642
542.57224
544.31855
546.04579
547.7542
549.44386
551.11466
552.76628
554.39822
556.0098
557.60013
559.16815
560.71261
562.23208
563.72495
565.18944
566.62359
568.0253
569.39226
570.72203
572.01201
573.2596
574.4327
575.57844
576.68105
577.73043
578.70103
579.61952
580.48531
581.28368
582.01129
582.6647
583.24042
583.72592
584.1357
584.4595
584.69293
584.83284
584.87624
584.82026
584.66232
527.46026
529.3579
531.22559
533.06537
534.84623
536.63041
538.39757
540.14562
541.87603
543.58977
545.28758
546.97005
548.63758
550.29038
551.92849
553.55176
555.15982
556.75212
558.32792
559.88629
561.42609
562.94602
564.44458
565.9201
567.37072
568.79443
570.18904
571.55222
572.88151
574.17434
575.42806
576.60926
577.76278
578.87913
579.94526
580.93774
581.87174
582.75993
583.58268
584.33653
585.01794
585.62339
586.13877
586.57887
586.93497
587.20132
587.37458
587.45154
587.42914
587.30469
530.94765
532.73853
534.50451
536.21512
537.93009
539.62978
541.31247
542.98008
544.63409
546.27556
547.90529
549.52385
551.13161
552.72877
554.31531
555.89102
557.45548
559.00809
560.54805
562.07435
563.58581
565.08104
566.5585
568.01642
569.4529
570.86585
572.253
573.61199
574.94033
576.23548
577.49481
578.68393
579.84392
580.97263
582.05133
583.07355
584.02151
584.92882
585.77523
586.55466
587.26344
587.89791
588.44281
588.91235
589.30029
589.59911
589.80528
589.91541
589.92628
589.83512
534.33403
536.019
537.65267
539.29267
540.91753
542.52798
544.12591
545.71306
547.29082
548.86025
550.42214
551.97706
553.52534
555.06713
556.60234
558.13071
559.65177
561.16486
562.66909
564.16341
565.64655
567.11708
568.57336
570.01357
571.43572
572.83765
574.21703
575.57141
576.89828
578.19512
579.45966
580.65732
581.82278
582.96381
584.05744
585.09996
586.06608
586.99149
587.8609
588.66519
589.40056
590.06337
590.63761
591.13546
591.5546
591.88524
592.12372
592.26647
592.3101
537.60679
539.16411
540.72428
542.26791
543.79934
545.32085
546.83435
548.34144
549.84345
551.3414
552.83605
554.3279
555.81726
557.3042
558.78858
560.27008
561.74816
563.22208
564.69089
566.15347
567.60849
569.05443
570.48958
571.91205
573.31978
574.71052
576.08185
577.43123
578.75602
580.05366
581.32235
582.53133
583.70104
584.85334
585.96137
587.02159
588.00625
588.94861
589.84038
590.66867
591.42963
592.11976
592.72398
593.24879
593.69815
594.05977
594.32981
594.50452
594.58053
540.76571
542.2321
543.68781
545.13369
546.57221
548.00547
549.43527
550.86311
552.29024
553.71759
555.14586
556.57551
558.00676
559.43963
560.87392
562.30922
563.74491
565.1802
566.61407
568.04531
569.47252
570.89411
572.30829
573.71311
575.10641
576.48587
577.84897
579.19304
580.5152
581.81226
583.08018
584.31082
585.48172
586.64243
587.76387
588.84058
589.84411
590.80197
591.71529
592.5666
593.35185
594.06651
594.7044
595.25439
595.73195
596.12364
596.42438
596.63022
596.73781
543.8254
545.18463
546.53807
547.88711
549.23374
550.57985
551.9271
553.27686
554.63027
555.9882
557.35124
558.71979
560.094
561.4738
562.85892
564.24887
565.64297
567.04033
568.43986
569.84029
571.24014
572.63773
574.03122
575.41856
576.79752
578.16569
579.52048
580.8591
582.17854
583.47552
584.7463
585.98683
587.1643
588.33269
589.46649
590.55836
591.5827
592.55442
593.48796
594.36135
595.17024
595.91013
596.57633
597.15295
597.65763
598.07848
598.409
598.64506
598.78335
546.76482
548.0191
549.27232
550.52613
551.7824
553.04289
554.30908
555.58226
556.86343
558.15336
559.45257
560.76135
562.07977
563.40769
564.74475
566.09038
567.44381
568.80409
570.17004
571.54031
572.91334
574.28739
575.66054
577.03065
578.39543
579.7524
581.09887
582.43199
583.74868
585.04568
586.31948
587.56664
588.75119
589.9266
591.0715
592.17431
593.22676
594.21028
595.16098
596.05552
596.88723
597.65158
598.34406
598.94687
599.47748
599.92655
600.28587
600.55116
549.58271
550.73402
551.88913
553.0497
554.21752
555.39423
556.5812
557.77956
558.99022
560.21382
561.45079
562.70133
563.96542
565.24281
566.53307
567.83554
569.14938
570.47353
571.80676
573.14762
574.49449
575.84555
577.19878
578.55201
579.90284
581.24873
582.58693
583.91452
585.22839
586.52528
587.80176
589.05439
590.24576
591.42758
592.5836
593.69975
594.77113
595.77046
596.73717
597.65198
598.50557
599.29338
600.01088
600.63918
601.19437
601.67069
602.0578
602.35168
552.27809
553.32866
554.38797
555.45756
556.53916
557.63424
558.74406
559.86962
561.01171
562.17085
563.34737
564.54137
565.75271
566.98108
568.22593
569.48653
570.76195
572.05105
573.35251
574.66481
575.98625
577.31493
578.64877
579.9855
581.32268
582.65767
583.98769
585.30974
586.62069
587.91727
589.19607
590.45358
591.65148
592.83901
594.00588
595.13515
596.22257
597.23798
598.2197
599.15394
600.02843
600.83857
601.57996
602.23333
602.81164
603.31408
603.72784
604.04903
554.85057
555.80295
556.76902
557.75017
558.748
559.76384
560.79882
561.8538
562.92945
564.02617
565.14418
566.28346
567.44379
568.62475
569.8257
571.04583
572.2841
573.5393
574.81004
576.0947
577.39151
578.69849
580.0135
581.33419
582.65805
583.98239
585.30433
586.62086
587.92878
589.22482
590.50561
591.76764
592.9719
594.16436
595.34156
596.48322
597.58535
598.61663
599.61215
600.56492
601.45922
602.29042
603.05425
603.73319
604.33311
604.86018
605.29941
605.64666
557.3004
558.15745
559.0331
559.92857
560.84529
561.78448
562.7471
563.7339
564.74539
565.78187
566.84343
567.92995
569.0411
570.17637
571.33502
572.51614
573.71861
574.94115
576.18226
577.44026
578.7133
579.99933
581.29612
582.60128
583.9122
585.22615
586.54017
587.85119
589.15599
590.45125
591.73366
592.99993
594.21067
595.40725
596.59408
597.7472
598.86303
599.91044
600.91837
601.88865
602.80164
603.65245
604.43568
605.14339
605.76315
606.31264
606.77609
607.14817
559.62846
560.39329
561.18155
561.99428
562.83276
563.69805
564.59095
565.51208
566.46182
567.44034
568.44762
569.48342
570.54732
571.63868
572.75669
573.90034
575.06844
576.25959
577.47222
578.7046
579.95477
581.22063
582.49987
583.79003
585.08845
586.39229
587.69858
589.00415
590.30571
591.59992
592.88349
594.15359
595.3717
596.57154
597.76702
598.93043
600.05847
601.12389
602.14253
603.12897
604.05959
604.92923
605.73246
606.46349
607.10429
607.67501
608.16157
608.5573
561.83618
562.5121
563.21618
563.94928
564.71252
565.50678
566.33272
567.19081
568.0813
569.00424
569.95948
570.94667
571.96529
573.01461
574.0937
575.20147
576.33663
577.49772
578.68308
579.8909
581.11915
582.36565
583.62804
584.90377
586.19012
587.48421
588.78296
590.08316
591.38143
592.67429
593.95833
595.23106
596.45942
597.66143
598.86405
600.03643
601.17268
602.26286
603.28906
604.28952
605.23683
606.12443
606.94692
607.69893
608.36025
608.95102
609.4596
609.87784
563.92545
564.51595
565.13921
565.79593
566.48703
567.21324
567.97506
568.77282
569.60662
570.4764
571.3819
572.32266
573.29802
574.30718
575.3491
576.42261
577.52633
578.65871
579.81803
581.00238
582.20967
583.43766
584.68391
585.94581
587.22058
588.50527
589.79674
591.09168
592.38663
593.67793
594.9616
596.23271
597.47993
598.68112
599.88905
601.07007
602.21666
603.32294
604.36081
605.37395
606.33704
607.24165
608.08239
608.85394
609.53495
610.14453
610.67406
611.11364
565.89862
566.40731
566.95319
567.53686
568.15902
568.82023
569.52084
570.26101
571.04075
571.85985
572.71793
573.61443
574.5486
575.5195
576.52604
577.56693
578.64071
579.74576
580.88027
582.04226
583.22959
584.43993
585.67077
586.91946
588.18315
589.45881
590.74326
592.03312
593.32483
594.6146
595.89831
597.17118
598.42741
599.63254
600.8454
602.03475
603.19158
604.31085
605.36085
606.38583
607.36383
608.2845
609.14243
609.93237
610.63235
611.25944
611.8088
612.26858
567.75839
568.18891
568.66098
569.17498
569.73146
570.33077
570.97309
571.65847
572.38677
573.15768
573.9707
574.82515
575.72018
576.65476
577.62769
578.6376
579.68296
580.76206
581.87301
583.01377
584.18212
585.37567
586.59187
587.82797
589.08108
590.34813
591.62586
592.91083
594.19941
595.48776
596.77176
598.04694
599.30882
600.51876
601.73642
602.93375
604.10027
605.23105
606.29275
607.32872
608.3208
609.25656
610.13059
610.93779
611.65638
612.29968
612.86767
613.34648
569.50801
569.86371
570.26565
570.71342
571.2075
571.74801
572.33501
572.96838
573.64789
574.3731
575.1434
575.958
576.81595
577.71613
578.65724
579.63782
580.65626
581.71078
582.79942
583.92007
585.07044
586.24808
587.45037
588.67453
589.9176
591.17644
592.44775
593.72804
595.01364
596.30066
597.585
598.86238
600.12859
601.34325
602.56542
603.77032
604.94593
606.08729
607.1601
608.20616
609.21151
610.16141
611.05037
611.87336
612.61113
613.26922
613.85445
614.35112
570.58284
570.72348
570.91222
571.15209
571.43472
571.77052
572.15544
572.59044
573.07527
573.60987
574.19402
574.82736
575.50934
576.23926
577.0162
577.83912
578.7068
579.61785
580.57074
581.56377
582.59507
583.66264
584.76429
585.89767
587.06027
588.24941
589.46226
590.69581
591.94686
593.21207
594.48791
595.77065
597.05641
598.34108
599.62044
600.8903
602.10939
603.33567
604.5477
605.73181
606.88303
607.96636
609.02163
610.03945
611.00257
611.90527
612.74135
613.50113
614.17204
614.77277
615.28618
572.34547
572.40739
572.52172
572.6894
572.90929
573.17961
573.50439
573.88371
574.31591
574.80104
575.33871
575.92847
576.56969
577.26152
578.00297
578.79288
579.62994
580.51268
581.43948
582.40857
583.41802
584.46574
585.54949
586.66685
587.81528
588.99202
590.1942
591.41874
592.66243
593.92187
595.19348
596.47351
597.75804
599.04299
600.32413
601.5972
602.82041
604.05034
605.26904
606.46108
607.62154
608.71489
609.77851
610.80804
611.78356
612.6993
613.5491
614.326
615.01101
615.62612
616.15525
573.99574
573.98288
574.02651
574.12681
574.28348
574.4961
574.76756
575.09086
575.47336
575.91192
576.40578
576.95453
577.55739
578.21341
578.92149
579.68038
580.48867
581.34481
582.24711
583.19371
584.18263
585.21171
586.27864
587.38096
588.51605
589.68113
590.87327
592.08934
593.32609
594.58007
595.84767
597.12513
598.40849
599.69366
600.97638
602.25236
603.47936
604.71251
605.93739
607.13678
608.30591
609.40893
610.4801
611.52058
612.50771
613.43576
614.29877
615.09051
615.78937
616.41791
616.96177
575.5372
575.4537
575.43065
575.46784
575.56519
575.72258
575.9409
576.21882
576.55189
576.94592
577.39858
577.90882
578.4757
579.09813
579.77493
580.50475
581.28608
582.1173
582.99664
583.92218
584.89186
585.90347
586.95464
588.04286
589.16546
590.3196
591.50231
592.71043
593.94065
595.18949
596.45333
597.72834
599.01057
600.2959
601.58006
602.85868
604.08917
605.32512
606.55567
607.76182
608.93902
610.05166
611.12963
612.18023
613.17815
614.11774
614.99315
615.7984
616.5105
617.15148
617.70913
576.97373
576.8238
576.73809
576.71616
576.75791
576.86316
577.03198
577.26354
577.55718
577.90768
578.32038
578.79462
579.32783
579.91885
580.5664
581.26903
582.02517
582.83311
583.691
584.59686
585.54857
586.54385
587.5803
588.65534
589.76626
590.91017
592.08406
593.28473
594.50883
595.75286
597.01314
598.28585
599.567
600.85244
602.13789
603.41894
604.65267
605.89099
607.12674
608.33896
609.52347
610.64625
611.73026
612.79
613.79789
614.74819
615.63514
616.45298
617.17788
617.83037
618.40086
578.30938
578.09717
577.95278
577.87556
577.86529
577.92165
578.04433
578.23259
578.4857
578.80269
579.17529
579.61514
580.11696
580.67866
581.29894
581.97624
582.7089
583.49513
584.33304
585.22056
586.15552
587.1356
588.15832
589.22108
590.32111
591.45548
592.62114
593.81486
595.03325
596.27277
597.52972
598.80025
600.08036
601.36589
602.65252
603.9358
605.17252
606.41285
607.65331
608.87085
610.06132
611.19606
612.28512
613.35271
614.36979
615.32996
616.22757
617.05736
579.54825
579.27786
579.07867
578.94985
578.89105
578.90178
578.98148
579.12941
579.34484
579.62772
579.96882
580.37391
580.8462
581.38061
581.97552
582.62927
583.34011
584.10619
584.92552
585.79601
586.71541
587.68135
588.69133
589.74267
590.83257
591.95808
593.11609
594.30333
595.51639
596.75171
598.00555
599.27404
600.55315
601.83873
603.12643
604.41178
605.6513
606.89333
608.13808
609.3602
610.55361
611.70502
612.79705
613.87116
614.8966
615.86579
616.77315
580.69449
580.36991
580.1197
579.94287
579.83891
579.80718
579.84697
579.9574
580.13759
580.3866
580.7013
581.07683
581.51851
582.02763
582.59904
583.23098
583.9216
584.669
585.47112
586.32582
587.23081
588.18366
589.18182
590.22258
591.3031
592.42039
593.5713
594.75253
595.96065
597.19205
598.44299
599.70957
600.98774
602.27334
603.56203
604.84931
606.09145
607.33493
608.58366
609.8102
611.00842
612.17031
613.26773
614.34782
615.38092
616.35831
617.27451
581.75223
581.37734
581.07978
580.8584
580.71256
580.64148
580.64426
580.71995
580.86748
581.08564
581.37232
581.72621
582.13778
582.6226
583.17231
583.7841
584.45605
585.18619
585.97242
586.81255
587.70422
588.64498
589.63222
590.6632
591.73505
592.84474
593.98908
595.16476
596.36831
597.59608
598.84432
600.10911
601.38639
602.67199
603.96158
605.25066
606.4953
607.74002
608.99247
610.22328
611.42658
612.59617
613.69939
614.78511
615.82525
616.81009
617.7344
582.72524
582.30415
581.9628
581.70021
581.51565
581.40819
581.3768
581.42039
581.53779
581.72769
581.98852
582.31994
582.70855
583.16825
583.69805
584.29129
584.94605
585.6603
586.43191
587.2586
588.13802
589.06764
590.04483
591.06681
592.13067
593.23336
594.37165
595.54221
596.74153
597.96596
599.21169
600.47481
601.75124
603.03681
604.32722
605.61802
606.86507
608.11088
609.36679
610.60164
611.80976
612.9856
614.09443
615.18538
616.232
617.22367
618.15539
583.61416
583.15435
582.77257
582.47199
582.25175
582.11077
582.04792
582.06198
582.15166
582.31562
582.55245
582.86189
583.23235
583.66802
584.17892
584.75512
585.39411
586.09379
586.85196
587.66634
588.5345
589.45389
590.42186
591.43558
592.49211
593.58836
594.72111
595.88696
597.08239
598.30373
599.54716
600.80872
602.08435
603.36986
604.66099
605.95341
607.20286
608.44965
609.70872
610.94732
612.15991
613.34109
614.45512
615.5509
616.60347
617.6014
618.53987
584.42272
583.9309
583.51285
583.17735
582.92435
582.75262
582.66089
582.64785
582.71213
582.8523
583.0669
583.35463
583.71076
584.12611
584.61731
585.17805
585.80263
586.48898
587.23487
588.03798
588.89585
589.8059
590.76542
591.77158
592.82141
593.91178
595.03944
596.20099
597.39287
598.61138
599.85268
601.1128
602.38765
603.67306
604.96482
606.25875
607.51071
608.75841
610.02026
611.26233
612.47897
613.66485
614.78364
615.88382
616.94186
617.94552
618.89005
585.16224
584.63543
584.18735
583.81982
583.53685
583.33699
583.21887
583.18108
583.22215
583.34059
583.53485
583.80342
584.14419
584.54401
585.01595
585.56248
586.17391
586.84812
587.58284
588.37568
589.22417
590.1257
591.07754
592.07681
593.12053
594.20554
595.32857
596.48619
597.67482
598.89074
600.1301
601.38889
602.663
603.94825
605.24049
606.5358
607.79057
609.03909
610.30332
611.54855
612.76884
613.9589
615.08203
616.1862
617.24924
618.25811
619.20804
590.10994
589.06528
588.11697
587.26402
586.50466
585.83569
585.27256
584.79896
584.40282
584.09256
583.86709
583.72494
583.66461
583.68457
583.78323
583.95899
584.21026
584.53574
584.92362
585.3776
585.91069
586.51018
587.17338
587.89795
588.68148
589.52146
590.41526
591.36012
592.35314
593.39131
594.47146
595.59029
596.74434
597.93003
599.1436
600.38118
601.63874
602.91214
604.19718
605.48971
606.7861
608.04439
609.29354
610.55976
611.80779
613.03136
614.22515
615.3522
616.45997
617.52757
618.54118
619.4959
590.8973
589.81655
588.82925
587.93989
587.14657
586.44737
585.84659
585.34961
584.92977
584.59468
584.34599
584.18206
584.10131
584.10214
584.1829
584.3419
584.57743
584.88757
585.26685
585.7054
586.22471
586.81354
587.46681
588.18221
588.95732
589.78962
590.67644
591.615
592.60238
593.63554
594.7113
595.82633
596.97716
598.16018
599.37163
600.60759
601.86403
603.13676
604.42153
605.71409
607.01088
608.27427
609.52352
610.79128
612.04176
613.26824
614.46538
615.59596
616.70698
617.77871
618.79664
619.75578
591.60068
590.49324
589.47073
588.54839
587.72436
586.99678
586.36523
585.84316
585.40372
585.0463
584.77665
584.59307
584.49391
584.4775
584.54212
584.68603
584.90743
585.20436
585.57396
586.00075
586.50676
587.08601
587.73036
588.43753
589.20508
590.03047
590.91101
591.8439
592.82621
593.85487
594.92669
596.03831
597.18625
598.36688
599.57641
600.81092
602.06634
603.33844
604.62288
605.91521
607.21076
608.48266
609.73066
610.99947
612.25207
613.48114
614.68125
615.81501
616.92894
618.00442
619.02628
619.9895
592.2261
591.09819
590.04534
589.09332
588.24162
587.4883
586.83113
586.28315
585.82751
585.45039
585.16195
584.96074
584.84506
584.81319
584.86335
584.99374
585.20251
585.48778
585.84781
586.26535
586.7589
587.32956
587.96592
588.66572
589.42652
590.24573
591.12066
592.04849
593.02627
594.05091
595.1192
596.22777
597.37313
598.55162
599.75945
600.99266
602.24716
603.51868
604.8028
606.09479
607.38868
608.66958
609.91629
611.18581
612.44023
613.67159
614.87435
616.01096
617.12748
618.20635
619.23177
620.19873
592.77878
591.63302
590.55723
589.57835
588.7019
587.92563
587.2479
586.67257
586.20359
585.80988
585.50462
585.28768
585.15729
585.11165
585.14893
585.26729
585.46482
585.7397
586.09066
586.50106
586.98313
587.54602
588.17526
588.86852
589.62331
590.43704
591.30699
592.23033
593.20408
594.22515
595.29031
596.39619
597.53926
598.71585
599.92217
601.15423
602.40791
603.67891
604.96274
606.25453
607.5482
608.83444
610.08141
611.35163
612.60767
613.84105
615.04617
616.18532
617.30415
618.38607
619.4147
620.38505
593.27135
592.10287
591.0098
590.00704
589.1086
588.31193
587.61515
587.01813
586.53491
586.1275
585.80729
585.57643
585.43302
585.3752
585.4011
585.50881
585.69641
585.96202
586.30436
586.70975
587.18143
587.73711
588.36007
589.04756
589.79706
590.60596
591.47152
592.39089
593.3611
594.37903
595.44144
596.54494
597.68599
598.86092
600.06591
601.29696
602.54992
603.82048
605.10408
606.3958
607.68986
608.97945
610.22726
611.49824
612.75573
613.9909
615.19811
616.33952
617.4604
618.54503
619.57655
620.54994
593.70549
592.51261
591.40644
590.38278
589.46502
588.65035
587.93656
587.32165
586.82464
586.40585
586.07248
585.82938
585.67455
585.60605
585.62197
585.72036
585.89925
586.15664
586.49038
586.89328
587.35582
587.90444
588.52195
589.2044
589.94928
590.75395
591.61567
592.53159
593.4987
594.51389
595.5739
596.67532
597.81462
598.98811
600.19194
601.42211
602.67446
603.94464
605.22807
606.51985
607.81448
609.10633
610.35515
611.6269
612.88569
614.12246
615.3315
616.47491
617.59758
618.68463
619.71872
620.69483
594.08433
592.86617
591.75032
590.70886
589.77431
588.94397
588.21532
587.58544
587.07559
586.64738
586.30256
586.04885
585.88409
585.80633
585.81359
585.90389
586.07522
586.3255
586.65238
587.05163
587.50749
588.04961
588.66242
589.34052
590.08139
590.88241
591.74082
592.65375
593.61819
594.63101
595.68895
596.78858
597.92638
599.09862
600.30146
601.53088
602.78271
604.05258
605.3359
606.62781
607.92304
609.21648
610.4663
611.73881
612.99877
614.23693
615.44759
616.59274
617.71699
618.80616
619.84253
620.82105
594.41183
593.16689
592.0443
590.98849
590.03951
589.19572
588.45436
587.81202
587.29027
586.85443
586.49982
586.237
586.06375
585.97804
585.97789
586.06126
586.22611
586.47034
586.79161
587.18702
587.63772
588.17413
588.78291
589.4573
590.19476
590.99266
591.84824
592.75862
593.72078
594.73159
595.78776
596.88588
598.02239
599.19358
600.39558
601.62438