/*--------------------------------*- C++ -*----------------------------------*\
| =========                 |                                                 |
| \\      /  F ield         | OpenFOAM: The Open Source CFD Toolbox           |
|  \\    /   O peration     | Version:  2312                                  |
|   \\  /    A nd           | Website:  www.openfoam.com                      |
|    \\/     M anipulation  |                                                 |
\*---------------------------------------------------------------------------*/
FoamFile
{
    version     2.0;
    format      ascii;
    arch        "LSB;label=32;scalar=64";
    class       volScalarField;
    location    "0.02";
    object      alphat;
}
// * * * * * * * * * * * * * * * * * * * * * * * * * * * * * * * * * * * * * //

dimensions      [1 -1 -1 0 0 0 0];

internalField   nonuniform List<scalar> 
3275
(
0.0048151506
0.0053185208
0.0059342533
0.006592613
0.0072814102
0.0079943
0.0087472111
0.0095457167
0.010387023
0.011260091
0.012149401
0.013037397
0.013842602
0.014647901
0.0153879
0.016044521
0.01660047
0.017054842
0.017428172
0.017736037
0.017993916
0.018206275
0.018380807
0.018524506
0.018641944
0.018737097
0.018804656
0.018862432
0.018907658
0.018939443
0.01895942
0.018968997
0.018964775
0.018954033
0.018937372
0.01891301
0.018881486
0.018843226
0.018798572
0.0187478
0.018691135
0.018628763
0.018560837
0.018487501
0.018408952
0.018325113
0.018236155
0.018142167
0.018043233
0.017939445
0.017830893
0.017717662
0.0048701688
0.0054314961
0.0060390916
0.0066829886
0.0073577505
0.00805585
0.0087983839
0.0095889791
0.010424065
0.011291775
0.012176299
0.013060042
0.013862541
0.014663883
0.015400774
0.016054654
0.016608156
0.017060561
0.017432342
0.017739001
0.01799591
0.018207543
0.018381506
0.018524765
0.018641833
0.018736447
0.018803935
0.018861792
0.018906818
0.018938468
0.018958339
0.018967818
0.018963551
0.018952906
0.018936203
0.018911823
0.018880295
0.018842042
0.0187974
0.018746646
0.018690004
0.018627657
0.01855976
0.018486463
0.018407942
0.018324133
0.018235209
0.018141254
0.018042357
0.017938607
0.017830097
0.017716913
0.0050210315
0.0056728488
0.0062553115
0.0068667581
0.0075121446
0.0081787367
0.0089005801
0.0096751978
0.010497957
0.011354948
0.012229885
0.013105104
0.013902411
0.014695596
0.015426379
0.016074803
0.016623427
0.01707192
0.01744062
0.017744889
0.01799987
0.01821006
0.018382891
0.018525278
0.018641645
0.018735083
0.018802537
0.018860502
0.018905138
0.018936522
0.018956184
0.018965456
0.018961113
0.018950644
0.01893386
0.018909443
0.018877906
0.018839662
0.018795043
0.018744321
0.018687719
0.018625419
0.018557573
0.018484341
0.018405872
0.018322122
0.01823326
0.018139371
0.01804054
0.017936859
0.017828427
0.017715323
0.0053605136
0.0060866495
0.006588908
0.0071448882
0.0077449287
0.0083599686
0.009050038
0.0098032432
0.010607845
0.011448868
0.012309494
0.013171926
0.01396201
0.014742588
0.015464398
0.016104705
0.016646063
0.017088742
0.017452872
0.0177536
0.018005724
0.018213772
0.018384923
0.018526027
0.018641458
0.018732837
0.018800561
0.018858533
0.018902604
0.018933603
0.01895296
0.018961906
0.018957479
0.018947241
0.018930343
0.018905874
0.018874324
0.018836092
0.018791504
0.018740829
0.018684285
0.018622053
0.01855428
0.018481142
0.018402747
0.018319085
0.018230315
0.018136521
0.018037788
0.017934208
0.017825883
0.017712892
0.0061463268
0.0067085999
0.0070811877
0.0075191343
0.0080361183
0.008613417
0.0092517287
0.0099717293
0.01075256
0.011572503
0.012414204
0.013259461
0.014041008
0.014804363
0.015514392
0.01614398
0.01667574
0.017110769
0.017468896
0.017764987
0.018013366
0.018218596
0.018387543
0.018526964
0.018641453
0.018729348
0.018798216
0.018855831
0.018899196
0.018929706
0.018948678
0.018957151
0.018952681
0.018942689
0.018925652
0.018901118
0.018869552
0.018831336
0.01878679
0.018736176
0.018679708
0.018617564
0.018549885
0.018476868
0.018398572
0.018315026
0.018226377
0.018132707
0.018034102
0.017930654
0.017822467
0.017709618
0.0081174502
0.0076099577
0.007672877
0.0079564751
0.0083649966
0.0088841483
0.009492814
0.010170711
0.010920164
0.011715614
0.012535347
0.013359882
0.014133238
0.014876136
0.015572255
0.016189348
0.01670995
0.017136123
0.01748731
0.017778067
0.018022132
0.018224094
0.018390494
0.018527934
0.01864039
0.018726096
0.018795779
0.018852524
0.018895142
0.018925109
0.018943667
0.018951497
0.018947105
0.018937311
0.018920124
0.018895522
0.018863938
0.018825743
0.018781246
0.018730702
0.018674322
0.018612281
0.01854471
0.018471831
0.018393651
0.018310241
0.018221733
0.018128208
0.018029752
0.017926457
0.017818428
0.017705741
0.010633481
0.008638909
0.0083157372
0.0084247275
0.0087391961
0.0091890351
0.009749229
0.010397135
0.011105737
0.01187336
0.012668866
0.013468881
0.014235302
0.014956438
0.01563593
0.016239172
0.016747441
0.017163863
0.017507418
0.017792348
0.018031693
0.018230041
0.018393653
0.018528952
0.01863855
0.018723096
0.01879304
0.018848733
0.018890562
0.01891995
0.018938111
0.018945063
0.018940967
0.01893127
0.018913933
0.018889261
0.018857661
0.01881949
0.018775046
0.01872458
0.018668299
0.018606374
0.018538919
0.018466193
0.018388142
0.018304884
0.018216532
0.018123168
0.018024878
0.017921753
0.017813898
0.017701387
0.01348489
0.0099079674
0.0090967564
0.0089832168
0.0091760898
0.0095477039
0.010046391
0.010652791
0.011327301
0.012056347
0.012824167
0.013598
0.014348481
0.015052173
0.015709566
0.016296793
0.016790708
0.017195818
0.017530517
0.017808756
0.018042675
0.018236781
0.01839719
0.018530199
0.018635589
0.018720275
0.018789623
0.018844141
0.018885084
0.018913817
0.018931648
0.018937216
0.018933883
0.018924078
0.018906595
0.018881849
0.018850234
0.018812091
0.018767712
0.018717338
0.018661173
0.018599386
0.018532065
0.018459515
0.018381619
0.018298539
0.018210371
0.018117197
0.018019101
0.017916175
0.017808523
0.017696219
0.016206083
0.011333955
0.00998614
0.0096220696
0.009672291
0.0099530235
0.010387645
0.010939363
0.011578135
0.012270479
0.013001545
0.013746523
0.014473439
0.015161379
0.015795332
0.01636214
0.016839671
0.017231898
0.017556493
0.017827228
0.018055057
0.018244219
0.018401022
0.018530397
0.018632983
0.018717404
0.018785396
0.018838666
0.018878633
0.018906617
0.018923712
0.018928477
0.018925694
0.01891567
0.018898034
0.018873211
0.018841581
0.018803474
0.01875917
0.018708903
0.01865287
0.018591236
0.018524092
0.018451725
0.018374017
0.018291142
0.018203187
0.018110232
0.018012362
0.017909665
0.017802248
0.017690183
0.018523244
0.012840732
0.01096754
0.010333402
0.010226547
0.010405267
0.010768413
0.011262887
0.011853984
0.012511083
0.013204516
0.013914047
0.014614146
0.015278701
0.015893144
0.016436077
0.016894149
0.01727194
0.017585142
0.017847662
0.018068832
0.018252197
0.018405191
0.018529403
0.018631132
0.018713912
0.018780308
0.018832231
0.01887113
0.018898303
0.018914259
0.018918779
0.018916259
0.018905968
0.01888817
0.018863267
0.018831626
0.018793562
0.018749345
0.018699201
0.01864332
0.018581856
0.018514927
0.018442756
0.018365268
0.018282627
0.018194915
0.018102211
0.018004598
0.017902165
0.017795016
0.017683222
0.02037662
0.014345033
0.012016563
0.011108955
0.010835184
0.0109034
0.011187083
0.011620633
0.012159662
0.012772668
0.013430336
0.014102538
0.014770218
0.01540772
0.015996793
0.016517903
0.016956169
0.017315695
0.017616138
0.017869915
0.018084049
0.018260428
0.018408145
0.018529727
0.018628967
0.018709652
0.01877429
0.018824755
0.018862491
0.018888886
0.018903096
0.018908144
0.018905445
0.01889489
0.018876924
0.018851941
0.018820291
0.018782279
0.018738162
0.018688158
0.018632447
0.018571174
0.018504494
0.018432538
0.018355303
0.018272927
0.01818549
0.01809307
0.017995749
0.017893613
0.017786767
0.017675281
0.021815688
0.015779493
0.013103247
0.011936827
0.011492595
0.011444241
0.011642714
0.012009328
0.012494337
0.013058321
0.013673402
0.01430897
0.014943844
0.015547954
0.016109141
0.016605637
0.017020297
0.017363581
0.017651027
0.017893805
0.01809874
0.018269929
0.018412163
0.018529858
0.018626197
0.018704556
0.018767271
0.018816156
0.018852604
0.018877686
0.018891012
0.01889625
0.018893184
0.018882356
0.018864217
0.018839152
0.018807499
0.018769547
0.018725543
0.018675696
0.01862018
0.018559121
0.018492716
0.018421001
0.018344051
0.018261972
0.018174845
0.018082744
0.017985749
0.017883948
0.017777442
0.017666301
0.022923161
0.017102273
0.014196458
0.012801985
0.012191109
0.01202329
0.012132337
0.012428045
0.012853796
0.013367721
0.013935928
0.014531249
0.015128317
0.015701524
0.01622924
0.016698695
0.017088549
0.017414165
0.017687609
0.01791906
0.018114557
0.018279486
0.018416162
0.018529666
0.01862273
0.018698541
0.018759177
0.018806356
0.018841424
0.018864593
0.018878072
0.018882857
0.018879398
0.018868285
0.018849967
0.018824821
0.018793169
0.018755287
0.018711412
0.018661741
0.018606444
0.018545625
0.018479512
0.018408076
0.018331442
0.018249695
0.018162911
0.018071165
0.017974535
0.017873106
0.017766978
0.017656222
0.023778838
0.018294377
0.015268206
0.013687468
0.012921135
0.012634667
0.012651949
0.012873628
0.013236946
0.013696669
0.014217217
0.01476809
0.015324978
0.015861993
0.016357748
0.016796642
0.017159952
0.017467002
0.017725516
0.017945368
0.018131196
0.01828897
0.018419951
0.018529025
0.018618439
0.018691508
0.018749946
0.018795284
0.018828109
0.018850755
0.018863696
0.018867895
0.018864011
0.018852599
0.018834096
0.018808868
0.018777223
0.018739423
0.018695691
0.018646214
0.01859115
0.018530627
0.018464805
0.01839369
0.018317404
0.018236024
0.01814962
0.018058267
0.01796204
0.017861023
0.017755314
0.017644983
0.024447239
0.019352469
0.016296006
0.014575887
0.013671589
0.013271184
0.013196535
0.013342303
0.013640783
0.01404362
0.014513276
0.0150185
0.015532073
0.016030402
0.016491158
0.016896129
0.01723581
0.017521638
0.017764246
0.017972392
0.018148484
0.018298087
0.018423354
0.018527833
0.01861316
0.018683304
0.018739561
0.018782006
0.018814016
0.018835587
0.018847714
0.018851286
0.018846946
0.018835218
0.018816525
0.018791216
0.018759584
0.018721876
0.018678303
0.018629042
0.018574233
0.01851404
0.018448525
0.018377771
0.018301868
0.018220889
0.018134904
0.018043983
0.017948199
0.017847635
0.017742387
0.017632524
0.024976306
0.020281831
0.017263651
0.015450819
0.014430539
0.013924551
0.013760123
0.013829511
0.014061634
0.01440559
0.014822094
0.01527882
0.015748159
0.016204826
0.016628076
0.016998022
0.017311492
0.017577653
0.017804846
0.017999857
0.018166244
0.018306451
0.018426219
0.018526056
0.018606667
0.018673624
0.018727254
0.018768125
0.018798455
0.018818816
0.018830052
0.018832953
0.018828126
0.018816068
0.018797178
0.018771789
0.018740176
0.018702573
0.018659175
0.01861015
0.01855563
0.018495772
0.018430608
0.018360246
0.018284762
0.018204222
0.018118694
0.018028244
0.017932945
0.017832877
0.017728134
0.017618782
0.0253998
0.021091184
0.018160406
0.016297785
0.015185909
0.014585703
0.0143359
0.014329949
0.014495183
0.014778955
0.015140615
0.015546927
0.015969537
0.016383552
0.016766577
0.017101079
0.017388048
0.017634039
0.01784536
0.018027205
0.01818279
0.018315219
0.01842834
0.018522456
0.018599546
0.018662994
0.018713728
0.018752652
0.018781282
0.018800357
0.018810635
0.01881282
0.01880748
0.018795075
0.018775982
0.018750513
0.018718926
0.018681439
0.018638232
0.018589458
0.018535276
0.018475752
0.018410981
0.018341046
0.018266015
0.018185953
0.018100921
0.018010986
0.017916215
0.017816686
0.017712492
0.017603695
0.025740741
0.0217892
0.0189798
0.017104772
0.01592613
0.015245189
0.014916414
0.014837653
0.014936517
0.015159551
0.015465234
0.015819666
0.016194005
0.016562952
0.016904412
0.017204009
0.017464567
0.017690182
0.01788541
0.018054096
0.018199043
0.018322967
0.018429457
0.018517949
0.018591005
0.018650906
0.018698757
0.018735537
0.01876241
0.018780131
0.018789391
0.01879082
0.018784938
0.01877217
0.018752867
0.018727319
0.018695765
0.018658405
0.018615405
0.018566917
0.018513069
0.018453922
0.018389577
0.018320102
0.018245561
0.018166014
0.01808152
0.017992141
0.017897942
0.017798998
0.0176954
0.017587203
0.026021414
0.022396075
0.019718611
0.017862342
0.016640656
0.015893578
0.015493808
0.015346134
0.015380191
0.015542714
0.01579188
0.016093438
0.016418245
0.016740817
0.017039285
0.017305721
0.01754036
0.017745494
0.017924611
0.01808018
0.018214524
0.018329762
0.018429281
0.018512283
0.018581008
0.018637285
0.018682205
0.018716712
0.018741763
0.018758069
0.018766256
0.018766889
0.018760438
0.018747292
0.01872777
0.018702144
0.01867063
0.018633408
0.018590628
0.018542455
0.018488952
0.018430217
0.018366328
0.018297347
0.018223333
0.018144341
0.018060426
0.017971646
0.017878064
0.017779753
0.017676797
0.017569248
0.026256667
0.022927064
0.020383461
0.018563653
0.017320299
0.016521814
0.016060091
0.015848546
0.015820334
0.015923342
0.016116055
0.016364243
0.016638655
0.016913561
0.017170865
0.017404771
0.017614382
0.017799713
0.017962606
0.018105137
0.018228873
0.018335544
0.018427583
0.0185053
0.018569486
0.018622054
0.018663974
0.018696112
0.018719275
0.018734109
0.018741173
0.018740972
0.018733926
0.018720385
0.018700636
0.01867493
0.018643462
0.018606377
0.018563861
0.018515991
0.01846287
0.018404575
0.018341172
0.01827272
0.018199269
0.018120871
0.018037576
0.017949439
0.01785652
0.017758889
0.017656625
0.026456768
0.023394453
0.020984084
0.019205675
0.017957219
0.017121507
0.016607408
0.016337881
0.016250785
0.016295988
0.0164329
0.016627721
0.016851339
0.01707901
0.01729796
0.017501231
0.017685912
0.017851918
0.017999154
0.018128795
0.018241865
0.018340037
0.018424466
0.018496751
0.018556362
0.018605146
0.018643995
0.018673683
0.018694897
0.018708206
0.018714097
0.018713024
0.018705358
0.018691405
0.018671415
0.018645631
0.018614201
0.018577292
0.018535021
0.018487486
0.018434769
0.018376939
0.018314053
0.018246161
0.01817331
0.018095545
0.018012912
0.017925461
0.017833252
0.01773635
0.017634826
0.026629061
0.023808187
0.021528436
0.019796593
0.018546047
0.017685167
0.017128297
0.016807179
0.016665261
0.016654973
0.016737271
0.016879222
0.017052248
0.01723683
0.017420086
0.017594292
0.017755427
0.017901775
0.018033682
0.018150761
0.018253454
0.018343037
0.018420139
0.018486348
0.018541602
0.01858652
0.018622221
0.01864939
0.018668596
0.018680329
0.018684997
0.018683014
0.018674701
0.018660321
0.01864007
0.018614207
0.018582826
0.018546081
0.018504074
0.018456891
0.0184046
0.01834726
0.018284919
0.01821762
0.018145403
0.018068309
0.017986378
0.017899659
0.017808205
0.017712082
0.017611347
0.02677895
0.024176365
0.022023202
0.02034249
0.019094358
0.018209764
0.017615963
0.017249753
0.017057565
0.016994553
0.017023863
0.017114898
0.017242213
0.017387245
0.017537189
0.017683821
0.017822306
0.017950089
0.018066054
0.018170726
0.018263375
0.018344429
0.018414433
0.018474318
0.018525113
0.018566162
0.018598634
0.01862322
0.018640361
0.018650473
0.018653857
0.018650927
0.018641939
0.0186271
0.0186066
0.018580629
0.018549298
0.018512721
0.018470988
0.01842417
0.018372323
0.018315495
0.018253725
0.01818705
0.018115501
0.018039114
0.017957926
0.017871981
0.017781329
0.017686034
0.017586139
0.026910496
0.02450561
0.022474085
0.020848148
0.019607568
0.018702478
0.018073362
0.017663524
0.017423697
0.017311627
0.017292379
0.017337181
0.01742261
0.017530975
0.017649622
0.017769992
0.017886645
0.017996345
0.018097333
0.018188787
0.018271341
0.018344121
0.018407162
0.018461014
0.018506682
0.018544067
0.018573286
0.018595208
0.018610206
0.018618615
0.018620708
0.018616788
0.018607078
0.018591755
0.018570979
0.018544894
0.018513602
0.018477194
0.01843574
0.018389296
0.018337908
0.018281612
0.018220438
0.018154413
0.018083564
0.01800792
0.017927513
0.017842383
0.017752578
0.017658158
0.027026812
0.024801364
0.022885995
0.021317485
0.020089655
0.019168368
0.018506587
0.018055353
0.017770067
0.017611601
0.01754693
0.017548813
0.01759521
0.01766914
0.017758098
0.017853281
0.017948778
0.018040798
0.018127037
0.018206191
0.018277617
0.018342227
0.018397894
0.018446314
0.01848672
0.018520215
0.018546209
0.018565396
0.018578184
0.018584834
0.018585569
0.018580612
0.018570142
0.018554303
0.018533222
0.018507008
0.018475743
0.018439496
0.018398321
0.018352258
0.018301339
0.01824559
0.018185031
0.018119681
0.018049561
0.017974692
0.017895103
0.017810828
0.017721914
0.017628408
0.027130316
0.025068117
0.023263172
0.021753818
0.020543637
0.019611045
0.018920247
0.018430446
0.018101854
0.017899134
0.017791325
0.017752618
0.01776204
0.017803171
0.017863633
0.017934434
0.018009276
0.018083901
0.018155531
0.01822243
0.018283576
0.018338436
0.018387677
0.018429627
0.018465544
0.018494656
0.018517505
0.018533884
0.018544382
0.018549203
0.018548511
0.018542461
0.018531184
0.018514788
0.018493367
0.018466997
0.01843574
0.018399642
0.018358739
0.018313056
0.018262612
0.01820742
0.018147493
0.018082839
0.018013472
0.017939407
0.017860669
0.017777287
0.017689305
0.017596758
0.027222914
0.025309587
0.023609284
0.022160006
0.020971879
0.020033073
0.019317542
0.018792341
0.018423117
0.018178116
0.018028972
0.017951353
0.01792524
0.017934706
0.017967487
0.018014434
0.018068924
0.018126294
0.018183348
0.018237954
0.018288735
0.01833483
0.018375654
0.018412214
0.018442569
0.018467864
0.01848707
0.018500826
0.018508931
0.018511839
0.01850964
0.018502428
0.018490285
0.018473282
0.018451476
0.018424916
0.018393637
0.018357667
0.018317021
0.01827171
0.018221739
0.01816711
0.018107824
0.018043881
0.017975288
0.017902053
0.017824195
0.01774174
0.017654727
0.017563182
0.027306125
0.025528863
0.023927498
0.022538541
0.021376281
0.020436283
0.019700686
0.019143803
0.018736899
0.018451687
0.01826281
0.018147577
0.01808695
0.018065496
0.018071087
0.018094453
0.018128695
0.018168795
0.01821118
0.018253357
0.018293617
0.01833081
0.018364157
0.01839321
0.018419078
0.018439871
0.018454809
0.018466265
0.018472008
0.018472905
0.018469105
0.018460647
0.018447565
0.018429888
0.018407641
0.018380841
0.018349502
0.018313627
0.018273216
0.018228261
0.018178754
0.018124684
0.018066042
0.018002819
0.017935014
0.01786263
0.017785677
0.017704178
0.017618167
0.017527663
0.027381175
0.025728525
0.024220553
0.022891611
0.021758416
0.020821983
0.020071141
0.019486658
0.019045164
0.018722277
0.018495275
0.018343569
0.018249204
0.018197313
0.018175954
0.018175796
0.018189711
0.018212374
0.018239871
0.018269373
0.018298864
0.01832692
0.018352545
0.018375081
0.018394107
0.018410807
0.018422609
0.018429642
0.018433726
0.018432619
0.018427102
0.018417295
0.018403181
0.018384748
0.018361986
0.018334886
0.018303432
0.018267609
0.018227395
0.018182769
0.018133707
0.018080184
0.018022182
0.017959681
0.017892673
0.017821152
0.017745124
0.017664605
0.017579626
0.017490197
0.027449062
0.025910737
0.024490815
0.023221137
0.022119602
0.021191113
0.020429819
0.019822061
0.019349449
0.018991597
0.018728283
0.018541265
0.018413853
0.018331863
0.018283635
0.018259846
0.018253205
0.018258124
0.018270389
0.018286863
0.018305236
0.018323826
0.018341412
0.018357129
0.018370367
0.018380688
0.018389223
0.018393498
0.018393426
0.018391008
0.018383878
0.018372595
0.018357336
0.018338044
0.018314676
0.018287192
0.018255555
0.018219724
0.01817966
0.018135323
0.018086675
0.018033677
0.017976299
0.017914514
0.017848302
0.017777651
0.01770256
0.017623041
0.017539116
0.017450793
0.027510612
0.026077322
0.024740328
0.023528811
0.022460967
0.02154435
0.020777233
0.02015063
0.019650624
0.019260623
0.018963252
0.018742215
0.018582493
0.018470717
0.018395627
0.018348003
0.018320466
0.018307225
0.018303806
0.018306792
0.018313604
0.018322306
0.018331456
0.018339987
0.018347109
0.018352228
0.018354876
0.018356376
0.018353923
0.018347539
0.01833932
0.018326826
0.018310281
0.018290003
0.018265914
0.018237945
0.018206034
0.018170119
0.01813014
0.018086039
0.01803776
0.017985253
0.017928474
0.017867386
0.017801961
0.017732178
0.017658029
0.01757952
0.017496668
0.017409475
0.027566511
0.026229826
0.024970864
0.023816124
0.022783483
0.021882186
0.021113605
0.020472574
0.019949082
0.019530067
0.019201058
0.018947562
0.018756419
0.018615245
0.018513315
0.018441624
0.018392795
0.018360902
0.018341261
0.018330213
0.018324929
0.018323238
0.018323477
0.018324383
0.018324992
0.018324562
0.018322516
0.018318428
0.018313686
0.018305164
0.018293135
0.018279712
0.018262325
0.018240903
0.018215949
0.018187368
0.018155072
0.018118976
0.018078998
0.018035061
0.017987093
0.017935028
0.01787881
0.01781839
0.01775373
0.017684803
0.017611592
0.017534097
0.017452327
0.017366281
0.027617341
0.026369575
0.025183967
0.024084395
0.023088002
0.022204983
0.021438959
0.020787801
0.02024482
0.019800131
0.019442009
0.019158054
0.018936596
0.01876657
0.018637915
0.018541965
0.018471446
0.018420378
0.018383926
0.018358231
0.018340245
0.018327576
0.018318355
0.018311126
0.018304755
0.018298354
0.018291221
0.018282813
0.018272701
0.018262353
0.018248323
0.018231261
0.018213047
0.018191074
0.01816508
0.01813573
0.018102911
0.018066513
0.018026433
0.017982572
0.017934837
0.01788315
0.017827438
0.017767644
0.017703717
0.017635621
0.017563334
0.017486845
0.017406161
0.017321271
0.027663599
0.026497708
0.025380985
0.024334796
0.023375273
0.022513013
0.02175318
0.021095996
0.020537522
0.020070664
0.019686247
0.019374031
0.019123631
0.018925522
0.018770424
0.018650132
0.018557583
0.018486833
0.018432966
0.018391975
0.018360627
0.018336336
0.018317038
0.018301099
0.018287215
0.018274352
0.018261679
0.018248533
0.01823438
0.018218806
0.018203401
0.018184524
0.018162715
0.018140004
0.018113656
0.018083346
0.018049836
0.018012992
0.017972683
0.017928787
0.017881191
0.017829797
0.017774523
0.017715294
0.017652053
0.017584753
0.017513362
0.017437863
0.017358255
0.017274523
0.027705716
0.02661522
0.025563107
0.024568371
0.023645971
0.022806486
0.022056071
0.021396696
0.020826643
0.020341203
0.019933496
0.019595297
0.019317773
0.019092624
0.018911581
0.018767028
0.018652223
0.018561351
0.018489493
0.018432554
0.018387161
0.018350562
0.018320524
0.018295239
0.01827325
0.018253373
0.01823465
0.018216294
0.018197658
0.018178211
0.018157605
0.018138266
0.018114399
0.018088092
0.018061154
0.01803058
0.017996179
0.017958713
0.017918026
0.017873962
0.017826387
0.017775186
0.017720258
0.017661521
0.017598902
0.017532346
0.017461811
0.017387273
0.017308721
0.017226136
0.027744066
0.026722984
0.025731391
0.024786067
0.023900709
0.023085582
0.022347389
0.021689347
0.021111472
0.020611044
0.020183201
0.019821591
0.019519017
0.019268081
0.019061841
0.01889332
0.018756196
0.018644878
0.018554527
0.018481024
0.018420909
0.018371303
0.018329826
0.018294523
0.018263785
0.018236292
0.018210955
0.018186869
0.018163266
0.018139444
0.018114543
0.018091783
0.018066925
0.018038446
0.018007949
0.017976996
0.017942314
0.017904022
0.017862785
0.017818397
0.017770701
0.017719566
0.017664877
0.017606535
0.017544458
0.017478578
0.017408844
0.017335223
0.017257696
0.017176236
0.027778985
0.026821776
0.025886784
0.024988743
0.024140055
0.023350464
0.022626877
0.021973343
0.021391191
0.020879308
0.020434557
0.020052266
0.01972674
0.01945174
0.019221352
0.019029408
0.018870108
0.01873818
0.018628949
0.018538343
0.018462871
0.018399572
0.018345954
0.018299934
0.018259772
0.018224019
0.018191465
0.018161093
0.018132039
0.018103561
0.018075052
0.018046506
0.018019514
0.017989806
0.017957286
0.017922775
0.017887965
0.017849301
0.017807328
0.017762433
0.01771445
0.01766323
0.017608646
0.017550585
0.017488949
0.01742366
0.017354655
0.017281892
0.017205344
0.017124976
0.027810769
0.02691229
0.026030148
0.025177195
0.02436455
0.023601296
0.022894289
0.022248074
0.021664924
0.02114499
0.02068657
0.020286461
0.019940351
0.019643215
0.019389969
0.019175406
0.01899431
0.018841808
0.018713466
0.018605332
0.018513948
0.018436317
0.018369876
0.018312441
0.018262164
0.018217482
0.018177073
0.018139816
0.018104759
0.018071094
0.018038175
0.018005605
0.017972948
0.017942019
0.017907916
0.017871364
0.017832975
0.017794471
0.017752086
0.017706464
0.017657992
0.017606511
0.017551876
0.017493955
0.01743264
0.017367836
0.017299472
0.017227492
0.01715186
0.017072534
0.027839692
0.026995153
0.026162268
0.025352164
0.024574714
0.023838257
0.02314941
0.022512949
0.021931782
0.021407017
0.020938112
0.020523115
0.020158955
0.019841768
0.019567237
0.019331138
0.019128884
0.018956069
0.018808575
0.018682642
0.018574902
0.018482381
0.018402484
0.018332965
0.018271889
0.018217599
0.018168675
0.018123903
0.01808224
0.018042798
0.018004831
0.017967751
0.017931097
0.017894647
0.017860308
0.017821443
0.017781014
0.017738873
0.017697345
0.017650927
0.017601731
0.017549783
0.017494913
0.017436972
0.017375833
0.017311389
0.017243556
0.017172265
0.017097472
0.017019124
0.027866027
0.027070918
0.02628387
0.025514354
0.024771062
0.024061554
0.023392074
0.022767423
0.022190899
0.021664292
0.021187969
0.020761012
0.020381426
0.020046374
0.019752425
0.01949614
0.019273628
0.019081007
0.018914536
0.018770714
0.018646324
0.018538468
0.018444566
0.018362345
0.018289818
0.018225254
0.018167153
0.018114218
0.018065322
0.018019495
0.017975899
0.017933819
0.017892632
0.017851564
0.017813746
0.017773665
0.017730757
0.017686064
0.017642507
0.017596223
0.017546108
0.017493463
0.01743815
0.01738
0.017318871
0.017254639
0.017187206
0.017116493
0.017042441
0.01696499
0.027890074
0.02714009
0.026395637
0.025664441
0.024954111
0.024271424
0.023622169
0.02301102
0.022441458
0.021915735
0.021434893
0.020998846
0.020606504
0.020255943
0.01994459
0.019669689
0.019428066
0.019216393
0.019031356
0.018869761
0.018728602
0.018605109
0.018496765
0.01840131
0.018316736
0.018241268
0.018173346
0.018111603
0.018054841
0.018002015
0.017952211
0.017904632
0.017858599
0.017813529
0.017769219
0.017728046
0.017683186
0.017636539
0.017588896
0.017541813
0.017491526
0.01743801
0.017382019
0.017323448
0.017262136
0.017197945
0.01713076
0.017060491
0.016987065
0.016910412
0.027911736
0.027203678
0.026498237
0.025803083
0.025124383
0.024468147
0.023839654
0.023243343
0.022682721
0.022160312
0.021677642
0.021235261
0.020832822
0.020469193
0.0201426
0.019850819
0.019591458
0.019361731
0.019158776
0.018979747
0.018821899
0.018682637
0.018559553
0.018450442
0.018353311
0.018266371
0.018188023
0.018116852
0.018051601
0.017991161
0.017934553
0.017880909
0.017829462
0.017779483
0.017730097
0.017684756
0.017638656
0.017589401
0.017539329
0.017488191
0.017438174
0.017383871
0.017326996
0.017267762
0.017206049
0.017141704
0.017074595
0.017004615
0.016931679
0.016855706
0.027931354
0.02726158
0.026592626
0.025930922
0.025282411
0.024652042
0.024044557
0.023464084
0.022914041
0.022397074
0.021915018
0.021468895
0.021058944
0.020684684
0.020345014
0.020038325
0.019762817
0.019516264
0.019296272
0.019100379
0.018926133
0.01877116
0.018633202
0.018510152
0.018400066
0.01830117
0.018211858
0.018130683
0.01805635
0.0179877
0.017923697
0.017863419
0.01780604
0.017750817
0.017697123
0.017644875
0.017596652
0.017545491
0.017492496
0.017438399
0.017386113
0.017331536
0.017273536
0.017213426
0.017151072
0.017086355
0.017019124
0.016949258
0.016876657
0.016801226
0.027949167
0.027314083
0.026679133
0.02604878
0.025428733
0.02482347
0.02423698
0.023673036
0.023134881
0.022625166
0.0221459
0.021698427
0.021283425
0.020900938
0.020550433
0.020230871
0.019940959
0.019679003
0.019443074
0.019231107
0.019040972
0.018870548
0.018717766
0.018580651
0.018457346
0.018346124
0.018245397
0.018153713
0.018069756
0.017992333
0.017920369
0.017852894
0.017789032
0.017727986
0.017669005
0.017611254
0.017558192
0.017505521
0.017449469
0.017393049
0.017336273
0.017280786
0.017222098
0.017160931
0.017097699
0.01703237
0.016964802
0.016894853
0.01682241
0.016747365
0.027965308
0.027361858
0.026757823
0.026157369
0.025563963
0.024982839
0.024417096
0.023870085
0.023344815
0.022843853
0.02236927
0.021922606
0.021504854
0.02111646
0.020757355
0.020426996
0.020124532
0.019848754
0.01959818
0.019371137
0.019165836
0.018980429
0.018813066
0.018661938
0.018525304
0.018401518
0.018289036
0.018186429
0.018092378
0.018005677
0.017925225
0.017850019
0.01777915
0.01771179
0.017647198
0.017584767
0.017524389
0.017468738
0.017410676
0.017351198
0.017291653
0.017231759
0.017173379
0.017110677
0.017046449
0.016980257
0.016912116
0.016841869
0.016769387
0.016694551
0.027979915
0.027405271
0.026829629
0.026256471
0.025689045
0.025130583
0.024585142
0.024055215
0.023543537
0.023052526
0.022584229
0.022140284
0.021721884
0.021329772
0.020964242
0.020625162
0.020312061
0.020024158
0.019760387
0.019519454
0.019299907
0.019100187
0.018918684
0.018753779
0.018603878
0.018467441
0.018342997
0.018229163
0.018124641
0.018028232
0.017938825
0.0178554
0.017777023
0.017702837
0.017632058
0.017563948
0.017497677
0.017436693
0.017376675
0.017313692
0.0172509
0.017187734
0.017126942
0.017063561
0.016997747
0.016930559
0.01686159
0.016790809
0.016718074
0.016643251
0.027993121
0.027444664
0.026895032
0.026347099
0.025803743
0.025267533
0.024741415
0.024228499
0.023730853
0.023250704
0.022790013
0.022350431
0.021933265
0.021539456
0.02116957
0.0208238
0.020501991
0.020203733
0.019928329
0.019674844
0.019442149
0.019228977
0.019033968
0.018855711
0.018692782
0.01854377
0.018407305
0.01828207
0.018166814
0.018060361
0.01796161
0.01786954
0.017783204
0.017701731
0.017624323
0.017550261
0.017478952
0.017410253
0.017346815
0.017281309
0.017215072
0.017149148
0.0170834
0.01701977
0.016952361
0.01688375
0.016813781
0.016742211
0.016668988
0.016593963
0.028005047
0.027480363
0.02695451
0.026429853
0.025908782
0.025393686
0.024886539
0.024390098
0.023906682
0.023438039
0.022985995
0.022552155
0.022137865
0.021744184
0.021371865
0.021021347
0.020692729
0.02038591
0.020100518
0.019835933
0.019591336
0.01936574
0.019158039
0.018967039
0.018791501
0.018630165
0.018481777
0.018345113
0.018218987
0.018102266
0.01799388
0.017892817
0.017798137
0.017708961
0.017624477
0.017543935
0.017466618
0.017391726
0.017322681
0.017254598
0.017184492
0.017115071
0.017045761
0.016979361
0.01691098
0.016840483
0.016769233
0.016696635
0.016622675
0.016547218