/*--------------------------------*- C++ -*----------------------------------*\
| =========                 |                                                 |
| \\      /  F ield         | OpenFOAM: The Open Source CFD Toolbox           |
|  \\    /   O peration     | Version:  2312                                  |
|   \\  /    A nd           | Website:  www.openfoam.com                      |
|    \\/     M anipulation  |                                                 |
\*---------------------------------------------------------------------------*/
FoamFile
{
    version     2.0;
    format      ascii;
    arch        "LSB;label=32;scalar=64";
    class       volScalarField;
    location    "0.02";
    object      CO2;
}
// * * * * * * * * * * * * * * * * * * * * * * * * * * * * * * * * * * * * * //

dimensions      [0 0 0 0 0 0 0];

internalField   nonuniform List<scalar> 
3275
(
0.0023176779
0.014091586
0.028921706
0.042410656
0.053314225
0.061440367
0.067314091
0.07137302
0.073979113
0.075453457
0.076086357
0.076130525
0.075847747
0.075294026
0.074616729
0.073894368
0.073179109
0.07250358
0.071887653
0.071343509
0.07087845
0.070496629
0.070199994
0.0699891
0.069863592
0.069822505
0.069861473
0.06998154
0.070182329
0.07045945
0.070811073
0.071235753
0.071702693
0.072245927
0.072870443
0.073554601
0.074295872
0.075091323
0.075937735
0.076831658
0.077769465
0.07874753
0.079762723
0.080762235
0.081817646
0.082912223
0.08402285
0.085144718
0.08627258
0.087400978
0.08852434
0.089637217
0.003336062
0.016822358
0.031086298
0.043816921
0.054094778
0.061752272
0.067358951
0.071271653
0.073802134
0.075243325
0.0758689
0.075920669
0.075650462
0.075115278
0.074456324
0.073751371
0.073052
0.072390629
0.071787163
0.071253918
0.070798366
0.070424833
0.07013543
0.069930856
0.069810882
0.069774658
0.069817733
0.069941789
0.07014587
0.070425898
0.070780035
0.071206802
0.071675591
0.072221648
0.072847639
0.073533177
0.074275709
0.075072299
0.075919729
0.076814555
0.077753139
0.078731768
0.079747215
0.080747011
0.081803638
0.082898692
0.084009726
0.085131932
0.086260091
0.08738873
0.088512213
0.089625051
0.0061694076
0.021914328
0.034927814
0.046269481
0.055432027
0.062232342
0.067370752
0.071027886
0.073426792
0.074812415
0.07542924
0.075499357
0.075255738
0.074758607
0.074136533
0.073466477
0.072798875
0.072165776
0.071587182
0.07107569
0.070639123
0.070282151
0.070007209
0.069815285
0.069706396
0.069679896
0.069731282
0.069863322
0.070074026
0.070359924
0.070719145
0.071150103
0.071622741
0.072174412
0.072803428
0.073491799
0.074236924
0.075035859
0.075885399
0.07678211
0.077722332
0.078702194
0.079718222
0.080718904
0.08177804
0.082873946
0.083985755
0.085108636
0.086237375
0.08736649
0.088490256
0.089603202
0.011416295
0.028535782
0.039257777
0.049012717
0.0568904
0.062605052
0.067210168
0.070568882
0.072816617
0.074143682
0.074760698
0.074865244
0.074664708
0.074226205
0.073659735
0.073041974
0.07242179
0.071830799
0.07128922
0.070810098
0.070401786
0.070069472
0.069816075
0.069643011
0.069550663
0.069538591
0.069602566
0.069746443
0.069967057
0.070261761
0.070628628
0.071065759
0.071544411
0.072104276
0.072737883
0.073430536
0.074179579
0.07498206
0.075834791
0.076734364
0.077677101
0.078658895
0.079675703
0.080677974
0.081740843
0.082837991
0.08395094
0.085074823
0.086204426
0.087334256
0.088458516
0.089571756
0.017780546
0.033152208
0.043188253
0.051089866
0.057594221
0.062794697
0.066754022
0.06980614
0.071927245
0.073216564
0.073855626
0.074017311
0.07387985
0.073521278
0.073029471
0.07248124
0.071923756
0.071388295
0.070895483
0.070458997
0.070087913
0.069788105
0.069563129
0.069414965
0.069344491
0.069351252
0.069432322
0.069591596
0.069825371
0.070131782
0.070508859
0.070953904
0.071441053
0.072011378
0.072651152
0.07334954
0.074103817
0.074911033
0.075768028
0.076671434
0.077617586
0.078602069
0.079619602
0.08062439
0.081692101
0.082790894
0.083905348
0.085030559
0.086161307
0.087292092
0.088417065
0.089530797
0.014690843
0.033690499
0.044138072
0.051489171
0.057319542
0.062170815
0.065951582
0.06875216
0.070786431
0.072081632
0.072774225
0.073017152
0.072961957
0.072698447
0.072295337
0.07182854
0.071344043
0.07087303
0.070436762
0.070049706
0.069721802
0.069459721
0.069267761
0.069148549
0.069103537
0.069132003
0.069233514
0.06941035
0.069659568
0.069979701
0.070368877
0.070822564
0.071320628
0.071902523
0.0725496
0.073254757
0.074015197
0.074827983
0.075689994
0.07659792
0.077548159
0.078536014
0.079553729
0.080562193
0.08163533
0.082736056
0.083852274
0.084979043
0.086111134
0.087243043
0.088368891
0.089483269
0.0082363879
0.029651716
0.042064762
0.050302618
0.056231048
0.060885323
0.064620132
0.067456343
0.069426293
0.070772768
0.071551735
0.071898233
0.071944576
0.071785979
0.071483229
0.071106819
0.070702915
0.070302883
0.069928855
0.069596213
0.06931587
0.069095377
0.068939843
0.068852606
0.068835618
0.068888282
0.069012455
0.069208614
0.069474988
0.069810387
0.070213323
0.070675487
0.071187281
0.071781059
0.072436371
0.073149118
0.073916449
0.074735455
0.075603065
0.076516041
0.077470905
0.078462871
0.079479714
0.08049343
0.081572176
0.082675063
0.083793255
0.084921762
0.08605535
0.087188515
0.08831537
0.089430517
0.0054235814
0.023862324
0.037775613
0.047279511
0.054022616
0.058939727
0.062713269
0.065688563
0.067765831
0.069186471
0.070096684
0.070578575
0.070755662
0.070718872
0.070535552
0.070264632
0.069954466
0.069636792
0.069334973
0.069065486
0.068840393
0.068668252
0.068555124
0.068505173
0.068520546
0.068602129
0.068752418
0.068971179
0.069257669
0.06961098
0.07003084
0.070500506
0.071031636
0.07163751
0.072302759
0.073024504
0.073799976
0.074626325
0.075500536
0.076419463
0.077379823
0.078377277
0.079391166
0.080413271
0.081497709
0.082603166
0.083723699
0.084854262
0.085989617
0.087124264
0.088252321
0.089368403
0.0041590086
0.018999522
0.032693024
0.043107351
0.050676467
0.056248986
0.060314732
0.063444286
0.06576075
0.067341574
0.06840385
0.069054788
0.069390768
0.069498227
0.069448809
0.069299721
0.069096348
0.068872283
0.068652597
0.068455001
0.068292885
0.068175905
0.068111243
0.068103881
0.068156222
0.068271571
0.06845136
0.068696173
0.069005835
0.0693797
0.069816896
0.070299825
0.070851648
0.071470629
0.072147492
0.072879714
0.073664647
0.074499516
0.075381384
0.076307192
0.077273868
0.078278827
0.079286036
0.080321897
0.081410997
0.082519581
0.083642854
0.084775809
0.08591322
0.087049591
0.088179052
0.089296236
0.0034744603
0.015453896
0.027916139
0.038493369
0.046676259
0.052829697
0.057437601
0.060834681
0.063381229
0.065231213
0.06649067
0.067329029
0.067850727
0.068124213
0.068224697
0.068210846
0.068127449
0.06800781
0.067879935
0.067762813
0.067671323
0.067616249
0.067606129
0.067646309
0.067741276
0.067894357
0.068107431
0.068381791
0.068717762
0.069115079
0.069569975
0.070072297
0.070645403
0.071279093
0.071969286
0.072713528
0.073509301
0.074353928
0.075244554
0.076178209
0.077151827
0.07816204
0.079168662
0.080217943
0.081311318
0.082423498
0.083549926
0.084685631
0.0858254
0.08696375
0.088094828
0.089213285
0.0030349495
0.012901118
0.023886153
0.034017435
0.0424244
0.049022803
0.054080914
0.05793427
0.060714992
0.062838404
0.064369406
0.065418977
0.066142066
0.066599715
0.066865807
0.067000705
0.067047439
0.067042907
0.067016054
0.066987661
0.066974256
0.066987605
0.067037631
0.06713142
0.067273631
0.06746864
0.067718898
0.068026326
0.06839177
0.068816088
0.06928761
0.069817498
0.070410997
0.07106153
0.071766847
0.072524715
0.073332765
0.074188434
0.075088967
0.076031503
0.077012905
0.078026774
0.079037545
0.080100026
0.081197828
0.082314064
0.083444079
0.084582911
0.085725359
0.086865957
0.087998873
0.089118779
0.0027143936
0.011021485
0.020618758
0.029995547
0.038262712
0.04507986
0.050490677
0.054730881
0.057853774
0.060228858
0.062032519
0.063339089
0.064286131
0.0649322
0.065376638
0.065672269
0.065859123
0.065978652
0.066060768
0.066129071
0.066200705
0.066288736
0.066405048
0.066557511
0.066751597
0.066992856
0.067284201
0.067628199
0.068026138
0.068477617
0.068973736
0.069532349
0.070147152
0.070816603
0.071538892
0.072312039
0.07313385
0.074001891
0.074913519
0.07586605
0.076856656
0.077871696
0.078891869
0.079966878
0.081069581
0.08219038
0.08332444
0.084466793
0.085612255
0.086755382
0.087890367
0.089011902
0.0024604855
0.0095955991
0.017988481
0.026520658
0.034406079
0.041215008
0.046829616
0.051337722
0.054837707
0.057495745
0.059535033
0.06110405
0.062279076
0.063143258
0.063764769
0.064231495
0.064565853
0.064817152
0.065015467
0.065187524
0.065350726
0.065519152
0.065707267
0.065923545
0.066173912
0.066465674
0.066802012
0.06718603
0.067619672
0.068097705
0.068628579
0.069214187
0.069852555
0.070543011
0.07128415
0.072074273
0.072911367
0.073793144
0.074717081
0.075680743
0.07668332
0.077693908
0.078731753
0.079817171
0.08092557
0.082051502
0.083190092
0.084336378
0.085485203
0.08663115
0.087768443
0.088891795
0.0022491345
0.0084811572
0.015858205
0.02356648
0.030948093
0.037574149
0.043241643
0.047928528
0.051687662
0.05466251
0.056953342
0.058745422
0.060151987
0.061228357
0.062048199
0.062688482
0.063172761
0.063562139
0.063882321
0.064164488
0.064425122
0.064678823
0.06494396
0.065228992
0.06553961
0.065885989
0.066271328
0.066698672
0.067166494
0.067682899
0.068247482
0.068861805
0.069525952
0.070239498
0.071001383
0.071810205
0.072664135
0.073561033
0.074498492
0.075474156
0.076485463
0.077499301
0.078556172
0.07964984
0.080764779
0.081896453
0.083040077
0.084190725
0.085343274
0.086492342
0.087632191
0.088757555
0.002067897
0.0075859976
0.014113822
0.02106415
0.027901353
0.034233867
0.039828576
0.044595441
0.048536901
0.051738642
0.054307381
0.056323234
0.057929556
0.059215914
0.060231784
0.06104447
0.061694339
0.062218956
0.062664522
0.063062527
0.063425715
0.063768269
0.064115384
0.06447395
0.064848
0.065252808
0.065691686
0.066160168
0.066674044
0.067229218
0.067828575
0.068474012
0.069166153
0.069904866
0.070689393
0.071518656
0.072390989
0.073304402
0.074256612
0.075245559
0.076262393
0.077287833
0.078362237
0.079464001
0.080586183
0.081724218
0.082873399
0.084028851
0.085185495
0.086337991
0.08748065
0.088608233
0.0019095337
0.0068495465
0.012667189
0.01893921
0.025237245
0.031218269
0.036649683
0.041406984
0.04545252
0.048824221
0.051595788
0.053855218
0.055661967
0.057126015
0.058332235
0.059317536
0.060125265
0.060795903
0.06137214
0.061885433
0.062355574
0.062788386
0.063222439
0.06365938
0.0640986
0.06456481
0.065058448
0.065579641
0.066138144
0.066734362
0.067370864
0.06804973
0.068772058
0.069537994
0.070347035
0.07119849
0.072090797
0.073022104
0.073990251
0.07499516
0.076011018
0.077060466
0.078147706
0.079258562
0.080388726
0.081533754
0.082689025
0.08384973
0.085010844
0.086167082
0.087312808
0.088442829
0.00176935
0.0062310956
0.011451755
0.017124805
0.022911788
0.028519346
0.033729884
0.038406387
0.042485033
0.045967594
0.0488968
0.051336895
0.053358247
0.055003275
0.056367357
0.057521053
0.058484172
0.059298532
0.060005814
0.060637021
0.061212417
0.06174692
0.062266739
0.062780902
0.063295119
0.063825448
0.064376267
0.064951448
0.065557757
0.066197557
0.066873509
0.067588016
0.068342672
0.069137858
0.069973228
0.070848637
0.071762477
0.072713029
0.07369787
0.074714157
0.075741375
0.076813029
0.077911633
0.07903244
0.080171327
0.081323982
0.082485883
0.083652294
0.084818256
0.085978545
0.087127598
0.088260291
0.0016440372
0.0057025583
0.010417495
0.015564751
0.020878797
0.026112955
0.031070674
0.035615028
0.039667941
0.043206138
0.046246522
0.048831104
0.051013691
0.052850609
0.054375881
0.055669884
0.05678249
0.057735982
0.058572853
0.059323088
0.060005844
0.060641664
0.061250477
0.061845394
0.06243557
0.063033183
0.063644555
0.06427568
0.0649325
0.06561829
0.066335858
0.067088066
0.067877129
0.068703558
0.069566954
0.07046811
0.071405028
0.072376222
0.073379057
0.074400402
0.075455041
0.076541981
0.077652941
0.078784538
0.07993288
0.081093794
0.082262862
0.083435432
0.084606617
0.085771261
0.086923887
0.0880595
0.0015311778
0.0052441337
0.0095266076
0.014213068
0.019095409
0.023968836
0.028659764
0.033038045
0.037019797
0.040565863
0.043673447
0.046365437
0.048679848
0.050661551
0.052357876
0.053794122
0.055037562
0.056117973
0.057081247
0.0579504
0.058740131
0.059477242
0.060176541
0.060854451
0.061521915
0.062189241
0.062863556
0.063552618
0.06426232
0.064996335
0.065757484
0.066549229
0.067374702
0.068234364
0.069127237
0.070056046
0.071017538
0.072010837
0.073022787
0.074068614
0.075144664
0.076246413
0.077370555
0.078513747
0.07967226
0.080842054
0.082018819
0.083197992
0.084374762
0.085544048
0.086700476
0.087839239
0.0014289269
0.0048416929
0.0087506163
0.013032528
0.017523904
0.022055982
0.026477989
0.030669906
0.034547482
0.0380625
0.041198191
0.043962099
0.046378205
0.048479996
0.050305648
0.051894597
0.053264102
0.054468843
0.055539369
0.056526957
0.057420307
0.058258889
0.059048396
0.059810482
0.060556458
0.061295315
0.062034075
0.062782835
0.063547501
0.064331793
0.065138231
0.065970985
0.066834814
0.067729812
0.068653063
0.06961177
0.070599175
0.071605295
0.072644257
0.073713582
0.074807673
0.075925221
0.077063382
0.078218943
0.079388319
0.080567598
0.081752576
0.082938781
0.08412148
0.085295669
0.08645609
0.0013358331
0.0044849034
0.0080680785
0.01199328
0.016131925
0.020345169
0.024503613
0.028498855
0.03224962
0.035703379
0.038834109
0.041637716
0.044126438
0.04632329
0.048257824
0.049962626
0.051469927
0.052789393
0.053968165
0.055066108
0.056051236
0.056992938
0.057869871
0.058716522
0.059541982
0.060353711
0.061157297
0.061967212
0.062788662
0.063625116
0.064478304
0.065352896
0.066257006
0.067189926
0.068143117
0.069134971
0.070137739
0.071176038
0.072240508
0.073330221
0.074443085
0.075577325
0.076730317
0.07789899
0.079079894
0.080269238
0.081462922
0.082656565
0.083845514
0.085024828
0.086189391
0.0012507301
0.0041660223
0.007462765
0.011071752
0.01489214
0.018809968
0.022714752
0.026510038
0.030119514
0.033489529
0.036588412
0.039403678
0.041938208
0.044206081
0.046229009
0.048032937
0.049645029
0.051091527
0.05237883
0.053559915
0.054652884
0.055688337
0.056644565
0.057576095
0.058481822
0.059367593
0.060234526
0.06110695
0.061986743
0.062877056
0.063778544
0.064694444
0.065640828
0.066615827
0.067595054
0.06861424
0.069653332
0.070717759
0.071806165
0.072917441
0.074049902
0.075201668
0.076370261
0.077552749
0.078745808
0.079945762
0.081148616
0.082350076
0.083545562
0.084730186
0.085899118
0.0011726654
0.0038791178
0.0069221696
0.010249515
0.013782165
0.017427157
0.021090625
0.024687485
0.028147369
0.031417589
0.034463484
0.037266872
0.039823526
0.042140245
0.044231791
0.046117945
0.047820914
0.049363506
0.050768892
0.052042819
0.053221884
0.0543355
0.055386777
0.056398806
0.057379882
0.058341573
0.059266565
0.06020364
0.06114296
0.062088178
0.063041344
0.063994597
0.064985407
0.065995518
0.06701724
0.068065992
0.069135508
0.07022722
0.07134049
0.072474296
0.073627155
0.074797218
0.075982129
0.077179083
0.078384876
0.079595944
0.080808391
0.082018011
0.08322029
0.084410411
0.085583858
0.0011008511
0.0036195564
0.0064364977
0.009511928
0.012783996
0.016177253
0.019612562
0.023015483
0.026321956
0.029481524
0.032458393
0.035230788
0.037789347
0.040135028
0.042276669
0.044228542
0.04600815
0.0476346
0.049127884
0.050508471
0.051773962
0.052963685
0.054092662
0.055184053
0.05623847
0.057265738
0.058266149
0.059263132
0.060258871
0.061256558
0.062257387
0.063265048
0.064294863
0.065341573
0.066402301
0.06748358
0.06858395
0.069703825
0.070842788
0.071999938
0.073173927
0.074362981
0.075564854
0.076776859
0.077995906
0.079218539
0.080440955
0.081659031
0.08286832
0.084064084
0.0010346276
0.0033836544
0.0059979644
0.0088472046
0.011882927
0.015044151
0.018264649
0.021479868
0.02463219
0.02767421
0.030570286
0.033296577
0.035840111
0.038197312
0.040372121
0.042374025
0.044216211
0.045914106
0.047484414
0.048944186
0.050308543
0.051570316
0.052786831
0.05393749
0.055062887
0.056156561
0.057226229
0.058284234
0.059336521
0.060386948
0.061438211
0.062495713
0.063567322
0.064652649
0.065751322
0.066866501
0.067998338
0.069147082
0.070312435
0.071493607
0.072689358
0.073898001
0.075117394
0.076344958
0.07757771
0.078812293
0.080044996
0.081271771
0.082488232
0.083689797
0.00097343685
0.0031684357
0.0056002963
0.0082457405
0.011066795
0.014014338
0.017033317
0.020068257
0.02306791
0.025988462
0.028795333
0.031463739
0.033978282
0.036331959
0.038524765
0.040562127
0.042453385
0.044210498
0.045847028
0.047377168
0.04881447
0.050171935
0.051446963
0.052680665
0.053859978
0.055015957
0.056151658
0.057269894
0.058378432
0.059481641
0.060583425
0.06168896
0.062803469
0.063928475
0.065064878
0.066214646
0.06737846
0.068556612
0.069748898
0.070954628
0.072172652
0.073401372
0.074638741
0.075882279
0.077129102
0.078375945
0.079619182
0.080854835
0.082078562
0.08328601
0.00091680204
0.0029714607
0.0052383717
0.0076996231
0.010325431
0.013076334
0.015906848
0.018769707
0.021619812
0.024417242
0.027129144
0.029730631
0.032204807
0.034542163
0.036739578
0.038799105
0.040726737
0.042531283
0.044223411
0.045814763
0.047317133
0.048742449
0.050103931
0.051391551
0.052645604
0.053853159
0.055047001
0.056223356
0.057387308
0.058542663
0.059694186
0.060846659
0.062004298
0.063169389
0.06434347
0.065528134
0.066724241
0.067932155
0.069151747
0.070382411
0.071623082
0.072872239
0.074127923
0.075387743
0.076648906
0.077908229
0.079162169
0.080406814
0.081637878
0.082851209
0.00086431135
0.0027907021
0.0049079579
0.0072022658
0.0096502536
0.012220295
0.014875011
0.017574457
0.020279342
0.022953755
0.025567034
0.028094839
0.030519504
0.032829776
0.035020133
0.037089877
0.039042145
0.040882963
0.042620383
0.044263716
0.045822893
0.047308246
0.048730522
0.050099005
0.051401093
0.052670771
0.053931647
0.055147798
0.056366136
0.057572245
0.058772269
0.059970608
0.061171031
0.062376114
0.063587695
0.064807269
0.066035758
0.067273577
0.068520658
0.069776463
0.071039994
0.072309805
0.073584011
0.0748603
0.076135958
0.077407883
0.078672602
0.079926273
0.081164679
0.082383811
0.00081560578
0.0026244535
0.0046055153
0.0067481306
0.009033957
0.011437702
0.013928797
0.016473729
0.019038602
0.021591481
0.024104187
0.026553424
0.028921349
0.031195587
0.033368828
0.035438177
0.03740438
0.039271046
0.041043903
0.042730131
0.044337815
0.045875601
0.047352393
0.048776439
0.050155185
0.051474263
0.05277699
0.054066079
0.055318434
0.056572822
0.057819761
0.059062673
0.060305083
0.061549643
0.062798303
0.064052522
0.065313232
0.066580876
0.067855422
0.069136383
0.070422817
0.071713337
0.073006122
0.074298931
0.075589117
0.076873647
0.078149117
0.079411751
0.080657405
0.081882174
0.00077036937
0.0024712614
0.0043280508
0.006332517
0.0084702733
0.010721136
0.013060216
0.015459587
0.017890267
0.020324169
0.022735741
0.0251031
0.027408696
0.029639553
0.031787096
0.033846719
0.035817205
0.037700101
0.039499096
0.041219445
0.042867478
0.044450222
0.045975036
0.047449089
0.048879213
0.050272154
0.051614539
0.052943361
0.05426418
0.055550695
0.056838952
0.058124826
0.059408028
0.060691172
0.0619762
0.06326452
0.064557035
0.065854181
0.067155946
0.068461871
0.069771058
0.071082166
0.072393427
0.073702653
0.075007258
0.076304269
0.077590342
0.078861763
0.080114459
0.081344605
0.00072832159
0.0023298741
0.0040730066
0.0059513993
0.0079537841
0.010064093
0.012262144
0.014524813
0.016827524
0.019145831
0.021456845
0.023740338
0.025979429
0.028160973
0.030275574
0.032317344
0.03428349
0.036173831
0.037990291
0.039736405
0.04141689
0.043037267
0.044603519
0.046121728
0.047597929
0.049038185
0.050448826
0.051812635
0.053169017
0.054520459
0.05583924
0.05715914
0.058481568
0.059802057
0.061122446
0.062444041
0.063767677
0.065093753
0.066422251
0.067752728
0.069084312
0.070415696
0.071745149
0.073070527
0.074389288
0.075698511
0.076994904
0.07827481
0.07953422
0.08076937
0.00068921125
0.0021992021
0.0038381752
0.0056012993
0.0074797722
0.0094608377
0.011528199
0.013662819
0.015844022
0.018050733
0.020262687
0.022461442
0.024631075
0.026758621
0.028834246
0.030851153
0.032805323
0.034695154
0.036521064
0.03828508
0.039990459
0.041641351
0.043242475
0.044798851
0.04631562
0.047798001
0.0492512
0.050679763
0.052065298
0.053449236
0.054829435
0.056177847
0.057527496
0.058883776
0.060238229
0.061591999
0.062945804
0.064299976
0.065654472
0.067008853
0.06836226
0.069713404
0.071060575
0.072401657
0.073734145
0.075055153
0.076361436
0.077649383
0.078915046
0.080154704
0.0006528117
0.0020782884
0.0036216336
0.0052791879
0.0070441038
0.00890629
0.010852643
0.012867579
0.014933829
0.01703339
0.019148515
0.021262601
0.023360878
0.025430847
0.027462553
0.029448618
0.031384108
0.033266285
0.035094304
0.036868887
0.038591998
0.040266542
0.041896086
0.043484622
0.045036387
0.046555745
0.048047042
0.049514308
0.050961246
0.052368077
0.053778447
0.055184282
0.056560096
0.057937892
0.059324848
0.060709427
0.062092186
0.063473358
0.064852857
0.066230247
0.067604669
0.068974838
0.070339049
0.071695199
0.073040801
0.074373
0.075688581
0.076983976
0.078255283
0.079498819
0.00061891705
0.0019662848
0.0034216921
0.0049824063
0.0066431337
0.0083959269
0.010230299
0.012133564
0.0140914
0.01608856
0.018109657
0.020139928
0.022165863
0.024175651
0.026159478
0.02810967
0.030020652
0.03188881
0.033712267
0.035490632
0.037224738
0.038916379
0.040568071
0.042182838
0.043764036
0.045315214
0.046839966
0.048341759
0.049823841
0.051289039
0.052715718
0.054148294
0.055578776
0.056979656
0.058383694
0.059797475
0.061207714
0.062614519
0.064017757
0.065417002
0.066811392
0.068199626
0.069579985
0.070950361
0.072308274
0.073650885
0.074975001
0.076277085
0.077553275
0.078799914
0.00058733914
0.0018624337
0.0032368548
0.0047086052
0.0062736291
0.0079257046
0.0096564828
0.011455699
0.013311553
0.015211237
0.017141544
0.019089491
0.021042882
0.022990743
0.024923619
0.026833774
0.028715242
0.03056376
0.032376634
0.034152549
0.035891361
0.037593886
0.039261688
0.040896895
0.04250203
0.044079873
0.045633328
0.047165313
0.04867869
0.050176129
0.051659067
0.053095598
0.054554004
0.056006989
0.0574296
0.058857395
0.060293394
0.0617242
0.063149622
0.0645693
0.065982365
0.06738747
0.068782862
0.070166412
0.071535632
0.072887684
0.074219389
0.075527229
0.076807374
0.078056183
0.00055790508
0.0017660539
0.0030657876
0.0044556948
0.0059327078
0.0074919936
0.0091269478
0.010829315
0.012589442
0.014396655
0.016239721
0.018107344
0.019988651
0.021873595
0.023753242
0.025619993
0.0274677
0.029291665
0.031088569
0.032856349
0.034594037
0.036301595
0.037979741
0.039629782
0.041253466
0.042852852
0.044430195
0.045987873
0.047528424
0.049054953
0.050573532
0.052043596
0.053510209
0.054990126
0.056461578
0.057902198
0.059350362
0.060803269
0.062248986
0.063687403
0.0651176
0.06653815
0.067947235
0.069342688
0.070721997
0.072082319
0.073420474
0.074732955
0.076015954
0.077265837
0.00053045539
0.0016765293
0.0029072941
0.0042218061
0.0056177878
0.0070915247
0.0086378332
0.010250121
0.011920546
0.013640284
0.015399863
0.017189561
0.018999794
0.020821483
0.022646331
0.024467037
0.026277446
0.028072611
0.029848766
0.031603262
0.033334455
0.035041576
0.036724596
0.038384084
0.040021075
0.041636952
0.043233344
0.044812052
0.046375024
0.047924335
0.049461693
0.05098277
0.052465486
0.053954025
0.055447993
0.056934429
0.058388849
0.059852767
0.061316428
0.062771627
0.064217188
0.065651526
0.067072735
0.068478595
0.069866563
0.071233774
0.072577041
0.073892858
0.075177427
0.076427114
0.0005048424
0.0015932996
0.0027602951
0.0040052588
0.0053265465
0.0067213443
0.0081856241
0.0097141637
0.011300644
0.012937825
0.014617794
0.01633226
0.018072872
0.019831528
0.021600636
0.023373309
0.02514354
0.026906285
0.028657494
0.030394083
0.032113866
0.033815465
0.035498205
0.037161997
0.038807228
0.040434656
0.042045312
0.04364042
0.045221324
0.046789342
0.048345291
0.049888184
0.051418084
0.052908859
0.054413403
0.055919687
0.057416814
0.058879835
0.060352416
0.061822321
0.063281292
0.064727541
0.066159077
0.067573624
0.068968598
0.070341107
0.071687944
0.073005596
0.074290265
0.075538309
0.00048092902
0.0015158536
0.0026238131
0.0038045366
0.0050568872
0.0063787769
0.0077671156
0.009217808
0.010725805
0.012285219
0.013889494
0.01553163
0.017204427
0.018900739
0.02061371
0.022336956
0.024064727
0.025792021
0.027514642
0.029229207
0.030933118
0.032624499
0.03430213
0.035965347
0.037613957
0.039248143
0.040868378
0.042475345
0.044069854
0.045652724
0.047224564
0.048785414
0.050334617
0.051866938
0.053360892
0.05488309
0.056396741
0.057899594
0.059359115
0.060839884
0.062310165
0.063766232
0.065206069
0.066627356
0.068027468
0.069403471
0.070752131
0.072069917
0.073353028
0.0745978
0.0004585878
0.0014437229
0.0024969597
0.003618266
0.0048069118
0.0060613936
0.0073793827
0.0087577067
0.010192372
0.011678635
0.013211114
0.014783953
0.016391007
0.018026047
0.019682957
0.021355905
0.023039483
0.024728842
0.026419758
0.028108673
0.02979269
0.031469549
0.033137575
0.034795616
0.036442965
0.038079288
0.039704549
0.04131893
0.042922761
0.044516437
0.046100307
0.04767455
0.049239086
0.050795422
0.052306982
0.05382551
0.055353494
0.056875756
0.058351387
0.059824888
0.061304203
0.062767739
0.064213617
0.06563948
0.067042646
0.068420132
0.069768666
0.071084691
0.072364393
0.073604083
0.00043770063
0.0013764784
0.0023789254
0.0034451996
0.0045748978
0.0057669867
0.007019754
0.0083307821
0.0096969513
0.011114477
0.012578986
0.014085627
0.015629206
0.017204352
0.018805672
0.020427908
0.022066057
0.023715502
0.025372092
0.027032198
0.028692734
0.030351152
0.032005418
0.033653968
0.035295656
0.03692969
0.038555569
0.040173023
0.041781941
0.043382308
0.044974129
0.04655732
0.0481315
0.049695976
0.051247414
0.052754833
0.054283831
0.055810453
0.057320941
0.05879135
0.060264027
0.061732298
0.063181735
0.064609807
0.066013744
0.067390502
0.068736763
0.07004894
0.071323199
0.072555819
0.00041815992
0.0013137283
0.0022689705
0.0032842031
0.0043592806
0.0054935476
0.0066857905
0.0079342069
0.0092363967
0.010589378
0.011989635
0.013433185
0.014915686
0.016432552
0.017979082
0.01955059
0.021142514
0.022750529
0.024370635
0.025999223
0.027633109
0.02926955
0.030906241
0.032541284
0.034173161
0.035800682
0.037422938
0.039039246
0.040649094
0.042252085
0.043847879
0.045436143
0.047016515
0.048589049
0.050156092
0.051676837
0.053192496
0.054723568
0.05624071
0.057741503
0.059194435
0.06066012
0.062110552
0.063538301
0.064940547
0.06631418
0.067655835
0.068961891
0.070228493
0.071451883
0.00039986184
0.0012551118
0.0021664241
0.0031342445
0.004158638
0.0052392493
0.0063752667
0.0075653879
0.0088078036
0.0101002
0.011439781
0.012823316
0.01424721
0.015707586
0.01720039
0.01872149
0.020266781
0.021832268
0.023414163
0.025008948
0.026613421
0.028224728
0.029840368
0.031458189
0.033076365
0.034693371
0.036307939
0.03791902
0.039525738
0.041127341
0.042723163
0.044312578
0.045894974
0.047469769
0.04903595
0.050587649
0.052092779
0.053613867
0.055135463
0.056645242
0.058103857
0.059552002
0.061000467
0.062425161
0.063823072
0.065191003
0.066525541
0.06782303
0.069079593
0.070291432
0.00038271066
0.0012002954
0.0020706736
0.0029943883
0.003971679
0.0050024316
0.006086155
0.0072219525
0.0084084976
0.0096440274
0.010926352
0.012252879
0.013620663
0.015026461
0.016466809
0.017938106
0.019436693
0.020958931
0.022501284
0.02406038
0.025633069
0.027216452
0.028807907
0.030405095
0.032005951
0.033608669
0.035211677
0.036813604
0.038413245
0.040009528
0.041601471
0.043188161
0.04476873
0.046342385
0.047908566
0.049468141
0.050981536
0.052481972
0.054001561
0.055505255
0.056986516
0.058420176
0.059852168
0.061270914
0.062661651
0.064021118
0.065345855
0.066632169
0.067876156
0.069073975
0.00036661939
0.0011489734
0.0019811579
0.0028637866
0.0037972345
0.0047815891
0.0058166136
0.0069017373
0.0080360265
0.0092181717
0.010446486
0.01171892
0.013033083
0.01438629
0.015775612
0.017197937
0.01865004
0.020128642
0.021630483
0.023152381
0.024691284
0.026244313
0.027808787
0.029382243
0.030962435
0.032547337
0.03413512
0.035724136
0.03731289
0.038900015
0.040484238
0.042064358
0.043639211
0.045207649
0.046768419
0.048319613
0.049855138
0.051342832
0.05284291
0.054340897
0.055817383
0.057267871
0.05866841
0.060076628
0.061457028
0.062805058
0.064117142
0.065389526
0.066618265
0.067799472
0.0003515081
0.0011008695
0.0018973656
0.0027416687
0.003634252
0.0045753618
0.0055649753
0.0066027782
0.0076881546
0.0088201653
0.0099975402
0.011218681
0.012481675
0.013784319
0.015124159
0.016498531
0.017904615
0.019339488
0.020800175
0.022283711
0.023787184
0.025307778
0.02684281
0.028389745
0.029946217
0.031510028
0.033079143
0.034651681
0.036225895
0.037800154
0.039372916
0.040942708
0.042508098
0.044067671
0.045620027
0.047163917
0.048699452
0.050188434
0.051661907
0.053150896
0.054619801
0.056067643
0.057460168
0.058843213
0.06021026
0.061543776
0.062840231
0.064095816
0.06530653
0.066468432
0.00033730395
0.0010557337
0.0018188391
0.0026273375
0.0034817808
0.0043825321
0.00532974
0.0063233032
0.0073628565
0.0084477615
0.0095770895
0.010749618
0.011963837
0.013217957
0.014509939
0.015837522
0.01719826
0.018589565
0.020008754
0.021453086
0.022919818
0.024406236
0.025909693
0.027427637
0.028957626
0.03049734
0.032044586
0.03359729
0.035153491
0.036711329
0.038269019
0.039824838
0.0413771
0.042924124
0.044464196
0.04599546
0.047515435
0.049018007
0.050472176
0.05193606
0.053391973
0.054824024
0.056227326
0.057575481
0.058922973
0.060238727
0.061516506
0.062752349
0.063942189
0.065082038
0.00032394129
0.0010133419
0.0017451689
0.0025201736
0.0033389695
0.0042020101
0.0051095716
0.0060617263
0.0070583141
0.0080989347
0.0091829376
0.010309411
0.011477177
0.012684802
0.013930604
0.015212675
0.016528911
0.017877037
0.019254645
0.020659229
0.022088227
0.023539053
0.025009133
0.026495932
0.027996977
0.029509871
0.031032303
0.03256205
0.034096975
0.035635018
0.037174184
0.038712529
0.040248136
0.041779097
0.043303485
0.044819358
0.046324896