/*--------------------------------*- C++ -*----------------------------------*\
| =========                 |                                                 |
| \\      /  F ield         | OpenFOAM: The Open Source CFD Toolbox           |
|  \\    /   O peration     | Version:  2312                                  |
|   \\  /    A nd           | Website:  www.openfoam.com                      |
|    \\/     M anipulation  |                                                 |
\*---------------------------------------------------------------------------*/
FoamFile
{
    version     2.0;
    format      ascii;
    arch        "LSB;label=32;scalar=64";
    class       volScalarField;
    location    "0.02";
    object      H2O;
}
// * * * * * * * * * * * * * * * * * * * * * * * * * * * * * * * * * * * * * //

dimensions      [0 0 0 0 0 0 0];

internalField   nonuniform List<scalar> 
3275
(
0.0018974625
0.011536658
0.023677947
0.034721231
0.043647887
0.050300688
0.055109454
0.058432464
0.060566049
0.061773082
0.062291232
0.062327391
0.062095884
0.061642557
0.061088059
0.06049667
0.059911093
0.059358044
0.058853789
0.058408303
0.058027563
0.05771497
0.057472118
0.057299461
0.057196708
0.057163071
0.057194973
0.057293271
0.057457656
0.057684532
0.057972403
0.058320085
0.058702364
0.059147105
0.059658391
0.060218505
0.060825377
0.061476606
0.062169556
0.062901402
0.063669177
0.064469911
0.06530104
0.066119332
0.066983388
0.067879508
0.068788769
0.069707232
0.070630603
0.071554412
0.072474099
0.073385201
0.0027312046
0.013772316
0.025450079
0.035872528
0.044286919
0.050556042
0.055146181
0.058349476
0.060421158
0.061601049
0.062113202
0.062155584
0.061934368
0.061496218
0.060956738
0.060379599
0.05980703
0.059265572
0.058771519
0.058334956
0.057962
0.057656192
0.05741926
0.057251777
0.057153555
0.057123899
0.057159164
0.057260728
0.057427807
0.057657064
0.057946992
0.058296383
0.058680176
0.059127228
0.059639722
0.060200966
0.06080887
0.061461031
0.062154814
0.062887401
0.063655811
0.064457006
0.065288344
0.066106868
0.066971919
0.06786843
0.068778024
0.069696764
0.070620378
0.071544385
0.072464171
0.073375241
0.0050508397
0.017941068
0.028595094
0.037880417
0.045381713
0.050949071
0.055155842
0.058149906
0.060113869
0.061248266
0.061753256
0.06181066
0.061611211
0.061204214
0.060694928
0.060146359
0.059599799
0.059081486
0.058607796
0.058189043
0.057831629
0.057539379
0.057314286
0.05715716
0.057068013
0.057046318
0.057088387
0.057196488
0.057368989
0.057603051
0.057897142
0.058249963
0.058636908
0.059088557
0.059603527
0.060167089
0.060777117
0.061431198
0.062126709
0.062860838
0.063630589
0.064432795
0.065264607
0.066083857
0.066950963
0.067848171
0.068758399
0.069677692
0.070601781
0.071526177
0.072446195
0.073357353
0.00934642
0.023361993
0.032139997
0.04012628
0.04657567
0.051254206
0.055024374
0.057774123
0.059614324
0.06070078
0.061205926
0.061291517
0.06112734
0.060768342
0.060304577
0.059798822
0.059291083
0.058807243
0.058363858
0.057971604
0.057637323
0.057365261
0.057157807
0.057016121
0.056940516
0.056930633
0.056983009
0.057100799
0.057281414
0.057522686
0.057823037
0.058180912
0.05857278
0.059031136
0.059549865
0.060116934
0.060730169
0.061387153
0.062085277
0.062821749
0.06359356
0.064397345
0.065229798
0.066050348
0.066920509
0.067818735
0.068729896
0.069650009
0.070574806
0.071499787
0.072420209
0.073331609
0.014556777
0.027141421
0.035357843
0.041826824
0.047151882
0.051409467
0.054650931
0.057149673
0.058886203
0.059941757
0.060464951
0.060597322
0.060484784
0.060191224
0.059788586
0.059339753
0.058883347
0.05844497
0.058041508
0.057684161
0.057380358
0.057134908
0.056950722
0.056829422
0.056771725
0.05677726
0.056843631
0.056974028
0.057165417
0.057416273
0.057724983
0.058089338
0.058488162
0.058955082
0.05947886
0.060050623
0.060668143
0.061329004
0.062030618
0.062770229
0.063544835
0.064350822
0.065183868
0.066006479
0.066880605
0.067780177
0.06869257
0.069613771
0.070539505
0.071465268
0.072386274
0.073298077
0.012027264
0.027582115
0.036135451
0.042153732
0.046927005
0.050898699
0.05399398
0.056286788
0.057952229
0.059012598
0.059579618
0.0597785
0.059733313
0.059517579
0.059187557
0.058805394
0.05840874
0.058023126
0.057665957
0.057349078
0.057080626
0.056866063
0.056708907
0.056611309
0.056574458
0.056597763
0.056680869
0.056825643
0.057029676
0.057291766
0.057610381
0.057981811
0.058389571
0.058865963
0.05939572
0.059973025
0.060595591
0.061261012
0.061966732
0.062710043
0.063487996
0.064296744
0.065129938
0.065955559
0.066834127
0.067735281
0.06864912
0.069571595
0.070498428
0.071425112
0.072346834
0.073259166
0.0067430584
0.024275599
0.03443805
0.041182311
0.046035864
0.049846279
0.052903934
0.055225915
0.056838696
0.057941043
0.058578777
0.058862451
0.058900392
0.05877055
0.058522691
0.058214527
0.057883855
0.057556352
0.057250138
0.056977808
0.056748294
0.056567778
0.056440444
0.056369023
0.056355115
0.056398231
0.05649989
0.056660483
0.056878562
0.05715315
0.05748303
0.057861399
0.058280401
0.058766522
0.05930302
0.05988654
0.060514747
0.06118526
0.061895564
0.06264301
0.063424749
0.064236863
0.065069343
0.065899263
0.066782423
0.067685347
0.068600801
0.0695247
0.070452759
0.071380471
0.072303017
0.073215978
0.0044402384
0.019535874
0.030926562
0.03870732
0.044227841
0.048253436
0.051342802
0.053778649
0.05547929
0.056642355
0.057387539
0.057782058
0.057927038
0.057896918
0.057746836
0.057525037
0.057271106
0.057011029
0.056763933
0.056543306
0.056359025
0.056218094
0.056125477
0.056084582
0.056097169
0.056163959
0.056287
0.056466098
0.056700645
0.056989897
0.057333633
0.057718145
0.058152976
0.058648999
0.059193633
0.059784519
0.060419392
0.061095916
0.061811625
0.062563942
0.06335018
0.064166787
0.064996849
0.065833638
0.066721458
0.067626485
0.068543856
0.069469438
0.070398943
0.071327869
0.072251399
0.073165125
0.0034049438
0.015554742
0.026765491
0.035291609
0.041488378
0.04605055
0.049379141
0.051941279
0.053837748
0.055131955
0.056001631
0.056534547
0.056809611
0.056897587
0.05685713
0.056735072
0.056568572
0.056385132
0.056205277
0.056043508
0.055910784
0.055815014
0.055762075
0.055756049
0.0557989
0.055893335
0.056040527
0.056240953
0.05649447
0.05680055
0.057158478
0.057553848
0.058005621
0.058512376
0.059066517
0.059665981
0.060308598
0.060992099
0.061714077
0.062472027
0.063263436
0.064086187
0.064910781
0.065758831
0.066650467
0.067558055
0.068477669
0.06940521
0.070336397
0.071266734
0.072191414
0.073106043
0.0028445101
0.012651969
0.022854698
0.031514183
0.038213442
0.043251208
0.047023659
0.049804818
0.051889655
0.053404221
0.054435327
0.055121684
0.055548794
0.055772694
0.055854959
0.05584362
0.055775344
0.055677396
0.055572706
0.055476819
0.055401917
0.055356828
0.055348543
0.055381438
0.055459187
0.055584513
0.055758955
0.055983571
0.056258628
0.056583907
0.056956327
0.057367573
0.05783677
0.058355567
0.058920621
0.059529926
0.060181419
0.060872907
0.061602055
0.06236643
0.063163523
0.063990575
0.064814687
0.065673725
0.066568861
0.067479393
0.068401589
0.069331381
0.0702645
0.071196458
0.072122461
0.073038132
0.0024846864
0.010562032
0.019555383
0.027849775
0.034732483
0.040134538
0.044275568
0.047430277
0.04970683
0.051445249
0.052698667
0.053557941
0.054149928
0.054524601
0.054742448
0.054852888
0.054891149
0.054887438
0.054865454
0.054842209
0.054831235
0.054842163
0.054883119
0.054959903
0.05507633
0.055235982
0.055440866
0.055692555
0.055991741
0.056339126
0.056725157
0.057158972
0.057644864
0.058177449
0.058754887
0.059375347
0.06003689
0.060737418
0.061474677
0.062246323
0.063049789
0.063879834
0.064707343
0.065577187
0.066475948
0.0673898
0.068314934
0.069247286
0.070182598
0.071116395
0.072043904
0.07296076
0.0022222501
0.0090231927
0.016880396
0.02455709
0.031325346
0.036906485
0.041336273
0.044807691
0.047364376
0.049308837
0.050785478
0.051855155
0.05263049
0.053159422
0.053523279
0.053765309
0.053918285
0.054016143
0.05408337
0.054139289
0.054197935
0.054270005
0.054365229
0.054490049
0.054648946
0.054846462
0.055084984
0.055366612
0.055692401
0.056062023
0.056468191
0.056925523
0.057428856
0.05797693
0.058568262
0.059201231
0.059874039
0.060584697
0.06133104
0.062110868
0.062921868
0.063752873
0.06458808
0.06546818
0.066370953
0.067288541
0.068216987
0.069152221
0.07009
0.071025868
0.07195507
0.072873261
0.0020143778
0.0078558326
0.014727011
0.02171223
0.028167954
0.033742365
0.038338995
0.042029741
0.044895148
0.047071261
0.048740808
0.050025348
0.050987332
0.05169483
0.052203656
0.052585761
0.052859496
0.053065232
0.053227591
0.053368453
0.053502064
0.053639954
0.053793962
0.053971027
0.054176
0.054414863
0.05469022
0.055004612
0.055359631
0.055750992
0.056185615
0.056665046
0.057187673
0.057752943
0.058359707
0.059006573
0.059691895
0.060413798
0.061170217
0.061959159
0.06277996
0.063607319
0.064456994
0.065345616
0.066253053
0.067174843
0.068106997
0.069045451
0.069985984
0.07092416
0.071855253
0.072774931
0.0018413467
0.0069434488
0.012982973
0.01929367
0.025336932
0.030761626
0.035401553
0.039238664
0.042316234
0.044751717
0.0466272
0.04809436
0.049245903
0.050127118
0.050798315
0.051322509
0.051718984
0.052037764
0.052299894
0.052530902
0.052744281
0.052951984
0.053169049
0.053402402
0.053656702
0.05394028
0.054255754
0.054605616
0.054988618
0.055411394
0.055873613
0.056376554
0.056920285
0.057504459
0.058128208
0.058790383
0.059489488
0.060223771
0.06099126
0.061790028
0.062617976
0.063447996
0.064313248
0.065208624
0.066121414
0.067047906
0.067984181
0.068926207
0.069869788
0.07081052
0.071743704
0.07266503
0.0016929691
0.0062105895
0.011554862
0.017245035
0.022842593
0.028026966
0.032607305
0.036509895
0.039736734
0.042357971
0.044460975
0.046111336
0.047426418
0.048479548
0.049311232
0.04997657
0.050508613
0.050938112
0.051302893
0.051628736
0.051926075
0.052206521
0.052490701
0.052784256
0.053090487
0.0534219
0.053781206
0.054164748
0.054585453
0.055039969
0.055530658
0.056059071
0.056625721
0.057230499
0.057872784
0.058551695
0.059265866
0.060013669
0.060793236
0.061602877
0.06243535
0.06327487
0.064154474
0.065056479
0.065975199
0.066906899
0.067847723
0.068793682
0.069740615
0.070684154
0.071619639
0.072542781
0.0015633184
0.0056076635
0.010370516
0.015505365
0.020661511
0.025558123
0.030004773
0.033899534
0.037211578
0.03997196
0.042241018
0.044090794
0.045569963
0.046768567
0.047756087
0.048562745
0.049224026
0.049773072
0.050244832
0.050665059
0.05104996
0.051404299
0.051759655
0.052117375
0.052476961
0.052858642
0.053262779
0.053689475
0.054146717
0.054634835
0.055155934
0.055711716
0.056303079
0.056930145
0.057592499
0.058289578
0.059020101
0.059782554
0.060575168
0.061397878
0.062229552
0.063088726
0.06397884
0.064888288
0.065813543
0.066750967
0.067696778
0.068647037
0.069597631
0.070544232
0.071482228
0.072407366
0.0014485513
0.0051013432
0.0093754514
0.014019927
0.01875768
0.023348538
0.02761436
0.031442971
0.034782123
0.037633265
0.04003138
0.042029065
0.043683928
0.045030697
0.04614746
0.04709198
0.047880477
0.048547187
0.049126232
0.049642996
0.050114068
0.050551661
0.050977231
0.051398172
0.051819157
0.052253333
0.052704284
0.053175179
0.053671559
0.054195358
0.054748754
0.055333714
0.055951545
0.056602557
0.057286467
0.058003156
0.058751309
0.059529517
0.060335798
0.061167823
0.062008798
0.062886151
0.063785569
0.064703163
0.06563556
0.066579229
0.067530467
0.068485398
0.069439961
0.070389879
0.071330598
0.072257924
0.0013459588
0.0046686343
0.0085287116
0.012742725
0.017093287
0.021378446
0.025437288
0.02915771
0.032475794
0.035372485
0.037861621
0.039977595
0.04176446
0.043268329
0.044517055
0.045576445
0.046487325
0.047267941
0.04795308
0.04856729
0.049126257
0.049646797
0.050145227
0.05063228
0.051115452
0.051604712
0.052105237
0.052621934
0.053159667
0.053721117
0.054308584
0.05492441
0.055570409
0.056246999
0.056953853
0.057691622
0.058458669
0.059253777
0.060074788
0.060910955
0.061774379
0.062664247
0.06357378
0.064500209
0.065440346
0.066390776
0.067347882
0.068307855
0.069266693
0.070220177
0.071163822
0.072093538
0.0012535618
0.0042933262
0.0077993499
0.011636114
0.015633243
0.019623075
0.023463497
0.027047957
0.030307782
0.033210915
0.035755067
0.037958976
0.039853763
0.041476166
0.042864933
0.044040775
0.045058768
0.045943291
0.046731915
0.047443483
0.048090028
0.048693495
0.049266005
0.049821004
0.05036745
0.050913785
0.05146584
0.05202997
0.052610997
0.053211928
0.053835074
0.054483268
0.055159076
0.055862874
0.056593861
0.057354269
0.058141434
0.058954639
0.059783114
0.060639323
0.061520276
0.062422268
0.063342593
0.064278515
0.065226979
0.066184679
0.067148086
0.068113465
0.069076875
0.07003416
0.070980917
0.071913212
0.0011698499
0.0039638514
0.0071640527
0.010669616
0.014346666
0.018057038
0.021677297
0.025109182
0.028283719
0.031161434
0.033728596
0.035991384
0.037969429
0.039690147
0.041184791
0.04248565
0.043606852
0.044593163
0.045469593
0.046278122
0.047009501
0.04769604
0.048342403
0.048966316
0.04957704
0.050181936
0.050786752
0.051399755
0.05202578
0.052667873
0.053328097
0.054009865
0.054717074
0.055449802
0.056205659
0.056990544
0.057798924
0.058622626
0.059473215
0.060348661
0.061244384
0.06215931
0.063091113
0.064037161
0.064994519
0.065959984
0.066930115
0.06790125
0.068869516
0.069830814
0.07078084
0.0010936348
0.003671751
0.0066052649
0.0098187929
0.013207065
0.016656411
0.020060893
0.023331762
0.026402481
0.029230043
0.031793143
0.034088432
0.036125927
0.03792447
0.039508256
0.040903963
0.042137977
0.043218212
0.044183262
0.045082138
0.045888654
0.046659618
0.047377555
0.0480707
0.048746497
0.049411053
0.050068941
0.050732011
0.051404526
0.052089323
0.052787821
0.053503841
0.054244028
0.055007802
0.055788171
0.056600193
0.057421151
0.058271197
0.059142668
0.060034807
0.060945899
0.061874491
0.062818435
0.063775218
0.064742014
0.065715719
0.066692978
0.067670203
0.068643585
0.069609079
0.070562497
0.0010239618
0.0034106858
0.0061097001
0.0090643462
0.012192064
0.015399555
0.018596368
0.021703535
0.024658581
0.027417583
0.029954611
0.032259445
0.034334442
0.036191129
0.037847283
0.039324143
0.040643948
0.041828184
0.042882087
0.043849031
0.044743835
0.045591552
0.046374407
0.047137043
0.047878554
0.048603726
0.049313477
0.050027723
0.050748002
0.051476893
0.052214933
0.052964772
0.053739569
0.054537791
0.055339476
0.056173875
0.05702457
0.057896007
0.058787076
0.059696868
0.060624003
0.061566944
0.062523661
0.063491754
0.064468501
0.065450893
0.066435658
0.067419283
0.068398017
0.069367859
0.070324852
0.00096005089
0.0031757996
0.0056671194
0.0083911877
0.011283337
0.01426746
0.017266709
0.020211426
0.023044003
0.025721304
0.028214951
0.030510061
0.032603171
0.034499848
0.036212178
0.037756356
0.039150562
0.040413468
0.041564046
0.042606998
0.043572288
0.044483996
0.045344667
0.046173207
0.046976405
0.047763733
0.048521016
0.049288191
0.050057204
0.050831045
0.051611394
0.052391813
0.053202982
0.05402995
0.054866425
0.055725029
0.056600632
0.057494407
0.058405832
0.059334069
0.060277904
0.061235825
0.062205901
0.063185836
0.064173008
0.065164499
0.066157119
0.067147424
0.068131719
0.069106061
0.070066752
0.00090125712
0.002963299
0.0052695041
0.0077873318
0.010466145
0.013244175
0.016056632
0.018842574
0.021549554
0.024136264
0.026573401
0.028843136
0.030937806
0.032858194
0.034611537
0.036209519
0.037666468
0.038998028
0.040220567
0.041350841
0.042386888
0.043360903
0.044285187
0.045178699
0.046041941
0.046882956
0.047701983
0.048518205
0.049333407
0.050150205
0.050969576
0.051794539
0.052637639
0.053494571
0.05436298
0.055248213
0.056149077
0.057065908
0.057998367
0.058945716
0.059906851
0.060880319
0.061864281
0.062856539
0.063854563
0.064855521
0.065856303
0.066853531
0.067843565
0.068822527
0.00084704049
0.0027701681
0.0049104807
0.0072431286
0.0097284479
0.012316514
0.014953107
0.017585379
0.020166158
0.022656632
0.025027624
0.027259615
0.029341984
0.031271803
0.033052301
0.034691242
0.036199423
0.037589475
0.038875072
0.040070175
0.041187162
0.042220164
0.043216114
0.044158149
0.045079501
0.045974883
0.04685061
0.04771679
0.048578288
0.049438264
0.050298923
0.051164691
0.052042007
0.052930555
0.053830029
0.054743017
0.055669642
0.056610108
0.057564172
0.058531187
0.059510138
0.060499644
0.06149795
0.062502946
0.063512189
0.064522931
0.065532134
0.066536484
0.06753239
0.068516101
0.00079694419
0.0025939704
0.0045849133
0.0067507152
0.0090602878
0.011473415
0.013945027
0.016429706
0.018885495
0.021276525
0.023574486
0.025759086
0.027817721
0.029744656
0.031539887
0.033207857
0.034756213
0.036194746
0.037534558
0.038787271
0.039963977
0.041075322
0.042119176
0.043129197
0.04409469
0.04504108
0.045970868
0.046886359
0.047793909
0.048697096
0.049599117
0.050504209
0.051416648
0.05233768
0.053268043
0.054209349
0.055162153
0.056126696
0.05710281
0.05808993
0.059087115
0.060093058
0.061106081
0.062124154
0.063144918
0.064165697
0.065183524
0.066195142
0.067196997
0.068185524
0.00075057777
0.0024327088
0.0042886089
0.0063036138
0.0084533397
0.01070548
0.013022796
0.015366594
0.01769995
0.019990181
0.022210391
0.024340207
0.026365792
0.028279365
0.03007837
0.031764486
0.033342621
0.034819988
0.036205318
0.037508144
0.038738121
0.039905014
0.041019647
0.042073811
0.043100493
0.044089108
0.045066496
0.046029567
0.046982485
0.047928363
0.048871105
0.049814625
0.050762373
0.051716223
0.052677433
0.053647307
0.05462655
0.055615458
0.056613927
0.057621461
0.058637187
0.059659861
0.060687878
0.061719283
0.062751785
0.063782782
0.064809371
0.065828351
0.066836213
0.067829556
0.0007076041
0.0022847233
0.004018102
0.0058964317
0.0079005777
0.010004648
0.012178041
0.014388053
0.016602519
0.018792038
0.020931506
0.023000997
0.024986049
0.026877449
0.028670675
0.030365156
0.031963461
0.033470522
0.034892933
0.036238315
0.0375148
0.038730845
0.039895249
0.041015615
0.042081623
0.043121097
0.044153366
0.045149017
0.04614646
0.047133891
0.04811634
0.049097409
0.050080185
0.051066776
0.052058687
0.053057142
0.054062894
0.055076286
0.05609726
0.057125377
0.058159819
0.059199402
0.060242582
0.061287469
0.06233184
0.063373153
0.064408568
0.065434937
0.066448809
0.067446902
0.00066772928
0.002148617
0.0037704949
0.0055246352
0.0073960211
0.0093639461
0.011403384
0.013486897
0.015586736
0.017676755
0.019733886
0.021739055
0.023677654
0.025539553
0.027318766
0.029012924
0.030622637
0.03215086
0.033602282
0.034982783
0.036298979
0.037557951
0.038766988
0.039932842
0.041061609
0.042141527
0.043208058
0.044263423
0.045288716
0.046315672
0.04733653
0.048354091
0.049371241
0.050390151
0.051412418
0.052439236
0.053471369
0.054509177
0.055552638
0.056601349
0.057654541
0.058711078
0.05976947
0.060827881
0.061884145
0.062935779
0.063979995
0.065013702
0.066033508
0.067036216
0.00063069463
0.0020232
0.0035433371
0.005184376
0.0069345383
0.0087773
0.010692284
0.012656628
0.014646604
0.016639218
0.018613552
0.020551687
0.022439258
0.024265641
0.026023816
0.027710011
0.02932323
0.030864741
0.032337563
0.033745997
0.035095227
0.036391006
0.037639357
0.038846152
0.040016982
0.041157371
0.042256369
0.043344264
0.044425607
0.045478866
0.04653355
0.047586284
0.04863683
0.049687329
0.05073937
0.051794106
0.052852277
0.053914239
0.054979982
0.056049132
0.057120952
0.058194344
0.059267862
0.060339714
0.061407783
0.062469634
0.063522531
0.064563432
0.065589003
0.066596113
0.00059627048
0.0019074475
0.0033345347
0.0048723583
0.0065116931
0.0082393843
0.010038909
0.011891336
0.013776546
0.015674523
0.017566531
0.019436006
0.02126913
0.023055141
0.024786347
0.026457925
0.028067591
0.029615198
0.031102317
0.032531845
0.033907643
0.035234232
0.036516509
0.037759453
0.038968006
0.040147131
0.04130201
0.042418549
0.043529006
0.044635421
0.045715095
0.046795685
0.047878346
0.048959418
0.050040409
0.051122387
0.052206036
0.053291683
0.054379312
0.055468563
0.056558719
0.057648712
0.058737123
0.059822198
0.060901856
0.061973705
0.063035051
0.064082898
0.065113967
0.066125173
0.00056425119
0.0018004675
0.0031422803
0.0045857345
0.0061236237
0.0077455046
0.0094380351
0.01118563
0.012971362
0.014777977
0.016588884
0.018388985
0.020165244
0.021907048
0.023606344
0.025257568
0.026857429
0.028404618
0.029899474
0.031343658
0.032739838
0.034091408
0.035402234
0.036676425
0.037918191
0.039131803
0.040321524
0.041491076
0.042625402
0.043758419
0.044888376
0.045992309
0.047097255
0.04820763
0.049316508
0.050424828
0.051533176
0.052641825
0.053750739
0.054859559
0.055967581
0.057073751
0.058176668
0.0592746
0.060365496
0.061446994
0.062516436
0.063570867
0.064607054
0.065621951
0.0005344512
0.0017014765
0.0029649996
0.0043220247
0.0057669458
0.0072915013
0.0088849632
0.010534574
0.012226195
0.013945087
0.015676721
0.017407505
0.019125346
0.020820011
0.022483351
0.024109325
0.025693893
0.027234815
0.028731398
0.030184234
0.03159493
0.032965864
0.034299957
0.035600478
0.036870894
0.038114779
0.039335691
0.040536928
0.041721524
0.042873285
0.044027942
0.045178886
0.046305253
0.047433242
0.048568731
0.049702274
0.050834327
0.05196508
0.053094464
0.054222121
0.055347348
0.056469094
0.057585961
0.058696229
0.059797861
0.060888521
0.061965576
0.063026104
0.064066912
0.065084984
0.00050670195
0.0016097801
0.0028013092
0.0040790523
0.0054386752
0.0068736715
0.0083754555
0.0099336425
0.011536506
0.013171562
0.014826217
0.016488382
0.018146998
0.019792393
0.021416535
0.023013139
0.024577644
0.026107089
0.027599936
0.029055868
0.030475566
0.031860497
0.033212723
0.034534719
0.035829232
0.037099168
0.038347469
0.039576973
0.04079034
0.041989885
0.043157894
0.044330732
0.045501855
0.046648743
0.047798217
0.048955667
0.050110217
0.051261956
0.052410775
0.053556324
0.0546979
0.055834434
0.056964522
0.058086436
0.059198148
0.060297332
0.061381374
0.062447379
0.063492184
0.064512797
0.00048084939
0.0015247581
0.0026499845
0.0038548937
0.005136165
0.0064887046
0.0079056776
0.0093786797
0.010898051
0.012453306
0.014033631
0.015628398
0.017227622
0.018822319
0.020404748
0.021968575
0.023508916
0.025022282
0.026506466
0.027960391
0.029383942
0.030777784
0.032143199
0.033481928
0.034796038
0.036087804
0.037359605
0.038613827
0.039852815
0.041078756
0.042292824
0.0434689
0.044662883
0.045852429
0.047017108
0.048186032
0.049361672
0.05053306
0.05170004
0.052862318
0.054019182
0.055169529
0.056311925
0.057444625
0.058565593
0.059672506
0.060762761
0.061833478
0.062881522
0.063903911
0.00045675198
0.0014458528
0.0025099334
0.0036478382
0.0048570557
0.0061336292
0.0074721519
0.008865865
0.010306866
0.011786415
0.013295316
0.014824323
0.016364533
0.01790772
0.01944657
0.020974863
0.022487564
0.023980829
0.025451938
0.026899204
0.028321834
0.029719797
0.03109368
0.032444554
0.03377385
0.035083253
0.03637461
0.037649867
0.038911103
0.040160858
0.041404106
0.042607634
0.043808338
0.045019932
0.046224597
0.04740402
0.04858962
0.049779101
0.050962697
0.052140316
0.053311206
0.054474198
0.055627804
0.056770249
0.057899477
0.059013161
0.060108696
0.061183213
0.062233593
0.063256861
0.00043427916
0.0013725598
0.0023801761
0.0034563555
0.0045992335
0.0058057689
0.0070717181
0.0083916835
0.0097592462
0.01116718
0.012607733
0.014072943
0.015554964
0.017046365
0.018540352
0.020030948
0.021513114
0.0229828
0.024436922
0.025873313
0.027290625
0.02868823
0.030066104
0.031424712
0.032764902
0.034087806
0.035394758
0.036687233
0.037966825
0.039235231
0.040493853
0.041739146
0.042953032
0.044171686
0.045394784
0.046611716
0.047802437
0.049000934
0.050199221
0.051390579
0.052574047
0.053748327
0.054911859
0.056062824
0.057199141
0.058318464
0.059418185
0.060495433
0.061547098
0.062570206
0.00041331003
0.0013044204
0.0022598293
0.0032790702
0.0043607968
0.0055027055
0.0067014985
0.0079529004
0.0092517379
0.010592084
0.01196746
0.013371078
0.014796102
0.016235898
0.017684251
0.019135523
0.020584795
0.022027939
0.023461638
0.024883369
0.02629134
0.027684424
0.029062068
0.0304242
0.031771137
0.033103498
0.034422127
0.035728028
0.0370223
0.038306023
0.039579864
0.040843018
0.042095533
0.043316018
0.044547775
0.045780956
0.04700664
0.048204403
0.049409992
0.05061339
0.051807837
0.052991869
0.054163855
0.055321931
0.056463985
0.057587646
0.05869029
0.059769039
0.060820787
0.061842549
0.00039373236
0.001241016
0.0021480927
0.0031147407
0.0041400291
0.0052222485
0.0063588693
0.0075465383
0.0087811223
0.010057801
0.011371207
0.012715609
0.014085113
0.015473868
0.016876263
0.01828707
0.01970158
0.021115701
0.022525996
0.023929695
0.025324671
0.026709391
0.028082852
0.029444513
0.030794215
0.032132109
0.033458582
0.034774191
0.036079602
0.037375484
0.038662335
0.03994019
0.041208508
0.042463006
0.043686093
0.044932303
0.046171516
0.047401888
0.048596785
0.049809078
0.051012784
0.052204854
0.053383635
0.054547231
0.05569349
0.056820011
0.057924148
0.059003007
0.060053479
0.061072563
0.0003754418
0.0011819632
0.002044239
0.0029622425
0.0039353764
0.0049624096
0.0060414357
0.0071698575
0.0083444057
0.0095611957
0.010815823
0.012103492
0.013419174
0.014757766
0.016114264
0.017483891
0.018862222
0.020245286
0.021629624
0.023012323
0.024391013
0.025763843
0.027129442
0.028486865
0.029835535
0.031175179
0.032505765
0.033827444
0.035140487
0.036445215
0.037741916
0.039030735
0.040311606
0.041585765
0.042823267
0.044066472
0.045317419
0.046563681
0.047771767
0.04897811
0.050189212
0.051387396
0.052571124
0.053738465
0.054887224
0.05601496
0.057118993
0.058196411
0.059244092
0.060259016
0.00035834165
0.0011269108
0.0019476053
0.0028205546
0.0037454286
0.0047213813
0.0057470109
0.0068203381
0.0079388087
0.0090993247
0.010298306
0.011531779
0.012795494
0.014085051
0.015396038
0.016724148
0.018065287
0.019415673
0.020771909
0.022131023
0.023490489
0.024848221
0.026202554
0.027552208
0.028896243
0.030234012
0.031565105
0.032889301
0.034206508
0.035516714
0.036819924
0.038116069
0.039404836
0.040685659
0.041955807
0.043189918
0.044441695
0.045691527
0.04692815
0.048131961
0.049337629
0.050539689
0.051726331
0.052895481
0.054044872
0.055172011
0.056274184
0.057348451
0.058391676
0.059400811
0.00034234385
0.0010755378
0.0018575862
0.0026887482
0.0035689047
0.0044975192
0.0054735979
0.0064956654
0.0075617567
0.0086694311
0.0098158084
0.01099763
0.012211341
0.013453186
0.014719317
0.016005896
0.01730919
0.018625658
0.019952024
0.021285335
0.022622983
0.023962723
0.025302667
0.026641263
0.027977266
0.029309703
0.03063783
0.031961087
0.033279056
0.03459141
0.035897873
0.03719817
0.038492007
0.039779427
0.041062352
0.042307372
0.043548229
0.044801704
0.046043775
0.047272461
0.048461963
0.049661907
0.050849363
0.052018248
0.053166254
0.054290836
0.055389237
0.056458494
0.05749545
0.058497029
0.00032736337
0.001027549
0.0017736324
0.0025659784
0.0034046404
0.0042893274
0.0052193748
0.0061937165
0.0072108714
0.0082689447
0.0093656478
0.010498336
0.011664065
0.012859663
0.014081808
0.01532712
0.016592235
0.017873886
0.019168969
0.020474605
0.021788174
0.023107337
0.024430047
0.025754542
0.027079329
0.028403158
0.02972499
0.031043968
0.032359374
0.033670593
0.034977078
0.036278318
0.037573812
0.038863082
0.040145301
0.041415663
0.0426479
0.043893201
0.045138918
0.046374961
0.047569117
0.0487547
0.049940546
0.05110693
0.052251388
0.053371301
0.054463875
0.055526118
0.056554855
0.057546977
0.00031332185
0.00098267133
0.0016952423
0.0024514793
0.0032515787
0.0040954467
0.0049826816
0.005912549
0.006883963
0.0078954804
0.008945308
0.010031325
0.011151117
0.012302032
0.013481232
0.01468577
0.015912649
0.017158892
0.018421603
0.019698022
0.020985568
0.02228187
0.02358478
0.024892384
0.026202991
0.027515122
0.028827491
0.030138974
0.031448586
0.032755448
0.034058759
0.035357768
0.036651765
0.037940103
0.039222322
0.040499132
0.041738135
0.042966529
0.044210603
0.045441664
0.04665436
0.047828084
0.049000443
0.050161959
0.051300543
0.052413526
0.053498077
0.054551171
0.055569612
0.056550256
0.00030014807
0.00094065441
0.0016219566
0.0023445569
0.0031087625
0.0039146449
0.0047620104
0.0056503916
0.0065790242
0.0075468362
0.0085524466
0.0095941765
0.01067007
0.011777929
0.012915355
0.0140798
0.015268624
0.016479142
0.017708686
0.018954651
0.020214537
0.021485989
0.02276681
0.024054984
0.025348674
0.026646219
0.027946122
0.029247036
0.030547735
0.0318471
0.03314409
0.03443772
0.035727039
0.037011104
0.038288893
0.039558842
0.040815963
0.042033925
0.043262026
0.044488414
0.0456972
0.046884702
0.048031312
0.049184207
0.050314328
0.051417948
0.05249214
0.05353383
0.054539788
0.055506831
0.00028777659
0.00090127218
0.0015533566
0.0022445801
0.0029753301
0.0037458085
0.0045559963
0.0054056364
0.0062942245
0.0072209918
0.0081848982
0.0091846354
0.010218637
0.011285101
0.012382016
0.013507202
0.014658351
0.015833068
0.017028921
0.018243478
0.019474358
0.020719256
0.021975972
0.023242435
0.024516705
0.025796983
0.027081604
0.028369026
0.029657822
0.030946653
0.03223426
0.033519435
0.034801006
0.036077815
0.037348715
0.038612684
0.039869814
0.04108883
0.042295149
0.043514171
0.04471675
0.045902086
0.047042134
0.048174421
0.04929361
0.050385348
0.051446745
0.052474681
0.053465882
0.054417121
0.00027614777
0.00086431993
0.0014890676
0.0021509781
0.0028505033
0.0035879405
0.0043634113
0.0051768327
0.0060279059
0.006916108
0.007840679
0.0088006181
0.0097946879
0.010821425
0.01187916
0.01296604
0.014080064
0.015219114
0.016380991
0.017563453
0.018764253
0.019981171
0.021212038
0.022454766
0.023707354
0.024967904
0.026234621
0.027505805
0.028779854
0.030055242
0.031330509
0.032604245
0.033875068
0.035141603
0.036402446
0.037656079
0.038900468
0.040130611
0.041321127
0.042519596
0.043711539
0.044883947
0.046032817
0.04713654
0.04823972
0.049316916
0.050363022
0.051374796
0.052348908
0.053282092
0.00026520789
0.00082961407
0.0014287544
0.002063244
0.002733585
0.0034401488
0.0041831613
0.004962682
0.0057785797
0.0066305266
0.0075179903
0.0084402237
0.0093962639
0.010384936
0.011404863
0.012454483
0.013532074
0.014635773
0.015763608
0.016913529
0.018083437
0.019271216
0.020474757
0.021691986
0.022920879
0.024159472
0.025405873
0.026658264
0.027914893
0.029174076
0.030434178