/*--------------------------------*- C++ -*----------------------------------*\
| =========                 |                                                 |
| \\      /  F ield         | OpenFOAM: The Open Source CFD Toolbox           |
|  \\    /   O peration     | Version:  2312                                  |
|   \\  /    A nd           | Website:  www.openfoam.com                      |
|    \\/     M anipulation  |                                                 |
\*---------------------------------------------------------------------------*/
FoamFile
{
    version     2.0;
    format      ascii;
    arch        "LSB;label=32;scalar=64";
    class       volScalarField;
    location    "0.02";
    object      N2;
}
// * * * * * * * * * * * * * * * * * * * * * * * * * * * * * * * * * * * * * //

dimensions      [0 0 0 0 0 0 0];

internalField   nonuniform List<scalar> 
3275
(
0.023534126
0.10423524
0.19096453
0.26562577
0.32682452
0.37542697
0.41484038
0.4473255
0.47446117
0.49731828
0.51673663
0.53341716
0.54574776
0.5576549
0.5679179
0.57683412
0.58464442
0.59154789
0.59770407
0.60323811
0.60824827
0.6128134
0.61699893
0.62085828
0.6244354
0.6277711
0.63071172
0.63361464
0.63640639
0.63905102
0.64157138
0.64398918
0.64618653
0.64836092
0.65053534
0.65264521
0.65470175
0.65671421
0.65869053
0.66063766
0.66256182
0.66446892
0.66636554
0.66816877
0.67002139
0.67190289
0.67378422
0.67566846
0.6775581
0.67945515
0.68136128
0.683278
0.036536809
0.12900815
0.21076369
0.27973474
0.33656767
0.38191045
0.41929837
0.45047799
0.47675712
0.49902472
0.51802552
0.53440554
0.54656409
0.55829445
0.56843605
0.57726082
0.5850005
0.59184855
0.59796067
0.60345935
0.60844071
0.61298203
0.61714787
0.62099078
0.6245534
0.62787127
0.63080443
0.63370389
0.63648628
0.63912318
0.64163661
0.6440476
0.6462397
0.64841372
0.65058345
0.65268943
0.65474263
0.65675214
0.65872582
0.66067056
0.66259252
0.66449741
0.66639162
0.66819302
0.67004532
0.67192534
0.6738053
0.6756883
0.67757678
0.67947276
0.68137787
0.68329353
0.073406818
0.1796646
0.24941314
0.3069295
0.35537632
0.394396
0.4279506
0.4566236
0.48125918
0.50238265
0.52056807
0.53635858
0.54818606
0.55956028
0.56946482
0.57810903
0.58570892
0.59244716
0.59847186
0.60390033
0.6088245
0.61331847
0.61744513
0.62125542
0.62478985
0.62807006
0.63099069
0.6338821
0.63664599
0.63926761
0.64176732
0.64416459
0.64634665
0.64851956
0.65068008
0.65277842
0.65482502
0.6568287
0.65879717
0.66073721
0.66265484
0.66455542
0.66644482
0.66824279
0.67009462
0.67197164
0.67384892
0.67572947
0.67761572
0.67950962
0.68141275
0.6833265
0.15568483
0.25913034
0.30357525
0.34455326
0.3816466
0.41178235
0.44006292
0.46543435
0.48777374
0.50727102
0.52428616
0.5392223
0.5505858
0.56142668
0.57098771
0.57936708
0.58676123
0.59333743
0.59923286
0.60455747
0.60939688
0.61382048
0.61788893
0.62165093
0.62514568
0.6283632
0.63127211
0.63414806
0.63688475
0.63948381
0.64196324
0.64433958
0.64650765
0.64867787
0.65082488
0.65291192
0.65494872
0.65694373
0.65890444
0.6608375
0.66274873
0.66464296
0.66652493
0.66831809
0.67016919
0.67204174
0.67391502
0.67579194
0.67767486
0.67956568
0.68146591
0.68337692
0.32381042
0.36067744
0.37102879
0.38904152
0.41154376
0.43402062
0.45538683
0.47648764
0.49603994
0.51352435
0.52907231
0.54291775
0.55372229
0.56386177
0.57298195
0.58101839
0.58814535
0.59451035
0.60023678
0.60542555
0.61015391
0.61448482
0.6184767
0.62217517
0.62562367
0.62874216
0.63165241
0.63449983
0.63720144
0.63977106
0.6422241
0.64457152
0.64672316
0.64888794
0.65101741
0.65308961
0.65511347
0.65709702
0.65904747
0.66097129
0.66287413
0.66476012
0.6666316
0.66841899
0.67026889
0.67213554
0.67400354
0.67587565
0.67775416
0.67964092
0.68153734
0.68344479
0.5915837
0.46713653
0.43600388
0.433244
0.44153572
0.45578727
0.47228689
0.48877585
0.50519555
0.52051823
0.53446828
0.54708583
0.55732338
0.56666245
0.57527921
0.5829258
0.58974835
0.59587159
0.60140376
0.60643642
0.61103686
0.61526012
0.61916331
0.62278721
0.62616186
0.6292045
0.6321057
0.63490982
0.63757212
0.64010795
0.64253107
0.64484208
0.64697848
0.64913401
0.65124333
0.65329837
0.65530718
0.65727734
0.65921578
0.6611288
0.66302195
0.66489864
0.66675658
0.66853841
0.67038645
0.67224621
0.67410803
0.67597453
0.67784788
0.67972988
0.68162187
0.68352517
0.68543526
0.54468089
0.49082715
0.47275156
0.47120628
0.47786737
0.48891826
0.50182657
0.5148402
0.52793875
0.54024484
0.55152931
0.56123639
0.56974762
0.57779244
0.58501869
0.59151228
0.59737275
0.60269277
0.6075552
0.61201578
0.61612004
0.61992583
0.62346823
0.62674818
0.62973372
0.63261117
0.63536528
0.63798477
0.64048356
0.64287513
0.64514088
0.64726677
0.64940802
0.6514954
0.65353153
0.65552367
0.65747896
0.65940405
0.66130505
0.66318748
0.66505442
0.66689538
0.66867296
0.67051811
0.67237023
0.67422519
0.67608542
0.67795304
0.67982973
0.6817168
0.68361551
0.72169669
0.6039364
0.54070773
0.51144275
0.50101302
0.50094513
0.50654681
0.51558601
0.52569007
0.53619104
0.54674892
0.55665376
0.5655431
0.57335374
0.5806854
0.58744012
0.59356027
0.59912006
0.60419577
0.60886292
0.61316263
0.61712754
0.62082068
0.62427224
0.62742321
0.6303737
0.63320389
0.63590049
0.63847056
0.64092631
0.64328462
0.64548682
0.64761315
0.64973034
0.65179287
0.65380702
0.65577963
0.65771746
0.65962682
0.66151366
0.66338352
0.66524009
0.66705766
0.66883395
0.67067408
0.67251723
0.67436411
0.67621699
0.67807783
0.67994827
0.68182953
0.68372284
0.73770823
0.64556605
0.58246366
0.54701334
0.52981612
0.52390852
0.52483132
0.52987756
0.53722525
0.54535595
0.55391045
0.56238546
0.57024398
0.57740968
0.58400593
0.59018961
0.59589509
0.60111776
0.60591718
0.61036533
0.61448412
0.61828768
0.62185302
0.62517897
0.62822425
0.63112588
0.63388707
0.63651958
0.63903346
0.64143946
0.64374912
0.64590058
0.64801816
0.65010431
0.65213855
0.65412749
0.65607759
0.65799522
0.65988637
0.66175673
0.6636119
0.6654584
0.66724325
0.66902484
0.67085578
0.67268876
0.67452633
0.67637066
0.67822364
0.68008682
0.68196135
0.68384839
0.74596305
0.67441644
0.61631095
0.57851932
0.55683228
0.5462949
0.54313008
0.54467154
0.54910757
0.55511001
0.56175305
0.56865782
0.57542579
0.58176157
0.58774182
0.59328715
0.59851678
0.60336783
0.60785907
0.61206694
0.6159869
0.619604
0.6230304
0.62619218
0.62916639
0.63198426
0.6346657
0.63722668
0.6396774
0.64202764
0.64427311
0.64638619
0.64848305
0.65053304
0.6525353
0.65449565
0.65642014
0.65831472
0.66018502
0.66203647
0.6638743
0.66570328
0.66746337
0.66924657
0.67106513
0.67288649
0.67471339
0.67654794
0.67839191
0.68024676
0.68211356
0.68399342
0.75087964
0.69457989
0.64324443
0.60577673
0.58157423
0.56764931
0.56108829
0.55958359
0.56134983
0.5651488
0.57009089
0.57546836
0.58104464
0.5864899
0.59173655
0.59671513
0.60147249
0.60586997
0.61002038
0.6139709
0.61767824
0.62107718
0.62432682
0.62737052
0.63023339
0.63295189
0.63554432
0.63802585
0.64040612
0.64269713
0.64485683
0.64695038
0.64900923
0.6510195
0.65298602
0.65491427
0.65680992
0.65867846
0.66052518
0.66235521
0.66417323
0.66597837
0.66771891
0.66950016
0.67130399
0.67311212
0.67492694
0.67675039
0.67858415
0.68042954
0.68228757
0.68415925
0.75416751
0.70897588
0.66450703
0.62897397
0.60381087
0.58763577
0.57842801
0.57430867
0.57375344
0.57547032
0.57867898
0.58267049
0.58712044
0.59156571
0.59605525
0.60043075
0.60464582
0.60863611
0.61243786
0.61607878
0.61952297
0.62273344
0.62579588
0.62868884
0.63142519
0.63403327
0.63652723
0.63892104
0.64122259
0.64343498
0.64552846
0.64758935
0.64960036
0.65156677
0.65349363
0.65538617
0.65724961
0.65908902
0.66090929
0.66271534
0.66451194
0.66628535
0.66801204
0.66978695
0.67157414
0.67336742
0.67516867
0.67697966
0.67880191
0.68063666
0.6824848
0.68434728
0.75655735
0.71953531
0.6812927
0.64851072
0.62351101
0.60605223
0.59491043
0.58867449
0.58605879
0.5859597
0.58751795
0.59015939
0.59344797
0.59702067
0.60067013
0.60442541
0.60808504
0.61163989
0.61506981
0.61838975
0.62156061
0.62455412
0.62742082
0.63015008
0.63274552
0.63523231
0.63761854
0.63991614
0.6421315
0.64424386
0.64629629
0.64830147
0.65025974
0.65217792
0.65406109
0.65591416
0.65774192
0.65954899
0.66133982
0.66311921
0.66489492
0.66662336
0.66834661
0.67010837
0.67187739
0.67365418
0.67544033
0.67723741
0.67904682
0.68086967
0.68270676
0.68455896
0.7583953
0.72750001
0.69461759
0.66487483
0.64078294
0.62281074
0.61037119
0.60249202
0.59815377
0.59642079
0.59652542
0.59786069
0.60003784
0.60268626
0.60558989
0.60869764
0.61177107
0.61487431
0.61791186
0.62090132
0.62378824
0.62654184
0.62920271
0.63175686
0.63419701
0.63655209
0.63882234
0.641015
0.64311583
0.64516134
0.64714932
0.64909036
0.65099063
0.65285603
0.65469132
0.65650108
0.65828959
0.66006098
0.66181924
0.66356869
0.6653136
0.66700669
0.66872461
0.67046635
0.67221567
0.67397429
0.67574373
0.67752541
0.67932056
0.68113021
0.68295503
0.68479579
0.75986309
0.73366756
0.70529109
0.67856114
0.65582021
0.63791268
0.62471478
0.61563053
0.60990122
0.60676504
0.60555336
0.60571628
0.60682633
0.60857929
0.61073218
0.61316856
0.61573017
0.61833058
0.6209556
0.62360968
0.62620354
0.62869586
0.63114195
0.63351167
0.63578083
0.637994
0.64014344
0.64219855
0.64421729
0.64617703
0.64808805
0.64995916
0.65179617
0.6536041
0.65538725
0.65714975
0.65889534
0.66062761
0.66235007
0.66406685
0.6657713
0.66743906
0.6691451
0.67086326
0.67259097
0.67432968
0.67608074
0.67784544
0.67962488
0.68141994
0.68323121
0.68505934
0.76106595
0.73855717
0.71393469
0.6900257
0.66885852
0.6514236
0.6379037
0.62800214
0.62119535
0.61689092
0.614527
0.61361741
0.61376637
0.61465048
0.61606781
0.61785324
0.6198615
0.62199838
0.62422274
0.62651022
0.6288051
0.63101153
0.63323802
0.63541769
0.63749617
0.63955545
0.64156675
0.6435134
0.64542298
0.64728841
0.64911557
0.65091088
0.65267934
0.65442508
0.65615169
0.65786295
0.65956188
0.66125149
0.66293474
0.66461833
0.66626748
0.66792576
0.66960842
0.67130117
0.67300536
0.67472232
0.67645328
0.67819937
0.67996156
0.6817406
0.68353698
0.68535124
0.76207033
0.74251417
0.72101688
0.69966551
0.68014482
0.6634505
0.64994619
0.63955725
0.63195861
0.62671355
0.62336853
0.62150609
0.62076962
0.62086473
0.62156302
0.6227217
0.62418535
0.62585466
0.62767093
0.62959071
0.63155858
0.63351331
0.63548962
0.63744929
0.63935954
0.64125298
0.64311518
0.64493863
0.64673366
0.64849792
0.65023462
0.65194829
0.65364296
0.65532176
0.6569874
0.65864341
0.66029189
0.6619352
0.66357511
0.66521312
0.66682277
0.66846393
0.67011704
0.67178228
0.67346094
0.67515424
0.67686329
0.67858908
0.68033243
0.68209397
0.68387408
0.68567318
0.76292118
0.74577417
0.72688865
0.70781414
0.6899175
0.67412331
0.66088408
0.65027851
0.64213971
0.63616686
0.6320095
0.62932146
0.62779081
0.62715158
0.62719193
0.62774362
0.62867723
0.62988207
0.63128918
0.63284217
0.63448459
0.63616901
0.63789344
0.63963028
0.64135571
0.64307774
0.64478646
0.64647676
0.6481511
0.64980769
0.65144764
0.6530739
0.65468964
0.65629681
0.65789694
0.6594938
0.66108803
0.66268147
0.66427476
0.66585255
0.66744322
0.66905204
0.67067329
0.67230879
0.67395983
0.67562751
0.67731279
0.67901652
0.68073938
0.68248187
0.68424425
0.68602689
0.76365024
0.74850153
0.73181353
0.71474585
0.69839522
0.68358087
0.67078192
0.6601743
0.65171047
0.64520285
0.64039421
0.63700803
0.63478017
0.63347585
0.63289926
0.63289232
0.63331587
0.63406125
0.6350638
0.63625352
0.63757118
0.63897581
0.64044524
0.64195546
0.6434854
0.64503009
0.64657966
0.6481291
0.64967665
0.65121951
0.65275669
0.65428989
0.65582173
0.65735278
0.65888268
0.66041671
0.66195291
0.66349305
0.66502081
0.66656366
0.66812117
0.66969272
0.6712795
0.67288294
0.67450419
0.67614421
0.67780381
0.67948367
0.68118433
0.68290615
0.68464931
0.68641417
0.76428083
0.75081295
0.73598916
0.72068333
0.70577193
0.69196111
0.6797178
0.66927233
0.66066218
0.65379012
0.64847966
0.64451906
0.64169206
0.639797
0.63865781
0.63812433
0.63806947
0.63838087
0.63897902
0.63981229
0.64080642
0.64192794
0.64313954
0.64441974
0.6457472
0.64710923
0.64849381
0.64989601
0.65131119
0.65273477
0.65416347
0.65559798
0.65704125
0.65849211
0.65994653
0.66141469
0.662889
0.66435638
0.66584062
0.66734188
0.66885669
0.67038826
0.67193796
0.67350695
0.67509618
0.67670645
0.67833839
0.67999252
0.68166921
0.6833687
0.68509105
0.7648306
0.75279335
0.73956415
0.72580554
0.71221574
0.69939487
0.68777624
0.67761383
0.6690018
0.66191189
0.65623485
0.65181682
0.6484871
0.64607756
0.64443346
0.64341708
0.64290811
0.64280645
0.64302313
0.64350818
0.64417726
0.64501798
0.64596949
0.64701746
0.6481382
0.6493134
0.65052738
0.65177707
0.65305495
0.65435438
0.65566934
0.65699938
0.65834982
0.65971741
0.66108964
0.66249046
0.66388206
0.66529968
0.66673286
0.66818341
0.66965214
0.67114093
0.67265092
0.67418303
0.67573797
0.67731634
0.6789186
0.68054508
0.682196
0.68387141
0.68557124
0.7653132
0.75450598
0.74265117
0.73025449
0.71787002
0.70600234
0.69504284
0.68524861
0.67674824
0.66956374
0.66363979
0.65887236
0.65513248
0.65228391
0.65019412
0.64874045
0.64781295
0.6473161
0.64717261
0.64731399
0.64767955
0.64823849
0.64892649
0.64974203
0.65065428
0.65164023
0.65267777
0.65377097
0.65490749
0.65607868
0.65727557
0.65849446
0.65974842
0.66103216
0.66231127
0.66363104
0.66496383
0.66631804
0.66769322
0.6690902
0.67050972
0.67195291
0.67342057
0.67491333
0.67643168
0.67797598
0.6795465
0.68114338
0.68276666
0.68441623
0.68609193
0.76573938
0.75599893
0.74533696
0.73414224
0.72285374
0.71189097
0.70160067
0.69223108
0.68392899
0.67675123
0.6706841
0.66566487
0.66160121
0.65838632
0.6559101
0.65406636
0.65275691
0.65189422
0.65140287
0.65122283
0.65129072
0.65156721
0.65200746
0.65259064
0.65329029
0.65408729
0.65494076
0.65587561
0.65686755
0.65790683
0.65898438
0.66008222
0.66123676
0.66242211
0.66362438
0.66486109
0.6661223
0.66740992
0.66872381
0.67006421
0.67143152
0.67282631
0.67424902
0.67569997
0.67717939
0.67868743
0.68022412
0.68178942
0.68338317
0.68500512
0.68665509
0.76611773
0.75730941
0.74768925
0.73755824
0.72726416
0.71715292
0.70752633
0.69861638
0.69057682
0.68348719
0.67736472
0.6721798
0.66787117
0.66435883
0.66155437
0.65936836
0.65771521
0.65651636
0.65570209
0.65521184
0.65499571
0.65500426
0.65519619
0.65555053
0.65603831
0.65663746
0.65732167
0.65809188
0.65893314
0.6598341
0.66078354
0.66177557
0.66281993
0.66390442
0.66502064
0.66617365
0.66735924
0.66857701
0.66982645
0.67110729
0.67241949
0.67376313
0.67513829
0.67654498
0.67798316
0.67945272
0.68095348
0.68248519
0.68404751
0.68564001
0.76645518
0.75846665
0.7497616
0.74057465
0.73118164
0.72186612
0.71288713
0.70445606
0.69672541
0.68978801
0.68368321
0.67840721
0.67392465
0.67017919
0.66710259
0.66462184
0.66266417
0.66116062
0.66004814
0.65927042
0.65877747
0.65853088
0.65848516
0.65861301
0.65889187
0.65929686
0.65980678
0.6604127
0.6611018
0.66186238
0.66268394
0.66356151
0.66449521
0.66547746
0.66650219
0.66756927
0.66867592
0.66982076
0.67100274
0.67222112
0.6734754
0.67476522
0.67609028
0.67745029
0.67884491
0.6802738
0.68173653
0.68323264
0.68476158
0.68632273
0.7667574
0.75949399
0.75159688
0.74325018
0.73467309
0.72609711
0.71774208
0.70979677
0.70240689
0.69567127
0.68964406
0.68434105
0.67974791
0.67582863
0.67253324
0.66980422
0.66758146
0.66580582
0.66442158
0.66337762
0.66262786
0.66213181
0.66185823
0.66176983
0.66184343
0.66205723
0.66239191
0.66283392
0.66337046
0.66398975
0.66468178
0.66544048
0.66626203
0.66714024
0.66806984
0.66904843
0.67007324
0.67114229
0.67225401
0.67340718
0.67460086
0.67583428
0.67710677
0.67841772
0.67976652
0.68115255
0.68257516
0.68403367
0.68552729
0.68705528
0.76702907
0.76041023
0.75322977
0.74563303
0.73779463
0.72990306
0.72214332
0.7146812
0.70765209
0.70115542
0.69525428
0.68997862
0.68533073
0.68129167
0.67782755
0.67489508
0.67244624
0.67043168
0.6688033
0.66751576
0.66652733
0.66580045
0.66530171
0.66500715
0.66488356
0.66491155
0.6650713
0.66535062
0.66573515
0.66621293
0.66677408
0.66741144
0.66811933
0.66889177
0.66972361
0.67061131
0.67155175
0.67254241
0.67358127
0.67466667
0.67579723
0.67697179
0.67818934
0.67944894
0.68074969
0.68209073
0.68347117
0.68489009
0.6863465
0.68783952
0.76727407
0.76123076
0.75468861
0.74776304
0.74059354
0.73333337
0.72613712
0.71914851
0.71249061
0.70625963
0.70052296
0.69532012
0.69066612
0.68655592
0.68296943
0.67987617
0.67723931
0.675019
0.67317481
0.67166746
0.6704599
0.66951806
0.6688111
0.66831172
0.66800088
0.66784892
0.66783988
0.66795703
0.6681911
0.66852788
0.66895764
0.66947241
0.67006551
0.67073078
0.67146291
0.67225768
0.67311156
0.67402157
0.67498525
0.67600052
0.67706562
0.67817903
0.67933938
0.68054543
0.68179601
0.68308999
0.68442625
0.68580363
0.68722096
0.68867721
0.76749569
0.76196823
0.75599677
0.74967342
0.74310995
0.73643088
0.72976471
0.72323474
0.71695084
0.71100351
0.70546086
0.70036826
0.69574993
0.69161184
0.68794545
0.68473144
0.68194322
0.67954984
0.67751838
0.6758157
0.67440966
0.67326995
0.67236864
0.67168041
0.67118254
0.67086004
0.67068657
0.67064845
0.67073288
0.67092991
0.67122869
0.67162059
0.67209835
0.67265555
0.6732866
0.67398686
0.67475238
0.67557981
0.67646628
0.67740934
0.67840688
0.67945701
0.68055806
0.68170849
0.68290686
0.68415179
0.68544192
0.6867759
0.68815232
0.68957002
0.76769667
0.76263321
0.7571737
0.75139203
0.74537803
0.73923284
0.73306289
0.72697303
0.72105997
0.7154069
0.71008016
0.7051279
0.70058058
0.69645254
0.69274464
0.68944708
0.68654233
0.68400766
0.68181729
0.6799441
0.67836093
0.67704147
0.6759609
0.67509622
0.67442646
0.67393267
0.67360334
0.67341448
0.67335506
0.67341428
0.67358285
0.67385249
0.67421504
0.67466382
0.67519302
0.67579767
0.67647349
0.67721678
0.67802435
0.6788934
0.6798215
0.68080645
0.68184628
0.68293917
0.68408343
0.68527743
0.68651958
0.68780833
0.68914208
0.69051948
0.76787938
0.76323455
0.75823572
0.75294241
0.74742702
0.74177176
0.73606452
0.73039386
0.72484387
0.71948969
0.7143941
0.70960573
0.70515877
0.7010736
0.69735844
0.69401142
0.69102285
0.68837738
0.68605587
0.684037
0.6822985
0.68081813
0.67957432
0.67854669
0.67771624
0.67706553
0.67657879
0.67624719
0.67604883
0.67597473
0.67601598
0.67616395
0.67641213
0.67675279
0.67717995
0.67768842
0.67827364
0.67893167
0.67965901
0.68045258
0.68130965
0.68222776
0.68320466
0.68423827
0.68532666
0.68646797
0.68766041
0.68890219
0.69019156
0.69152699
0.76804582
0.76377976
0.75919663
0.75434456
0.74928208
0.74407608
0.73879899
0.73352518
0.7283271
0.72327158
0.71841674
0.71380998
0.7094872
0.70547281
0.70178054
0.6984149
0.69537285
0.6926455
0.69021973
0.68807966
0.68620773
0.68458574
0.68319548
0.68201926
0.68104028
0.68024282
0.67961239
0.67913577
0.67880636
0.67860381
0.6785213
0.67855128
0.67868557
0.67891908
0.67924463
0.67965689
0.68015115
0.68072322
0.6813694
0.68208636
0.68287114
0.68372101
0.68463349
0.68560629
0.68663724
0.68772425
0.68886535
0.69005856
0.69130193
0.69259378
0.76819774
0.76427524
0.76006816
0.75561558
0.75096494
0.74617074
0.74129256
0.73639262
0.73153283
0.7267719
0.72216267
0.71775014
0.71357033
0.70964997
0.70600672
0.70265002
0.69958226
0.69680009
0.69429576
0.69205833
0.69007472
0.68833061
0.68681112
0.68550136
0.68438684
0.68345369
0.68268889
0.68208036
0.681617
0.68129396
0.68109234
0.68100743
0.68103196
0.68115874
0.68138374
0.68170035
0.68210377
0.68258967
0.68315418
0.68379379
0.68450533
0.68528587
0.68613274
0.68704341
0.68801553
0.68904683
0.69013512
0.69127826
0.69247413
0.69372088
0.76833665
0.76472647
0.76086036
0.75677017
0.75249445
0.74807764
0.74356874
0.73901962
0.73448285
0.73000947
0.72564681
0.72143668
0.71741409
0.71360672
0.71003473
0.70671121
0.70364283
0.70083087
0.69827223
0.69596039
0.69388639
0.69203959
0.69040836
0.68898059
0.68774415
0.68668713
0.68579809
0.68506624
0.68448146
0.68403446
0.68372191
0.6835267
0.6834442
0.6834685
0.68359338
0.6838155
0.68412875
0.68452877
0.68501155
0.68557347
0.6862112
0.68692165
0.68770196
0.68854946
0.6894616
0.69043594
0.69147013
0.69256186
0.69370885
0.69490911
0.76846386
0.7651382
0.76158192
0.75782105
0.75388701
0.74981609
0.74564858
0.74142759
0.73719754
0.73300243
0.72888414
0.72488083
0.72102569
0.71734627
0.7138641
0.71059472
0.70754809
0.7047292
0.70213885
0.69977442
0.69763062
0.69570026
0.69397478
0.6924448
0.69110052
0.68993204
0.68892961
0.6880838
0.68738557
0.68682646
0.68639879
0.68610282
0.68591694
0.68584137
0.68587034
0.68599849
0.68622282
0.68653773
0.6869392
0.68742351
0.68798724
0.68862718
0.68934033
0.69012388
0.69097514
0.69189151
0.69287049
0.69390963
0.69500652
0.696159
0.76858053
0.76551453
0.76224034
0.75877926
0.75515697
0.75140314
0.74755092
0.74363606
0.73969593
0.73576821
0.73188957
0.72809432
0.72441334
0.72087324
0.71749595
0.71429853
0.71129326
0.70848802
0.70588678
0.70349022
0.70129634
0.69930102
0.69749858
0.69588223
0.69444446
0.69317739
0.69207297
0.69112321
0.69032025
0.68965636
0.68912329
0.68872572
0.68844421
0.688272
0.6882079
0.68824603
0.68838214
0.68861326
0.68893431
0.68934155
0.68983149
0.69040087
0.69104658
0.69176571
0.69255544
0.69341307
0.69433596
0.69532153
0.69636725
0.69747082
0.76868767
0.76585907
0.76284215
0.75965442
0.75631689
0.75285388
0.74929262
0.74566278
0.74199567
0.73832338
0.73467772
0.73108919
0.72758603
0.72419339
0.72093287
0.71782221
0.71487521
0.71210185
0.70950862
0.70709893
0.70487356
0.70283115
0.70096863
0.69928161
0.69776481
0.69641228
0.69521769
0.69417455
0.69327629
0.6925164
0.69188863
0.69138856
0.69101611
0.69075448
0.69060059
0.69055192
0.69060325
0.69075153
0.69099353
0.69132469
0.6917415
0.69224064
0.69281899
0.69347354
0.6942014
0.69499977
0.69586591
0.69679714
0.6977908
0.6988445
0.76878619
0.76617495
0.76339307
0.76045496
0.75737784
0.75418166
0.75088884
0.74752393
0.74411313
0.74068363
0.73726284
0.7338776
0.73055336
0.72731347
0.72417867
0.72116674
0.71829228
0.71556672
0.71299841
0.71059296
0.70835346
0.70628092
0.70437458
0.70263229
0.7010508
0.69962604
0.69835338
0.69722779
0.69624405
0.69539684
0.69468099
0.69409188
0.69362471
0.69328076
0.69304287
0.69291026
0.69288062
0.6929488
0.69311301
0.69336955
0.69371428
0.69414392
0.69465534
0.6952455
0.69591145
0.69665032
0.69745931
0.69833564
0.69927657
0.70027961
0.76887687
0.76646495
0.76389814
0.76118829
0.75834957
0.75539836
0.75235312
0.74923418
0.7460634
0.74286374
0.73965868
0.73647163
0.73332528
0.73024098
0.72723824
0.72433437
0.72154423
0.71888008
0.71635161
0.71396604
0.71172838
0.7096416
0.70770696
0.70592428
0.70429219
0.70280838
0.70146982
0.70027296
0.69921386
0.69828836
0.69749224
0.69682133
0.69627169
0.69584064
0.69552808
0.69531573
0.69520769
0.69520037
0.69528861
0.6954722
0.69574634
0.69610763
0.69655294
0.69707923
0.69768354
0.69836298
0.69911467
0.69993579
0.70082354
0.70177533
0.76896042
0.76673151
0.76436176
0.76186094
0.75924071
0.75651454
0.75369764
0.75080684
0.74786037
0.74487754
0.74187839
0.7388832
0.73591198
0.73298401
0.73011734
0.72732847
0.72463206
0.72204073
0.71956497
0.71721321
0.71499187
0.71290555
0.7109572
0.70914836
0.70747933
0.70594942
0.7045571
0.70330022
0.7021761
0.70118173
0.70031383
0.699569
0.69894381
0.69843432
0.69804615
0.69776193
0.6975795
0.69749892
0.69751636
0.69762819
0.69783367
0.69812814
0.69850853
0.69897184
0.69951513
0.70013549
0.70083003
0.7015959
0.70243023
0.70333041
0.76903748
0.76697681
0.76478785
0.76247869
0.76005891
0.7575396
0.75493331
0.75225398
0.74951679
0.74673796
0.7439345
0.74112389
0.73832365
0.735551
0.73282242
0.73015334
0.7275579
0.72504867
0.72263655
0.72033072
0.71813866
0.7160662
0.71411769
0.71229611
0.71060323
0.7090398
0.70760567
0.70629999
0.7051213
0.70406768
0.70313684
0.70232625
0.70163323
0.70105504
0.7005895
0.70024072
0.6999897
0.69983962
0.69978886
0.69983353
0.69997166
0.70020128
0.70051835
0.70091993
0.70140314
0.7019651
0.70260292
0.70331374
0.70409469
0.70494309
0.7691086
0.76720275
0.76517988
0.76304664
0.76081094
0.75848192
0.75606994
0.75358653
0.75104434
0.74845697
0.74583883
0.7432049
0.74057043
0.73795065
0.73536044
0.73281405
0.73032483
0.72790501
0.72556555
0.72331603
0.72116462
0.71911807
0.7171818
0.71535998
0.71365564
0.71207075
0.71060643
0.70926301
0.70804016
0.706937
0.7059522
0.7050841
0.7043307
0.70368967
0.70315783
0.70274358
0.70243148
0.70221618
0.70210049
0.70208173
0.70215574
0.70232235
0.70257805
0.70291951
0.70334393
0.70384848
0.70443032
0.70508659
0.70581443
0.70661114
0.76917429
0.76741105
0.76554091
0.76356934
0.76150285
0.75934899
0.75711631
0.75481437
0.75245368
0.75004565
0.74760247
0.74513692
0.7426622
0.7401917
0.73773873
0.73531626
0.73293672
0.73061179
0.72835222
0.72616768
0.72406672
0.72205672
0.72014389
0.71833332
0.71662906
0.71503416
0.71355081
0.7121804
0.71092363
0.70978061
0.70875092
0.70783373
0.70702782
0.70633165
0.70574354
0.70526293
0.70489517
0.70462178
0.70444528
0.70436584
0.70438052
0.70448615
0.70468274
0.70496603
0.70533328
0.70578174
0.70630863
0.70691113
0.7075864
0.70833176
0.76923501
0.76760324
0.76587367
0.76405082
0.76214002
0.76014749
0.75808031
0.7559464
0.75375452
0.75151422
0.74923578
0.74693011
0.74460857
0.74228286
0.73996478
0.73766605
0.7353981
0.73317189
0.73099775
0.72888521
0.72684297
0.72487873
0.72299926
0.72121034
0.7195168
0.71792258
0.71643077
0.7150437
0.71376299
0.71258964
0.71152409
0.7105663
0.70971579
0.7089717
0.70833275
0.707797
0.70737352
0.70704906
0.70681623
0.70668005
0.7066383
0.70668758
0.70682686
0.70705433
0.70736637
0.70776038
0.70823366
0.70878345
0.70940696
0.71010155
0.76929116
0.76778068
0.76618061
0.76449466
0.76272721
0.76088337
0.75896901
0.75699069
0.7549557
0.75287205
0.7507484
0.74859403
0.74641872
0.74423263
0.74204617
0.73986982
0.73771398
0.73558883
0.73350411
0.73146908
0.7294923
0.72758165
0.72574417
0.72398614
0.72231296
0.72072927
0.71923891
0.71784498
0.71654991
0.7153555
0.71426296
0.713273
0.71238586
0.71160136
0.71091898
0.71033805
0.70985878
0.70948728
0.70920589
0.7090173
0.70892257
0.70891959
0.70900457
0.70917866
0.70943776
0.70977926
0.71020055
0.71069898
0.71127182
0.71191647
0.7693431
0.76794458
0.76646389
0.76490405
0.76326868
0.76156196
0.75978873
0.75795445
0.7560652
0.75412768
0.7521492
0.75013764
0.74810139
0.74604925
0.74399037
0.74193405
0.7398897
0.73786663
0.73587396
0.73392047
0.73201451
0.73016387
0.72837575
0.72665666
0.72501244
0.72344822
0.72196842
0.7205768
0.71927645
0.71806987
0.71695896
0.71594511
0.71502922
0.71421174
0.71349271
0.71287175
0.71234775
0.71193
0.7116064
0.71137
0.71122647
0.71117405
0.71120983
0.71133258
0.71154135
0.71183257
0.71220381
0.7126525
0.71317601
0.71377183
0.76939116
0.76809604
0.76672545
0.76528186
0.76376822
0.76218799
0.76054514
0.7588442
0.75709025
0.75528891
0.75344634
0.75156924
0.74966479
0.74774061
0.74580469
0.74386527
0.74193078
0.74000969
0.73811042
0.73624122
0.73441008
0.73262458
0.73089189
0.72921864
0.72761088
0.72607409
0.72461313
0.72323226
0.72193512
0.72072478
0.71960376
0.71857404
0.71763712
0.71679403
0.71604538
0.71539145
0.71483228
0.71436861
0.71400667
0.71372993
0.71354205
0.71344408
0.71343429
0.71350941
0.71367038
0.71391384
0.71423721
0.71463806
0.71511386
0.71566219
0.76943563
0.768236
0.766967
0.7656306
0.76422921
0.76276568
0.76124328
0.75966576
0.75803735
0.75636279
0.75464727
0.75289648
0.75111658
0.74931415
0.74749616
0.74566987
0.7438428
0.74202261
0.740217
0.73843365
0.7366801
0.73496363
0.73329124
0.73166952
0.73010462
0.72860223
0.72716748
0.725805
0.72451887
0.72331263
0.72218929
0.72115135
0.72020084
0.71933932
0.7185679
0.7178873
0.71729779
0.71679896
0.71639989
0.71608863
0.71586095
0.7157217
0.71566944
0.71570172
0.71581739
0.71601587
0.71629382
0.71664897
0.71707891
0.71758137
0.76947677
0.76836535
0.76719006
0.76595251
0.76465464
0.76329878
0.76188764
0.76042431
0.75891233
0.75735567
0.75575874
0.75412637
0.75246384
0.75077684
0.74907144
0.74735402
0.74563127
0.74391007
0.74219743
0.74050044
0.73882612
0.73718139
0.73557299
0.73400736
0.73249064
0.73102857
0.72962646
0.72828917
0.7270211
0.72582615
0.72470773
0.72366879
0.72271178
0.72183874
0.72105123
0.72035044
0.71973719
0.71921206
0.71877609
0.71843516
0.71817417
0.71799806
0.71790725
0.71790037
0.71797446
0.71813073
0.71836594
0.71867775
0.7190639
0.76951481
0.76848482
0.76739599
0.76624958
0.76504716
0.76379062
0.7624822
0.76112447
0.75972037
0.75827325
0.75678684
0.75526526
0.75371305
0.75213512
0.75053676
0.74892358
0.7473015
0.7456767
0.74405552
0.74244444
0.74084999
0.73927865
0.73773684
0.73623077
0.73476646
0.73334961
0.73198559
0.7306794
0.72943562
0.72825844
0.72715156
0.72611828
0.72516143
0.72428341
0.7234862
0.72277138
0.72214013
0.72159319
0.72113066
0.72076106
0.72047237
0.72026383
0.72013865
0.72009577
0.72013297
0.72024967
0.72044506
0.72071618
0.72106107
0.76954995
0.7685951
0.76758597
0.76652355
0.76540908
0.76424411
0.76303047
0.7617703
0.76046607
0.75912058
0.757737
0.75631886
0.75487006
0.75339486
0.75189786
0.750384
0.74885854
0.74732697
0.74579503
0.74426862
0.74275374
0.74125647
0.73978281
0.73833873
0.73693001
0.73556226
0.73424081
0.73297069
0.73175661
0.73060289
0.72951348
0.72849192
0.72754134
0.72666446
0.7258636
0.72514067
0.72449722
0.72393445
0.72345329
0.72305495
0.72274474
0.72250896
0.72235368
0.72227864
0.72228264
0.7223633
0.72252184
0.72275503
0.72306105
0.76958238
0.76869676
0.76776103
0.76677593
0.76574244
0.7646618
0.76353552
0.76236538
0.76115345
0.7599021
0.75861402
0.75729223
0.7559401
0.75456133
0.75315995
0.7517403
0.75030702
0.74886504
0.74741952
0.74597582
0.74453945
0.74311601
0.74171114
0.74033047
0.73897955
0.73766379
0.73638842
0.73515842
0.73397853
0.73285316
0.73178639
0.73078194
0.72984315
0.728973
0.72817408
0.72744857
0.72679832
0.72622476
0.72572895
0.72531147
0.72498078
0.72472303
0.72454178
0.72443857
0.72441254
0.72446155
0.72458598
0.72478418
0.72505397
0.76961224
0.76879032
0.76792207
0.76700802
0.76604896
0.76504588
0.76399999
0.76291279
0.76178602
0.76062167
0.75942207
0.75818979
0.75692776
0.7556392
0.75432764
0.75299691
0.75165114
0.75029472
0.74893229
0.74756872
0.74620904
0.74485842
0.7435221
0.74220538
0.7409135
0.73965165
0.73842491
0.73723815
0.73609606
0.73500307
0.73396331
0.73298062
0.73205849