/*--------------------------------*- C++ -*----------------------------------*\
| =========                 |                                                 |
| \\      /  F ield         | OpenFOAM: The Open Source CFD Toolbox           |
|  \\    /   O peration     | Version:  2312                                  |
|   \\  /    A nd           | Website:  www.openfoam.com                      |
|    \\/     M anipulation  |                                                 |
\*---------------------------------------------------------------------------*/
FoamFile
{
    version     2.0;
    format      ascii;
    arch        "LSB;label=32;scalar=64";
    class       volScalarField;
    location    "0.02";
    object      p;
}
// * * * * * * * * * * * * * * * * * * * * * * * * * * * * * * * * * * * * * //

dimensions      [1 -1 -2 0 0 0 0];

internalField   nonuniform List<scalar> 
3275
(
100002.1
100000.78
100008.88
100011.56
100012.88
100012.96
100012.06
100011.06
100010.08
100009.04
100007.82
100007.41
100006.7
100005.39
100004.89
100004.37
100003.97
100003.65
100003.4
100003.2
100003.04
100002.91
100002.82
100002.74
100002.67
100002.67
100002.64
100002.56
100002.53
100002.5
100002.48
100002.46
100002.46
100002.43
100002.42
100002.41
100002.41
100002.4
100002.39
100002.38
100002.37
100002.36
100002.35
100002.34
100002.33
100002.32
100002.31
100002.29
100002.28
100002.26
100002.25
100002.23
100001.46
99997.354
100006.76
100009.64
100011.57
100012.13
100011.46
100010.63
100009.81
100008.83
100007.68
100007.28
100006.61
100005.33
100004.84
100004.33
100003.93
100003.62
100003.37
100003.18
100003.03
100002.9
100002.81
100002.73
100002.67
100002.66
100002.63
100002.56
100002.52
100002.5
100002.47
100002.46
100002.45
100002.43
100002.42
100002.41
100002.4
100002.4
100002.39
100002.38
100002.37
100002.36
100002.35
100002.34
100002.33
100002.32
100002.3
100002.29
100002.28
100002.26
100002.25
100002.23
100008.11
99991.551
100002.26
100005.77
100009.08
100010.55
100010.31
100009.79
100009.26
100008.43
100007.39
100007.04
100006.42
100005.22
100004.73
100004.25
100003.87
100003.57
100003.33
100003.15
100003
100002.88
100002.79
100002.71
100002.66
100002.65
100002.61
100002.54
100002.52
100002.49
100002.47
100002.45
100002.45
100002.42
100002.41
100002.41
100002.4
100002.39
100002.39
100002.38
100002.37
100002.36
100002.35
100002.34
100002.33
100002.31
100002.3
100002.29
100002.27
100002.26
100002.24
100002.23
100019.6
99980.945
99994.703
100000.12
100005.68
100008.33
100008.71
100008.58
100008.5
100007.85
100006.97
100006.68
100006.14
100005.06
100004.58
100004.13
100003.78
100003.5
100003.27
100003.1
100002.96
100002.85
100002.76
100002.69
100002.64
100002.64
100002.59
100002.53
100002.5
100002.47
100002.46
100002.44
100002.44
100002.41
100002.4
100002.4
100002.39
100002.39
100002.38
100002.37
100002.36
100002.35
100002.34
100002.33
100002.32
100002.31
100002.3
100002.28
100002.27
100002.26
100002.24
100002.22
99946.038
99950.309
99983.34
99993.682
100001.62
100005.51
100006.86
100007.12
100007.58
100007.13
100006.44
100006.22
100005.78
100004.85
100004.38
100003.98
100003.66
100003.4
100003.19
100003.03
100002.9
100002.8
100002.72
100002.65
100002.62
100002.61
100002.56
100002.51
100002.49
100002.46
100002.45
100002.43
100002.42
100002.4
100002.39
100002.39
100002.38
100002.38
100002.37
100002.37
100002.36
100002.35
100002.34
100002.33
100002.32
100002.31
100002.29
100002.28
100002.27
100002.25
100002.24
100002.22
99741.801
99898.873
99971.658
99987.612
99997.651
100002.52
100004.76
100005.57
100006.65
100006.34
100005.85
100005.69
100005.36
100004.61
100004.15
100003.8
100003.52
100003.29
100003.1
100002.95
100002.84
100002.75
100002.67
100002.62
100002.6
100002.58
100002.53
100002.48
100002.47
100002.44
100002.43
100002.41
100002.41
100002.39
100002.38
100002.38
100002.37
100002.37
100002.36
100002.36
100002.35
100002.34
100002.33
100002.32
100002.31
100002.3
100002.29
100002.27
100002.26
100002.25
100002.23
100002.21
99835.931
99894.612
99964.522
99982.484
99993.877
99999.72
100002.69
100003.91
100005.79
100005.53
100005.24
100005.12
100004.9
100004.35
100003.92
100003.61
100003.36
100003.17
100003
100002.87
100002.77
100002.69
100002.62
100002.58
100002.57
100002.54
100002.49
100002.46
100002.44
100002.41
100002.42
100002.39
100002.39
100002.37
100002.37
100002.37
100002.36
100002.36
100002.35
100002.35
100002.34
100002.33
100002.32
100002.31
100002.3
100002.29
100002.28
100002.27
100002.25
100002.24
100002.23
100002.21
99911.803
99907.935
99961.714
99978.721
99990.615
99997.133
100000.67
100002.15
100004.84
100004.68
100004.56
100004.52
100004.4
100004.02
100003.67
100003.4
100003.19
100003.03
100002.88
100002.77
100002.69
100002.62
100002.57
100002.54
100002.53
100002.5
100002.45
100002.43
100002.42
100002.39
100002.4
100002.37
100002.37
100002.36
100002.35
100002.35
100002.35
100002.35
100002.34
100002.34
100002.33
100002.32
100002.32
100002.31
100002.3
100002.29
100002.27
100002.26
100002.25
100002.23
100002.22
100002.2
99932.087
99919.922
99961.267
99976.326
99987.985
99994.795
99998.779
100000.8
100003.39
100003.72
100003.83
100003.89
100003.86
100003.63
100003.39
100003.17
100003
100002.88
100002.75
100002.66
100002.6
100002.55
100002.51
100002.49
100002.48
100002.45
100002.41
100002.39
100002.38
100002.36
100002.37
100002.35
100002.34
100002.34
100002.34
100002.34
100002.34
100002.33
100002.33
100002.33
100002.32
100002.31
100002.31
100002.3
100002.29
100002.28
100002.27
100002.25
100002.24
100002.23
100002.21
100002.2
99936.63
99929.135
99961.766
99974.946
99985.923
99992.738
99997.012
99999.489
100001.94
100002.69
100003.06
100003.25
100003.3
100003.2
100003.06
100002.92
100002.78
100002.71
100002.61
100002.54
100002.5
100002.47
100002.44
100002.43
100002.42
100002.4
100002.36
100002.35
100002.35
100002.32
100002.34
100002.32
100002.32
100002.32
100002.32
100002.32
100002.32
100002.32
100002.31
100002.31
100002.31
100002.3
100002.29
100002.29
100002.28
100002.27
100002.26
100002.24
100002.23
100002.22
100002.2
100002.19
99941.416
99937.288
99962.847
99974.328
99984.386
99991.004
99995.403
99998.195
100000.59
100001.64
100002.24
100002.59
100002.74
100002.75
100002.71
100002.63
100002.56
100002.54
100002.44
100002.4
100002.4
100002.38
100002.36
100002.36
100002.36
100002.35
100002.3
100002.3
100002.31
100002.29
100002.3
100002.29
100002.29
100002.29
100002.29
100002.3
100002.3
100002.3
100002.3
100002.29
100002.29
100002.29
100002.28
100002.27
100002.26
100002.26
100002.24
100002.23
100002.22
100002.21
100002.19
100002.18
99947.131
99944.738
99964.401
99974.312
99983.335
99989.606
99993.995
99996.966
99999.338
100000.63
100001.41
100001.89
100002.17
100002.3
100002.33
100002.32
100002.33
100002.33
100002.28
100002.27
100002.28
100002.27
100002.27
100002.28
100002.29
100002.3
100002.24
100002.25
100002.26
100002.25
100002.26
100002.25
100002.26
100002.26
100002.27
100002.27
100002.28
100002.28
100002.28
100002.28
100002.27
100002.27
100002.26
100002.26
100002.25
100002.24
100002.23
100002.22
100002.21
100002.2
100002.18
100002.17
99952.627
99951.331
99966.281
99974.757
99982.714
99988.536
99992.804
99995.845
99998.196
99999.659
100000.59
100001.2
100001.59
100001.83
100001.94
100002.01
100002.07
100002.11
100002.1
100002.12
100002.14
100002.16
100002.17
100002.19
100002.22
100002.25
100002.16
100002.19
100002.21
100002.2
100002.22
100002.22
100002.23
100002.23
100002.24
100002.25
100002.25
100002.25
100002.26
100002.26
100002.25
100002.25
100002.25
100002.24
100002.24
100002.23
100002.22
100002.21
100002.2
100002.19
100002.17
100002.16
99957.633
99957.048
99968.344
99975.534
99982.457
99987.773
99991.836
99994.856
99997.175
99998.746
99999.805
100000.53
100001.02
100001.35
100001.54
100001.69
100001.8
100001.88
100001.92
100001.96
100002
100002.04
100002.07
100002.1
100002.14
100002.2
100002.07
100002.13
100002.15
100002.15
100002.17
100002.18
100002.19
100002.2
100002.21
100002.22
100002.22
100002.23
100002.23
100002.23
100002.23
100002.23
100002.23
100002.22
100002.22
100002.21
100002.2
100002.19
100002.18
100002.17
100002.16
100002.15
99962.182
99961.992
99970.484
99976.538
99982.498
99987.285
99991.084
99994.013
99996.281
99997.911
99999.063
99999.883
100000.47
100000.87
100001.15
100001.36
100001.53
100001.65
100001.72
100001.78
100001.86
100001.91
100001.95
100002
100002.05
100002.15
100001.96
100002.05
100002.09
100002.1
100002.12
100002.13
100002.15
100002.16
100002.17
100002.18
100002.19
100002.2
100002.2
100002.21
100002.21
100002.21
100002.21
100002.2
100002.2
100002.19
100002.19
100002.18
100002.17
100002.16
100002.15
100002.13
99966.295
99966.277
99972.628
99977.686
99982.775
99987.036
99990.536
99993.323
99995.518
99997.166
99998.379
99999.273
99999.931
100000.41
100000.76
100001.03
100001.24
100001.41
100001.52
100001.61
100001.71
100001.78
100001.83
100001.89
100001.95
100002.03
100001.92
100001.99
100002.02
100002.04
100002.07
100002.09
100002.1
100002.12
100002.14
100002.15
100002.16
100002.17
100002.18
100002.18
100002.18
100002.18
100002.18
100002.18
100002.18
100002.17
100002.17
100002.16
100002.15
100002.14
100002.13
100002.12
99969.981
99970.001
99974.727
99978.921
99983.234
99986.99
99990.174
99992.784
99994.884
99996.518
99997.763
99998.709
99999.427
99999.971
100000.38
100000.7
100000.96
100001.16
100001.31
100001.43
100001.55
100001.63
100001.7
100001.78
100001.84
100001.91
100001.87
100001.92
100001.96
100001.98
100002.01
100002.03
100002.06
100002.08
100002.09
100002.11
100002.12
100002.13
100002.14
100002.15
100002.15
100002.16
100002.16
100002.16
100002.15
100002.15
100002.15
100002.14
100002.13
100002.12
100002.11
100002.1
99973.258
99973.246
99976.745
99980.196
99983.829
99987.112
99989.977
99992.39
99994.377
99995.97
99997.222
99998.2
99998.962
99999.555
100000.02
100000.39
100000.69
100000.92
100001.1
100001.25
100001.38
100001.49
100001.57
100001.66
100001.73
100001.79
100001.79
100001.84
100001.89
100001.92
100001.95
100001.98
100002
100002.03
100002.05
100002.07
100002.08
100002.1
100002.11
100002.12
100002.12
100002.13
100002.13
100002.13
100002.13
100002.13
100002.12
100002.12
100002.11
100002.1
100002.09
100002.08
99976.154
99976.082
99978.661
99981.479
99984.523
99987.371
99989.925
99992.132
99993.992
99995.522
99996.758
99997.749
99998.541
99999.172
99999.677
100000.08
100000.42
100000.68
100000.89
100001.06
100001.21
100001.33
100001.44
100001.53
100001.61
100001.68
100001.71
100001.76
100001.81
100001.85
100001.89
100001.92
100001.95
100001.98
100002
100002.02
100002.04
100002.06
100002.07
100002.08
100002.09
100002.09
100002.1
100002.1
100002.1
100002.1
100002.1
100002.09
100002.09
100002.08
100002.07
100002.06
99978.708
99978.569
99980.458
99982.746
99985.283
99987.737
99989.996
99991.996
99993.719
99995.172
99996.375
99997.361
99998.167
99998.825
99999.361
99999.798
100000.15
100000.44
100000.68
100000.88
100001.04
100001.18
100001.3
100001.41
100001.5
100001.57
100001.62
100001.68
100001.73
100001.78
100001.82
100001.86
100001.89
100001.92
100001.95
100001.97
100002
100002.01
100002.03
100002.04
100002.05
100002.06
100002.07
100002.07
100002.07
100002.07
100002.07
100002.07
100002.06
100002.06
100002.05
99980.956
99980.756
99982.131
99983.977
99986.085
99988.187
99990.171
99991.968
99993.551
99994.914
99996.069
99997.038
99997.845
99998.516
99999.072
99999.53
99999.908
100000.22
100000.48
100000.69
100000.87
100001.03
100001.16
100001.28
100001.38
100001.46
100001.52
100001.59
100001.65
100001.7
100001.75
100001.79
100001.83
100001.86
100001.89
100001.92
100001.95
100001.97
100001.99
100002
100002.01
100002.02
100002.03
100002.04
100002.04
100002.04
100002.04
100002.04
100002.04
100002.03
100002.03
99982.936
99982.688
99983.678
99985.159
99986.905
99988.698
99990.431
99992.035
99993.476
99994.744
99995.841
99996.779
99997.575
99998.248
99998.812
99999.284
99999.678
100000.01
100000.28
100000.51
100000.71
100000.87
100001.02
100001.14
100001.25
100001.35
100001.42
100001.5
100001.56
100001.62
100001.67
100001.72
100001.76
100001.8
100001.84
100001.87
100001.9
100001.92
100001.94
100001.96
100001.97
100001.98
100001.99
100002
100002.01
100002.01
100002.01
100002.01
100002.01
100002.01
100002
99984.682
99984.4
99985.101
99986.283
99987.726
99989.251
99990.757
99992.18
99993.484
99994.653
99995.684
99996.581
99997.356
99998.019
99998.583
99999.061
99999.464
99999.804
100000.09
100000.33
100000.54
100000.72
100000.88
100001.01
100001.13
100001.23
100001.32
100001.4
100001.47
100001.54
100001.59
100001.65
100001.69
100001.74
100001.78
100001.81
100001.84
100001.87
100001.89
100001.91
100001.93
100001.94
100001.95
100001.96
100001.97
100001.98
100001.98
100001.98
100001.98
100001.98
100001.97
99986.226
99985.922
99986.408
99987.345
99988.534
99989.827
99991.132
99992.389
99993.561
99994.631
99995.591
99996.44
99997.183
99997.829
99998.385
99998.862
99999.269
99999.617
99999.913
100000.17
100000.38
100000.57
100000.74
100000.88
100001.01
100001.12
100001.22
100001.3
100001.38
100001.45
100001.51
100001.57
100001.62
100001.67
100001.71
100001.75
100001.78
100001.81
100001.84
100001.86
100001.88
100001.9
100001.91
100001.92
100001.93
100001.94
100001.94
100001.95
100001.95
100001.95
99987.594
99987.279
99987.604
99988.342
99989.318
99990.411
99991.539
99992.645
99993.695
99994.667
99995.553
99996.349
99997.055
99997.676
99998.218
99998.688
99999.094
99999.444
99999.746
100000.01
100000.23
100000.43
100000.6
100000.75
100000.89
100001.01
100001.11
100001.2
100001.29
100001.36
100001.43
100001.49
100001.55
100001.6
100001.65
100001.69
100001.72
100001.76
100001.79
100001.81
100001.83
100001.85
100001.87
100001.88
100001.89
100001.9
100001.91
100001.91
100001.91
100001.92
99988.811
99988.494
99988.698
99989.274
99990.072
99990.994
99991.965
99992.935
99993.871
99994.75
99995.562
99996.301
99996.966
99997.558
99998.08
99998.539
99998.939
99999.288
99999.592
99999.858
100000.09
100000.29
100000.47
100000.63
100000.77
100000.89
100001
100001.1
100001.19
100001.27
100001.35
100001.41
100001.47
100001.53
100001.58
100001.62
100001.66
100001.7
100001.73
100001.76
100001.78
100001.8
100001.82
100001.84
100001.85
100001.86
100001.87
100001.88
100001.88
100001.88
99989.896
99989.583
99989.697
99990.142
99990.793
99991.567
99992.401
99993.249
99994.079
99994.87
99995.61
99996.292
99996.913
99997.472
99997.971
99998.414
99998.805
99999.15
99999.453
99999.719
99999.954
100000.16
100000.34
100000.51
100000.65
100000.78
100000.9
100001
100001.1
100001.18
100001.26
100001.33
100001.39
100001.45
100001.51
100001.55
100001.6
100001.64
100001.67
100001.7
100001.73
100001.75
100001.77
100001.79
100001.81
100001.82
100001.83
100001.84
100001.84
100001.85
99990.868
99990.564
99990.61
99990.95
99991.477
99992.125
99992.839
99993.577
99994.311
99995.019
99995.691
99996.316
99996.892
99997.416
99997.889
99998.314
99998.692
99999.029
99999.327
99999.592
99999.828
100000.04
100000.22
100000.39
100000.54
100000.67
100000.79
100000.9
100001
100001.09
100001.17
100001.25
100001.31
100001.38
100001.43
100001.48
100001.53
100001.57
100001.61
100001.64
100001.67
100001.7
100001.72
100001.74
100001.76
100001.77
100001.79
100001.8
100001.8
100001.81
99991.74
99991.448
99991.445
99991.699
99992.124
99992.663
99993.272
99993.913
99994.559
99995.191
99995.797
99996.368
99996.898
99997.387
99997.832
99998.236
99998.599
99998.925
99999.217
99999.478
99999.712
99999.922
100000.11
100000.28
100000.43
100000.57
100000.69
100000.8
100000.9
100001
100001.08
100001.16
100001.23
100001.3
100001.36
100001.41
100001.46
100001.51
100001.55
100001.58
100001.62
100001.64
100001.67
100001.69
100001.71
100001.73
100001.74
100001.75
100001.76
100001.77
99992.525
99992.247
99992.208
99992.394
99992.733
99993.18
99993.697
99994.252
99994.819
99995.38
99995.925
99996.443
99996.929
99997.382
99997.798
99998.179
99998.525
99998.839
99999.122
99999.377
99999.608
99999.816
100000
100000.17
100000.33
100000.46
100000.59
100000.71
100000.81
100000.91
100001
100001.08
100001.15
100001.22
100001.28
100001.34
100001.39
100001.44
100001.48
100001.52
100001.56
100001.59
100001.61
100001.64
100001.66
100001.68
100001.69
100001.71
100001.72
100001.73
99993.234
99992.971
99992.905
99993.037
99993.305
99993.674
99994.111
99994.589
99995.084
99995.582
99996.069
99996.537
99996.981
99997.398
99997.785
99998.142
99998.47
99998.769
99999.042
99999.29
99999.515
99999.719
99999.905
100000.07
100000.23
100000.37
100000.49
100000.61
100000.72
100000.82
100000.91
100000.99
100001.07
100001.14
100001.21
100001.27
100001.32
100001.37
100001.42
100001.46
100001.5
100001.53
100001.56
100001.58
100001.61
100001.63
100001.65
100001.66
100001.67
100001.68
99993.876
99993.628
99993.544
99993.631
99993.841
99994.144
99994.512
99994.921
99995.353
99995.791
99996.225
99996.647
99997.051
99997.433
99997.79
99998.124
99998.432
99998.716
99998.976
99999.215
99999.433
99999.633
99999.816
99999.983
100000.14
100000.28
100000.41
100000.52
100000.63
100000.73
100000.82
100000.91
100000.99
100001.07
100001.13
100001.2
100001.25
100001.31
100001.35
100001.4
100001.43
100001.47
100001.5
100001.53
100001.55
100001.58
100001.6
100001.61
100001.63
100001.64
99994.459
99994.225
99994.128
99994.181
99994.343
99994.589
99994.897
99995.247
99995.621
99996.006
99996.392
99996.77
99997.135
99997.483
99997.813
99998.122
99998.41
99998.677
99998.925
99999.153
99999.364
99999.557
99999.736
99999.9
100000.05
100000.19
100000.32
100000.44
100000.54
100000.65
100000.74
100000.83
100000.91
100000.99
100001.06
100001.12
100001.18
100001.24
100001.29
100001.33
100001.37
100001.41
100001.44
100001.47
100001.5
100001.52
100001.55
100001.56
100001.58
100001.59
99994.988
99994.77
99994.664
99994.69
99994.812
99995.01
99995.266
99995.563
99995.886
99996.223
99996.564
99996.902
99997.231
99997.548
99997.849
99998.134
99998.402
99998.653
99998.887
99999.104
99999.305
99999.492
99999.665
99999.825
99999.973
100000.11
100000.24
100000.36
100000.46
100000.56
100000.66
100000.75
100000.83
100000.91
100000.98
100001.05
100001.11
100001.17
100001.22
100001.27
100001.31
100001.35
100001.38
100001.42
100001.44
100001.47
100001.49
100001.51
100001.53
100001.55
99995.47
99995.266
99995.156
99995.16
99995.249
99995.407
99995.618
99995.87
99996.148
99996.441
99996.741
99997.042
99997.337
99997.623
99997.899
99998.161
99998.409
99998.642
99998.862
99999.067
99999.258
99999.437
99999.603
99999.758
99999.902
100000.04
100000.16
100000.28
100000.39
100000.49
100000.58
100000.67
100000.76
100000.84
100000.91
100000.98
100001.04
100001.1
100001.15
100001.2
100001.24
100001.29
100001.32
100001.36
100001.39
100001.42
100001.44
100001.46
100001.48
100001.5
99995.91
99995.72
99995.607
99995.595
99995.657
99995.781
99995.954
99996.165
99996.403
99996.657
99996.921
99997.187
99997.451
99997.709
99997.959
99998.198
99998.427
99998.644
99998.848
99999.041
99999.222
99999.392
99999.551
99999.7
99999.84
99999.97
100000.09
100000.21
100000.31
100000.42
100000.51
100000.59
100000.68
100000.77
100000.84
100000.91
100000.97
100001.03
100001.09
100001.13
100001.18
100001.22
100001.26
100001.3
100001.33
100001.36
100001.39
100001.41
100001.43
100001.45
99996.312
99996.135
99996.022
99995.997
99996.037
99996.132
99996.273
99996.449
99996.651
99996.871
99997.101
99997.336
99997.57
99997.802
99998.028
99998.246
99998.456
99998.656
99998.846
99999.026
99999.196
99999.357
99999.509
99999.651
99999.785
99999.911
100000.03
100000.14
100000.25
100000.34
100000.44
100000.52
100000.61
100000.7
100000.77
100000.84
100000.9
100000.96
100001.02
100001.07
100001.12
100001.16
100001.2
100001.24
100001.27
100001.3
100001.33
100001.36
100001.38
100001.4
99996.681
99996.516
99996.404
99996.369
99996.391
99996.462
99996.575
99996.721
99996.892
99997.08
99997.28
99997.486
99997.694
99997.902
99998.105
99998.303
99998.494
99998.678
99998.854
99999.021
99999.18
99999.332
99999.475
99999.61
99999.738
99999.859
99999.973
100000.08
100000.18
100000.28
100000.37
100000.45
100000.54
100000.63
100000.71
100000.78
100000.84
100000.9
100000.95
100001.01
100001.05
100001.1
100001.14
100001.18
100001.21
100001.25
100001.28
100001.3
100001.33
100001.35
99997.019
99996.865
99996.756
99996.713
99996.721
99996.772
99996.861
99996.981
99997.124
99997.285
99997.458
99997.638
99997.822
99998.006
99998.188
99998.367
99998.541
99998.709
99998.87
99999.025
99999.174
99999.315
99999.45
99999.578
99999.699
99999.815
99999.924
100000.03
100000.13
100000.22
100000.31
100000.39
100000.48
100000.57
100000.65
100000.71
100000.78
100000.83
100000.89
100000.94
100000.99
100001.04
100001.08
100001.12
100001.16
100001.19
100001.22
100001.25
100001.27
100001.3
99997.329
99997.186
99997.08
99997.031
99997.028
99997.063
99997.132
99997.228
99997.348
99997.484
99997.632
99997.789
99997.95
99998.114
99998.276
99998.437
99998.594
99998.747
99998.895
99999.038
99999.175
99999.307
99999.433
99999.553
99999.668
99999.778
99999.882
99999.982
100000.08
100000.17
100000.25
100000.33
100000.42
100000.51
100000.58
100000.65
100000.71
100000.77
100000.83
100000.88
100000.93
100000.98
100001.02
100001.06
100001.1
100001.13
100001.16
100001.19
100001.22
100001.25
99997.615
99997.482
99997.379
99997.327
99997.314
99997.335
99997.387
99997.464
99997.562
99997.677
99997.804
99997.939
99998.08
99998.224
99998.368
99998.512
99998.654
99998.793
99998.927
99999.058
99999.185
99999.307
99999.424
99999.537
99999.645
99999.748
99999.848
99999.943
100000.03
100000.12
100000.21
100000.29
100000.37
100000.45
100000.52
100000.59
100000.65
100000.71
100000.77
100000.82
100000.87
100000.92
100000.96
100001
100001.04
100001.08
100001.11
100001.14
100001.17
100001.19
99997.878
99997.754
99997.655
99997.6
99997.58
99997.591
99997.628
99997.688
99997.768
99997.863
99997.971
99998.087
99998.21
99998.336
99998.464
99998.592
99998.719
99998.844
99998.966
99999.085
99999.201
99999.314
99999.423
99999.528
99999.629
99999.726
99999.82
99999.91
99999.997
100000.08
100000.16
100000.24
100000.32
100000.4
100000.47
100000.53
100000.59
100000.65
100000.71
100000.76
100000.81
100000.86
100000.9
100000.94
100000.98
100001.02
100001.05
100001.08
100001.11
100001.14
99998.121
99998.006
99997.91
99997.854
99997.829
99997.83
99997.855
99997.901
99997.965
99998.043
99998.134
99998.233
99998.338
99998.448
99998.561
99998.674
99998.787
99998.9
99999.01
99999.119
99999.225
99999.328
99999.428
99999.525
99999.619
99999.71
99999.799
99999.884
99999.966
100000.05
100000.12
100000.2
100000.28
100000.35
100000.42
100000.48
100000.54
100000.6
100000.65
100000.7
100000.75
100000.8
100000.84
100000.89
100000.93
100000.96
100001
100001.03
100001.06
100001.09
99998.345
99998.238
99998.147
99998.09
99998.06
99998.054
99998.068
99998.102
99998.152
99998.216
99998.292
99998.375
99998.466
99998.561
99998.659
99998.759
99998.859
99998.96
99999.059
99999.157
99999.253
99999.347
99999.439
99999.529
99999.616
99999.701
99999.784
99999.864
99999.942
100000.02
100000.09
100000.16
100000.23
100000.3
100000.37
100000.43
100000.49
100000.54
100000.6
100000.65
100000.7
100000.74
100000.79
100000.83
100000.87
100000.91
100000.94
100000.98
100001.01
100001.04
99998.553
99998.453
99998.366
99998.309
99998.276
99998.263
99998.27
99998.293
99998.331
99998.383
99998.444
99998.514
99998.591
99998.673
99998.758
99998.845
99998.934
99999.023
99999.112
99999.2
99999.287
99999.373
99999.457
99999.539
99999.619
99999.698
99999.774
99999.849
99999.922
99999.994
100000.06
100000.13
100000.2
100000.26
100000.33
100000.39
100000.44
100000.5
100000.55
100000.6
100000.65
100000.69
100000.74
100000.78
100000.82
100000.86
100000.89
100000.93
100000.96
100000.98
99998.746
99998.652
99998.569
99998.513
99998.477
99998.459
99998.459
99998.473
99998.502
99998.542
99998.591
99998.65
99998.714
99998.784
99998.857
99998.933
99999.011
99999.089
99999.168
99999.247
99999.325
99999.403
99999.479
99999.554
99999.628
99999.7
99999.771
99999.84
99999.909
99999.975
100000.04
100000.11
100000.17
100000.23
100000.29
100000.35
100000.4
100000.45
100000.5
100000.55
100000.6
100000.64
100000.69
100000.73
100000.77
100000.81
100000.84
100000.87
100000.91
100000.93
99998.925
99998.837
99998.758
99998.702
99998.665
99998.643
99998.637
99998.644
99998.664
99998.694
99998.733
99998.781
99998.834
99998.893
99998.956
99999.021
99999.089
99999.158
99999.227
99999.297
99999.367
99999.437
99999.506
99999.574
99999.641
99999.707
99999.773
99999.837
99999.9
99999.962
100000.02
100000.08
100000.14
100000.2
100000.26
100000.31
100000.36
100000.41
100000.46
100000.51
100000.55
100000.6
100000.64
100000.68
100000.72
100000.76
100000.79
100000.82
100000.86
100000.88
99999.091
99999.009
99998.933
99998.879
99998.84
99998.816
99998.804
99998.805
99998.817
99998.839
99998.869
99998.907
99998.951
99999
99999.053
99999.109
99999.167
99999.227
99999.289
99999.35
99999.412
99999.475
99999.536
99999.598
99999.659
99999.719
99999.779
99999.838
99999.896
99999.954
100000.01
100000.07
100000.12
100000.17
100000.23
100000.28
100000.33
100000.38
100000.42
100000.46
100000.51
100000.55
100000.59
100000.63
100000.67
100000.71
100000.74
100000.78
100000.81
100000.84
99999.246
99999.169
99999.097
99999.043
99999.004
99998.977
99998.961
99998.957
99998.963
99998.977
99999
99999.029
99999.065
99999.105
99999.149
99999.196
99999.246
99999.298
99999.351
99999.406
99999.46
99999.516
99999.571
99999.626
99999.681
99999.736
99999.79
99999.844
99999.897
99999.95
100000
100000.05
100000.1
100000.15
100000.2
100000.25
100000.3
100000.34
100000.39
100000.43
100000.47
100000.51
100000.55
100000.59
100000.63
100000.66
100000.7
100000.73
100000.76
99999.39
99999.318
99999.249
99999.197
99999.157
99999.128
99999.109
99999.101
99999.101
99999.109
99999.125
99999.147
99999.175
99999.207
99999.243
99999.283
99999.325
99999.37
99999.415
99999.463
99999.511
99999.559
99999.608
99999.657
99999.707
99999.756
99999.805
99999.854
99999.902
99999.95
99999.998
100000.05
100000.09
100000.14
100000.18
100000.23
100000.27
100000.32
100000.36
100000.4
100000.44
100000.48
100000.52
100000.55
100000.59
100000.62
100000.65
100000.69
100000.72
99999.525
99999.457
99999.391
99999.34
99999.3
99999.269
99999.248
99999.236
99999.231
99999.235
99999.244
99999.26
99999.281
99999.307
99999.336
99999.368
99999.404
99999.441
99999.48
99999.521
99999.563
99999.605
99999.648
99999.692
99999.736
99999.78
99999.824
99999.868
99999.911
99999.955
99999.999
100000.04
100000.08
100000.13
100000.17
100000.21
100000.25
100000.29
100000.33
100000.37
100000.41
100000.44
100000.48
100000.52
100000.55
100000.58
100000.61
100000.64
100000.67
99999.652
99999.587
99999.524
99999.473
99999.433
99999.402
99999.379
99999.363
99999.355
99999.354
99999.358
99999.368
99999.384
99999.403
99999.426
99999.452
99999.481
99999.513
99999.546
99999.58
99999.616
99999.653
99999.691
99999.729
99999.767
99999.806
99999.846
99999.885
99999.924
99999.964
100000
100000.04
100000.08
100000.12
100000.16
100000.2
100000.23
100000.27
100000.31
100000.34
100000.38
100000.41
100000.45
100000.48
100000.51
100000.54
100000.57
100000.6
100000.63
99999.77
99999.708
99999.647
99999.598
99999.558
99999.526
99999.501
99999.483
99999.472
99999.466
99999.467
99999.472
99999.482
99999.496
99999.514
99999.534
99999.558
99999.583
99999.611
99999.64
99999.671
99999.702
99999.735
99999.768
99999.802
99999.836
99999.871
99999.906
99999.941
99999.976
100000.01
100000.05
100000.08
100000.12
100000.15
100000.19
100000.22
100000.26
100000.29
100000.32
100000.36
100000.39
100000.42
100000.45
100000.48
100000.51
100000.54
100000.56
100000.59
99999.881
99999.822
99999.763
99999.715
99999.675
99999.642
99999.616
99999.595
99999.581
99999.573
99999.57
99999.571
99999.577
99999.586
99999.599
99999.615
99999.633
99999.654
99999.676
99999.7
99999.726
99999.753
99999.781
99999.809
99999.838
99999.868
99999.899
99999.929
99999.96
99999.991
100000.02
100000.05
100000.09
100000.12
100000.15
100000.18
100000.21
100000.24
100000.27
100000.3
100000.33
100000.36
100000.39
100000.42
100000.45
100000.48
100000.51
100000.53
100000.56
99999.985
99999.928
99999.871
99999.824
99999.784
99999.75
99999.723
99999.701
99999.685
99999.674
99999.667
99999.665
99999.667
99999.673
99999.681
99999.693
99999.707
99999.723
99999.741
99999.761
99999.782
99999.804
99999.827
99999.852
99999.877
99999.902
99999.929
99999.955
99999.982
100000.01
100000.04
100000.06
100000.09
100000.12
100000.15
100000.18
100000.21
100000.23
100000.26
100000.29
100000.32
100000.34
100000.37
100000.4
100000.43
100000.45
100000.47
100000.5
100000.52
100000.08
100000.03
99999.971
99999.925
99999.885
99999.851
99999.823
99999.8
99999.782
99999.768
99999.759
99999.755
99999.753
99999.756
99999.761
99999.768
99999.779
99999.791
99999.805
99999.821
99999.838
99999.856
99999.875
99999.896
99999.917
99999.939
99999.961
99999.984
100000.01
100000.03
100000.05
100000.08
100000.1
100000.13
100000.15
100000.18
100000.2
100000.23
100000.25
100000.28
100000.3
100000.33
100000.35
100000.38
100000.4
100000.42
100000.45
100000.47
100000.49
100000.17
100000.12
100000.06
100000.02
99999.979
99999.945
99999.916
99999.892
99999.872
99999.857
99999.846
99999.839
99999.836
99999.835
99999.837
99999.842
99999.849
99999.858
99999.868
99999.88
99999.894
99999.908
99999.924
99999.941
99999.958
99999.976
99999.995
100000.01
100000.03
100000.05
100000.07
100000.09
100000.12
100000.14
100000.16
100000.18
100000.2
100000.22
100000.25
100000.27
100000.29
100000.31
100000.33
100000.36
100000.38
100000.4
100000.42
100000.44
100000.46
100000.26
100000.21
100000.15
100000.1
100000.07
100000.03
100000
99999.976
99999.956
99999.94
99999.928
99999.919
99999.914
99999.911
99999.911
99999.913
99999.917
99999.923
99999.93
99999.939
99999.95
99999.961
99999.973
99999.987
100000
100000.02
100000.03
100000.05
100000.06
100000.08
100000.1
100000.11
100000.13
100000.15
100000.17
100000.19
100000.21
100000.22
100000.24
100000.26
100000.28
100000.3
100000.32
100000.34
100000.36
100000.38
100000.4
100000.42
100000.43
100000.34
100000.28
100000.23
100000.18
100000.14
100000.11
100000.08
100000.05
100000.03
100000.02
100000
99999.994
99999.987