/*--------------------------------*- C++ -*----------------------------------*\
| =========                 |                                                 |
| \\      /  F ield         | OpenFOAM: The Open Source CFD Toolbox           |
|  \\    /   O peration     | Version:  2312                                  |
|   \\  /    A nd           | Website:  www.openfoam.com                      |
|    \\/     M anipulation  |                                                 |
\*---------------------------------------------------------------------------*/
FoamFile
{
    version     2.0;
    format      ascii;
    arch        "LSB;label=32;scalar=64";
    class       surfaceScalarField;
    location    "0.02";
    object      phi;
}
// * * * * * * * * * * * * * * * * * * * * * * * * * * * * * * * * * * * * * //

dimensions      [1 0 -1 0 0 0 0];

oriented        oriented;

internalField   nonuniform List<scalar> 
6433
(
8.3109123e-07
3.33461e-08
7.5665489e-07
7.4439702e-08
6.7553886e-07
8.1121011e-08
6.0187901e-07
7.3666322e-08
5.4062168e-07
6.1264978e-08
4.9100409e-07
4.9625933e-08
4.507119e-07
4.0300773e-08
4.1773797e-07
3.2979569e-08
3.9051238e-07
2.7226719e-08
3.6773081e-07
2.2782607e-08
3.4841152e-07
1.9317236e-08
3.3171208e-07
1.6695893e-08
3.1720459e-07
1.4502384e-08
3.0452006e-07
1.2674145e-08
2.9322461e-07
1.1280253e-08
2.8306803e-07
1.0136657e-08
2.7384327e-07
9.2005543e-09
2.6539274e-07
8.4225078e-09
2.575887e-07
7.7717354e-09
2.503316e-07
7.2197133e-09
2.4354109e-07
6.7469207e-09
2.3714912e-07
6.3407907e-09
2.3109873e-07
5.9898841e-09
2.2534319e-07
5.6841795e-09
2.1984803e-07
5.4124286e-09
2.1456845e-07
5.1859762e-09
2.0948015e-07
4.985289e-09
2.0458396e-07
4.795416e-09
1.9984724e-07
4.6248669e-09
1.952482e-07
4.4763411e-09
1.9077342e-07
4.3402807e-09
1.8639676e-07
4.2275136e-09
1.8211843e-07
4.1172987e-09
1.7794171e-07
4.0138601e-09
1.7385099e-07
3.9159994e-09
1.6983768e-07
3.8267831e-09
1.6589604e-07
3.7433737e-09
1.6202133e-07
3.6647968e-09
1.5820975e-07
3.5901627e-09
1.544582e-07
3.5187592e-09
1.5076418e-07
3.4499869e-09
1.4712569e-07
3.3833168e-09
1.4354117e-07
3.3184328e-09
1.400101e-07
3.2548226e-09
1.3653077e-07
3.1919025e-09
1.3310271e-07
3.1299358e-09
1.297257e-07
3.0686587e-09
1.2639954e-07
3.0077517e-09
1.2312428e-07
2.9471614e-09
1.1990007e-07
2.8868155e-09
1.1672718e-07
2.8265466e-09
2.7664303e-09
8.2166147e-07
7.6115374e-08
7.3983216e-07
1.5626943e-07
6.5883974e-07
1.6211395e-07
5.887538e-07
1.4375289e-07
5.3111199e-07
1.189074e-07
4.8420143e-07
9.6536669e-08
4.4581044e-07
7.8690416e-08
4.1414208e-07
6.4643616e-08
3.878309e-07
5.352905e-08
3.6568558e-07
4.4914401e-08
3.4682076e-07
3.8168341e-08
3.3045347e-07
3.3046031e-08
3.1618868e-07
2.8747416e-08
3.0368646e-07
2.5149697e-08
2.9253133e-07
2.2403191e-08
2.8248415e-07
2.0146138e-08
2.7334619e-07
1.8295716e-08
2.6496565e-07
1.67557e-08
2.5721854e-07
1.5466522e-08
2.5000828e-07
1.4371694e-08
2.4325682e-07
1.3432976e-08
2.3689768e-07
1.2625983e-08
2.3087504e-07
1.192832e-08
2.2514311e-07
1.1319994e-08
2.1966775e-07
1.0779218e-08
2.1440509e-07
1.0328251e-08
2.0933301e-07
9.9273613e-09
2.0445091e-07
9.5479959e-09
1.9972606e-07
9.2081292e-09
1.9513745e-07
8.9116262e-09
1.9067234e-07
8.6392885e-09
1.8630342e-07
8.4132439e-09
1.8203261e-07
8.1922079e-09
1.7786286e-07
7.9846474e-09
1.737783e-07
7.7885151e-09
1.697706e-07
7.6093578e-09
1.6583406e-07
7.4416781e-09
1.6196404e-07
7.2835373e-09
1.5815676e-07
7.1331846e-09
1.5440918e-07
6.9892193e-09
1.5071883e-07
6.8504586e-09
1.4708376e-07
6.7158716e-09
1.4350243e-07
6.5847397e-09
1.3997429e-07
6.4561874e-09
1.3649767e-07
6.3293587e-09
1.3307215e-07
6.2043161e-09
1.296975e-07
6.0804797e-09
1.2637357e-07
5.9574376e-09
1.2310041e-07
5.8349558e-09
1.1987818e-07
5.7128485e-09
1.1670721e-07
5.5908469e-09
5.4688029e-09
7.9811489e-07
1.4248872e-07
7.0251761e-07
2.5186711e-07
6.2501007e-07
2.3962193e-07
5.6319141e-07
2.0557206e-07
5.1278091e-07
1.6931831e-07
4.7104485e-07
1.3827257e-07
4.3629207e-07
1.13441e-07
4.0712427e-07
9.380469e-08
3.8258022e-07
7.8065788e-08
3.6166746e-07
6.5812977e-08
3.4368589e-07
5.6136988e-08
3.2796885e-07
4.8745888e-08
3.141789e-07
4.2518e-08
3.0203322e-07
3.7267398e-08
2.911552e-07
3.3248198e-08
2.8132406e-07
2.9938797e-08
2.7235762e-07
2.7218637e-08
2.6411563e-07
2.4949893e-08
2.5648132e-07
2.304816e-08
2.4936395e-07
2.1430464e-08
2.4268999e-07
2.0041177e-08
2.3639608e-07
1.8845545e-08
2.3042863e-07
1.7811081e-08
2.247438e-07
1.6908032e-08
2.1930746e-07
1.6106118e-08
2.1407838e-07
1.5436141e-08
2.0903882e-07
1.4837879e-08
2.0418467e-07
1.4272066e-08
1.9948347e-07
1.3767537e-08
1.9491558e-07
1.3326455e-08
1.9046964e-07
1.2919969e-08
1.861162e-07
1.2581586e-08
1.818604e-07
1.2251111e-08
1.7770451e-07
1.1940576e-08
1.7363222e-07
1.1648083e-08
1.6963568e-07
1.1380245e-08
1.6570933e-07
1.1129355e-08
1.6184862e-07
1.0892545e-08
1.580499e-07
1.0667251e-08
1.5431022e-07
1.045141e-08
1.5062717e-07
1.0243269e-08
1.4699887e-07
1.0041305e-08
1.4342386e-07
9.844408e-09
1.3990155e-07
9.651387e-09
1.3643034e-07
9.4610563e-09
1.3300989e-07
9.2733285e-09
1.2963998e-07
9.0872823e-09
1.263205e-07
8.9024131e-09
1.2305151e-07
8.7183226e-09
1.1983323e-07
8.534709e-09
1.1666599e-07
8.3512178e-09
8.1675415e-09
7.4354633e-07
2.6352998e-07
6.3781598e-07
3.5759783e-07
5.7354201e-07
3.0389622e-07
5.2656668e-07
2.525477e-07
4.8685248e-07
2.090326e-07
4.5222649e-07
1.7289791e-07
4.2260403e-07
1.4305931e-07
3.9699916e-07
1.1939562e-07
3.749637e-07
1.0010035e-07
3.5580623e-07
8.495608e-08
3.390908e-07
7.2840513e-08
3.2431696e-07
6.3502473e-08
3.1121631e-07
5.5599285e-08
2.9958753e-07
4.8866896e-08
2.8911631e-07
4.368529e-08
2.796027e-07
3.9412795e-08
2.708888e-07
3.5887978e-08
2.6285127e-07
3.2938988e-08
2.5538369e-07
3.0462536e-08
2.4840383e-07
2.8351216e-08
2.4184477e-07
2.6533946e-08
2.3564766e-07
2.4967704e-08
2.2976236e-07
2.3610997e-08
2.2414811e-07
2.2424529e-08
2.1876884e-07
2.1374699e-08
2.135894e-07
2.0492915e-08
2.0859916e-07
1.9700939e-08
2.0378633e-07
1.8954008e-08
1.9912036e-07
1.8291474e-08
1.9458334e-07
1.7710888e-08
1.9016598e-07
1.7173914e-08
1.8583562e-07
1.6723533e-08
1.8160227e-07
1.6285944e-08
1.7746711e-07
1.587444e-08
1.7341318e-07
1.5488423e-08
1.6943332e-07
1.5133781e-08
1.6552215e-07
1.4801256e-08
1.6167536e-07
1.4487111e-08
1.5788944e-07
1.4188036e-08
1.5416155e-07
1.3901347e-08
1.504894e-07
1.3624741e-08
1.4687122e-07
1.3356219e-08
1.4330563e-07
1.3094286e-08
1.3979205e-07
1.2837502e-08
1.3632895e-07
1.2584287e-08
1.329161e-07
1.2334434e-08
1.2955329e-07
1.2086699e-08
1.2624047e-07
1.1840472e-08
1.2297773e-07
1.1595205e-08
1.1976532e-07
1.1350482e-08
1.1660362e-07
1.1105874e-08
1.0860973e-08
6.1165531e-07
5.1582642e-07
5.3887178e-07
4.3038166e-07
5.0786141e-07
3.3490672e-07
4.8111644e-07
2.7929268e-07
4.5501585e-07
2.3513284e-07
4.2945298e-07
1.9845891e-07
4.0562748e-07
1.6687678e-07
3.8421969e-07
1.4076752e-07
3.6526988e-07
1.1907087e-07
3.4828543e-07
1.019284e-07
3.3315473e-07
8.7960566e-08
3.1958103e-07
7.7058715e-08
3.0736093e-07
6.7799759e-08
2.9639077e-07
5.9806456e-08
2.8644455e-07
5.3596051e-08
2.7734219e-07
4.8474099e-08
2.6895634e-07
4.4227917e-08
2.6118526e-07
4.0660821e-08
2.5393548e-07
3.7658332e-08
2.4713566e-07
3.5091179e-08
2.4072729e-07
3.2875248e-08
2.3465733e-07
3.0961876e-08
2.2888031e-07
2.9301727e-08
2.2336082e-07
2.7845025e-08
2.1805411e-07
2.6569104e-08
2.1293925e-07
2.5482446e-08
2.080167e-07
2.449979e-08
2.0325747e-07
2.3581079e-08
1.9863812e-07
2.276856e-08
1.941417e-07
2.2055296e-08
1.8976223e-07
2.1393354e-08
1.8546229e-07
2.0829655e-08
1.8125902e-07
2.0288473e-08
1.7715134e-07
1.9779189e-08
1.7312177e-07
1.9303348e-08
1.69164e-07
1.8864387e-08
1.6527297e-07
1.8452288e-08
1.6144463e-07
1.8062564e-08
1.5767568e-07
1.7691239e-08
1.5396344e-07
1.7335062e-08
1.5030577e-07
1.6991203e-08
1.4670101e-07
1.6657218e-08
1.4314792e-07
1.6331217e-08
1.3964594e-07
1.6011595e-08
1.3619363e-07
1.5696319e-08
1.3279088e-07
1.5385078e-08
1.2943752e-07
1.5076342e-08
1.2613354e-07
1.4769387e-08
1.2287911e-07
1.4463524e-08
1.196745e-07
1.4158228e-08
1.1652013e-07
1.3853006e-08
1.3547389e-08
3.0080092e-07
3.0488262e-07
3.7726807e-07
3.5391465e-07
3.8898041e-07
3.2319422e-07
3.8435445e-07
2.8391827e-07
3.7277074e-07
2.4671571e-07
3.5844344e-07
2.1278326e-07
3.4306305e-07
1.8224235e-07
3.2783892e-07
1.5590403e-07
3.1389215e-07
1.3309178e-07
3.0091208e-07
1.1490577e-07
2.8903701e-07
9.9827109e-08
2.781971e-07
8.7882696e-08
2.682508e-07
7.7727886e-08
2.5918569e-07
6.8843708e-08
2.5090237e-07
6.1846724e-08
2.4325561e-07
5.608309e-08
2.3616158e-07
5.1279868e-08
2.2955067e-07
4.7227378e-08
2.2335279e-07
4.3807474e-08
2.1751548e-07
4.0874584e-08
2.1199517e-07
3.8335287e-08
2.0675064e-07
3.6138341e-08
2.0174609e-07
3.4228933e-08
1.969526e-07
3.2549641e-08
1.923319e-07
3.1088965e-08
1.8787529e-07
2.9828355e-08
1.8358261e-07
2.8682727e-08
1.7942285e-07
2.7623007e-08
1.7538089e-07
2.6684431e-08
1.7144165e-07
2.5860156e-08
1.6760232e-07
2.5095353e-08
1.6382698e-07
2.4426625e-08
1.601367e-07
2.3799077e-08
1.5652808e-07
2.3206584e-08
1.5298536e-07
2.2654988e-08
1.4950391e-07
2.2143858e-08
1.4607956e-07
2.1663395e-08
1.4270897e-07
2.1208559e-08
1.3938944e-07
2.0774843e-08
1.3611876e-07
2.0358545e-08
1.3289518e-07
1.995639e-08
1.2971734e-07
1.9565587e-08
1.2658432e-07
1.9183853e-08
1.234956e-07
1.880955e-08
1.2045005e-07
1.8440169e-08
1.1744765e-07
1.8075342e-08
1.1448831e-07
1.7713306e-08
1.1157208e-07
1.7353237e-08
1.0869913e-07
1.6994327e-08
1.0586978e-07
1.6635958e-08
1.0308443e-07
1.6277597e-08
1.5918732e-08
2.0645096e-07
1.9086069e-07
3.0502633e-07
2.5533921e-07
3.4243931e-07
2.8578071e-07
3.5395379e-07
2.724029e-07
3.5290636e-07
2.4776138e-07
3.4570499e-07
2.1997981e-07
3.3549562e-07
1.9242531e-07
3.2374329e-07
1.6741449e-07
3.1225216e-07
1.448048e-07
3.0105292e-07
1.261214e-07
2.904412e-07
1.1043027e-07
2.8057798e-07
9.7728524e-08
2.7133906e-07
8.6945653e-08
2.6271762e-07
7.743734e-08
2.5477465e-07
6.9754778e-08
2.473733e-07
6.3444072e-08
2.4045153e-07
5.8156748e-08
2.3395934e-07
5.3673287e-08
2.2783792e-07
4.9877488e-08
2.220455e-07
4.6610434e-08
2.1654584e-07
4.3771875e-08
2.11303e-07
4.1310009e-08
2.0628547e-07
3.9165972e-08
2.0146342e-07
3.7278981e-08
1.9680524e-07
3.5641922e-08
1.9231071e-07
3.4210394e-08
1.879719e-07
3.2907432e-08
1.8375853e-07
3.1714542e-08
1.7966035e-07
3.0653019e-08
1.7565989e-07
2.9721775e-08
1.7175726e-07
2.8860595e-08
1.6791462e-07
2.807859e-08
1.6415922e-07
2.7369067e-08
1.6048294e-07
2.6695166e-08
1.568711e-07
2.6069364e-08
1.5331965e-07
2.5486812e-08
1.4982461e-07
2.4938464e-08
1.4638284e-07
2.4418762e-08
1.4299179e-07
2.3922731e-08
1.3964937e-07
2.3446259e-08
1.3635397e-07
2.2985627e-08
1.3310432e-07
2.2537752e-08
1.2989962e-07
2.2099902e-08
1.2673939e-07
2.1670468e-08
1.2362258e-07
2.1246484e-08
1.2054929e-07
2.0827457e-08
1.1751947e-07
2.0411472e-08
1.1453323e-07
1.9997575e-08
1.1159081e-07
1.9584853e-08
1.0869258e-07
1.9172597e-08
1.05839e-07
1.8760234e-08
1.8347225e-08
1.6957866e-07
1.1633863e-07
2.5332865e-07
1.7158851e-07
3.0050826e-07
2.3859985e-07
3.2328393e-07
2.496255e-07
3.3137305e-07
2.3966944e-07
3.3101008e-07
2.2033543e-07
3.2591098e-07
1.9748135e-07
3.1793173e-07
1.7469183e-07
3.0924208e-07
1.5414902e-07
2.9997907e-07
1.3543588e-07
2.9085934e-07
1.1954148e-07
2.8211364e-07
1.0645482e-07
2.7373329e-07
9.530205e-08
2.6570568e-07
8.5436895e-08
2.5818299e-07
7.7239717e-08
2.5110997e-07
7.0473896e-08
2.4442795e-07
6.4790536e-08
2.3811051e-07
5.9942629e-08
2.3211198e-07
5.5821188e-08
2.2640379e-07
5.2258839e-08
2.2095764e-07
4.9151695e-08
2.157443e-07
4.6448548e-08
2.1073884e-07
4.4087553e-08
2.0590489e-07
4.2016039e-08
2.0122723e-07
4.0209158e-08
1.9671406e-07
3.8610291e-08
1.9233957e-07
3.7162571e-08
1.8808396e-07
3.584422e-08
1.8393979e-07
3.4664249e-08
1.7988698e-07
3.3628822e-08
1.7592466e-07
3.2672998e-08
1.7202307e-07
3.1788253e-08
1.6820915e-07
3.0993482e-08
1.6446942e-07
3.0240524e-08
1.6079264e-07
2.954199e-08
1.5717481e-07
2.8889269e-08
1.5361225e-07
2.8273964e-08
1.5010205e-07
2.7690058e-08
1.4664186e-07
2.713216e-08
1.4322976e-07
2.6595795e-08
1.3986432e-07
2.6076791e-08
1.3654432e-07
2.5571876e-08
1.3326922e-07
2.507776e-08
1.3003853e-07
2.4592922e-08
1.2685133e-07
2.4114043e-08
1.2370783e-07
2.3640386e-08
1.2060806e-07
2.3169959e-08
1.1755221e-07
2.2701665e-08
1.1454059e-07
2.2234495e-08
1.1157363e-07
2.176766e-08
1.0865186e-07
2.1300546e-08
2.0832593e-08
1.4994977e-07
6.4092798e-08
2.1554165e-07
1.0599485e-07
2.6407142e-07
1.9006779e-07
2.9375083e-07
2.199433e-07
3.0907885e-07
2.2433737e-07
3.1493138e-07
2.1447396e-07
3.1472213e-07
1.9765957e-07
3.1064943e-07
1.7845604e-07
3.0489056e-07
1.6016186e-07
2.9778956e-07
1.4256854e-07
2.9028273e-07
1.270364e-07
2.8278252e-07
1.1393295e-07
2.7539326e-07
1.0266426e-07
2.6811768e-07
9.2680902e-08
2.6110675e-07
8.421289e-08
2.5443025e-07
7.7104263e-08
2.4805632e-07
7.1112144e-08
2.419718e-07
6.5977804e-08
2.3614468e-07
6.1588737e-08
2.3056284e-07
5.777703e-08
2.2520522e-07
5.4439194e-08
2.2005066e-07
5.152391e-08
2.1507901e-07
4.8971882e-08
2.1025841e-07
4.6735364e-08
2.0558675e-07
4.4767512e-08
2.0106864e-07
4.3011066e-08
1.9667049e-07
4.1436007e-08
1.9238544e-07
3.9999265e-08
1.8820657e-07
3.8707517e-08
1.841089e-07
3.757108e-08
1.8009517e-07
3.6523532e-08
1.7614445e-07
3.5546468e-08
1.7227751e-07
3.4666154e-08
1.6847965e-07
3.383731e-08
1.647427e-07
3.3067764e-08
1.6106272e-07
3.2346631e-08
1.5743635e-07
3.1665789e-08
1.5386098e-07
3.1018794e-08
1.5033452e-07
3.0399888e-08
1.4685522e-07
2.9804285e-08
1.4342187e-07
2.9227355e-08
1.4003344e-07
2.8665628e-08
1.3668957e-07
2.8115537e-08
1.3338974e-07
2.7575129e-08
1.3013333e-07
2.7041324e-08
1.269206e-07
2.6512797e-08
1.2375168e-07
2.5987609e-08
1.2062686e-07
2.5464511e-08
1.1754653e-07
2.4942407e-08
1.145112e-07
2.4420436e-08
1.1152147e-07
2.3897947e-08
2.3374366e-08
1.3685823e-07
2.7643553e-08
1.8709409e-07
5.5755648e-08
2.3322217e-07
1.4393593e-07
2.6638143e-07
1.8677976e-07
2.8698807e-07
2.0372507e-07
2.9807553e-07
2.0337594e-07
3.024109e-07
1.9330432e-07
3.0210873e-07
1.7862256e-07
2.9927818e-07
1.6307964e-07
2.9453459e-07
1.473186e-07
2.8877095e-07
1.3278319e-07
2.8261545e-07
1.2006317e-07
2.7629587e-07
1.0895326e-07
2.6988773e-07
9.9053781e-08
2.6352342e-07
9.0535859e-08
2.573096e-07
8.3272638e-08
2.5130464e-07
7.7059345e-08
2.4551207e-07
7.1721347e-08
2.3990597e-07
6.712818e-08
2.3449556e-07
6.3119229e-08
2.2926312e-07
5.959714e-08
2.2419873e-07
5.6503577e-08
2.1928441e-07
5.3795667e-08
2.1450453e-07
5.1409052e-08
2.0986523e-07
4.9291501e-08
2.0535573e-07
4.7397946e-08
2.0094889e-07
4.5712239e-08
1.9664816e-07
4.4165923e-08
1.9244747e-07
4.277156e-08
1.883133e-07
4.1537465e-08
1.8425827e-07
4.0402699e-08
1.8026777e-07
3.9342332e-08
1.7635457e-07
3.8379554e-08
1.7250487e-07
3.7478976e-08
1.6871324e-07
3.6640817e-08
1.6497598e-07
3.5853615e-08
1.6129012e-07
3.5109205e-08
1.576534e-07
3.4400739e-08
1.5406403e-07
3.3722135e-08
1.5052049e-07
3.3068362e-08
1.4702182e-07
3.2434326e-08
1.4356726e-07
3.1816346e-08
1.4015661e-07
3.1210768e-08
1.3678936e-07
3.0615031e-08
1.3346523e-07
3.0026423e-08
1.3018455e-07
2.9443028e-08
1.2694755e-07
2.8862958e-08
1.2375465e-07
2.8284833e-08
1.2060635e-07
2.7707476e-08
1.1750324e-07
2.7129965e-08
1.1444601e-07
2.6551619e-08
2.5971858e-08
1.2822184e-07
2.6109359e-09
1.6591916e-07
1.8052963e-08
2.0773332e-07
1.0211596e-07
2.4180795e-07
1.5269884e-07
2.6584693e-07
1.7967845e-07
2.8105769e-07
1.8815316e-07
2.8937582e-07
1.8497201e-07
2.9260271e-07
1.753335e-07
2.9260014e-07
1.6309929e-07
2.9024047e-07
1.496666e-07
2.8636924e-07
1.3663173e-07
2.8164844e-07
1.2475576e-07
2.7646988e-07
1.1409711e-07
2.7098851e-07
1.0449592e-07
2.6536336e-07
9.6115621e-08
2.5973249e-07
8.8852325e-08
2.541626e-07
8.2571014e-08
2.4870102e-07
7.7138121e-08
2.4336614e-07
7.2384782e-08
2.3817655e-07
6.8235614e-08
2.3310592e-07
6.4588427e-08
2.2815544e-07
6.1361934e-08
2.2333729e-07
5.8521265e-08
2.1863102e-07
5.600554e-08
2.1403844e-07
5.3764004e-08
2.0955746e-07
5.1751574e-08
2.0515811e-07
4.9973935e-08
2.0085631e-07
4.8329274e-08
1.9664832e-07
4.6844421e-08
1.9248661e-07
4.5515451e-08
1.8840174e-07
4.4299646e-08
1.8438214e-07
4.3163796e-08
1.8042969e-07
4.2125777e-08
1.765354e-07
4.1157859e-08
1.7269538e-07
4.0254446e-08
1.689064e-07
3.9404215e-08
1.6516599e-07
3.8598816e-08
1.6147232e-07
3.7831049e-08
1.5782395e-07
3.7094547e-08
1.5421963e-07
3.6384122e-08
1.506587e-07
3.5694199e-08
1.4714075e-07
3.5020886e-08
1.4366568e-07
3.4360603e-08
1.402331e-07
3.3710132e-08
1.368431e-07
3.3067077e-08
1.3349606e-07
3.2429064e-08
1.3019238e-07
3.1794218e-08
1.269326e-07
3.1161045e-08
1.2371733e-07
3.0528304e-08
1.2054727e-07
2.9895022e-08
1.1742323e-07
2.9260496e-08
2.8624147e-08
1.2288066e-07
-1.4222111e-08
1.5061892e-07
-9.693056e-09
1.8718364e-07
6.5542854e-08
2.2033739e-07
1.1953617e-07
2.4619086e-07
1.5381479e-07
2.6440668e-07
1.6992336e-07
2.7601578e-07
1.7334875e-07
2.8240566e-07
1.6890904e-07
2.8509822e-07
1.6039429e-07
2.850292e-07
1.4971355e-07
2.8307783e-07
1.3855516e-07
2.799142e-07
1.2788684e-07
2.7595145e-07
1.1802146e-07
2.7144415e-07
1.0895972e-07
2.6662767e-07
1.0088237e-07
2.6163375e-07
9.3789554e-08
2.565752e-07
8.7568122e-08
2.5152561e-07
8.2131907e-08
2.4651164e-07
7.7323025e-08
2.4156982e-07
7.3099972e-08
2.3670418e-07
6.9369931e-08
2.3191736e-07
6.6053861e-08
2.2722027e-07
6.3117918e-08
2.2260819e-07
6.0502891e-08
2.1808524e-07
5.8162109e-08
2.1365584e-07
5.6050632e-08
2.0928067e-07
5.4201669e-08
2.049934e-07
5.2472189e-08
2.0078991e-07
5.0915155e-08
1.9661595e-07
4.9487211e-08
1.9251545e-07
4.8203198e-08
1.884749e-07
4.7000346e-08
1.8449167e-07
4.5895791e-08
1.805608e-07
4.4865494e-08
1.7667942e-07
4.3901134e-08
1.7284499e-07
4.2991672e-08
1.6905564e-07
4.2128533e-08
1.6531003e-07
4.1304236e-08
1.6160714e-07
4.0512174e-08
1.5794601e-07
3.9747098e-08
1.5432637e-07
3.9002941e-08
1.5074822e-07
3.8275637e-08
1.4721154e-07
3.7561738e-08
1.4371615e-07
3.6857492e-08
1.4026248e-07
3.6160628e-08
1.3685104e-07
3.5468517e-08
1.3348239e-07
3.4779246e-08
1.3015721e-07
3.4091234e-08
1.2687627e-07
3.3403186e-08
1.2364038e-07
3.2714091e-08
1.2045047e-07
3.2023237e-08
3.1330058e-08
1.1988645e-07
-2.5123393e-08
1.3993115e-07
-2.9748158e-08
1.7100815e-07
3.4454332e-08
2.0202939e-07
8.8502741e-08
2.2837082e-07
1.2745994e-07
2.4853547e-07
1.497421e-07
2.6271382e-07
1.5915354e-07
2.717955e-07
1.5980066e-07
2.7696337e-07
1.5520139e-07
2.7908942e-07
1.4755815e-07
2.7900976e-07
1.3860186e-07
2.7740491e-07
1.2945448e-07
2.7473592e-07
1.2064776e-07
2.7128182e-07
1.1236555e-07
2.6731267e-07
1.0479731e-07
2.6302142e-07
9.8018359e-08
2.5853248e-07
9.1991032e-08
2.5394569e-07
8.6654473e-08
2.4930523e-07
8.1886132e-08
2.4466116e-07
7.7661916e-08
2.4003842e-07
7.3903235e-08
2.354486e-07
7.0544227e-08
2.3090513e-07
6.7553629e-08
2.2641426e-07
6.4873201e-08
2.2198492e-07
6.2462167e-08
2.1763262e-07
6.0274804e-08
2.1329832e-07
5.8372191e-08
2.0904366e-07
5.6572325e-08
2.0485356e-07
5.4954704e-08
2.0068756e-07
5.3451894e-08
1.9658573e-07
5.2102398e-08
1.925327e-07
5.0842459e-08
1.8852843e-07
4.967924e-08
1.8456976e-07
4.8592554e-08
1.8065485e-07
4.7572541e-08
1.7678197e-07
4.6608458e-08
1.7294995e-07
4.569155e-08
1.6915803e-07
4.4814141e-08
1.654057e-07
4.3969445e-08
1.6169232e-07
4.3152211e-08
1.5801804e-07
4.2355946e-08
1.5438333e-07
4.1576546e-08
1.5078827e-07
4.0810351e-08
1.4723303e-07
4.0053707e-08
1.4371832e-07
3.9304e-08
1.402448e-07
3.8558602e-08
1.3681324e-07
3.781553e-08
1.3342449e-07
3.7073135e-08
1.3007947e-07
3.6330087e-08
1.2677915e-07
3.5585351e-08
1.2352459e-07
3.4838215e-08
3.4088142e-08
1.1862152e-07
-3.1741168e-08
1.3280089e-07
-4.3940715e-08
1.5859474e-07
8.6453643e-09
1.8677119e-07
6.031015e-08
2.1257799e-07
1.0163571e-07
2.3375336e-07
1.2854658e-07
2.497831e-07
1.4310268e-07
2.6105752e-07
1.4849921e-07
2.6839621e-07
1.4783086e-07
2.7255874e-07
1.4336043e-07
2.742806e-07
1.3684184e-07
2.7421141e-07
1.2948138e-07
2.7283909e-07
1.219724e-07
2.7048814e-07
1.1466299e-07
2.6743936e-07
1.0778607e-07
2.6389354e-07
1.0149657e-07
2.6001782e-07
9.5795397e-08
2.5594471e-07
9.0656211e-08
2.5172561e-07
8.6023286e-08
2.4742622e-07
8.1873575e-08
2.4308532e-07
7.8148618e-08
2.3872668e-07
7.4797515e-08
2.3436945e-07
7.1795708e-08
2.3002758e-07
6.9087954e-08
2.2571558e-07
6.6641035e-08
2.2146996e-07
6.4409785e-08
2.171914e-07
6.2454304e-08
2.1298507e-07
6.0609904e-08
2.0882637e-07
5.8945641e-08
2.0468852e-07
5.7389479e-08
2.0059594e-07
5.5986181e-08
1.965418e-07
5.4678259e-08
1.9252707e-07
5.3464886e-08
1.8855017e-07
5.2328874e-08
1.8461031e-07
5.1259486e-08
1.8070673e-07
5.0246252e-08
1.7683901e-07
4.9280327e-08
1.7300709e-07
4.835392e-08
1.69211e-07
4.7460157e-08
1.6545042e-07
4.6593815e-08
1.617262e-07
4.5748017e-08
1.5803908e-07
4.4918854e-08
1.5438936e-07
4.4102262e-08
1.5077766e-07
4.3294854e-08
1.4720493e-07
4.2493664e-08
1.4367205e-07
4.1696112e-08
1.4018002e-07
4.0900156e-08
1.3672987e-07
4.0104109e-08
1.3332271e-07
3.9306621e-08
1.2995967e-07
3.8506647e-08
1.2664196e-07
3.770349e-08
3.6896657e-08
1.1868188e-07
-3.5317474e-08
1.2840738e-07
-5.3682248e-08
1.4935891e-07
-1.2325269e-08
1.7434538e-07
3.5302974e-08
1.9887636e-07
7.7082519e-08
2.2027181e-07
1.0712645e-07
2.3748015e-07
1.2586795e-07
2.5043714e-07
1.3551123e-07
2.596095e-07
1.3862131e-07
2.655867e-07
1.3734253e-07
2.6899637e-07
1.3338832e-07
2.7041775e-07
1.2801205e-07
2.7033048e-07
1.2200626e-07
2.6909238e-07
1.1584171e-07
2.6698528e-07
1.0982703e-07
2.642442e-07
1.0416433e-07
2.6103868e-07
9.8923517e-08
2.5750965e-07
9.4107572e-08
2.5375427e-07
8.9689492e-08
2.49845e-07
8.5688427e-08
2.4582366e-07
8.206743e-08
2.4172987e-07
7.877895e-08
2.3759196e-07
7.5810636e-08
2.3342821e-07
7.3117151e-08
2.2925622e-07
7.0675391e-08
2.2514416e-07
6.8474426e-08
2.2093735e-07
6.6386953e-08
2.1680266e-07
6.4558877e-08
2.1269759e-07
6.2869537e-08
2.0859965e-07
6.1283176e-08
2.0453022e-07
5.983997e-08
2.004876e-07
5.8494361e-08
1.9647387e-07
5.7240527e-08
1.9248912e-07
5.6063415e-08
1.885337e-07
5.4951951e-08
1.8460788e-07
5.3895947e-08
1.8071215e-07
5.2886573e-08
1.7684717e-07
5.1916036e-08
1.7301365e-07
5.0977453e-08
1.6921155e-07
5.0065582e-08
1.6544259e-07
4.9173396e-08
1.6170772e-07
4.8297259e-08
1.5800756e-07
4.7432712e-08
1.5434327e-07
4.6576536e-08
1.5071599e-07
4.5725615e-08
1.471269e-07
4.4877391e-08
1.4357722e-07
4.4029794e-08
1.4006822e-07
4.3181123e-08
1.366012e-07
4.2330028e-08
1.3317748e-07
4.1475475e-08
1.2979843e-07
4.0616793e-08
3.9753549e-08
1.1976579e-07
-3.679032e-08
1.2611738e-07
-6.0052735e-08
1.4277459e-07
-2.9005862e-08
1.6448107e-07
1.3570678e-08
1.8723605e-07
5.4299788e-08
2.0821634e-07
8.6115962e-08
2.2600138e-07
1.080504e-07
2.4014556e-07
1.2133035e-07
2.5079304e-07
1.2793112e-07
2.5833658e-07
1.2975241e-07
2.6327243e-07
1.2840239e-07
2.6610489e-07
1.2512509e-07
2.6727248e-07
1.2077876e-07
2.6713476e-07
1.1591351e-07
2.6598626e-07
1.1090278e-07
2.6406684e-07
1.0600401e-07
2.6156856e-07
1.0133745e-07
2.5864097e-07
9.6948268e-08
2.5538897e-07
9.2846153e-08
2.5190295e-07
8.9072438e-08
2.4823485e-07
8.5624995e-08
2.4443675e-07
8.2456693e-08
2.4055326e-07
7.9562659e-08
2.3659655e-07
7.6930523e-08
2.3259438e-07
7.4525026e-08
2.2860908e-07
7.2338957e-08
2.2453175e-07
7.0249535e-08
2.2048446e-07
6.8414069e-08
2.164467e-07
6.6713402e-08
2.1240354e-07
6.5115246e-08
2.0837237e-07
6.3647402e-08
2.0435479e-07
6.2276288e-08
2.0035438e-07
6.0993018e-08
1.9637294e-07
5.9784272e-08
1.9241211e-07
5.8639088e-08
1.8847328e-07
5.7547641e-08
1.845579e-07
5.6501246e-08
1.8066747e-07
5.5492251e-08
1.7680349e-07
5.4513835e-08
1.7296616e-07
5.3560445e-08
1.691582e-07
5.2625814e-08
1.6538074e-07
5.1705857e-08
1.6163496e-07
5.0796342e-08
1.579224e-07
4.9893856e-08
1.5424451e-07
4.8995361e-08
1.5060278e-07
4.809832e-08
1.4699869e-07
4.720067e-08
1.4343378e-07
4.6300724e-08
1.3990955e-07
4.5397157e-08
1.3642754e-07
4.4488959e-08
1.329893e-07
4.357551e-08
4.2656426e-08
1.2163273e-07
-3.6854863e-08
1.254392e-07
-6.3880982e-08
1.3838109e-07
-4.1975632e-08
1.5688796e-07
-4.9676062e-09
1.7756269e-07
3.3591083e-08
1.9764131e-07
6.6000707e-08
2.1548632e-07
9.0165961e-08
2.3035666e-07
1.0641648e-07
2.4211704e-07
1.1612172e-07
2.5095942e-07
1.2085683e-07
2.5723774e-07
1.2206696e-07
2.613627e-07
1.209384e-07
2.6372721e-07
1.1834695e-07
2.6466715e-07
1.1490018e-07
2.6447224e-07
1.1101762e-07
2.6339119e-07
1.0699806e-07
2.6162267e-07
1.0301378e-07
2.5932365e-07
9.9151134e-08
2.5660896e-07
9.5457488e-08
2.5357725e-07
9.1993468e-08
2.5030203e-07
8.8780787e-08
2.4683702e-07
8.5792229e-08
2.4322896e-07
8.3030007e-08
2.3951038e-07
8.0496562e-08
2.3570997e-07
7.8162193e-08
2.3187262e-07
7.6018269e-08
2.2794526e-07
7.3977907e-08
2.2400696e-07
7.215345e-08
2.2005524e-07
7.0459492e-08
2.1608319e-07
6.8867194e-08
2.1210581e-07
6.7391563e-08
2.0812755e-07
6.6008721e-08
2.0415354e-07
6.4708391e-08
2.0018733e-07
6.3478723e-08
1.9623196e-07
6.2309253e-08
1.9229005e-07
6.1190662e-08
1.8836408e-07
6.011455e-08
1.8445644e-07
5.9073582e-08
1.8056952e-07
5.8061172e-08
1.7670398e-07
5.7070692e-08
1.7286331e-07
5.6098205e-08
1.69049e-07
5.5138344e-08
1.6526291e-07
5.4187206e-08
1.615069e-07
5.3241374e-08
1.5778282e-07
5.2297895e-08
1.5409246e-07
5.1354295e-08
1.5043765e-07
5.0408551e-08
1.4682016e-07
4.9459026e-08
1.4324176e-07
4.8504442e-08
1.3970421e-07
4.7543837e-08
1.3620928e-07
4.6576665e-08
4.5602556e-08
1.2409253e-07
-3.6013692e-08
1.2599151e-07
-6.5804591e-08
1.3578188e-07
-5.1798567e-08
1.5127782e-07
-2.050097e-08
1.6972117e-07
1.5106899e-08
1.8854549e-07
4.7132443e-08
2.060238e-07
7.2640477e-08
2.2120656e-07
9.1182406e-08
2.3372938e-07
1.0354251e-07
2.4359516e-07
1.1093026e-07
2.5101398e-07
1.1458307e-07
2.562949e-07
1.1558757e-07
2.5976735e-07
1.1479895e-07
2.6173974e-07
1.1284597e-07
2.6248361e-07
1.1018529e-07
2.6223977e-07
1.0714676e-07
2.6121262e-07
1.0393997e-07
2.5956248e-07
1.0069531e-07
2.5741193e-07
9.7495244e-08
2.5486678e-07
9.4418132e-08
2.5201198e-07
9.1506176e-08
2.4890834e-07
8.8756298e-08
2.456077e-07
8.6179776e-08
2.4215291e-07
8.3788686e-08
2.3857708e-07
8.1563831e-08
2.3491835e-07
7.9497847e-08
2.3115781e-07
7.7538191e-08
2.2735071e-07
7.5752692e-08
2.2350487e-07
7.4087949e-08
2.1962117e-07
7.2520123e-08
2.1571371e-07
7.1054992e-08
2.1178965e-07
6.9675692e-08
2.0785575e-07
6.837196e-08
2.0391736e-07
6.7133301e-08
1.9997901e-07
6.595006e-08
1.9604461e-07
6.4813601e-08
1.9211778e-07
6.3715949e-08
1.8820187e-07
6.2650201e-08
1.8430005e-07
6.1609976e-08
1.8041396e-07
6.0588689e-08
1.7654739e-07
5.9583019e-08
1.7270263e-07
5.8587715e-08
1.6888203e-07
5.7598833e-08
1.6508791e-07
5.6613106e-08
1.6132252e-07
5.5627691e-08
1.5758804e-07
5.4640212e-08
1.5388661e-07
5.364873e-08
1.5022031e-07
5.2651688e-08
1.4659118e-07
5.1647887e-08
1.4300124e-07
5.063644e-08
1.3945246e-07
4.961691e-08
4.8588867e-08
1.2699964e-07
-3.462135e-08
1.2748134e-07
-6.6313776e-08
1.3464093e-07
-5.8995562e-08
1.473776e-07
-3.328144e-08
1.6355392e-07
-1.1177104e-09
1.8088652e-07
2.9747779e-08
1.9765965e-07
5.581158e-08
2.1279572e-07
7.5986299e-08
2.257539e-07
9.0519434e-08
2.3637033e-07
1.0024433e-07
2.447176e-07
1.0616172e-07
2.5100046e-07
1.0922557e-07
2.5547768e-07
1.1023685e-07
2.5841377e-07
1.0981869e-07
2.6006036e-07
1.0844076e-07
2.6064409e-07
1.0645841e-07
2.6035848e-07
1.041149e-07
2.5936746e-07
1.0156969e-07
2.578002e-07
9.893903e-08
2.5576575e-07
9.6321116e-08
2.5335621e-07
9.3775222e-08
2.5063975e-07
9.1322015e-08
2.4767383e-07
8.8983688e-08
2.4450792e-07
8.678081e-08
2.411802e-07
8.4705972e-08
2.3772731e-07
8.2756295e-08
2.3415238e-07
8.0904539e-08
2.3049762e-07
7.9188694e-08
2.2677765e-07
7.7578128e-08
2.2299999e-07
7.6054998e-08
2.1917905e-07
7.4619811e-08
2.1532455e-07
7.3260711e-08
2.1144503e-07
7.1968443e-08
2.0754764e-07
7.0733884e-08
2.0363848e-07
6.9548443e-08
1.9972281e-07
6.8404363e-08
1.9580547e-07
6.7294235e-08
1.9189079e-07
6.6211733e-08
1.8798283e-07
6.5150862e-08
1.8408429e-07
6.4105295e-08
1.801993e-07
6.307214e-08
1.7633098e-07
6.2046335e-08
1.7248223e-07
6.1024164e-08
1.6865585e-07
6.0002509e-08
1.6485454e-07
5.8978684e-08
1.610809e-07
5.7950456e-08
1.5733742e-07
5.6916008e-08
1.5362652e-07
5.5873902e-08
1.4995053e-07
5.4823048e-08
1.4631174e-07
5.3762668e-08
1.4271235e-07
5.2692526e-08
1.3024617e-07
-3.2921934e-08
1.2968689e-07
-6.5784849e-08
1.3467841e-07
-6.4029466e-08
1.4493725e-07
-4.3590791e-08
1.5889455e-07
-1.5131312e-08
1.7459358e-07
1.3987798e-08
1.9040487e-07
3.993505e-08
2.0519251e-07
6.1128904e-08
2.1829037e-07
7.7346978e-08
2.2939615e-07
8.9059165e-08
2.3845749e-07
9.7016137e-08
2.4557745e-07
1.0201608e-07
2.5094021e-07
1.0477872e-07
2.5476055e-07
1.058966e-07
2.5725584e-07
1.0583695e-07
2.5863608e-07
1.049628e-07
2.5908517e-07
1.0354398e-07
2.5875623e-07
1.0177035e-07
2.577814e-07
9.9778531e-08
2.5627428e-07
9.7684566e-08
2.5433021e-07
9.5566571e-08
2.5202302e-07
9.3466133e-08
2.4941544e-07
9.1417044e-08
2.4656169e-07
8.9448569e-08
2.4350474e-07
8.7565125e-08
2.4028249e-07
8.5770348e-08
2.3691246e-07
8.4054406e-08
2.3343049e-07
8.2439335e-08
2.2985616e-07
8.0909329e-08
2.2620239e-07
7.9452699e-08
2.2248482e-07
7.806792e-08
2.1871562e-07
7.6746909e-08
2.1490516e-07
7.5482083e-08
2.1106241e-07
7.4265804e-08
2.0719514e-07
7.309075e-08
2.0330997e-07
7.1950237e-08
1.9941297e-07
7.0837633e-08
1.9550967e-07
6.974729e-08
1.9160491e-07
6.8673552e-08
1.8770252e-07
6.7611025e-08
1.8380719e-07
6.6556661e-08
1.7992274e-07
6.5505988e-08
1.760527e-07
6.4455562e-08
1.7220042e-07
6.3402483e-08
1.6836908e-07
6.2344276e-08
1.6456173e-07
6.1278894e-08
1.6078124e-07
6.020469e-08
1.5703039e-07
5.9120381e-08
1.5331185e-07
5.8025019e-08
1.496282e-07
5.6917962e-08
5.5799173e-08
1.3375405e-07
-3.1078822e-08
1.3244189e-07
-6.4505947e-08
1.3566576e-07
-6.7300832e-08
1.4373412e-07
-5.1716702e-08
1.5557765e-07
-2.7039687e-08
1.69578e-07
-8.3126683e-11
1.8424371e-07
2.5193739e-08
1.984378e-07
4.6854292e-08
2.1141583e-07
6.4283425e-08
2.2276784e-07
7.7616621e-08
2.323333e-07
8.7355004e-08
2.4012056e-07
9.4127657e-08
2.462391e-07
9.8553044e-08
2.5084939e-07
1.0117271e-07
2.541307e-07
1.0243521e-07
2.5626369e-07
1.0270241e-07