/*--------------------------------*- C++ -*----------------------------------*\
| =========                 |                                                 |
| \\      /  F ield         | OpenFOAM: The Open Source CFD Toolbox           |
|  \\    /   O peration     | Version:  2312                                  |
|   \\  /    A nd           | Website:  www.openfoam.com                      |
|    \\/     M anipulation  |                                                 |
\*---------------------------------------------------------------------------*/
FoamFile
{
    version     2.0;
    format      ascii;
    arch        "LSB;label=32;scalar=64";
    class       volScalarField;
    location    "0.02";
    object      Qdot;
}
// * * * * * * * * * * * * * * * * * * * * * * * * * * * * * * * * * * * * * //

dimensions      [1 -1 -3 0 0 0 0];

internalField   nonuniform List<scalar> 
3275
(
74741093
5.0840242e+08
8.1183817e+08
8.7930529e+08
8.43547e+08
7.7971544e+08
7.1318237e+08
6.4800681e+08
5.8363681e+08
5.1917873e+08
4.5526001e+08
3.9329078e+08
3.4411681e+08
2.9550116e+08
2.5343023e+08
2.1760513e+08
1.8741219e+08
1.6209458e+08
1.4090205e+08
1.2316065e+08
1.0829137e+08
95804977
85290631
76410932
68890073
62495005
57353626
52733881
48703812
45252085
42285890
39727900
37642480
35798477
34159918
32756881
31558572
30539801
29679620
28960462
28367502
27888154
27511495
27241678
27048640
26932595
26891212
26920129
27015771
27175409
27397185
27680256
1.941766e+08
8.1908465e+08
1.0583689e+09
1.0356108e+09
9.3877026e+08
8.3825848e+08
7.4880934e+08
6.689415e+08
5.95332e+08
5.2516722e+08
4.5788273e+08
3.9404438e+08
3.4394629e+08
2.949368e+08
2.5270642e+08
2.1686447e+08
1.8672283e+08
1.6148283e+08
1.4037285e+08
1.2270879e+08
1.0790823e+08
95481275
85016994
76179059
68694217
62339088
57216223
52607812
48597241
45161083
42207961
39661548
37584938
35744904
34113395
32716121
31522644
30507992
29651360
28935278
28345006
27868035
27493530
27225420
27033922
26919397
26879376
26909499
27006222
27166816
27389384
27673142
7.6937157e+08
1.664996e+09
1.6240476e+09
1.3621447e+09
1.1274605e+09
9.5205403e+08
8.1674881e+08
7.0813148e+08
6.1687402e+08
5.3595983e+08
4.6241767e+08
3.9515069e+08
3.4332493e+08
2.9368106e+08
2.5118341e+08
2.1534152e+08
1.8532166e+08
1.6024756e+08
1.3930857e+08
1.2180233e+08
1.0714086e+08
94833828
84470179
75715833
68301818
62030540
56940703
52356992
48385165
44979964
42052926
39529794
37470448
35638771
34021266
32635477
31451664
30445267
29595753
28885852
28300981
27828799
27458686
27194128
27005696
26894193
26856884
26889435
26988344
27150895
27375136
27660381
3.114061e+09
3.4639459e+09
2.5793768e+09
1.8463046e+09
1.3885792e+09
1.1090496e+09
9.0711503e+08
7.5959121e+08
6.4437672e+08
5.4917837e+08
4.6748542e+08
3.9585613e+08
3.4172819e+08
2.9148957e+08
2.4872286e+08
2.1296213e+08
1.8316988e+08
1.5836929e+08
1.3770024e+08
1.2043757e+08
1.0598828e+08
93863235
83651362
75022311
67710200
61576489
56524131
51983187
48068702
44709438
41821185
39333253
37298823
35480618
33883836
32515146
31345766
30351714
29512855
28812211
28235430
27770419
27406985
27147766
26963929
26856937
26823677
26859871
26962066
27127575
27354417
27641991
1.1993568e+10
6.4392378e+09
3.687577e+09
2.3876495e+09
1.6876611e+09
1.2668924e+09
1.0030141e+09
8.1375893e+08
6.7207017e+08
5.6145699e+08
4.7118711e+08
3.9516919e+08
3.3844721e+08
2.8801669e+08
2.451382e+08
2.0962813e+08
1.802166e+08
1.55823e+08
1.3553681e+08
1.1861033e+08
1.0444972e+08
92570885
82562640
74100890
66912933
60991599
55960101
51489336
47649542
44350601
41513318
39073119
37069838
35271213
33701615
32355491
31205220
30227544
29402832
28714485
28148445
27692930
27338561
27086374
26908666
26807659
26779779
26820820
26927395
27096863
27327240
27618005
1.8654264e+10
7.8030631e+09
4.3089448e+09
2.7558092e+09
1.9135038e+09
1.3968879e+09
1.0718038e+09
8.539671e+08
6.921551e+08
5.6869228e+08
4.7149085e+08
3.9231394e+08
3.3306639e+08
2.8316678e+08
2.4052154e+08
2.0549513e+08
1.7663176e+08
1.5277209e+08
1.3296647e+08
1.164501e+08
1.0263643e+08
91052337
81285248
73022588
66020253
60271981
55286089
50914595
47159616
43930430
41151815
38769907
36799511
35026357
33488222
32168360
31040406
30081890
29273753
28599823
28046364
27601884
27258500
27014367
26843903
26749916
26728352
26775090
26886820
27060958
27295542
27590127
1.3138067e+09
5.0535907e+09
3.9411464e+09
2.7436711e+09
1.9671386e+09
1.4565699e+09
1.1076546e+09
8.6646283e+08
6.9917255e+08
5.6824674e+08
4.6708127e+08
3.8689784e+08
3.2536581e+08
2.7671934e+08
2.3490145e+08
2.006314e+08
1.7249529e+08
1.492963e+08
1.3006319e+08
1.1402192e+08
1.0060444e+08
89356415
79860446
71819511
65050006
59443983
54534693
50276941
46615038
43462675
40747450
38435115
36495455
34754070
33250521
31959713
30856535
29919330
29129647
28471784
27932335
27499948
27169384
26933864
26771572
26685418
26670907
26724012
26841506
27020874
27260205
27559113
18463974
1.5921992e+09
2.6293975e+09
2.3374974e+09
1.8252664e+09
1.4069277e+09
1.0932676e+09
8.5339671e+08
6.8665236e+08
5.5794263e+08
4.5636123e+08
3.7703495e+08
3.1545651e+08
2.6775752e+08
2.2776733e+08
1.9461217e+08
1.6746348e+08
1.4511794e+08
1.2660198e+08
1.1113954e+08
98198502
87356319
78181543
70394897
63935642
58438677
53654814
49528884
45975113
42912271
40267143
38047533
36132033
34434146
32970476
31713635
30639531
29727379
28959421
28320493
27797565
27378954
27064646
26838484
26686033
26609134
26602957
26663590
26787905
26973468
27218436
27522496
238712.36
2.8378421e+08
1.2485569e+09
1.6274552e+09
1.5041144e+09
1.248607e+09
1.0107159e+09
8.0954502e+08
6.5214206e+08
5.3271374e+08
4.3780464e+08
3.6198358e+08
3.0280135e+08
2.5625614e+08
2.1864925e+08
1.8731968e+08
1.6145914e+08
1.401867e+08
1.2255051e+08
1.0777755e+08
95397309
85039319
76237977
68793258
62605618
57255249
52642837
48665534
45235397
42275677
39722164
37586431
35708475
34063617
32645663
31427917
30387374
29504198
28761400
28144433
27640758
27239139
26941696
26726893
26586347
26520201
26523722
26593121
26725381
26918168
27169723
27479811
5378.3272
36516096
4.3913794e+08
9.2010381e+08
1.0759294e+09
1.0101696e+09
8.6992297e+08
7.2620813e+08
5.9876108e+08
4.932085e+08
4.0938168e+08
3.4124925e+08
2.8633598e+08
2.4285127e+08
2.0740148e+08
1.7855308e+08
1.5442531e+08
1.3446603e+08
1.1788769e+08
1.0391669e+08
92181770
82397804
74014895
67008197
61034134
55907310
51492580
47682320
44391809
41548200
39107952
37048196
35223624
33639782
32273676
31100356
30098039
29247925
28533877
27942042
27460481
27078918
26799443
26598209
26471485
26417708
26432374
26511850
26653253
26854359
27113508
27430555
249.8698
4179211.1
1.2310187e+08
4.2924058e+08
6.6622014e+08
7.3493034e+08
6.9544597e+08
6.1240752e+08
5.2520535e+08
4.4273733e+08
3.7201653e+08
3.1418965e+08
2.66005e+08
2.2688382e+08
1.9476627e+08
1.6831311e+08
1.4612026e+08
1.2794028e+08
1.1260992e+08
99546745
88534815
79433691
71575341
64919798
59256970
54392864
50199321
46575321
43440942
40723734
38424335
36427110
34676269
33160188
31852187
30728783
29769512
28956695
28275127
27711720
27255196
26896847
26636710
26451400
26340407
26300696
26328035
26418977
26570790
26781377
27049192
27374183
22.604529
494643.58
29745989
1.70406e+08
3.5995832e+08
4.8023304e+08
5.1174741e+08
4.8590689e+08
4.3724936e+08
3.8222598e+08
3.2878548e+08
2.820211e+08
2.4154991e+08
2.0848695e+08
1.8036349e+08
1.5680707e+08
1.3704279e+08
1.2055457e+08
1.0659705e+08
94670006
84561111
76087232
68801918
62588750
57279855
52708423
48759595
45341495
42380659
39817588
37643145
35727434
34063556
32622480
31378972
30311104
29399825
28628663
27983428
27451856
27023249
26691668
26452188
26285349
26192033
26168160
26209781
26313653
26477216
26698514
26976126
27310107
3.500605
66431.883
6651064.9
59725986
1.7239166e+08
2.8315519e+08
3.4644201e+08
3.6124224e+08
3.4548578e+08
3.1549702e+08
2.8080754e+08
2.4633611e+08
2.1485533e+08
1.875703e+08
1.6442135e+08
1.4412429e+08
1.270187e+08
1.1244983e+08
1.0001563e+08
89307816
80165904
72420397
65746167
60017855
55102763
50853157
47171387
43978763
41207057
38828548
36758163
34951569
33383214
32024515
30851969
29845338
28987085
28262032
27657082
27160859
26762788
26462436
26244370
26098884
26025239
26019053
26076639
26194981
26371703
26605008
26893615
27237692
0.815312
10591.453
1459143.4
19180557
74658823
1.5202275e+08
2.1636846e+08
2.5103555e+08
2.5885801e+08
2.4915589e+08
2.3071356e+08
2.0881407e+08
1.8637173e+08
1.6559891e+08
1.470693e+08
1.3039391e+08
1.1620949e+08
1.0370724e+08
92920855
83499296
75382474
68445271
62420886
57214132
52730293
48829945
45434056
42486529
39943400
37717662
35782437
34097531
32633380
31364446
30269342
29329670
28529517
27855083
27294442
26837245
26474213
26205498
26012026
25890732
25838858
25852281
25927591
26062012
26253372
26500048
26800909
27156251
0.25680451
2030.5211
328302.39
5841623.6
29874095
75212353
1.2536791e+08
1.6340236e+08
1.8351299e+08
1.8815689e+08
1.8245149e+08
1.7117767e+08
1.5735348e+08
1.4290402e+08
1.2908828e+08
1.1618806e+08
1.046314e+08
94446693
85401504
77302236
70253019
64189628
58845764
54189114
50172509
46647402
43547321
40893552
38545355
36500169
34717948
33164295
31812736
30640822
29629550
28762507
28025509
27406215
26893936
26479370
26155746
25919498
25754183
25659599
25631683
25666710
25761571
25913749
26121292
26382765
26697204
27065045
0.10099066
465.33644
78090.913
1738585.3
11282662
34753068
67905543
1.0000195e+08
1.2324692e+08
1.3563452e+08
1.3885317e+08
1.3573632e+08
1.2895247e+08
1.2035185e+08
1.1099285e+08
1.0166876e+08
92878789
84819452
77471819
70792134
64829516
59697951
55048446
50958361
47445746
44311233
41548819
39149624
37034563
35183343
33565004
32151657
30920622
29852687
28931436
28142543
27473666
26913994
26454128
26085433
25806237
25602878
25469674
25404201
25402485
25461170
25577471
25749146
25974478
26252235
26581636
26963276
0.046801281
125.56201
20001.93
518210.07
4102799.4
15206794
34686986
57835457
78606462
93400516
1.0154244e+08
1.0408297e+08
1.0261476e+08
98685130
93347380
87252596
81055727
75056731
69376286
64080341
59251443
54959700
51064430
47591315
44543198
41822122
39410933
37290619
35417519
33770310
32325256
31060404
29957162
28999689
28174314
27468835
26872868
26377194
25973846
25656176
25421194
25255118
25157118
25123247
25150014
25234462
25374144
25567110
25811893
26107476
26453276
26850081
0.024528068
39.156061
5567.6091
157633.43
1462162.8
6387014.1
16866688
31798668
47774888
61540684
71384210
77079409
79251745
78812995
76634450
73352653
69466808
65371403
61262718
57279526
53535363
50099680
46940386
44076803
41514740
39211322
37153187
35324716
33701151
32265883
31001813
29892468
28923388
28082188
27358070
26740877
26222332
25794827
25451855
25190179
24999334
24875339
24815224
24815455
24873016
24985365
25150410
25366506
25632447
25947445
26311127
26724508
0.014121584
13.851023
1688.397
49600.037
518427.37
2607718.6
7880973.7
16728844
27783383
38888214
48291528
55136809
59341441
61266863
61423628
60321830
58391169
55981918
53291653
50513919
47784648
45180421
42729734
40459862
38386683
36499641
34794809
33263973
31894693
30676758
29599377
28651074
27821370
27101360
26483271
25958678
25521679
25166194
24889752
24682474
24541117
24462296
24442757
24479579
24570248
24712650
24905063
25146158
25435002
25771041
26154124
26585486
0.0087451638
5.4646645
556.92464
16286.807
185112.11
1046763.6
3570722
8477285.8
15530590
23634824
31486894
38120520
43077344
46314711
48029812
48520473
48105838
47069320
45624011
43911232
42103653
40275099
38491777
36788570
35192360
33713056
32357110
31123765
30009845
29011647
28124369
27340880
26654341
26059288
25551293
25122840
24771018
24493846
24282310
24133892
24045831
24014936
24038575
24114426
24240489
24415089
24636882
24904862
25218374
25577106
25981157
0.0057391323
2.369364
199.06667
5609.7568
67188.404
417166.46
1582049.8
4165180.3
8384423.8
13859753
19825677
25499192
30326156
34040695
36609163
38143340
38825385
38849314
38397270
37589184
36595392
35461379
34289804
33113963
31970115
30881629
29864219
28922486
28060795
27281321
26585015
25968091
25426797
24959004
24564477
24234600
23974042
23772859
23630655
23544754
23512748
23532369
23601657
23718885
23882570
24091478
24344643
24641390
24981338
25364426
25791150
0.0039468737
1.1147842
76.737656
2032.2243
24958.385
166403.99
690655.73
1996705.5
4392525.3
7868720.3
12081959
16523890
20716803
24328021
27193498
29286798
30671468
31456006
31753039
31678523
31343488
30815245
30188592
29488798
28761497
28038426
27343037
26681219
26064102
25498531
24991374
24540551
24144604
23804428
23526403
23298704
23126371
23005896
22935934
22914944
22941415
23013908
23131135
23291956
23495392
23740648
24027137
24354505
24722645
25131724
25582724
0.0028203937
0.56308211
31.736596
775.22448
9536.264
66873.489
299046.9
939302.39
2243487.2
4340124.7
7143391
10389277
13744964
16912529
19685186
21957067
23705554
24963592
25793338
26258383
26446050
26419864
26245299
25961891
25609409
25218186
24822846
24423242
24038472
23677748
23355320
23067817
22815112
22604247
22438395
22313942
22232979
22194756
22198855
22244718
22331696
22459115
22626335
22832779
23077956
23361498
23683185
24042977
24441033
24877748
25354526
0.0020801339
0.30256687
14.007256
311.39915
3762.2339
27225.23
129168.97
435908.92
1122059.7
2333733.7
4108087.8
6349205.1
8867164.9
11444290
13890778
16073567
17920821
19411601
20560143
21401479
21972021
22328988
22522802
22587281
22557272
22462206
22329637
22171735
22004467
21839888
21689569
21557060
21445834
21361591
21308073
21285772
21296622
21341406
21420683
21534776
21683824
21867849
22086816
22340672
22629393
22953012
23311660
23705601
24135245
24601224
0.0015757007
0.17163167
6.5636899
131.60701
1536.8252
11281.942
55953.813
200570.75
551926.14
1227702.9
2304339.2
3779302.8
5570262.8
7544891.3
9559851.9
11491353
13250692
14786599
16079583
17133496
17967531
18596490
19072097
19409408
19644712
19799675
19897875
19954102
19983383
19998255
20009581
20024048
20047222
20084821
20141256
20219115
20320929
20448517
20603287
20786325
20998455
21240315
21512412
21815174
22148999
22514294
22911517
23341213
23804037
24301031
0.0012211536
0.10210742
3.2495494
58.437451
651.20851
4777.7671
24427.483
91951.017
268190.54
634246.91
1264561.5
2196242.8
3413254
4852056.8
6421706.7
8026721.8
9584342.1
11033361
12335748
13473891
14445991
15260817
15924294
16470478
16907712
17263899
17555954
17795676
17997187
18172216
18331050
18481530
18630222
18783083
18945025
19119736
19310381
19519505
19749187
20001125
20276715
20577109
20903280
21256078
21636271
22044600
22481815
22948712
23446161
23975611
0.00096516512
0.063358306
1.6919995
27.211956
286.55072
2074.4478
10794.731
42198.815
129310.71
323028.92
681136.38
1249273.1
2044256.6
3048251.6
4214774.6
5481564.1
6784105.1
8065709.3
9282888.6
10406720
11421604
12322693
13113538
13790383
14380301
14885514
15330546
15720662
16067582
16381029
16670343
16943310
17206655
17466348
17727489
17994278
18270293
18558544
18861574
19181532
19520243
19879266
20259948
20663482
21090950
21543373
22021753
22527105
23060489
23623683
0.00077509449
0.040807596
0.92268837
13.261156
130.99672
925.79893
4847.2706
19471.598
62136.419
162843.34
361344.72
697553.47
1199392.2
1874073.1
2706355.3
3663246.3
4702067.3
5778584.6
6853133.2
7894100.8
8879090.9
9794478.8
10634164
11397355
12075506
12688498
13250396
13751080
14215173
14643397
15043950
15423737
15788981
16145291
16497609
16850202
17206780
17570561
17944334
18330522
18731230
19148300
19583348
20037827
20513057
21010281
21530703
22075517
22645952
23244010
0.0006317096
0.027170794
0.52494345
6.748252
62.210629
425.48711
2218.9963
9069.8348
29881.053
81578.46
189473.32
383497.39
691090.16
1129800.9
1702760.5
2398414.7
3193805.1
4059595.2
4965067.2
5881987.6
6786965.2
7662433.7
8496612.2
9282655.7
10017702
10690489
11321349
11913627
12458737
12976855
13467923
13937214
14389977
14831091
15264999
15695680
16126690
16561200
17002034
17451704
17912443
18386236
18874864
19379936
19902935
20445256
21008245
21593230
22201569
22835408
0.00052170436
0.01863805
0.31048711
3.5776403
30.676391
201.64128
1038.4043
4280.0322
14437.535
40771.395
98556.848
208256.02
392134.18
669371.72
1051617.1
1540577.5
2128171.9
2798694.9
3531957.3
4306427.3
5101746.2
5900375.2
6688398.6
7455622.5
8195311
8903807.3
9569155.8
10207466
10821196
11398617
11957301
12497706
13022367
13535151
14039709
14539443
15037496
15536762
16039894
16549316
17067230
17595637
18136355
18691056
19261290
19848531
20454204
21079713
21726498
22396780
0.00043574517
0.013128934
0.19030669
1.9715195
15.693924
98.61512
497.81514
2052.5776
7034.1786
20405.272
51039.527
112075.97
219740.32
390699.98
638810.1
972406.8
1392951.4
1895224.4
2468704.7
3099543
3772573.8
4472992.4
5187525.5
5905083.4
6617021.4
7317155.8
8001644.3
8656961.2
9298724
9927103.9
10528459
11118245
11698424
12268780
12831969
13390592
13947166
14504111
15063728
15628190
16199524
16779608
17370186
17972881
18589224
19220684
19868693
20534670
21220078
21927155
0.00036723894
0.0094710175
0.12052284
1.1267346
8.3213351
49.789396
244.89611
1003.0178
3467.1956
10262.996
26408.384
59972.258
121972.41
225248.74
382523.83
604248.45
896895.23
1262144.2
1696994.3
2194624.8
2745638.2
3339367.2
3965012.7
4612496.1
5273016.8
5939358.5
6605973.8
7268758.1
7913845.8
8556877.1
9195381.5
9814788
10429553
11042851
11651902
12258368
12863987
13470549
14079860
14693706
15313806
15941798
16579231
17227583
17888269
18562669
19252148
19958072
20681868
21425725
0.00031245768
0.006982037
0.078656202
0.6663406
4.5672715
25.951193
123.77296
500.52299
1733.9671
5204.412
13698.19
32014.129
67269.397
128621.73
226334.98
370394.06
569059.73
827748.91
1148489.9
1529954
1967973.7
2456323.4
2987577.5
3553895.8
4147660.2
4761932.3
5390723.9
6029071.7
6673039.2
7308631.2
7951851.3
8597285.8
9231352.7
9867459.3
10509236
11151911
11796367
12443666
13095016
13751713
14415069
15086371
15766878
16457819
17160406
17875849
18605367
19350206
20111689
20891894
0.00026789131
0.0052489719
0.052768859
0.40691023
2.591402
13.959456
64.318438
255.50588
882.01942
2668.8223
7145.8374
17103.167
36974.849
72949.439
132661.26
224463.87
356445.96
535438.98
766246.04
1051242.6
1390344.2
1781301.6
2220186.7
2701958.2
3221011.5
3771650.7
4348448.6
4946477.8
5561440.7
6189655
6816879.1
7458848.4
8110725.3
8757650.3
9413002.2
10080005
10752626
11431165
12116180
12808428
13508741
14217974
14937006
15666735
16408088
17162024
17929546
18711709
19509664
20325317
0.00023120405
0.0040158972
0.036311721
0.25605612
1.517749
7.7450541
34.378407
133.6014
457.28826
1387.565
3759.9754
9172.3206
20315.761
41211.519
77226.239
134793.77
220866.55
342211.08
504706.3
712788.64
969126.71
1274565.7
1628258.1
2027969.3
2470446.9
2951804.5
3467870.4
4014477.6
4587689.1
5183920.5
5799578.6
6416201.4
7060291.9
7718645.3
8377285.2
9050820.6
9740767
10440674
11150444
11870313
12600599
13341667
14093951
14857950
15634235
16423449
17226307
18043605
18876263
19725947
0.00020084686
0.0031208069
0.025575905
0.16571176
0.91622169
4.4288396
18.902141
71.623713
242.04863
733.07939
2000.8137
4952.0662
11190.623
23255.458
44767.123
80404.332
135674.79
216505.3
328729.78
477577.59
667254.94
900674.62
1179369.8
1503536.1
1872209.4
2283504.2
2734880.7
3223413.7
3746066.6
4300075
4884151.6
5478243.6
6095741.5
6742343.6
7407019.2
8077001.4
8768260.5
9479550.4
10204825
10943931
11696657
12462850
13242455
14035528
14842234
15662839
16497716
17347342
18212342
19094082
0.0001754962
0.0024619511
0.018405254
0.11008819
0.56921325
2.6077195
10.688729
39.390139
130.9712
394.30433
1079.2666
2698.5426
6196.6335
13143.94
25909.961
47757.284
82807.837
135862.61
212095.4
316673.7
454374.13
629254.59
844425.18
1101929.5
1402759.2
1746918.1
2133585
2561298.4
3028166.1
3532075.8
4070733.2
4639673.2
5226148.1
5844251.3
6492690.5
7164534.5
7845996.4
8554711
9286070.9
10035779
10803040
11587161
12387594
13203934
14035907
14883370
15746303
16624815
17519181
18430412
0.00015407268
0.0019678969
0.013508265
0.074940998
0.36337461
1.5793464
6.2136241
22.228804
72.512716
216.25038
591.31438
1487.7153
3458.0729
7460.1568
15010.674
28314.81
50331.153
84740.396
135807.14
208149.74
306453.79
435174.95
598274
799015.75
1039847.7
1322351.3
1647299.6
2014708
2423975.7
2874000
3363179.3
3889041.1
4449050.6
5030090.8
5649373.8
6302102.1
6982099
7675240.6
8400402.3
9152118.9
9925840.2
10720365
11534692
12367968
13219483
14088659
14975059
15878384
16798517
17736060
0.00013560822
0.0015913224
0.010095796
0.052185
0.23800149
0.98275194
3.7110619
12.871721
41.103625
121.07045
329.60799
831.4612
1949.3164
4262.2974
8726.1957
16797.471
30534.237
52645.585
86467.623
135859.2
205027.3
298306.29
419922.15
573772.84
763248.94
991109.32
1259416.4
1569515.8
1922111.5
2317272
2754496.4
3232652.3
3749892.8
4303510.4
4879946.1
5504848.7
6163228.2
6852422.4
7554261.4
8298835
9070987
9868230.8
10689214
11532691
12397533
13282735
14187430
15110889
16052571
17012632
0.00012025045
0.0013015804
0.0076728911
0.037116807
0.15969732
0.62753015
2.2753629
7.6461269
23.862089
69.254028
187.17414
471.89656
1112.1896
2456.8207
5102.0093
9993.8522
18530.913
32646.667
54850.768
88213.522
136288.09
202976.65
292356.91
408490.72
555237.88
736094.16
954066.84
1211594.1
1510507.1
1852011.6
2236760.8
2664794.6
3135630.6
3649222.6
4190207.1
4774669.1
5404306.6
6072627.3
6759072.1
7481372.9
8244127.2
9036398.9
9856654.9
10703326
11574909
12469995
13387295
14325647
15284069
16262243
0.00010660261
0.0010749293
0.0059205005
0.026921462
0.10961746
0.4106836
1.4309177
4.6573342
14.188012
40.496501
108.3941
272.36577
643.40095
1431.5137
3006.5551
5976.2193
11274.743
20250.308
34735.375
57084.031
90164.354
137300.95
202171.25
288666.46
400732.94
542211.17
716687.76
927372.37
1177006.3
1467803.9
1801423
2178950.4
2600842.1
3067096.2
3576083.1
4114797.4
4705707.6
5340864
6013807.8
6710942.6
7450507.9
8230234.9
9042411.2
9885160.7
10756660
11655143
12578928
13526437
14496248
15487553
9.5082826e-05
0.00089534429
0.0046337563
0.019884636
0.076860094
0.27511523
0.92206772
2.9071116
8.6386401
24.214706
64.060807
160.04723
377.94317
844.61631
1789.1132
3599.1489
6891.3992
12589.859
22002.448
36883.384
59468.771
92475.712
139060.36
202736.53
287262.24
396505.45
534302.26
704320.26
909937.5
1154144.1
1439469.8
1767938
2141051.5
2559931.3
3025978.9
3525512.2
4069917.9
4667992.9
5309090.6
5991150.7
6696785.3
7454625.9
8251656.1
9083437.1
9947943.5
10843123
11766955
12717479
13692852
14691784
8.4846945e-05
0.00075294673
0.0036738035
0.014937407
0.054976197
0.18841079
0.60819563
1.8582154
5.3842432
14.806471
38.654988
95.829789
225.69819
505.36175
1076.9053
2186.988
4239.6206
7860.3716
13966.998
23838.349
39171.402
62116.183
95280.336
141698.93
204769.74
288158.78
395684.45
531190.55
698418.78
900890.22
1141803.2
1423952.9
1749677.9
2120840.7
2538706.2
3002525.8
3500828.1
4053920.6
4658603.2
5310325
5990137.3
6714222.8
7489301.3
8303269.6
9153937.9
10039040
10956287
11903390
12878120
13880085
7.6046619e-05
0.00063700909
0.002947227
0.01139797
0.04006239
0.13174689
0.41018888
1.215291
3.43351
9.2569694
23.819966
58.501088
137.14695
307.00825
656.62318
1342.984
2629.7857
4937.179
8901.279
15439.038
25811.604
41677.687
65128.263
98695.411
145330.92
208353.95
291370.8
398172.92
532621.36
698526.75
899533.6
1139017.1
1420000.5
1745105.9
2116572.2
2536641.9
2994306.7
3498111.9
4061261.7
4672846.3
5329902.1
6018820.9
6760119.8
7549890.9
8380175.1
9248602
10152697
11089912
12057685
13053837
6.8416164e-05
0.00054286544
0.0023908781
0.0088248874
0.029704871
0.093949617
0.28256122
0.8125083
2.2387869
5.9155223
14.990163
36.424348
84.858185
189.54904
406.05093
834.61379
1647.2635
3124.9574
5704.9778
10036.864
17043
27977.914
44479.011
68601.183
102828.8
150060.78
213567.41
296920.59
403902.3
538397.74
704281.3
905303.45
1144986.1
1426531.6
1752733.4
2125778
2546082.9
3004016.5
3518568.3
4088091.8
4706278.5
5371198.1
6068376.6
6827160.3
7630635.6
8475779.8
9359995.7
10280542
11234586
12219569
6.1510156e-05
0.00046570353
0.0019586001
0.0069236973
0.022387592
0.068242645
0.19858291
0.55479125
1.4915478
3.8621434
9.6323856
23.133956
53.486959
119.0246
254.91732
525.5468
1043.3942
1996.1096
3682.865
6559.9699
11294.118
18819.763
30395.383
47652.183
72628.524
107784.07
155989.43
220489.5
304841.34
412830.2
548369.16
715389.35
917728.2
1159023.3
1442621.3
1771541.1
2148769.1
2565556.9
3030079.5
3555391.8
4131866.7
4759776.3
5422124.9
6139305.8
6910403.3
7726225
8584258.1
9481670
10415426
11382655
5.5377888e-05
0.00040195333
0.0016200737
0.0054995688
0.017128934
0.050433624
0.14223942
0.38651983
1.0145536
2.5747609
6.3182457
14.987564
34.352814
76.054716
162.59647
335.64592
669.09571
1288.4663
2398.087
4316.9297
7522.9406
12704.285
20814.287
33125.312
51275.784
77304.178
113664.41
163218.42
229203.9
315177.44
424935.64
562419.05
731604.66
936393.39
1180496.9
1467317.1
1799731.7
2179110.6
2597757.1
3073818.7
3605582.9
4188991.7
4822336.7
5491434.7
6223636.9
7004630.2
7830636.5
8698778.2
9605898.2
10548891
5.0038028e-05
0.00034838662
0.0013512902
0.0044195528
0.01328965
0.037883795
0.10372841
0.27449975
0.7040055
1.7516554
4.228858
9.903058
22.484408
49.470193
105.43227
217.5945
434.82783
841.41989
1577.0534
2864.2385
5043.8865
8618.7557
14303.203
23076.211
36233.303
55431.963
82724.855
120575.54
171852.64
239800.05
327983.17
440213.16
580452.98
752710.58
960925.65
1208859.9
1500027.4
1837889
2215539.7
2642412.8
3128575.8
3667193.9
4259101.5
4888360.7
5573631
6315247.6
7104058.7
7937310.4
8811829.6
9724393.3
4.5275495e-05
0.00030359189
0.00113644
0.0035903476
0.010449425
0.028894373
0.076938948
0.19853914
0.49795606
1.2152958
2.8867641
6.6719989
14.996689
32.762736
69.530629
143.28242
286.6163
556.46846
1048.639
1918.4267
3408.4518
5884.1913
9876.8428
16131.936
25660.781
39790.596
60208.261
88992.309
128628.11
182002.2
252373.47
343320.56
458667.16
602388.27
778501.66
990948.17
1243456.4
1539326.2
1880628.5
2261538.7
2699559.5
3191843.9
3736408.5
4331748.6
4964837.4
5662037.3
6409163.6
7202562.7
8039064.7
4.0873812e-05
0.00026584873
0.00096100338
0.0029449258
0.0083173753
0.022356478
0.057993241
0.14611918
0.35873988
0.8593132
2.0088387
4.5819991
10.191929
22.094271
46.650309
95.882745
191.75434
373.02353
705.74285
1298.6045
2324.3197
4047.959
6862.6233
11331.937
18237.737
28630.094
43875.665
65699.549
96215.499
137939.64
193783.81
267026.04
361257.55
480307.19
628146.19
808777.41
1026118.5
1283912.7
1585846
1926519.8
2317047.7
2763403.2
3261747
3812887.8
4400948.9
5047868.6
5750045.4
6499550.4
7293596.8
3.7058788e-05
0.00023337911
0.000819592
0.0024386789
0.0066975678
0.01753384
0.044382522
0.10933741
0.26304127
0.6188453
1.4243261
3.2064151
7.0565913
15.172428
31.849778
65.23367
130.29003
253.64949
481.17947
889.32175
1601.3298
2809.4782
4804.0263
8009.1426
13025.15
20675.374
32054.744
48576.209
72010.322
104513.02
148636.96
207322.62
283866.69
381866.9
505143.79
657641.41
843309.32
1065963.4
1329074.9
1635120.8
1979800
2380271.5
2832400
3337112.2
3881693.7
4475985.5
5130508.4
5832824.5
6580449.8
3.3655558e-05
0.00020588731
0.00070389503
0.0020369199
0.0054519581
0.013931764
0.034463277
0.083126246
0.19617451
0.4536561
1.0284925
2.2856424
4.9766508
10.609793
22.131422
45.138018
89.956015
175.08017
332.64154
616.76219
1115.8028
1969.5655
3392.4103
5702.9118
9360.0989
15005.475
23508.993
36016.077
53991.805
79257.707
114016.38
160859.46
222755.27
303013.78
405227.81
533191.29
690797.96
881928.59
1110345.4
1379652.7
1684873.7
2040266
2446757.8
2902922.9
3408151.5
3951625.4
4553630.8
5206394.5
5904700.9
3.0631816e-05
0.00018225395
0.00060757581
0.0017161901
0.0044860082
0.011206926
0.027135985
0.064173939
0.14872616
0.33835446
0.75605683
1.6592148
3.5745737
7.5551207
15.654526
31.776126
63.142598
122.75366
233.35057
433.57728
787.19206
1396.3007
2419.5952
4096.4325
6777.2177
10959.949
17331.94
26814.758
40609.378
60237.683
87575.838
124874.91
174764.45
240235.54
324601.13
431433.15
564479.55
727572.23
924558.75
1159355.7
1428851.2
1741697.4
2104772.3
2515479.4
2975101.1
3472678.8
4021357.5
4623510.1
5270777.6
2.7846112e-05
0.00016204667
0.00052767494
0.001457501
0.0037281286
0.0091215486
0.021658171
0.050283308
0.11457379
0.25666515
0.56564977
1.2263793
2.6147522
5.4788876
11.274441
22.76723
45.083512
87.482704
166.25059
309.25951
562.90055
1002.2334
1745.2806
2972.3622
4951.1648
8067.8342
12863.739
20076.725
30684.719
45948.592
67450.389
97122.527
137263.5
190535.97
259943.99
348787.25
460591.68
599017.25
767738.69
970254.54
1209376.3
1482720.7
1804069.7
2170954.6
2583644.5
3041312.5
3536115.6
4086958.6
4682468.2
2.5365265e-05
0.00014493986
0.00046121921
0.0012480526
0.0031298485
0.0075112279
0.017516839
0.039980252
0.089668362
0.19798326
0.43064893
0.92291398
1.9479878
4.0470783
8.2701667
16.610028
32.762632
63.419876
120.39974
224.04307
408.44941
729.26702
1274.8665
2181.768
3655.1129
5994.7183
9626.8
15140.787
23329.823
35232.619
52173.465
75796.47
108089.72
151395.08
208399.7
282106.32
375780.52
492875.32
636935.86
811491.55
1019971.1
1259553.1
1541947.6
1867962.4
2237415.2
2651136.4
3099221.6
3598411.2
4142643.2
2.3248162e-05
0.00012974313
0.00040557669
0.0010776993
0.0026531984
0.0062591648
0.014353823
0.032253035
0.071288682
0.1552911
0.33366871
0.70725381
1.4784233
3.0460983
6.1816452
12.34651
24.250824
46.808441
88.722699
165.03934
301.12703
538.67997
944.4613
1622.5876
2731.1523
4503.852
7276.9739
11521.605
17880.234
27206.102
40602.763
59460.547
85485.984
120720
167540.85
228648.28
307026.97
405889.44
528603.15
678612.91
859371.91
1068843.7
1315826.9
1604296.4
1933454.9
2304660.6
2708957.8
3158579.7
3653159.9
2.1237048e-05
0.00011682272
0.000359295
0.00093905817
0.0022730699
0.0052771282
0.01192089
0.026407625
0.057588312
0.12389152
0.2631805
0.55212122
1.1436059
2.337502
4.711564
9.3580349
18.300732
35.211325
66.605641
123.78456
225.88888
404.55765
710.80164
1224.8033
2069.3994
3427.9491
5567.1005
8864.6057
13841.791
21199.585
31856.196
46983.716
68040.216
96793.443
135332.08
186060.95
251677.44
335128.89
439555.33
568233.31
724566.67
907653.77
1122961.6
1377351
1669404
2000850.8
2364801.1