/*--------------------------------*- C++ -*----------------------------------*\
| =========                 |                                                 |
| \\      /  F ield         | OpenFOAM: The Open Source CFD Toolbox           |
|  \\    /   O peration     | Version:  2312                                  |
|   \\  /    A nd           | Website:  www.openfoam.com                      |
|    \\/     M anipulation  |                                                 |
\*---------------------------------------------------------------------------*/
FoamFile
{
    version     2.0;
    format      ascii;
    arch        "LSB;label=32;scalar=64";
    class       volScalarField;
    location    "0.02";
    object      T;
}
// * * * * * * * * * * * * * * * * * * * * * * * * * * * * * * * * * * * * * //

dimensions      [0 0 0 1 0 0 0];

internalField   nonuniform List<scalar> 
3275
(
998.60145
988.03238
970.39793
948.57233
924.81914
901.24995
878.36484
856.49353
835.82801
816.52151
798.6212
782.0617
769.08136
755.94875
744.16063
733.586
724.09582
715.56394
707.87829
700.94536
694.68838
689.04316
683.95391
679.37376
675.26333
671.5846
668.50151
665.64048
663.08391
660.86806
658.97071
657.37143
656.13004
655.12295
654.34385
653.81697
653.53114
653.47644
653.64385
654.02498
654.61205
655.39791
656.3765
657.48666
658.80367
660.31216
661.9837
663.81248
665.79231
667.91707
670.1809
672.57881
997.92365
984.52423
966.01037
944.10374
920.7539
897.91514
875.64293
854.27386
834.00594
815.02237
797.38627
781.04077
768.19012
755.21176
743.53545
733.05046
723.63352
715.16202
707.52655
700.63553
694.41392
688.79889
683.73541
679.1774
675.08681
671.43133
668.35997
665.50656
662.96317
660.75856
658.87119
657.28112
656.04731
655.04515
654.2726
653.75145
653.4707
653.42056
653.59206
653.97687
654.56723
655.35592
656.33674
657.44881
658.76893
660.27954
661.95296
663.78337
665.76466
667.89066
670.15537
672.55376
995.66013
976.44902
956.51886
934.78472
912.44956
891.24219
870.21392
849.8599
830.37996
812.0391
794.92898
779.00986
766.40958
753.7467
742.28994
731.98303
722.71186
714.36065
706.82519
700.01772
693.86666
688.31196
683.29998
678.78612
674.7345
671.12785
668.07762
665.24071
662.72364
660.54149
658.67415
657.10267
655.88395
654.89202
654.13264
653.62305
653.35262
653.31175
653.49162
653.884
654.48116
655.27576
656.26127
657.37788
658.70443
660.21918
661.89638
663.73017
665.71448
667.84314
670.10988
672.50981
989.44458
960.68223
940.73435
920.12725
899.74181
881.36242
862.27324
843.32408
825.00536
807.61561
791.28414
775.99871
763.75073
751.57066
740.43514
730.39204
721.33724
713.16483
705.77823
699.09506
693.04905
687.58443
682.64929
678.20114
674.20532
670.67867
667.65285
664.84414
662.36611
660.21738
658.37995
656.83653
655.63997
654.66397
653.92423
653.43197
653.17704
653.15013
653.34262
653.74642
654.35389
655.15753
656.15004
657.27391
658.6101
660.13105
661.81391
663.65282
665.64172
667.77443
670.0445
672.44715
969.48708
933.34286
915.00647
899.56009
883.59349
867.56664
851.61023
834.76101
817.96075
801.81383
786.50028
772.05335
760.23078
748.70274
737.98603
728.2893
719.51878
711.58172
704.3914
697.87203
691.96461
686.61929
681.7858
677.42458
673.49616
670.09292
667.08193
664.3188
661.89179
659.78709
657.98917
656.48359
655.31546
654.36164
653.64785
653.1786
652.94431
652.93601
653.14532
653.56439
654.18572
655.00164
656.00304
657.1372
658.48611
660.01531
661.70573
663.55148
665.54653
667.6847
669.95944
672.36603
890.62002
884.76578
881.56878
874.73583
865.1248
852.7754
838.96392
824.72425
809.852
795.12753
780.97883
767.52053
756.12544
745.36342
735.13587
725.83977
717.39775
709.73339
702.77104
696.44166
690.69518
685.48936
680.77437
676.51548
672.68787
669.38569
666.40406
663.70483
661.33599
659.28237
657.53025
656.07042
654.93372
654.00735
653.32381
652.88151
652.67143
652.68501
652.91413
653.35118
653.98892
654.81973
655.83051
656.97783
658.34145
659.88036
661.57967
663.43349
665.43581
667.58047
669.86084
672.2723
736.75785
823.60473
844.01066
847.70431
844.09576
836.23831
825.59622
813.41811
800.94962
787.79759
774.9132
762.58883
751.58485
741.63442
731.98183
723.12621
715.04495
707.68112
700.9707
694.85068
689.28179
684.23134
679.64751
675.50138
671.80018
668.58125
665.6471
663.0211
660.71631
658.71911
657.01692
655.61104
654.50611
653.61218
652.9622
652.54989
652.36684
652.40485
652.65612
653.11328
653.76947
654.61772
655.63703
656.80081
658.18035
659.73014
661.43942
663.30229
665.31276
667.4647
669.7515
672.16858
600.70216
750.83302
798.85214
815.87846
819.79556
816.99405
810.28001
800.73448
790.46989
779.34684
767.88491
756.7722
746.48611
737.208
728.30371
719.95247
712.28823
705.27372
698.85734
692.98036
687.61797
682.75092
678.32013
674.30181
670.76931
667.61412
664.75641
662.21554
659.98542
658.05415
656.40786
655.07299
653.99831
653.14595
652.53515
652.15816
652.00701
652.07388
652.35131
652.83226
653.51029
654.38093
655.40623
656.59304
657.99029
659.55298
661.2741
663.1477
665.16784
667.32844
669.62291
672.04675
507.48536
678.34419
749.9763
780.55984
792.85822
795.63959
792.97279
786.79748
778.62935
769.55892
759.89222
750.09645
740.7965
732.13674
724.02124
716.30356
709.11214
702.49654
696.41783
690.81727
685.69009
681.03729
676.78191
672.93543
669.55023
666.47912
663.72549
661.28102
659.13667
657.28151
655.70649
654.44004
653.40642
652.60388
652.03841
651.70238
651.58827
651.68869
651.99656
652.50515
653.20834
654.10187
655.1399
656.35383
657.76905
659.347
661.08195
662.96808
664.99952
667.17024
669.47371
671.90552
447.6429
613.31134
700.4236
743.17928
763.81236
772.46208
774.05649
771.28671
765.78201
758.66155
750.81935
742.57783
734.37442
726.57826
719.12229
712.13634
705.50303
699.33648
693.64103
688.34869
683.48402
679.08099
675.01946
671.39383
668.12286
665.17908
662.54577
660.21019
658.16328
656.39432
654.90641
653.70648
652.72626
651.98121
651.46758
651.17845
651.10682
651.24577
651.5886
652.12892
652.8608
653.77877
654.83559
656.07995
657.51467
659.1102
660.86111
662.7617
664.80617
666.98857
669.30247
671.74351
409.05786
558.79191
652.8551
705.11813
733.38698
747.80296
753.80353
754.45474
751.76404
746.90394
740.7883
734.15236
727.22632
720.40414
713.77739
707.45077
701.38482
695.78216
690.5187
685.56275
680.98417
676.87556
673.05746
669.60616
666.50083
663.70702
661.20898
658.99561
657.0585
655.38454
654.00345
652.86525
651.95344
651.27312
650.81816
650.58219
650.55877
650.74148
651.12404
651.70046
652.46494
653.40903
654.49097
655.76846
657.22496
658.84052
660.60965
662.52674
664.58609
666.78185
669.10766
671.55928
383.51324
514.77835
609.12857
667.67674
702.36121
722.13055
732.43856
736.57911
736.67267
734.19948
730.02013
724.93081
719.27587
713.61534
707.88059
702.28181
696.88833
691.80263
686.99408
682.44867
678.22553
674.38266
670.82824
667.59639
664.67993
662.05422
659.70687
657.62978
655.81575
654.25655
652.97637
651.91459
651.08247
650.47468
650.08554
649.90931
649.94012
650.1721
650.59942
651.21654
652.0183
652.98914
654.10398
655.41651
656.89758
658.53579
660.32554
662.2613
664.3375
666.54838
668.88771
671.35133
366.04049
479.81846
570.20476
631.92165
671.49022
695.94
710.28416
717.81887
720.74699
720.59942
718.44959
714.98781
710.73416
706.13287
701.4391
696.6188
691.93662
687.42002
683.10782
678.99843
675.15328
671.6188
668.34613
665.35604
662.65135
660.21247
658.03111
656.10507
654.42648
653.00522
651.81691
650.85145
650.10799
649.58089
649.26507
649.15544
649.24678
649.5338
650.01116
650.67382
651.51905
652.51405
653.6734
655.02113
656.53007
658.19376
660.00668
661.96341
664.05854
666.28642
668.64095
671.11808
353.67762
452.12093
536.30662
598.60297
641.43967
669.71806
687.67884
698.41165
704.09913
706.29868
706.11869
704.3676
701.54797
698.13736
694.41217
690.4407
686.53612
682.62865
678.85379
675.20543
671.76269
668.57374
665.60373
662.87684
660.40726
658.17463
656.17302
654.41399
652.89888
651.60097
650.52736
649.66996
649.02458
648.5867
648.35199
648.31615
648.4746
648.82269
649.35558
650.06855
650.9578
651.9876
653.19637
654.57961
656.11992
657.81209
659.65086
661.63101
663.74726
665.99412
668.36565
670.85789
344.63673
430.05904
507.17654
568.14663
612.73984
643.91029
664.95795
678.60172
686.9013
691.38655
693.17976
693.10326
691.76186
689.57769
686.87931
683.82606
680.63463
677.42475
674.23046
671.06422
668.04809
665.24087
662.59415
660.1505
657.94104
655.93609
654.12227
652.56582
651.19955
650.04645
649.10322
648.36445
647.82687
647.48706
647.34159
647.38697
647.61939
648.03482
648.62899
649.39761
650.33155
651.40805
652.66803
654.08945
655.66458
657.38838
659.25584
661.26196
663.40164
665.66957
668.05999
670.56906
337.81717
412.31714
482.3115
540.70181
585.76522
618.89536
642.4355
658.6318
669.33557
675.99376
679.70813
681.30868
681.40818
680.48976
678.85463
676.73648
674.34145
671.80561
669.19909
666.57002
664.00266
661.61788
659.3113
657.16807
655.24751
653.48236
651.89641
650.52232
649.33352
648.33911
647.53855
646.92934
646.50956
646.27697
646.2291
646.36346
646.67692
647.16619
647.82757
648.65874
649.63478
650.77473
652.08406
653.54783
655.16142
656.92013
658.81926
660.85404
663.01959
665.31079
667.72208
670.24982
332.52616
397.88379
461.12717
516.21398
560.73804
594.96934
620.38884
638.73238
651.58372
660.25957
665.80686
669.03956
670.5809
670.90072
670.36119
669.19178
667.61711
665.78723
663.79927
661.72729
659.65543
657.67079
655.74974
653.94742
652.30638
650.80548
649.4621
648.29418
647.29597
646.47329
645.82771
645.3592
645.06745
644.95148
645.00982
645.24115
645.643
646.21278
646.94708
647.84116
648.87517
650.08112
651.44165
652.95193
654.60776
656.40482
658.33873
660.40498
662.59893
664.91569
667.34994
669.89832
328.31733
385.99726
443.05188
494.49871
537.74884
572.34097
599.04801
619.11225
633.82023
644.32345
651.58445
656.37938
659.3204
660.88479
661.42169
661.21496
660.47806
659.37835
658.0335
656.53759
654.97677
653.42737
651.90693
650.46128
649.12702
647.90716
646.81826
645.87505
645.08141
644.44365
643.96534
643.64879
643.49552
643.50582
643.67914
644.0157
644.51345
645.17068
645.98426
646.94009
648.0526
649.3213
650.7378
652.29888
654.00086
655.83984
657.81177
659.91242
662.13741
664.48211
666.94149
669.51257
324.89693
376.08948
427.57042
475.30232
516.78557
551.13617
578.59035
599.9513
616.20603
628.3204
637.14993
643.41374
647.69765
650.46927
652.09202
652.8337
652.94099
652.59161
651.90827
651.00556
649.97222
648.88427
647.78138
646.7092
645.7039
644.78195
643.96192
643.25978
642.68485
642.24523
641.94643
641.79315
641.78896
641.93538
642.2325
642.68287
643.28425
644.03613
644.92633
645.96706
647.15714
648.4923
649.96946
651.58575
653.33795
655.22255
657.23585
659.37394
661.63272
664.00782
666.49454
669.09041
322.06673
367.73874
414.24347
458.34544
497.76404
531.40909
559.14018
581.3961
598.88356
612.37672
622.6096
630.2291
635.78146
639.71498
642.38868
644.09031
645.03809
645.43922
645.43357
645.13876
644.64788
644.04198
643.37316
642.69103
642.03378
641.42622
640.88992
640.44411
640.10193
639.87363
639.76642
639.78763
639.94323
640.23589
640.66542
641.23865
641.95144
642.79613
643.78415
644.9147
646.18383
647.59084
649.13358
650.80963
652.61621
654.55024
656.60839
658.78707
661.08247
663.4905
666.00684
319.68929
360.6292
402.70853
443.35267
480.5549
513.15637
540.77266
563.55828
581.97328
596.60645
608.06404
616.91031
623.64134
628.67726
632.36614
634.99475
636.79931
637.95176
638.62434
638.94686
639.01132
638.90413
638.68407
638.40766
638.11534
637.83786
637.59969
637.4247
637.32902
637.32512
637.42124
637.62788
637.95408
638.40358
638.97333
639.6794
640.50171
641.46163
642.55277
643.77553
645.12938
646.61372
648.22708
649.96755
651.83281
653.82021
655.92678
658.14929
660.48421
662.92773
665.47613
317.66677
354.52163
392.67086
430.07215
465.00557
496.33203
523.52033
546.51555
565.57205
581.10882
593.60556
603.53844
611.34589
617.41336
622.07132
625.59866
628.22867
630.15378
631.50763
632.44357
633.0734
633.47722
633.71776
633.86146
633.94904
634.01639
634.08945
634.19914
634.36329
634.59689
634.90745
635.30985
635.81756
636.43572
637.15105
637.99257
638.94859
640.02563
641.22449
642.54603
643.99051
645.55777
647.24692
649.05657
650.98491
653.0297
655.18837
657.45803
659.83546
662.31706
664.90008
315.92786
349.23265
383.89089
418.28344
450.96157
480.86261
507.38114
530.31463
549.75299
565.96666
579.31617
590.18923
598.96251
605.98187
611.55363
615.94299
619.37613
622.04309
624.10167
625.65795
626.84796
627.76609
628.48304
629.05749
629.53702
629.96321
630.35829
630.76609
631.20276
631.68739
632.2223
632.82963
633.52971
634.32027
635.20134
636.18838
637.28064
638.48246
639.79601
641.2229
642.76406
644.41989
646.19008
648.07379
650.06968
652.17597
654.3905
656.71072
659.1337
661.65614
664.27621
314.41933
344.61999
376.17355
407.79493
438.27788
466.66478
492.33079
514.97724
534.56766
551.24709
565.26818
576.93371
586.55766
594.44215
600.86442
606.07129
610.27789
613.66863
616.39965
618.60274
620.35984
621.79312
622.98562
624.00086
624.88263
625.67492
626.41129
627.12728
627.8461
628.58743
629.36322
630.19206
631.09036
632.06346
633.11616
634.25871
635.49484
636.82895
638.26422
639.80301
641.44697
643.19707
645.05362
647.01631
649.08431
651.25629
653.53049
655.90474
658.3764
660.94251
313.10067
340.57197
369.35948
398.44103
426.81988
453.65358
478.33479
500.51063
520.05314
537.00572
551.52652
563.83923
574.19615
582.85361
590.05638
596.02916
600.97267
605.06267
608.4508
611.26682
613.62042
615.56841
617.25603
618.69996
619.99215
621.16081
622.24682
623.2822
624.29407
625.3042
626.32964
627.3884
628.49598
629.66181
630.89368
632.20057
633.58836
635.06221
636.62619
638.28344
640.03632
641.88644
643.83469
645.88133
648.02603
650.26793
652.60569
655.03749
657.56103
660.174
311.94049
336.99987
363.31788
390.07917
416.46404
441.74397
465.35179
486.91257
506.23704
523.29
538.1498
550.96881
561.94047
571.27504
579.18286
585.8638
591.5014
596.26006
600.2845
603.70058
606.61651
609.12447
611.27526
613.18605
614.87579
616.42518
617.86963
619.2336
620.54832
621.83748
623.12132
624.41856
625.74517
627.11306
628.53211
630.0116
631.55876
633.17968
634.87927
636.66149
638.5294
640.48525
642.53056
644.66613
646.89215
649.20823
651.61345
654.10636
656.68495
659.34775
310.91403
333.83246
357.94085
382.58678
407.09804
430.85235
453.33484
474.17171
493.13716
510.13859
525.18962
538.3804
549.84999
559.76387
568.29723
575.62345
581.90668
587.2978
591.93246
595.9308
599.39799
602.42562
605.09537
607.43579
609.56077
611.48276
613.28622
614.98562
616.61173
618.18858
619.73904
621.28298
622.83735
624.41588
626.03007
627.69001
629.40403
631.17914
633.02112
634.93471
636.92368
638.99095
641.13863
643.36809
645.68004
648.07457
650.55118
653.1088
655.74574
658.46128
310.00152
331.01191
353.13888
375.85855
398.6205
420.89794
442.23302
462.26856
480.76181
497.58107
512.68993
526.1262
537.98023
548.37536
557.45217
565.3567
572.23235
578.21466
583.42846
587.98647
591.9892
595.52554
598.67413
601.50181
604.02411
606.34306
608.52795
610.54345
612.48867
614.36027
616.18464
617.98279
619.7728
621.56983
623.38674
625.23456
627.12262
629.05881
631.04976
633.10097
635.21693
637.40119
639.65649
641.98475
644.3872
646.86441
649.41632
652.04225
654.74089
657.51211
309.18691
328.49084
348.83718
369.80389
390.94043
411.80374
431.99291
451.17683
469.11038
485.63801
500.6867
514.25199
526.3821
537.1619
546.69889
555.11193
562.52286
569.05071
574.80799
579.8986
584.41691
588.44766
592.06635
595.33874
598.3218
601.02049
603.55159
605.94695
608.18551
610.3566
612.46111
614.52006
616.55267
618.57532
620.60198
622.64465
624.71354
626.81739
628.96362
631.15848
633.40716
635.71386
638.0819
640.51378
643.01124
645.57532
648.20641
650.90422
653.66786
656.49767
308.45709
326.23004
344.97298
364.34474
383.97648
403.49725
422.5601
440.86488
458.17432
474.3213
489.20775
502.79672
515.10125
526.17221
536.08645
544.93655
552.82273
559.84678
566.10787
571.69989
576.70983
581.21718
585.29364
589.00294
592.40141
595.53915
598.41607
601.1386
603.74027
606.18942
608.57261
610.89786
613.17904
615.43358
617.6764
619.92032
622.17637
624.45406
626.76155
629.10582
631.49273
633.92712
636.41288
638.95307
641.54993
644.20497
646.91903
649.69224
652.52411
655.41539
307.80118
324.19679
341.49316
359.41365
377.65607
395.91083
413.88033
431.29712
447.93838
463.63477
478.27293
491.79222
504.17756
515.45073
525.66102
534.87636
543.17588
550.64395
557.36579
563.42435
568.89832
573.86095
578.37939
582.51443
586.32069
589.84732
593.13901
596.18333
599.09172
601.88954
604.53765
607.12028
609.65492
612.14674
614.61138
617.06235
619.51135
621.96858
624.44292
626.94201
629.47237
632.03944
634.64769
637.30069
640.00119
642.75117
645.55188
648.4039
651.30713
654.2627
307.21008
322.36354
338.35259
354.95219
371.91454
388.98182
405.90046
422.43527
438.38176
453.57507
467.89443
481.26316
493.64475
505.03702
515.46522
524.97483
533.62498
541.48296
548.61977
555.1069
561.01397
566.40723
571.34856
575.89495
580.09844
584.00634
587.66149
591.10156
594.30693
597.39452
600.37767
603.21259
605.98431
608.71783
611.40914
614.07224
616.71937
619.36133
622.00761
624.66651
627.34518
630.04963
632.78486
635.55497
638.36316
641.21187
644.10279
647.03689
650.01448
653.03706
306.67612
320.70695
335.5126
350.90956
366.69431
382.65249
398.56915
414.23956
429.47935
444.13264
458.07736
471.22718
483.53021
494.96535
505.53759
515.27253
524.21089
532.4036
539.90765
546.78282
553.08921
558.88545
564.22748
569.16783
573.7552
578.03442
582.04641
585.82792
589.41188
592.77162
596.03042
599.18615
602.1981
605.15075
608.07275
610.95232
613.80208
616.6333
619.45607
622.27929
625.11071
627.95687
630.82328
633.71449
636.63418
639.58521
642.56969
645.58898
648.64379
651.73597
306.19278
319.20706
332.93997
347.24142
361.94411
376.86992
391.83735
406.66963
421.20278
435.29269
448.82043
461.69523
473.85498
485.26441
495.91206
505.80651
514.97196
523.44414
531.26654
538.48735
545.1569
551.32581
557.04359
562.35769
567.31291
571.95106
576.3108
580.42745
584.33307
588.05619
591.56225
594.97756
598.29985
601.48005
604.60615
607.70573
610.76188
613.78623
616.78936
619.78084
622.76895
625.76073
628.76213
631.77814
634.81285
637.86954
640.9507
644.05809
647.19278
650.35696
305.75447
317.84674
330.6059
343.90898
357.61824
371.58574
385.65865
399.68533
413.5215
427.03623
440.11679
452.67202
464.63389
475.95718
486.6177
496.60987
505.94357
514.64075
522.73229
530.2551
537.24984
543.75892
549.82505
555.49018
560.79469
565.77694
570.47293
574.91615
579.1376
583.16561
587.02329
590.6463
594.225
597.70622
601.04448
604.33653
607.60202
610.82256
614.00918
617.17218
620.32038
623.46121
626.60099
629.74511
632.89802
636.0634
639.24411
642.44225
645.65927
648.89768
305.35637
316.61113
328.48539
340.87816
353.67592
366.7558
379.98941
393.24728
406.4036
419.34101
431.95488
444.15665
455.87589
467.06098
477.67842
487.71137
497.15762
506.02703
514.33891
522.11963
529.40038
536.21541
542.60045
548.59162
554.22455
559.53373
564.55212
569.31099
573.84004
578.16865
582.33237
586.24141
590.03201
593.76213
597.39075
600.87703
604.32667
607.74562
611.11787
614.45494
617.766
621.05876
624.33984
627.61493
630.88885
634.1656
637.4484
640.73967
644.04121
647.35582
304.99429
315.48735
326.55657
338.11893
350.08073
362.33994
374.78887
387.31738
399.81655
412.18235
424.31925
436.14333
447.58447
458.58765
469.11301
479.13519
488.64217
497.63346
506.11816
514.11287
521.63989
528.72546
535.39835
541.68871
547.62713
553.24392
558.56864
563.6298
568.45474
573.06968
577.49842
581.74744
585.7727
589.70964
593.57144
597.33864
600.96272
604.55974
608.11839
611.63125
615.10731
618.5543
621.97905
625.38751
628.78479
632.1752
635.56226
638.94872
642.33668
645.7292
304.66459
314.46409
324.80025
335.60471
346.80008
358.30162
370.01908
381.8591
393.72786
405.53397
417.19137
428.62206
439.75823
450.54383
460.93517
470.90083
480.42115
489.48714
498.09903
506.26476
513.99833
521.31841
528.24696
534.80815
541.02738
546.93057
552.54358
557.8918
562.99983
567.8911
572.58654
577.10115
581.45151
585.58065
589.64908
593.63918
597.53508
601.28518
605.01385
608.70375
612.34636
615.94927
619.51946
623.06313
626.58564
630.09155
633.58467
637.068
640.54393
644.01576
304.36406
313.53144
323.19952
333.31195
343.80479
354.60762
365.64491
376.83769
388.1055
399.36863
410.55039
421.57937
432.39147
442.93141
453.15373
463.02311
472.51426
481.61143
490.30748
498.60275
506.50383
514.02232
521.17371
527.97628
534.45026
540.61706
546.49863
552.11703
557.494
562.65057
567.60637
572.37861
576.98153
581.41744
585.63661
589.84451
593.95176
597.96567
601.81223
605.67563
609.48578
613.2456
616.96236
620.64248
624.29154
627.91432
631.51482
635.0963
638.66139
642.2136
304.08988
312.68066
321.73941
331.21969
341.06865
351.22777
361.63388
372.22031
382.9183
393.65872
404.37381
414.99904
425.47481
435.748
445.77299
455.51233
464.9369
474.02584
482.76607
491.15154
499.18231
506.86361
514.20486
521.21876
527.92043
534.32676
540.45573
546.32592
551.95608
557.3648
562.57003
567.5887
572.43648
577.13387
581.5867
585.96155
590.27966
594.51091
598.55664
602.551
606.52894
610.44579
614.3095
618.12668
621.90304
625.64349
629.35223
633.03269
636.68772
640.321
303.83956
311.90399
320.40665
329.30926
338.56814
348.13468
357.95608
367.97612
378.13623
388.37672
398.63813
408.86271
418.99588
428.98751
438.79311
448.37449
457.70025
466.74593
475.49386
483.93277
492.05718
499.86669
507.3652
514.56016
521.46186
528.08273
534.43677
540.53902
546.40518
552.05116
557.49277
562.74536
567.82307
572.739
577.49747
582.01865
586.51434
590.92712
595.23122
599.37159
603.48014
607.55284
611.5631
615.51727
619.42106
623.27946
627.09676
630.87655
634.62184
638.33646
303.61089
311.19455
319.18939
327.56394
336.28209
345.30348
354.58399
364.07629
373.73059
383.49555
393.31929
403.15055
412.93987
422.64072
432.21056
441.61164
450.81151
459.78339
468.50631
476.96489
485.14909
493.05367
500.67766
508.02372
515.09758
521.90742
528.46334
534.77687
540.86057
546.72761
552.39149
557.86576
563.16387
568.3005
573.2972
578.04086
582.67396
587.27289
591.76285
596.1502
600.35589
604.56985
608.72581
612.81627
616.847
620.823
624.74863
628.62758
632.46298
636.25877
303.40189
310.54622
318.07711
325.96878
334.19144
342.71158
351.49235
360.49397
369.67417
378.98894
388.39319
397.84174
407.29017
416.69581
426.0187
435.22229
444.27412
453.14619
461.8153
470.26305
478.47576
486.44418
494.16311
501.63098
508.84933
515.82237
522.55644
529.05966
535.34144
541.41219
547.28298
552.96528
558.47083
563.81156
568.99805
574.02564
578.80523
583.54983
588.22457
592.8045
597.18529
601.50185
605.80112
610.02635
614.18282
618.27543
622.30854
626.28591
630.21075
634.08706
303.21079
309.9535
317.0604
324.51039
332.27901
340.33848
348.65803
357.20425
365.94132
374.83158
383.83602
392.91498
402.02887
411.13898
420.20821
429.20186
438.08815
446.83879
455.42928
463.83912
472.05191
480.05517
487.84016
495.40163
502.7374
509.848
516.73629
523.40708
529.86674
536.1229
542.18412
548.05973
553.75957
559.29409
564.67473
569.91793
574.90693
579.76511
584.60986
589.34251
593.95712
598.38889
602.79336
607.15102
611.43118
615.63864
619.77771
623.85216
627.86522
631.82089
303.03599
309.41144
316.13076
323.17675
330.52933
338.16559
346.05986
354.18409
362.50797
370.99934
379.62453
388.34887
397.13729
405.95492
414.76772
423.54314
432.25071
440.86248
449.35344
457.70184
465.8893
473.90089
481.72502
489.35331
496.78034
504.00338
511.02207
517.83811
524.45495
530.87749
537.11181
543.16495
549.04467
554.75928
560.31717
565.72494
570.97549
575.97336
580.9348
585.82568
590.59641
595.2468
599.71322
604.19523
608.59567
612.91527
617.15803
621.32755
625.42702
629.46036
302.8761
308.91564
315.28059
321.95701
328.92845
336.17605
343.67851
351.41226
359.3517
367.46939
375.73631
384.12229
392.59637
401.12733
409.68421
418.23684
426.75638
435.21575
443.59007
451.85695
459.99681
467.9929
475.83144
483.50151
490.99493
498.30611
505.43181
512.37086
519.12397
525.69343
532.08287
538.29704
544.34161
550.22297
555.94819
561.52538
566.9679
572.156
577.21138
582.25411
587.17718
591.99175
596.59869
601.16301
605.68033
610.10863
614.45205
618.714
622.89747
627.00625
302.72983
308.46213
314.50306
320.8414
327.46377
334.35463
341.49637
348.86927
356.45169
364.22024
372.14997
380.21464
388.38704
396.63935
404.94358
413.27202
421.59768
429.8947
438.13879
446.30752
454.38062
462.34019
470.17081
477.85957
485.39604
492.77219
499.98224
507.02246
513.89103
520.58776
527.11394
533.47209
539.66578
545.69941
551.57801
557.30677
562.88924
568.31672
573.4913
578.63368
583.69581
588.63651
593.45387
598.07087
602.6903
607.22281
611.66319
616.01426
620.27872
624.46019
302.59604
308.04736
313.79204
319.82116
326.12389
332.68751
339.49744
346.53726
353.7887
361.23184
368.84523
376.6061
384.49057
392.47394
400.53105
408.63659
416.76553
424.89349
432.99707
441.05422
449.0445
456.94934
464.75221
472.43873
479.99668
487.41601
494.68877
501.809
508.77256
515.57702
522.22143
528.7062
535.03285
541.2039
547.22264
553.09309
558.82049
564.41499
569.75455
574.97735
580.17171
585.24315
590.20269
594.94352
599.62955
604.26249
608.79579
613.23213
617.57397
621.82486
302.4737
307.66815
313.14204
318.88841
324.89858
331.1622
337.66721
344.39995
351.34507
358.48559
365.80309
373.27781
380.88882
388.61426
396.43154
404.31772
412.24972
420.20475
428.16054
436.09572
443.99007
451.82477
459.58264
467.24825
474.80804
482.25037
489.56548
496.74547
503.7842
510.67717
517.42143
524.01535
530.45854
536.75165
542.89618
548.89424
554.74818
560.45891
566.01694
571.32597
576.61155
581.79989
586.86275
591.7937
596.51491
601.23462
605.85563
610.37271
614.78765
302.3619
307.32162
312.54814
318.0361
323.77866
329.76744
335.99255
342.44258
349.10465
355.96437
363.00587
370.21201
377.56447
385.04389
392.63009
400.30227
408.03933
415.82006
423.62349
431.42912
439.21722
446.96908
454.66723
462.29561
469.83969
477.28662
484.62518
491.84587
498.9408
505.90369
512.72973
519.41546
525.9587
532.35834
538.6142
544.72686
550.69766
556.52915
562.22853
567.67311
573.02746
578.32677
583.49996
588.55316
593.36828
598.14413
602.84937
607.44281
611.92735
302.25982
307.00523
312.00593
317.25794
322.75591
328.49317
334.46162
340.65179
347.05282
353.65252
360.43728
367.3922
374.50121
381.7472
389.11211
396.57719
404.12315
411.7304
419.37927
427.05031
434.72446
442.38339
450.00962
457.58679
465.09977
472.53479
479.87956
487.12325
494.25654
501.27157
508.16191
514.92246
521.54939
528.03994
534.39235
540.60563
546.67936
552.61334
558.40617
564.04777
569.44503
574.83272
580.10602
585.26197
590.18952
595.00415
599.78697
604.4508
608.99894
302.16673
306.7167
311.51152
316.54832
321.82304
327.33041
333.06386
339.01556
345.17637
351.53589
358.08247
364.80318
371.6839
378.70945
385.86373
393.1298
400.49008
407.9265
415.42075
422.95445
430.50937
438.06771
445.61225
453.12657
460.59523
468.00388
475.3394
482.58995
489.74502
496.79546
503.73344
510.55239
517.24699
523.81302
530.24724
536.54731
542.71162
548.73935
554.63075
560.38838
565.87876
571.32621
576.68506
581.91131
586.99536
591.85401
596.68028
601.40735
606.01292
302.08197
306.45404
311.06145
315.90229
320.97359
326.27123
331.78994
337.52324
343.46348
349.60178
355.92809
362.4312
369.0987
375.91712
382.87202
389.94814
397.12944
404.39931
411.74072
419.13639
426.56901
434.02141
441.47681
448.91894
456.33226
463.70211
471.01481
478.25776
485.41955
492.48993
499.45989
506.32162
513.06847
519.69488
526.19631
532.56916
538.81071
544.91941
550.89572
556.7448
562.34044
567.8304
573.26882
578.57339
583.74752
588.68646
593.54064
598.32515
602.98224
302.00499
306.21548
310.6527
315.31554
320.20191
325.30868
330.63164
336.16548
341.90377
347.83893
353.96228
360.26401
366.73323
373.35795
380.12523
387.02124
394.03137
401.14033
408.33231
415.59112
422.90037
430.24363
437.60464
444.96744
452.3166
459.63733
466.91561
474.13833
481.29337
488.36965
495.35719
502.2471
509.03158
515.70389
522.25828
528.6899
534.99469
541.16927
547.2106
553.11441
558.86849
564.37939
569.8722
575.2404
580.46695
585.53737
590.39259
595.22216
599.9237
301.9353
305.99952
310.28269
314.78434
319.50314
324.43676
329.5819
334.93419
340.48825
346.23759
352.17469
358.29091
364.57664
371.02123
377.61299
384.33939
391.18708
398.14197
405.18939
412.31418
419.50085
426.73376
433.99722
441.27571
448.55402
455.81739
463.05168
470.24344
477.38006
484.4498
491.44192
498.34664
505.1552
511.85981
518.45367
524.93083
531.28617
537.51531
543.61459
549.58113
555.41372
560.9843
566.51212
571.93755
577.22237
582.3656
587.26629
592.11845
596.85764
301.87249
305.80489
309.94921
314.30556
318.87317
323.65043
328.63474
333.82255
339.20933
344.78953
350.55656
356.50283
362.61977
368.89784
375.32654
381.8944
388.58919
395.39792
402.30694
409.30206
416.36867
423.49188
430.65663
437.84788
445.05076
452.25068
459.43346
466.58551
473.6939
480.74642
487.73173
494.63934
501.45969
508.18412
514.8049
521.31518
527.70897
533.98117
540.12777
546.14618
552.03571
557.66498
563.21545
568.69146
574.02687
579.22306
584.17139
589.0366
593.80784
301.81623
305.63054
309.65049
313.87661
318.30865
322.94554
327.78528
332.82499
338.06083
343.48801
349.10078
354.8924
360.85518
366.98051
373.25886
379.67979
386.232
392.90346
399.68146
406.55269
413.50335
420.51928
427.58606
434.68918
441.81412
448.94655
456.07241
463.17807
470.25039
477.27689
484.24575
491.14596
497.96728
504.70036
511.33665
517.86849
524.28907
530.59252
536.77419
542.8313
548.76486
554.45473
560.01475
565.5312
570.90579
576.14218
581.14021
586.00848
590.80517
301.76625
305.47566
309.38511
313.4955
317.80697
322.31888
327.02974
331.93718
337.03796
342.32791
347.80195
353.45406
359.27731
365.26384
371.40496
377.69109
384.11179
390.65583
397.31134
404.0658
410.90617
417.81896
424.79037
431.8064
438.85295
445.91598
452.98163
460.03631
467.06682
474.06048
481.00518
487.88947
494.70264
501.43469
508.07642
514.61943
521.05602
527.37926
533.5828
539.66058
545.6054
551.4041
556.96302
562.49081
567.88716
573.13543
578.22635
583.0842
587.88811
301.72236
305.33966
309.15208
313.16079
317.36626
321.76817
326.36544
331.15611