/*--------------------------------*- C++ -*----------------------------------*\
| =========                 |                                                 |
| \\      /  F ield         | OpenFOAM: The Open Source CFD Toolbox           |
|  \\    /   O peration     | Version:  2312                                  |
|   \\  /    A nd           | Website:  www.openfoam.com                      |
|    \\/     M anipulation  |                                                 |
\*---------------------------------------------------------------------------*/
FoamFile
{
    version     2.0;
    format      ascii;
    arch        "LSB;label=32;scalar=64";
    class       volScalarField;
    location    "0.08";
    object      CH4;
}
// * * * * * * * * * * * * * * * * * * * * * * * * * * * * * * * * * * * * * //

dimensions      [0 0 0 0 0 0 0];

internalField   nonuniform List<scalar> 
3250
(
0.030240345
0.029762854
0.029279546
0.028791159
0.028298339
0.027801724
0.027301953
0.026799654
0.026295448
0.025789945
0.025283738
0.024777411
0.024271529
0.02376664
0.023263276
0.022761949
0.02226315
0.021767352
0.021275004
0.020786534
0.020302349
0.019822832
0.019348344
0.018879222
0.018415783
0.017958318
0.017507098
0.017062372
0.016624367
0.016193287
0.015769319
0.015352628
0.01494336
0.014541644
0.014147589
0.01376129
0.013382823
0.01301225
0.012649621
0.012294969
0.011948317
0.011609674
0.011279039
0.010956393
0.030362076
0.029881212
0.02939456
0.028902856
0.028406748
0.02790688
0.027403893
0.026898418
0.026391079
0.025882487
0.025373241
0.024863924
0.024355103
0.023847331
0.023341139
0.022837042
0.022335533
0.021837084
0.021342148
0.020851152
0.020364505
0.01988259
0.019405769
0.01893438
0.018468737
0.018009135
0.017555843
0.017109108
0.016669159
0.016236199
0.015810414
0.015391969
0.014981008
0.014577658
0.01418203
0.013794214
0.013414288
0.013042312
0.012678333
0.012322385
0.011974488
0.011634655
0.011302891
0.01097917
0.03058911
0.030101991
0.029609135
0.029111282
0.028609085
0.028103192
0.027594248
0.02708289
0.026569747
0.026055434
0.025540553
0.025025693
0.024511425
0.023998304
0.023486865
0.022977627
0.022471085
0.021967714
0.021467969
0.020972279
0.020481054
0.019994679
0.019513516
0.019037905
0.01856816
0.018104574
0.017647418
0.01719694
0.016753364
0.016316896
0.015887718
0.015465995
0.015051869
0.014645467
0.014246895
0.013856244
0.013473587
0.013098983
0.012732477
0.012374098
0.012023866
0.01168179
0.011347876
0.0110221
0.030906548
0.030410724
0.029909238
0.029402833
0.028892168
0.028377895
0.027860668
0.027341129
0.026819913
0.02629764
0.025774921
0.025252347
0.024730497
0.02420993
0.023691186
0.023174787
0.022661234
0.022151004
0.021644554
0.021142319
0.020644708
0.02015211
0.019664887
0.01918338
0.018707905
0.018238754
0.017776199
0.017320485
0.016871838
0.016430461
0.015996535
0.015570223
0.015151666
0.014740986
0.014338289
0.013943662
0.013557176
0.013178887
0.012808836
0.012447049
0.012093542
0.011748323
0.011411393
0.011082727
0.031301007
0.030794412
0.030282247
0.029765261
0.029244118
0.028719479
0.028192003
0.027662341
0.027131135
0.026599014
0.026066593
0.025534472
0.025003235
0.024473448
0.023945658
0.023420389
0.022898149
0.022379419
0.02186466
0.021354309
0.02084878
0.020348462
0.01985372
0.019364897
0.018882308
0.018406247
0.017936985
0.017474767
0.017019817
0.016572338
0.016132508
0.015700488
0.015276416
0.014860414
0.014452582
0.014053005
0.013661751
0.013278871
0.012904402
0.012538368
0.01218078
0.011831641
0.01149095
0.011158679
0.031760422
0.031241324
0.030716764
0.030187496
0.029654191
0.029117519
0.028578147
0.028036736
0.027493934
0.02695038
0.026406697
0.025863492
0.025321356
0.024780863
0.024242565
0.023706994
0.023174661
0.022646053
0.022121637
0.021601853
0.021087117
0.020577822
0.020074335
0.019576999
0.019086133
0.018602029
0.018124959
0.017655167
0.017192877
0.016738288
0.016291578
0.015852906
0.015422407
0.015000198
0.014586378
0.014181027
0.013784209
0.013395971
0.013016347
0.012645354
0.012283001
0.011929285
0.011584201
0.011247717
0.032273922
0.031740881
0.031202502
0.030659541
0.030112678
0.029562591
0.029009959
0.02845545
0.027899722
0.027343422
0.026787183
0.02623162
0.025677332
0.0251249
0.024574884
0.024027822
0.023484231
0.022944605
0.022409413
0.021879101
0.021354089
0.020834772
0.020321521
0.019814681
0.019314569
0.018821481
0.018335687
0.017857431
0.017386936
0.0169244
0.016469999
0.016023888
0.015586199
0.015157048
0.014736528
0.014324715
0.01392167
0.013527435
0.013142038
0.012765494
0.012397803
0.01203896
0.011688954
0.011347749
0.032831724
0.03228355
0.031730191
0.031172383
0.030610819
0.030046188
0.029479179
0.02891047
0.02834073
0.027770614
0.027200763
0.026631802
0.026064339
0.025498963
0.02493624
0.024376717
0.023820917
0.02326934
0.022722459
0.022180726
0.021644565
0.021114374
0.020590526
0.020073368
0.01956322
0.019060378
0.018565111
0.018077664
0.017598257
0.017127088
0.01666433
0.016210135
0.015764633
0.015327935
0.014900131
0.014481294
0.014071477
0.01367072
0.013279045
0.012896461
0.012522964
0.012158542
0.01180318
0.011456836
0.033425114
0.03286078
0.032291488
0.031717903
0.03114072
0.030560641
0.029978362
0.029394572
0.02880995
0.02822516
0.027640854
0.027057665
0.02647621
0.025897086
0.025320867
0.024748108
0.024179339
0.023615065
0.023055766
0.022501898
0.021953889
0.021412142
0.020877031
0.020348906
0.019828089
0.019314876
0.018809536
0.018312315
0.01782343
0.017343078
0.01687143
0.016408635
0.015954821
0.015510093
0.015074538
0.014648223
0.0142312
0.0138235
0.013425141
0.013036126
0.012656445
0.012286082
0.011925016
0.011573197
0.035190373
0.034621392
0.034045891
0.033464815
0.03287888
0.032288799
0.031695285
0.031099053
0.03050081
0.029901254
0.029301075
0.028700947
0.02810153
0.027503469
0.026907388
0.026313892
0.025723566
0.02513697
0.024554642
0.023977093
0.02340481
0.022838252
0.022277854
0.021724021
0.02117713
0.020637535
0.020105557
0.019581495
0.019065617
0.018558168
0.018059366
0.017569405
0.017088453
0.016616658
0.016154141
0.015701007
0.015257338
0.014823195
0.014398625
0.013983655
0.013578296
0.013182547
0.01279639
0.012419804
0.012052761
0.011695207
0.03586702
0.035280234
0.034687225
0.034088792
0.033485652
0.03287853
0.032268152
0.031655242
0.031040518
0.030424688
0.02980845
0.02919249
0.028577477
0.027964064
0.027352886
0.026744557
0.026139669
0.02553879
0.024942465
0.024351212
0.023765524
0.023185867
0.022612677
0.022046364
0.021487311
0.02093587
0.020392368
0.0198571
0.019330339
0.018812327
0.018303281
0.017803393
0.01731283
0.016831735
0.016360229
0.015898409
0.015446355
0.015004123
0.014571755
0.014149271
0.013736679
0.013333968
0.012941118
0.012558099
0.012184879
0.011821396
0.036558527
0.03595365
0.035342719
0.034726525
0.034105792
0.033481251
0.032853638
0.032223686
0.031592123
0.030959665
0.030327022
0.029694887
0.029063942
0.028434847
0.027808248
0.027184765
0.026565001
0.025949531
0.025338907
0.024733655
0.024134272
0.02354123
0.022954971
0.022375908
0.021804427
0.021240882
0.020685602
0.020138885
0.019601
0.019072192
0.018552677
0.018042643
0.017542256
0.017051656
0.01657096
0.016100262
0.015639636
0.015189136
0.014748794
0.014318629
0.013898641
0.013488813
0.01308912
0.012699523
0.012319985
0.01195044
0.037259007
0.036635806
0.036006709
0.035372515
0.034733953
0.034091763
0.03344669
0.032799475
0.032150854
0.031501555
0.030852296
0.030203781
0.0295567
0.028911724
0.028269507
0.027630679
0.02699585
0.026365603
0.025740499
0.025121069
0.024507817
0.023901219
0.023301724
0.022709747
0.022125677
0.021549873
0.020982663
0.020424347
0.019875196
0.019335452
0.01880533
0.018285018
0.017774679
0.01727445
0.016784444
0.016304751
0.015835441
0.015376562
0.014928143
0.014490195
0.014062713
0.013645675
0.013239046
0.012842785
0.012456847
0.012081159
0.037963213
0.037321571
0.0366742
0.036021899
0.035365405
0.034705466
0.034042834
0.03337826
0.032712489
0.032046258
0.031380295
0.030715313
0.030052011
0.029391071
0.028733154
0.028078901
0.027428929
0.026783829
0.026144168
0.025510486
0.024883292
0.024263068
0.023650266
0.023045307
0.022448582
0.021860453
0.021281251
0.020711274
0.020150796
0.019600057
0.019059272
0.018528627
0.018008282
0.017498371
0.016999005
0.016510268
0.016032227
0.015564924
0.015108384
0.014662611
0.014227594
0.013803306
0.013389706
0.012986744
0.01259437
0.012212505
0.038666513
0.038006435
0.037340797
0.036670399
0.035995986
0.035318311
0.034638135
0.033956218
0.033273313
0.032590168
0.031907519
0.031226089
0.030546586
0.029869701
0.029196104
0.028526444
0.027861347
0.027201412
0.026547214
0.025899297
0.025258178
0.024624344
0.023998252
0.023380327
0.022770963
0.022170524
0.021579342
0.02099772
0.020425927
0.019864207
0.019312772
0.018771806
0.018241467
0.017721886
0.01721317
0.016715401
0.016228639
0.015752923
0.015288271
0.014834683
0.014392142
0.013960613
0.013540049
0.013130395
0.012731594
0.012343561
0.039364857
0.038686448
0.038002657
0.037314277
0.036622056
0.035926758
0.035229152
0.034530005
0.03383008
0.033130133
0.03243091
0.031733143
0.031037549
0.030344828
0.029655658
0.028970697
0.02829058
0.027615912
0.026947276
0.026285222
0.025630275
0.024982925
0.024343634
0.023712832
0.023090915
0.022478251
0.021875173
0.021281985
0.020698957
0.020126331
0.019564318
0.019013103
0.018472839
0.017943656
0.017425655
0.016918917
0.016423496
0.015939425
0.015466719
0.015005371
0.014555357
0.014116639
0.013689161
0.013272863
0.012867681
0.012473524
0.040054728
0.039358185
0.038656449
0.037950287
0.037240458
0.036527737
0.035812898
0.03509672
0.034379972
0.033663419
0.032947816
0.032233904
0.031522408
0.030814037
0.030109479
0.029409399
0.028714438
0.028025213
0.02734231
0.026666288
0.025997676
0.02533697
0.024684638
0.024041112
0.023406792
0.022782049
0.022167217
0.0215626
0.02096847
0.020385069
0.019812606
0.019251264
0.018701194
0.018162524
0.017635351
0.017119751
0.016615775
0.016123451
0.015642788
0.015173774
0.01471638
0.01427056
0.013836254
0.013413393
0.013001909
0.012601703
0.040733139
0.040018722
0.03929931
0.038575639
0.037848477
0.037118604
0.036386807
0.035653868
0.034920566
0.034187674
0.033455956
0.032726159
0.03199902
0.031275254
0.030555557
0.029840604
0.029131043
0.028427497
0.027730561
0.027040799
0.026358745
0.025684903
0.025019742
0.0243637
0.023717181
0.023080556
0.022454162
0.021838305
0.021233256
0.020639256
0.020056516
0.019485214
0.018925501
0.0183775
0.017841307
0.017316993
0.016804604
0.016304164
0.015815677
0.015339126
0.014874475
0.014421672
0.013980652
0.013551339
0.013133659
0.012727508
0.042123748
0.041397469
0.040665555
0.0399288
0.039187955
0.038443796
0.037697111
0.03694869
0.036199324
0.035449801
0.034700899
0.033953389
0.03320803
0.032465563
0.031726714
0.030992186
0.030262662
0.029538798
0.028821223
0.028110538
0.027407315
0.026712094
0.026025383
0.025347655
0.024679353
0.024020883
0.023372619
0.0227349
0.022108032
0.021492288
0.020887908
0.0202951
0.019714043
0.019144885
0.018587746
0.018042719
0.017509871
0.016989243
0.016480857
0.015984709
0.015500777
0.01502902
0.014569381
0.014121787
0.013686158
0.013262412
0.01285044
0.042789177
0.042045595
0.04129656
0.040542852
0.039785227
0.039024466
0.038261362
0.037496709
0.036731305
0.035965943
0.035201411
0.034438487
0.033677936
0.032920508
0.032166937
0.031417934
0.030674188
0.029936362
0.029205095
0.028480992
0.027764632
0.02705656
0.026357288
0.025667296
0.024987029
0.024316896
0.023657274
0.023008503
0.02237089
0.021744709
0.021130199
0.020527568
0.019936992
0.019358619
0.018792564
0.018238918
0.017697744
0.017169079
0.016652939
0.016149317
0.015658186
0.015179498
0.014713191
0.014259186
0.013817395
0.013387734
0.012970087
0.043436091
0.042675659
0.041909961
0.041139751
0.040365793
0.039588873
0.038809788
0.03802934
0.037248331
0.03646756
0.035687822
0.034909901
0.034134572
0.033362591
0.032594699
0.031831616
0.031074036
0.030322632
0.029578046
0.028840892
0.028111754
0.027391183
0.026679695
0.025977775
0.02528587
0.024604395
0.023933726
0.023274206
0.022626144
0.021989813
0.021365453
0.020753269
0.020153438
0.019566104
0.01899138
0.018429354
0.017880085
0.017343607
0.01681993
0.016309043
0.015810912
0.015325487
0.014852698
0.014392461
0.013944683
0.013509273
0.013086109
0.044062982
0.043286198
0.042504329
0.041718106
0.0409283
0.040135703
0.039341117
0.038545347
0.037749202
0.036953487
0.036159003
0.035366541
0.034576881
0.033790789
0.033009011
0.032232274
0.031461282
0.030696712
0.029939213
0.029189406
0.028447879
0.027715189
0.026991858
0.026278373
0.025575186
0.024882713
0.024201335
0.023531396
0.022873205
0.022227035
0.021593125
0.020971683
0.020362881
0.019766861
0.019183736
0.018613588
0.018056473
0.017512423
0.016981442
0.016463515
0.015958603
0.01546665
0.014987581
0.014521306
0.014067727
0.013626747
0.01319824
0.045455521
0.04466864
0.043876057
0.043078534
0.042276815
0.041471678
0.040663918
0.039854339
0.039043753
0.038232971
0.037422806
0.036614063
0.035807542
0.035004028
0.034204293
0.033409091
0.032619155
0.031835196
0.031057898
0.030287916
0.029525877
0.028772374
0.02802797
0.02729319
0.026568526
0.025854434
0.025151332
0.024459602
0.023779591
0.023111609
0.02245593
0.021812792
0.021182401
0.020564929
0.019960516
0.019369272
0.018791276
0.018226582
0.017675215
0.017137178
0.016612449
0.016100986
0.015602726
0.01511759
0.014645482
0.014186299
0.013739939
0.013306271
0.046054495
0.045252185
0.044444338
0.043631705
0.042815036
0.041995109
0.041172723
0.040348684
0.039523809
0.038698914
0.037874816
0.037052326
0.036232249
0.035415377
0.034602489
0.033794345
0.032991685
0.032195226
0.031405658
0.030623642
0.02984981
0.029084763
0.028329066
0.027583249
0.026847809
0.026123204
0.025409856
0.024708149
0.024018431
0.023341012
0.022676167
0.022024135
0.02138512
0.020759292
0.020146791
0.019547722
0.018962164
0.018390166
0.01783175
0.017286914
0.016755632
0.016237857
0.015733522
0.015242541
0.014764814
0.014300232
0.013848689
0.013410049
0.046630078
0.045812912
0.04499038
0.044163208
0.043332154
0.042497998
0.041661542
0.040823596
0.039984978
0.03914651
0.038309012
0.037473301
0.036640189
0.035810473
0.034984937
0.034164349
0.033349454
0.032540975
0.031739608
0.030946021
0.030160852
0.029384704
0.028618149
0.027861721
0.02711592
0.026381208
0.025658009
0.024946709
0.024247658
0.023561167
0.022887511
0.022226929
0.021579624
0.020945765
0.020325489
0.019718901
0.019126075
0.018547057
0.017981866
0.017430497
0.016892918
0.016369078
0.015858905
0.015362309
0.014879182
0.014409412
0.013952888
0.013509471
0.047181805
0.046350382
0.04551375
0.044672624
0.043827763
0.042979954
0.042129997
0.041278707
0.040426904
0.039575414
0.038725061
0.037876669
0.037031053
0.036189016
0.035351349
0.034518824
0.033692193
0.032872185
0.032059502
0.031254817
0.030458772
0.029671978
0.028895008
0.028128404
0.027372666
0.02662826
0.025895613
0.025175113
0.024467112
0.023771921
0.023089816
0.022421034
0.02176578
0.02112422
0.02049649
0.019882692
0.019282898
0.018697151
0.018125466
0.017567833
0.017024218
0.016494565
0.015978797
0.015476818
0.014988516
0.014513772
0.014052472
0.013604473
0.048548693
0.047709424
0.046864354
0.046014211
0.045159719
0.044301639
0.043440758
0.042577878
0.041713816
0.040849393
0.03998544
0.039122786
0.038262258
0.037404675
0.036550848
0.035701571
0.034857624
0.034019763
0.033188723
0.032365211
0.031549906
0.030743455
0.029946472
0.029159538
0.028383194
0.027617948
0.026864267
0.02612258
0.025393278
0.024676713
0.023973199
0.023283009
0.022606384
0.021943525
0.021294598
0.020659738
0.020039043
0.019432584
0.0188404
0.018262504
0.017698882
0.017149495
0.016614283
0.016093164
0.015586038
0.015092787
0.014613286
0.014147416
0.013695032
0.049065346
0.048212874
0.047354745
0.046491688
0.045624425
0.044753718
0.043880352
0.04300513
0.042128869
0.041252396
0.040376543
0.039502142
0.038630025
0.037761017
0.036895932
0.03603557
0.035180716
0.034332133
0.033490559
0.032656708
0.031831263
0.031014877
0.030208167
0.029411718
0.028626077
0.027851753
0.027089217
0.0263389
0.025601194
0.024876454
0.024164993
0.023467088
0.022782975
0.022112857
0.021456898
0.020815232
0.020187955
0.019575135
0.018976809
0.018392985
0.017823648
0.017268753
0.016728238
0.016202014
0.015689977
0.015192005
0.014707964
0.01423773
0.013781154
0.049557268
0.0486922
0.047821618
0.04694625
0.046066815
0.045184073
0.044298809
0.043411825
0.042523941
0.041635986
0.040748793
0.0398632
0.038980042
0.038100148
0.037224337
0.036353414
0.03548817
0.03462937
0.033777761
0.03293406
0.032098954
0.031273102
0.030457125
0.029651612
0.028857113
0.02807414
0.027303167
0.026544629
0.025798918
0.02506639
0.02434736
0.023642103
0.022950858
0.022273826
0.02161117
0.020963021
0.020329475
0.019710598
0.019106422
0.018516955
0.017942175
0.017382037
0.016836472
0.016305389
0.015788678
0.015286211
0.014797849
0.014323458
0.013862885
0.050024644
0.049147598
0.048265175
0.047378098
0.046487088
0.0455929
0.044696321
0.043798153
0.042899218
0.042000344
0.041102369
0.040206135
0.039312479
0.038422234
0.037536225
0.036655261
0.035780137
0.034911625
0.034050474
0.033197407
0.032353116
0.031518264
0.030693476
0.029879345
0.029076425
0.02828523
0.027506236
0.026739881
0.02598656
0.025246629
0.024520403
0.023808158
0.023110134
0.022426529
0.021757507
0.021103197
0.020463693
0.019839058
0.019229323
0.018634492
0.018054541
0.017489421
0.016939058
0.01640336
0.01588221
0.015375476
0.014883012
0.014404674
0.013940305
0.050467806
0.049579393
0.048685732
0.047787544
0.046885548
0.045980499
0.045073182
0.044164401
0.043254977
0.042345742
0.041437537
0.040531205
0.039627587
0.038727521
0.037831835
0.036941344
0.036056845
0.035179117
0.034308912
0.033446958
0.032593953
0.03175056
0.030917413
0.030095104
0.029284193
0.028485196
0.027698593
0.026924821
0.026164279
0.025417324
0.024684271
0.023965397
0.023260941
0.022571101
0.02189604
0.021235885
0.02059073
0.019960634
0.019345627
0.018745709
0.018160853
0.017591008
0.017036096
0.016496022
0.015970665
0.015459889
0.014963542
0.014481476
0.014013544
0.013559564
0.050887192
0.04998801
0.049083705
0.048174993
0.047262591
0.046347256
0.045429769
0.044510936
0.043591579
0.042672533
0.041754639
0.040838743
0.039925691
0.039016325
0.038111475
0.03721196
0.036318584
0.035432127
0.034553348
0.033682979
0.032821719
0.03197024
0.031129175
0.030299122
0.029480643
0.028674258
0.027880449
0.027099654
0.026332275
0.025578667
0.02483915
0.024113999
0.023403452
0.022707709
0.02202693
0.021361242
0.020710736
0.02007547
0.019455471
0.018850738
0.01826124
0.017686922
0.017127706
0.01658349
0.016054153
0.015539555
0.015039542
0.01455396
0.014082667
0.013625482
0.051283323
0.050373958
0.049459589
0.048540929
0.047618692
0.046693632
0.045766532
0.044838198
0.043909452
0.042981131
0.042054078
0.041129143
0.040207174
0.039289016
0.038375504
0.037467461
0.036565693
0.035670987
0.034784103
0.033905778
0.033036718
0.032177594
0.031329045
0.030491673
0.029666041
0.028852673
0.028052052
0.027264619
0.026490777
0.025730883
0.024985255
0.024254172
0.02353787
0.022836547
0.022150365
0.021479448
0.020823886
0.020183735
0.019559019
0.018949736
0.018355852
0.017777309
0.017214026
0.016665898
0.016132802
0.015614595
0.015111121
0.014622221
0.014147753
0.013687534
0.051656786
0.050737813
0.049813949
0.048885902
0.047954384
0.047020149
0.04608398
0.045146681
0.044209077
0.043272006
0.042336313
0.04140285
0.040472468
0.039546016
0.038624332
0.037708242
0.036798557
0.035896067
0.035001537
0.034115707
0.033239286
0.03237295
0.031517341
0.030673063
0.029840683
0.029020726
0.028213679
0.027419984
0.026640044
0.02587422
0.025122829
0.024386149
0.023664417
0.022957832
0.022266553
0.021590703
0.020930372
0.020285613
0.019656449
0.019042875
0.018444854
0.017862326
0.017295208
0.016743391
0.01620675
0.01568514
0.015178402
0.014686373
0.014208906
0.013745812
0.052008227
0.051080204
0.050147398
0.049210511
0.048270254
0.047327379
0.046382669
0.045436928
0.044490982
0.043545671
0.042601841
0.041660347
0.040722044
0.039787781
0.038858401
0.037934734
0.037017594
0.036107774
0.035206043
0.034313146
0.033429793
0.032556665
0.031694407
0.030843626
0.030004891
0.02917873
0.028365631
0.027566039
0.026780358
0.026008948
0.02525213
0.02451018
0.023783336
0.023071795
0.022375717
0.021695224
0.021030403
0.020381305
0.019747954
0.019130339
0.018528424
0.017942145
0.017371416
0.016816126
0.016276148
0.015751334
0.015241522
0.014746545
0.014266249
0.013800444
0.052338337
0.051401807
0.050460596
0.0495154
0.048566929
0.047615932
0.046663193
0.045709517
0.04475573
0.043802673
0.042851195
0.041902153
0.040956403
0.040014798
0.039078185
0.038147395
0.037223247
0.036306537
0.035398039
0.034498497
0.033608629
0.032729117
0.031860609
0.031003715
0.030159006
0.029327013
0.028508226
0.027703091
0.026912013
0.026135354
0.025373435
0.024626532
0.023894883
0.023178685
0.022478096
0.021793239
0.021124197
0.020471023
0.019833736
0.019212324
0.018606749
0.018016945
0.017442823
0.01688427
0.016341154
0.015813328
0.015300625
0.014802875
0.014319919
0.013851564
0.05264784
0.05170333
0.050754234
0.049801243
0.048845064
0.047886447
0.046926175
0.045965054
0.045003911
0.044043586
0.043084933
0.042128808
0.041176072
0.040227579
0.039284179
0.038346707
0.037415984
0.036492809
0.03557796
0.034672185
0.033776204
0.032890701
0.032016329
0.031153699
0.030303386
0.029465921
0.028641797
0.027831461
0.02703532
0.026253736
0.02548703
0.02473548
0.023999323
0.023278756
0.022573937
0.021884985
0.021211984
0.020554986
0.019914006
0.019289033
0.018680025
0.018086914
0.017509608
0.016947993
0.016401934
0.01587128
0.015355864
0.01485551
0.014370057
0.013899308
0.052937486
0.051985506
0.051029027
0.050068736
0.049105339
0.048139586
0.047172259
0.046204165
0.045236132
0.044269003
0.043303629
0.042340872
0.041381593
0.04042665
0.039476893
0.038533163
0.037596282
0.036667054
0.035746257
0.034834644
0.033932938
0.033041826
0.032161961
0.03129396
0.030438397
0.029595808
0.028766685
0.027951479
0.027150596
0.0263644
0.025593212
0.02483731
0.024096932
0.023372273
0.022663491
0.021970705
0.021293998
0.020633418
0.019988981
0.019360673
0.01874845
0.018152242
0.017571955
0.017007472
0.016458656
0.015925354
0.015407395
0.014904601
0.014416807
0.013943816
0.053208043
0.052249085
0.051285708
0.050318594
0.049348448
0.048376024
0.047402102
0.046427491
0.045453018
0.044479527
0.043507872
0.042538916
0.04157352
0.040612547
0.03965685
0.03870727
0.037764633
0.036829746
0.035903389
0.03498632
0.034079261
0.033182905
0.032297906
0.031424883
0.030564414
0.029717034
0.028883239
0.02806348
0.027258164
0.026467657
0.025692279
0.02493231
0.024187986
0.023459502
0.022747017
0.022050647
0.021370475
0.020706548
0.02005888
0.019427454
0.018812226
0.018213123
0.017630049
0.017062885
0.016511492
0.015975712
0.015455374
0.014950298
0.014460315
0.013985226
0.053460294
0.05249483
0.051525019
0.050551536
0.049575095
0.048596445
0.04761637
0.046635678
0.045655197
0.044675771
0.043698256
0.042723516
0.041752415
0.040785816
0.039824576
0.038869538
0.037921531
0.036981363
0.03604982
0.035127659
0.034215607
0.033314357
0.032424569
0.031546861
0.030681813
0.029829964
0.02899181
0.028167802
0.027358351
0.026563821
0.025784535
0.02502077
0.024272764
0.023540713
0.022824772
0.022125059
0.021441655
0.020774605
0.020123922
0.019489588
0.018871557
0.018269753
0.017684078
0.017114412
0.016560612
0.01602252
0.015499961
0.014992753
0.014500726
0.014023679
0.053695031
0.052723507
0.051747703
0.05076829
0.049785983
0.048801537
0.047815732
0.046829377
0.045843301
0.044858349
0.043875377
0.042895251
0.041918838
0.040947001
0.039980599
0.039020479
0.038067472
0.037122388
0.036186014
0.035259112
0.03434241
0.033436604
0.032542355
0.031660284
0.030790973
0.029934962
0.029092748
0.028264785
0.027451482
0.026653207
0.02587028
0.025102982
0.024351548
0.023616174
0.022897016
0.02219419
0.021507775
0.020837818
0.020184328
0.019547286
0.018926644
0.018322324
0.017734228
0.01716223
0.016606189
0.016065942
0.015541313
0.015032117
0.014538184
0.014059312
0.053913051
0.052935888
0.051954506
0.050969576
0.049981818
0.048991983
0.048000853
0.047009236
0.046017961
0.045027873
0.044039831
0.0430547
0.042073349
0.041096645
0.040125447
0.039160605
0.03820295
0.037253297
0.036312435
0.035381126
0.034460103
0.033550063
0.032651668
0.031765543
0.03089227
0.03003239
0.029186403
0.028354764
0.027537883
0.026736126
0.025949817
0.025179234
0.024424614
0.023686153
0.022964005
0.022258285
0.021569074
0.020896414
0.020240315
0.019600757
0.018977688
0.01837103
0.017780682
0.017206518
0.016648392
0.016106141
0.015579585
0.015068539
0.014572832
0.014092261
0.057031739
0.056065133
0.055092773
0.054115135
0.053132726
0.052146161
0.051156112
0.050163295
0.049168462
0.048172394
0.047175897
0.0461798
0.04518495
0.044192206
0.043202434
0.042216505
0.041235287
0.040259642
0.039290419
0.038328455
0.037374565
0.03642954
0.035494145
0.034569114
0.033655147
0.032752908
0.031863022
0.030986074
0.030122607
0.029273122
0.028438073
0.027617872
0.026812887
0.02602344
0.025249812
0.024492238
0.023750913
0.023025992
0.022317589
0.021625784
0.020950618
0.020292099
0.019650207
0.019024887
0.018416061
0.017823625
0.01724745
0.016687389
0.016143277
0.015614932
0.015102167
0.01460481
0.01412266
0.058199089
0.057233647
0.056261988
0.055284621
0.054302039
0.05331476
0.052323391
0.051328602
0.050331103
0.049331645
0.048331006
0.047329993
0.046329435
0.045330179
0.044333084
0.043339018
0.042348853
0.041363458
0.040383697
0.039410422
0.03844447
0.037486658
0.036537782
0.035598605
0.034669866
0.033752264
0.032846467
0.031953101
0.031072753
0.030205966
0.029353242
0.028515038
0.027691766
0.026883793
0.026091443
0.025314996
0.024554687
0.023810713
0.023083225
0.02237234
0.021678134
0.021000649
0.020339891
0.019695838
0.019068436
0.018457603
0.017863232
0.017285196
0.016723343
0.016177507
0.015647503
0.015133144
0.014634256
0.01415064
0.058390133
0.057419955
0.05644363
0.055461644
0.054474494
0.053482714
0.052486907
0.051487738
0.050485916
0.049482187
0.048477329
0.047472147
0.04646747
0.045464146
0.044463034
0.043465004
0.042470928
0.041481678
0.040498117
0.0395211
0.038551467
0.037590036
0.036637602
0.035694935
0.034762771
0.033841814
0.032932732
0.032036153
0.031152665
0.030282813
0.029427099
0.028585981
0.027759872
0.026949141
0.02615411
0.02537506
0.024612228
0.023865806
0.023135949
0.022422772
0.021726349
0.021046722
0.020383897
0.01973785
0.019108524
0.018495837
0.017899681
0.017319924
0.016756416
0.016208985
0.015677447
0.01516161
0.014661304
0.014176328
0.058565976
0.05759144
0.056610815
0.055624577
0.054633223
0.053637297
0.052637402
0.0516342
0.050628396
0.049620733
0.048611988
0.047602967
0.046594497
0.045587427
0.044582616
0.043580936
0.042583258
0.041590456
0.040603396
0.039622934
0.038649909
0.037685144
0.036729435
0.035783552
0.034848234
0.033924187
0.033012079
0.03211254
0.03122616
0.030353484
0.029495017
0.028651215
0.027822494
0.027009221
0.026211721
0.025430274
0.024665116
0.023916441
0.023184401
0.022469112
0.021770647
0.021089048
0.020424319
0.019776433
0.019145335
0.01853094
0.017933139
0.017351797
0.016786762
0.016237861
0.015704906
0.015187704
0.014686084
0.014199849
0.058727401
0.057748865
0.056764291
0.055774149
0.054778937
0.053779203
0.052775554
0.051768647
0.050759184
0.049747908
0.048735594
0.047723046
0.046711093
0.045700581
0.044692373
0.043687339
0.042686353
0.041690289
0.040700015
0.039716387
0.038740248
0.037772419
0.036813701
0.035864864
0.034926649
0.033999762
0.033084874
0.032182617
0.031293579
0.030418309
0.029557311
0.028711044
0.027879922
0.027064315
0.026264547
0.025480897
0.024713602
0.023962856
0.023228811
0.022511582
0.021811241
0.021127829
0.02046135
0.019811776
0.01917905
0.018563086
0.017963772
0.017380973
0.016814534
0.016264279
0.015730019
0.015211558
0.014708724
0.014221322
0.058875175
0.057892976
0.056904786
0.055911071
0.054912328
0.05390911
0.052902022
0.051891722
0.050878908
0.049864323
0.048848739
0.047832961
0.046817816
0.045804153
0.044792833
0.043784727
0.04278071
0.041781658
0.040788439
0.039801912
0.038822919
0.037852285
0.03689081
0.035939266
0.034998396
0.034068908
0.033151474
0.032246725
0.031355253
0.030477606
0.02961429
0.028765764
0.027932443
0.027114696
0.026312849
0.025527181
0.024757928
0.024005285
0.023269403
0.022550395
0.021848336
0.021163263
0.020495181
0.01984406
0.019209841
0.018592438
0.017991738
0.017407603
0.016839877
0.016288381
0.015752922
0.015233301
0.014729345
0.014240861
0.059010047
0.058024503
0.057033012
0.056036035
0.055034071
0.054027672
0.053017446
0.052004047
0.050988174
0.049970566
0.048951997
0.047933269
0.04691521
0.045898669
0.044884506
0.043873595
0.042866811
0.04186503
0.040869122
0.039879946
0.038898347
0.03792515
0.036961157
0.036007141
0.035063847
0.034131983
0.033212222
0.032305197
0.031411501
0.030531683
0.029666249
0.028815659
0.027980329
0.027160628
0.026356882
0.02556937
0.024798329
0.024043952
0.023306392
0.02258576
0.02188213
0.02119554
0.020525992
0.019873458
0.019237876
0.018619158
0.018017191
0.017431836
0.016862932
0.016310301
0.015773744
0.015253059
0.014748067
0.01425858
0.059132737
0.05814415
0.057149655
0.056149711
0.055144817
0.054135526
0.053122444
0.052106225
0.051087568
0.050067209
0.049045923
0.04802451
0.047003799
0.045984638
0.044967888
0.043954424
0.042945121
0.041940856
0.040942499
0.039950913
0.038966941
0.037991411
0.037025125
0.036068859
0.035123357
0.034189329
0.03326745
0.032358353
0.031462632
0.030580838
0.029713475
0.028861006
0.028023846
0.027202366
0.02639689
0.025607699
0.024835029
0.024079074
0.023339985
0.022617874
0.021912814
0.021224842
0.02055396
0.019900138
0.019263315
0.0186434
0.018040279
0.017453812
0.016883836
0.016330169
0.01579261
0.015270951
0.014765006
0.014274586
0.059243943
0.058252596
0.057255378
0.056252745
0.055245195
0.054233282
0.053217611
0.052198837
0.051177655
0.050154802
0.049131051
0.048107203
0.047084087
0.04606255
0.045043455
0.044027675
0.043016087
0.042009568
0.041008992
0.040015218
0.039029094
0.038051448
0.037083082
0.036124774
0.035177269
0.034241279
0.033317478
0.032406502
0.031508943
0.030625355
0.029756242
0.028902068