/*--------------------------------*- C++ -*----------------------------------*\
| =========                 |                                                 |
| \\      /  F ield         | OpenFOAM: The Open Source CFD Toolbox           |
|  \\    /   O peration     | Version:  2312                                  |
|   \\  /    A nd           | Website:  www.openfoam.com                      |
|    \\/     M anipulation  |                                                 |
\*---------------------------------------------------------------------------*/
FoamFile
{
    version     2.0;
    format      ascii;
    arch        "LSB;label=32;scalar=64";
    class       volScalarField;
    location    "0.08";
    object      CO2;
}
// * * * * * * * * * * * * * * * * * * * * * * * * * * * * * * * * * * * * * //

dimensions      [0 0 0 0 0 0 0];

internalField   nonuniform List<scalar> 
3250
(
0.014706955
0.01458604
0.014460353
0.014330093
0.014195435
0.014056555
0.013913637
0.013766867
0.013616435
0.013462537
0.01330537
0.013145137
0.012982039
0.012816283
0.012648074
0.012477619
0.012305125
0.012130797
0.011954842
0.011777462
0.011598859
0.011419231
0.011238776
0.011057684
0.010876146
0.010694346
0.010512463
0.010330674
0.01014915
0.0099680549
0.0097875503
0.0096077906
0.0094289251
0.0092510972
0.009074445
0.0088991005
0.00872519
0.0085528344
0.0083821483
0.0082132408
0.0080462151
0.0078811678
0.0077181888
0.0075573606
0.014756937
0.01463499
0.014508279
0.014376998
0.014241321
0.014101425
0.013957493
0.013809711
0.013658272
0.01350337
0.013345205
0.013183978
0.013019894
0.012853158
0.012683978
0.012512561
0.012339113
0.012163843
0.011986956
0.011808656
0.011629145
0.011448623
0.011267286
0.011085328
0.010902938
0.0107203
0.010537597
0.010355003
0.01017269
0.0099908232
0.0098095639
0.0096290667
0.0094494812
0.0092709511
0.0090936143
0.0089176031
0.0087430441
0.008570058
0.00839876
0.00822926
0.0080616622
0.0078960656
0.0077325613
0.0075712194
0.014850191
0.014726364
0.014597772
0.014464611
0.014327056
0.014185285
0.014039481
0.013889833
0.013736532
0.013579777
0.013419767
0.013256705
0.013090797
0.01292225
0.012751273
0.012578073
0.012402861
0.012225845
0.012047231
0.011867225
0.01168603
0.011503848
0.011320875
0.011137307
0.010953333
0.010769139
0.010584908
0.010400815
0.010217034
0.010033729
0.0098510628
0.0096691902
0.0094882612
0.0093084197
0.0091298042
0.0089525469
0.0087767747
0.0086026082
0.0084301628
0.008259548
0.008090868
0.0079242213
0.0077596989
0.0075973699
0.014980563
0.014854134
0.014722939
0.014587175
0.014447019
0.01430265
0.014154253
0.014002017
0.013846137
0.013686812
0.013524243
0.013358636
0.013190197
0.013019136
0.012845664
0.01266999
0.012492327
0.012312883
0.012131868
0.011949489
0.011765952
0.011581459
0.011396209
0.011210397
0.011024216
0.010837853
0.010651491
0.010465308
0.010279476
0.010094163
0.0099095307
0.0097257356
0.0095429278
0.0093612519
0.0091808466
0.0090018446
0.0088243726
0.0086485517
0.008474497
0.008302318
0.0081321186
0.007963997
0.0077980439
0.0076343274
0.015142513
0.015012874
0.014878468
0.014739495
0.014596132
0.01444856
0.014296965
0.014141539
0.013982478
0.013819983
0.013654258
0.013485509
0.013313948
0.013139784
0.012963231
0.012784502
0.01260381
0.012421367
0.012237384
0.012052072
0.011865637
0.011678284
0.011490215
0.011301626
0.011112711
0.01092366
0.010734657
0.010545881
0.010357506
0.010169701
0.0099826288
0.0097964462
0.0096113047
0.0094273492
0.0092447189
0.009063547
0.0088839605
0.0087060804
0.008530022
0.0083558947
0.0081838021
0.0080138422
0.0078461052
0.0076806587
0.015331032
0.015197677
0.015059556
0.014916869
0.014769795
0.014618517
0.014463223
0.014304106
0.014141364
0.013975201
0.013805823
0.01363344
0.013458263
0.013280507
0.013100387
0.012918119
0.012733918
0.012547999
0.012360577
0.012171864
0.011982069
0.011791399
0.011600057
0.011408245
0.011216156
0.011023983
0.010831912
0.010640123
0.010448792
0.010258089
0.010068178
0.0098792176
0.0096913596
0.0095047499
0.0093195284
0.0091358285
0.0089537777
0.0087734972
0.0085951022
0.0084187022
0.0082444006
0.0080722951
0.0079024756
0.0077350091
0.015541604
0.015404113
0.015261861
0.015115045
0.014963847
0.01480845
0.014649044
0.014485825
0.014318994
0.014148755
0.013975318
0.013798894
0.013619699
0.013437949
0.013253862
0.013067657
0.012879554
0.012689768
0.012498519
0.012306019
0.012112483
0.011918119
0.011723134
0.011527729
0.011332104
0.01113645
0.010940958
0.010745808
0.010551179
0.010357242
0.010164163
0.0099721013
0.0097812097
0.0095916351
0.0094035181
0.0092169928
0.009032187
0.0088492223
0.008668214
0.0084892713
0.0083124976
0.0081379905
0.0079658395
0.0077961111
0.015770161
0.015628191
0.015481469
0.015330188
0.01517453
0.01501468
0.014850831
0.014683179
0.014511927
0.014337283
0.014159458
0.013978667
0.013795128
0.013609061
0.013420686
0.013230225
0.0130379
0.012843932
0.012648541
0.012451945
0.012254359
0.012055996
0.011857065
0.011657771
0.011458314
0.01125889
0.011059689
0.010860897
0.010662692
0.010465248
0.010268733
0.010073306
0.0098791223
0.0096863295
0.0094950691
0.0093054758
0.0091176778
0.0089317971
0.0087479491
0.008566243
0.0083867823
0.008209664
0.0080349778
0.0078627893
0.016013071
0.015866321
0.015714855
0.015558842
0.01539846
0.015233895
0.01506534
0.014892994
0.014717061
0.014537753
0.014355282
0.014169867
0.013981728
0.013791088
0.01359817
0.013403201
0.013206404
0.013008005
0.012808225
0.012607287
0.012405409
0.012202806
0.011999691
0.011796271
0.011592749
0.011389324
0.011186188
0.010983529
0.010781529
0.010580361
0.010380196
0.010181195
0.0099835133
0.0097873009
0.0095926996
0.0093998448
0.0092088656
0.009019884
0.0088330158
0.0086483702
0.0084660505
0.0082861538
0.0081087693
0.0079339624
0.016555407
0.016413731
0.016266938
0.016115253
0.015958851
0.015797906
0.015632599
0.015463118
0.015289657
0.015112418
0.014931607
0.014747437
0.014560124
0.014369889
0.014176955
0.013981548
0.013783896
0.013584225
0.013382766
0.013179745
0.012975388
0.012769921
0.012563564
0.012356538
0.012149056
0.011941329
0.011733564
0.011525962
0.011318717
0.01111202
0.010906054
0.010700997
0.010497017
0.010294281
0.010092944
0.0098931562
0.0096950617
0.0094987965
0.00930449
0.0091122649
0.008922237
0.0087345158
0.0085492044
0.0083663997
0.0081861909
0.0080086427
0.016827656
0.016680815
0.016528911
0.016372129
0.016210638
0.016044612
0.015874232
0.015699689
0.015521177
0.0153389
0.015153067
0.014963893
0.014771596
0.0145764
0.01437853
0.014178217
0.013975689
0.013771179
0.013564919
0.013357139
0.013148069
0.012937936
0.012726967
0.012515383
0.012303402
0.012091238
0.0118791
0.011667192
0.011455711
0.011244851
0.011034796
0.010825726
0.010617813
0.010411222
0.010206113
0.010002637
0.0098009378
0.0096011526
0.0094034116
0.0092078379
0.0090145477
0.0088236506
0.0086352496
0.0084494414
0.0082663151
0.0080859353
0.017105576
0.016953496
0.016796373
0.016634386
0.0164677
0.016296491
0.016120939
0.015941235
0.015757575
0.015570165
0.015379215
0.015184942
0.014987567
0.014787317
0.014584419
0.014379106
0.014171612
0.013962171
0.013751019
0.013538389
0.013324514
0.013109627
0.012893956
0.012677725
0.012461156
0.012244467
0.012027869
0.011811569
0.011595768
0.011380659
0.011166432
0.010953267
0.01074134
0.010530816
0.010321857
0.010114615
0.0099092346
0.009705855
0.0095046065
0.0093056129
0.0091089905
0.0089148491
0.0087232918
0.008534415
0.0083483077
0.0081650343
0.017386788
0.017229408
0.017067002
0.016899746
0.016727806
0.016551355
0.016370574
0.016185654
0.015996792
0.015804196
0.015608077
0.015408653
0.015206149
0.015000793
0.014792816
0.014582454
0.014369943
0.014155521
0.013939426
0.013721896
0.013503168
0.013283476
0.013063052
0.012842125
0.01262092
0.012399656
0.01217855
0.011957809
0.011737638
0.011518234
0.011299787
0.011082481
0.010866492
0.01065199
0.010439135
0.010228082
0.010018977
0.0098119599
0.0096071616
0.0094047063
0.009204711
0.0090072854
0.0088125325
0.0086205489
0.0084314233
0.0082452199
0.017669174
0.017506466
0.017338751
0.017166203
0.016988987
0.016807273
0.016621244
0.016431091
0.016237011
0.016039213
0.015837909
0.015633321
0.015425674
0.015215198
0.015002129
0.014786704
0.014569162
0.014349745
0.014128694
0.01390625
0.013682653
0.013458142
0.013232952
0.013007314
0.012781456
0.012555603
0.012329972
0.012104775
0.011880218
0.011656503
0.01143382
0.011212357
0.010992291
0.010773793
0.010557026
0.010342147
0.010129302
0.0099186312
0.0097102675
0.0095043353
0.0093009517
0.0091002269
0.0089022638
0.0087071589
0.0085150007
0.0083258534
0.017950874
0.017782842
0.017609827
0.017431997
0.017249516
0.017062553
0.016871291
0.016675919
0.016476638
0.016273655
0.016067185
0.015857451
0.015644679
0.015429103
0.01521096
0.01499049
0.014767936
0.014543542
0.014317552
0.014090212
0.013861764
0.013632449
0.013402508
0.013172174
0.012941679
0.01271125
0.012481108
0.012251468
0.012022539
0.011794524
0.011567617
0.011342007
0.011117874
0.010895391
0.010674723
0.010456026
0.010239449
0.010025134
0.0098132127
0.0096038112
0.0093970468
0.0091930298
0.0089918631
0.0087936432
0.0085984584
0.008406373
0.018230268
0.018056948
0.017878669
0.017695597
0.017507891
0.017315722
0.017119269
0.016918725
0.016714288
0.016506166
0.016294576
0.016079742
0.015861893
0.015641263
0.015418093
0.015192625
0.014965105
0.014735779
0.014504896
0.014272703
0.014039447
0.013805373
0.013570723
0.013335734
0.013100643
0.012865678
0.012631064
0.012397019
0.012163755
0.011931476
0.011700381
0.011470659
0.011242493
0.011016058
0.010791519
0.010569036
0.010348758
0.010130827
0.0099153768
0.0097025337
0.0094924153
0.0092851321
0.0090807871
0.0088794766
0.008681289
0.0084862885
0.018505959
0.018327408
0.01814393
0.017955679
0.017762815
0.017565507
0.017363934
0.017158286
0.016948762
0.016735573
0.016518935
0.016299072
0.016076217
0.015850605
0.015622478
0.015392082
0.015159666
0.014925478
0.01468977
0.014452793
0.014214796
0.013976028
0.013736734
0.013497156
0.013257531
0.013018092
0.012779067
0.012540677
0.012303135
0.012066651
0.011831423
0.011597644
0.011365498
0.011135163
0.010906806
0.010680586
0.010456655
0.010235156
0.010016224
0.0097999837
0.009586555
0.0093760482
0.0091685662
0.0089642054
0.0087630539
0.0085651761
0.018776756
0.018593051
0.018404456
0.018211114
0.01801318
0.017810822
0.017604217
0.017393557
0.017179039
0.016960874
0.016739279
0.016514481
0.016286711
0.016056208
0.015823217
0.015587984
0.015350762
0.015111801
0.014871358
0.014629684
0.014387033
0.014143657
0.013899805
0.01365572
0.013411644
0.013167812
0.012924456
0.012681798
0.012440056
0.012199441
0.011960154
0.01172239
0.011486336
0.01125217
0.011020062
0.010790171
0.010562652
0.010337648
0.010115294
0.0098957173
0.0096790366
0.0094653627
0.0092547989
0.0090474412
0.0088433779
0.0086426733
0.019225355
0.01904162
0.018852877
0.018659271
0.018460944
0.018258047
0.018050746
0.01783922
0.017623656
0.017404253
0.017181222
0.016954781
0.016725156
0.016492581
0.016257298
0.01601955
0.01577959
0.015537669
0.015294043
0.015048969
0.014802703
0.014555503
0.014307621
0.014059311
0.013810819
0.01356239
0.013314263
0.01306667
0.012819839
0.012573989
0.012329333
0.012086076
0.011844415
0.011604537
0.011366624
0.011130846
0.010897365
0.010666335
0.010437902
0.010212201
0.0099893593
0.009769497
0.0095527247
0.0093391457
0.0091288561
0.0089219439
0.0087184738
0.019488416
0.019299723
0.01910606
0.018907564
0.018704371
0.018496633
0.018284514
0.018068188
0.017847845
0.017623682
0.01739591
0.017164747
0.016930421
0.016693166
0.016453225
0.016210846
0.015966279
0.015719782
0.015471611
0.015222027
0.014971289
0.014719657
0.014467386
0.014214733
0.013961948
0.013709278
0.013456964
0.013205244
0.012954346
0.012704493
0.0124559
0.012208774
0.011963314
0.011719711
0.011478145
0.01123879
0.01100181
0.010767359
0.010535584
0.01030662
0.010080597
0.0098576337
0.0096378416
0.0094213239
0.0092081766
0.0089984879
0.0087923224
0.019743891
0.019550369
0.019351918
0.019148664
0.01894074
0.018728297
0.018511494
0.018290506
0.018065521
0.017836735
0.017604359
0.017368611
0.01712972
0.016887922
0.01664346
0.016396583
0.016147546
0.015896606
0.015644024
0.015390062
0.015134982
0.014879046
0.014622514
0.014365644
0.01410869
0.013851902
0.013595525
0.013339796
0.013084949
0.012831209
0.012578792
0.012327908
0.012078759
0.011831537
0.011586424
0.011343595
0.011103216
0.010865442
0.01063042
0.010398288
0.010169174
0.0099431991
0.0097204739
0.0095011019
0.0092851791
0.0090727937
0.0088640104
0.019991208
0.019792999
0.019589903
0.019382034
0.019169526
0.018952522
0.018731182
0.018505679
0.018276198
0.018042937
0.017806104
0.017565918
0.017322609
0.017076414
0.016827576
0.016576347
0.016322984
0.016067744
0.015810893
0.015552693
0.015293411
0.01503331
0.014772653
0.014511702
0.014250714
0.013989939
0.013729627
0.013470019
0.013211349
0.012953845
0.012697726
0.012443205
0.012190484
0.011939758
0.011691211
0.011445019
0.011201349
0.010960357
0.010722192
0.010486992
0.010254886
0.010025995
0.00980043
0.0095782945
0.0093596846
0.0091446882
0.0089333706
0.020427695
0.020229913
0.020027175
0.019819585
0.019607256
0.019390316
0.019168906
0.018943184
0.01871332
0.018479499
0.018241917
0.018000782
0.017756313
0.01750874
0.017258301
0.017005241
0.016749813
0.016492274
0.016232886
0.015971915
0.015709626
0.015446288
0.015182168
0.014917532
0.014652642
0.014387759
0.014123137
0.013859028
0.013595674
0.013333314
0.013072177
0.012812485
0.012554452
0.012298283
0.012044175
0.011792312
0.011542874
0.011296027
0.011051929
0.01081073
0.010572568
0.010337574
0.010105868
0.0098775611
0.009652758
0.009431554
0.0092140374
0.0090002734
0.020661872
0.020459676
0.020252568
0.020040645
0.019824016
0.019602804
0.019377149
0.019147205
0.018913142
0.018675141
0.018433399
0.018188122
0.017939531
0.017687854
0.017433331
0.017176208
0.016916738
0.016655181
0.016391801
0.016126864
0.015860641
0.0155934
0.015325411
0.015056944
0.014788263
0.014519632
0.014251307
0.013983542
0.013716584
0.013450671
0.013186037
0.012922905
0.012661492
0.012402003
0.012144638
0.011889584
0.01163702
0.011387114
0.011140027
0.010895906
0.010654894
0.010417118
0.010182702
0.0099517564
0.0097243852
0.0095006842
0.0092807414
0.0090646225
0.020886706
0.020680261
0.020468948
0.020252856
0.020032091
0.019806773
0.019577039
0.019343039
0.019104941
0.018862926
0.018617189
0.018367936
0.018115386
0.01785977
0.017601326
0.017340302
0.017076953
0.016811539
0.016544326
0.016275584
0.016005582
0.015734595
0.015462893
0.015190748
0.014918427
0.014646197
0.014374317
0.014103042
0.013832622
0.013563299
0.013295307
0.013028872
0.012764212
0.012501537
0.012241045
0.011982926
0.01172736
0.011474517
0.011224558
0.010977633
0.010733883
0.010493437
0.010256419
0.010022939
0.009793102
0.0095670033
0.0093447309
0.0091263508
0.021102042
0.020891519
0.020676169
0.020456077
0.020231345
0.02000209
0.019768444
0.019530556
0.019288592
0.019042731
0.018793167
0.018540105
0.018283764
0.018024375
0.017762176
0.017497416
0.017230352
0.016961245
0.016690362
0.016417974
0.016144355
0.015869779
0.015594521
0.015318854
0.015043048
0.01476737
0.014492085
0.014217449
0.013943713
0.013671123
0.013399914
0.013130315
0.012862546
0.012596817
0.012333329
0.012072275
0.011813834
0.011558178
0.011305468
0.011055856
0.010809483
0.01056648
0.010326969
0.010091062
0.0098588629
0.0096304674
0.0094059635
0.0091854175
0.0215174
0.02130781
0.021093377
0.020874161
0.02065024
0.020421712
0.020188689
0.019951302
0.019709697
0.019464037
0.019214499
0.018961277
0.018704574
0.018444611
0.018181616
0.017915829
0.0176475
0.017376886
0.01710425
0.01682986
0.01655399
0.016276915
0.01599891
0.015720254
0.015441221
0.015162084
0.014883113
0.014604573
0.014326724
0.01404982
0.013774107
0.013499824
0.013227201
0.01295646
0.012687813
0.012421463
0.012157602
0.011896413
0.011638069
0.011382731
0.011130551
0.010881671
0.010636224
0.01039433
0.010156104
0.0099216473
0.0096910569
0.0094644203
0.0092418042
0.021717372
0.021503998
0.02128583
0.02106292
0.020835342
0.020603188
0.020366569
0.020125611
0.019880459
0.019631273
0.019378229
0.019121517
0.018861344
0.018597926
0.018331493
0.018062286
0.017790554
0.017516555
0.017240555
0.016962822
0.016683632
0.016403261
0.016121987
0.015840091
0.015557848
0.015275535
0.014993424
0.014711781
0.014430869
0.014150943
0.013872252
0.013595038
0.013319531
0.013045956
0.012774527
0.012505446
0.01223891
0.0119751
0.011714191
0.011456346
0.011201718
0.010950448
0.010702669
0.010458505
0.010218066
0.0099814569
0.0097487733
0.0095201028
0.0092955125
0.021907641
0.02169066
0.02146893
0.021242498
0.021011434
0.020775826
0.020535781
0.020291424
0.020042894
0.019790351
0.019533969
0.019273938
0.019010461
0.018743756
0.018474052
0.01820159
0.017926621
0.017649402
0.0173702
0.017089287
0.016806938
0.016523431
0.016239048
0.015954068
0.015668772
0.015383437
0.015098337
0.014813741
0.014529914
0.014247113
0.013965589
0.013685585
0.013407334
0.013131062
0.012856984
0.012585306
0.012316222
0.012049919
0.01178657
0.011526339
0.01126938
0.011015836
0.010765839
0.010519513
0.010276969
0.010038312
0.0098036365
0.0095730304
0.0093465614
0.022088315
0.021867898
0.021642779
0.021412996
0.021178616
0.020939725
0.020696424
0.020448835
0.020197096
0.019941364
0.019681812
0.019418627
0.019152013
0.018882186
0.018609376
0.018333824
0.01805578
0.017775505
0.017493264
0.01720933
0.016923981
0.016637497
0.016350161
0.016062254
0.015774059
0.015485854
0.015197915
0.014910515
0.01462392
0.014338388
0.014054173
0.013771519
0.013490662
0.013211829
0.012935235
0.012661089
0.012389587
0.012120915
0.011855249
0.011592752
0.01133358
0.011077876
0.010825773
0.010577393
0.010332851
0.010092249
0.0098556818
0.0096232375
0.0093949853
0.02225954
0.02203586
0.021807521
0.021574557
0.021337031
0.021095023
0.020848633
0.020597979
0.020343198
0.020084442
0.019821884
0.01955571
0.019286122
0.019013337
0.018737584
0.018459103
0.018178146
0.017894972
0.017609851
0.017323055
0.017034864
0.016745559
0.016455424
0.016164742
0.015873799
0.015582874
0.015292246
0.015002188
0.014712968
0.014424849
0.014138083
0.013852918
0.01356959
0.013288328
0.013009351
0.012732866
0.012459071
0.012188154
0.01192029
0.011655646
0.011394376
0.011136624
0.010882525
0.0106322
0.010385763
0.010143317
0.0099049579
0.0096707717
0.0094408329
0.0092151975
0.022421503
0.022194728
0.021963338
0.02172736
0.021486853
0.021241894
0.020992579
0.020739024
0.020481362
0.020219745
0.019954343
0.019685341
0.01941294
0.019137356
0.018858818
0.018577567
0.018293854
0.018007941
0.017720095
0.017430592
0.017139712
0.016847738
0.016554955
0.01626165
0.015968107
0.015674609
0.015381436
0.015088864
0.014797162
0.014506593
0.014217414
0.013929873
0.013644208
0.013360649
0.013079416
0.012800718
0.012524754
0.012251712
0.01198177
0.011715094
0.011451839
0.011192151
0.010936162
0.010683996
0.010435767
0.010191579
0.0099515245
0.0097156919
0.0094841588
0.0092569805
0.02257442
0.022344716
0.02211044
0.021871611
0.021628285
0.021380536
0.021128458
0.020872161
0.020611779
0.020347459
0.020079371
0.019807699
0.019532641
0.019254415
0.018973248
0.018689382
0.018403067
0.018114566
0.017824149
0.01753209
0.017238671
0.016944177
0.016648895
0.016353111
0.016057114
0.015761186
0.015465611
0.015170664
0.014876618
0.014583737
0.014292279
0.014002494
0.013714622
0.013428893
0.01314553
0.012864742
0.012586729
0.012311682
0.012039777
0.011771182
0.011506053
0.011244535
0.010986762
0.010732858
0.010482937
0.010237103
0.0099954487
0.009758062
0.0095250222
0.0092963859
0.022718532
0.022486063
0.022249061
0.022007541
0.021761555
0.021511175
0.021256489
0.020997607
0.020734659
0.020467792
0.020197172
0.019922982
0.019645421
0.019364705
0.01908106
0.018794728
0.018505962
0.018215023
0.017922182
0.017627714
0.017331903
0.017035034
0.016737396
0.016439277
0.016140966
0.015842749
0.015544908
0.015247724
0.014951468
0.014656408
0.014362802
0.014070901
0.013780948
0.013493175
0.013207803
0.012925045
0.012645101
0.012368162
0.012094407
0.011824003
0.011557107
0.011293865
0.01103441
0.010778868
0.010527353
0.010279967
0.010036805
0.0097979536
0.0095634926
0.0093334796
0.022854103
0.022619026
0.022379454
0.022135399
0.021886908
0.021634049
0.021376909
0.021115594
0.020850231
0.020580967
0.020307964
0.020031406
0.01975149
0.01946843
0.019182455
0.018893805
0.018602732
0.018309499
0.018014377
0.017717644
0.017419582
0.01712048
0.016820625
0.016520309
0.016219821
0.015919449
0.015619478
0.015320188
0.015021853
0.014724742
0.014429115
0.014135224
0.013843313
0.013553615
0.013266354
0.012981742
0.012699981
0.012421263
0.012145766
0.01187366
0.011605101
0.011340236
0.0110792
0.010822116
0.010569099
0.010320254
0.010075673
0.0098354437
0.0095996448
0.0093683353
0.022981409
0.022743879
0.02250189
0.02225545
0.022004604
0.021749415
0.021489969
0.021226368
0.020958737
0.02068722
0.02041198
0.020133197
0.019851069
0.01956581
0.019277645
0.018986818
0.01869358
0.018398193
0.01810093
0.017802069
0.017501894
0.017200693
0.016898757
0.016596378
0.016293846
0.015991451
0.015689478
0.015388211
0.015087923
0.014788886
0.01449136
0.0141956
0.01390185
0.013610344
0.013321308
0.013034955
0.012751487
0.012471097
0.012193965
0.01192026
0.011650139
0.01138375
0.011121227
0.010862695
0.010608269
0.010358052
0.010112138
0.0098706142
0.0096335584
0.0094010303
0.023100742
0.022860906
0.022616648
0.02236797
0.022114913
0.021857539
0.021595929
0.021330184
0.021060426
0.020786798
0.02050946
0.020228593
0.019944391
0.019657069
0.019366853
0.019073985
0.018778717
0.018481311
0.018182041
0.017881186
0.01757903
0.017275862
0.016971975
0.016667662
0.016363214
0.016058922
0.015755073
0.015451951
0.015149833
0.01484899
0.014549684
0.014252171
0.013956697
0.013663496
0.013372796
0.013084809
0.012799741
0.012517784
0.012239118
0.011963913
0.011692328
0.01142451
0.011160593
0.010900704
0.010644955
0.010393452
0.010146288
0.0099035502
0.0096653158
0.0094316447
0.023212399
0.022970402
0.022724016
0.02247324
0.022218113
0.021958693
0.021695058
0.021427306
0.021155558
0.020879954
0.020600653
0.020317834
0.020031693
0.019742441
0.019450306
0.019155528
0.01885836
0.018559066
0.018257918
0.017955196
0.017651187
0.017346179
0.017040467
0.016734343
0.016428102
0.016122035
0.015816431
0.015511573
0.015207742
0.014905208
0.014604237
0.014305084
0.014007995
0.013713208
0.01342095
0.013131435
0.012844869
0.012561445
0.012281343
0.012004735
0.011731779
0.011462623
0.011197402
0.010936241
0.010679255
0.010426548
0.010178214
0.0099343393
0.0096950015
0.0094602603
0.023316684
0.023072663
0.022824286
0.022571549
0.022314488
0.022053156
0.021787628
0.021518001
0.021244394
0.020966944
0.020685809
0.020401168
0.020113215
0.019822161
0.019528233
0.019231672
0.018932731
0.018631673
0.018328771
0.018024307
0.017718566
0.01741184
0.017104422
0.016796608
0.016488691
0.016180966
0.015873722
0.015567244
0.015261812
0.014957699
0.014655172
0.014354486
0.014055889
0.013759621
0.013465907
0.013174964
0.012886998
0.012602203
0.01232076
0.012042841
0.011768604
0.011498198
0.011231757
0.010969409
0.010711267
0.010457435
0.010208007
0.0099630699
0.0097227008
0.0094869597
0.0234139
0.023167991
0.022917754
0.022663187
0.022404321
0.022141206
0.021873914
0.021602539
0.021327198
0.021048027
0.020765184
0.020478844
0.020189201
0.019896468
0.019600869
0.019302646
0.019002051
0.018699348
0.018394812
0.018088723
0.017781368
0.01747304
0.017164032
0.016854642
0.016545164
0.016235893
0.015927119
0.01561913
0.015312206
0.015006621
0.014702642
0.014400527
0.014100524
0.013802873
0.013507802
0.013215528
0.012926257
0.012640183
0.012357489
0.012078347
0.011802916
0.011531343
0.011263766
0.011000309
0.010741088
0.010486207
0.010235759
0.0099898309
0.0097484998
0.0095118259
0.023504349
0.023256683
0.023004715
0.022748445
0.022487899
0.022223124
0.02195419
0.021681189
0.021404234
0.021123462
0.020839029
0.020551108
0.020259895
0.019965598
0.019668445
0.019368675
0.019066542
0.01876231
0.018456252
0.018148651
0.017839795
0.017529976
0.017219489
0.016908632
0.016597701
0.016286992
0.015976795
0.015667399
0.015359086
0.01505213
0.014746801
0.014443355
0.014142044
0.013843107
0.013546772
0.013253258
0.012962772
0.012675508
0.01239165
0.012111369
0.011834826
0.011562168
0.011293532
0.011029044
0.010768818
0.01051296
0.010261562
0.010014711
0.0097724841
0.0095349415
0.023588331
0.023339035
0.023085462
0.022827611
0.022565506
0.02229919
0.02202873
0.021754218
0.021475766
0.021193507
0.020907597
0.020618209
0.020325537
0.020029789
0.019731192
0.019429987
0.019126425
0.018820772
0.018513303
0.018204298
0.017894047
0.017582844
0.017270983
0.016958764
0.016646484
0.016334438
0.016022919
0.015712217
0.015402614
0.015094385
0.014787801
0.01448312
0.014180593
0.01388046
0.013582952
0.013288287
0.012996671
0.012708302
0.012423361
0.012142023
0.011864446
0.011590779
0.01132116
0.011055713
0.010794554
0.010537788
0.010285507
0.010037798
0.0097947385
0.0095563885
0.024393415
0.024155159
0.023912741
0.023666154
0.023415346
0.023160287
0.022900972
0.022637422
0.022369677
0.022097805
0.021821893
0.021542053
0.021258416
0.020971138
0.020680391
0.020386366
0.020089274
0.01978934
0.019486803
0.019181918
0.018874949
0.018566171
0.018255865
0.017944323
0.017631836
0.017318702
0.017005221
0.016691689
0.016378405
0.016065661
0.015753748
0.015442949
0.015133541
0.014825793
0.014519966
0.014216312
0.013915072
0.013616475
0.013320742
0.013028079
0.012738685
0.012452741
0.012170422
0.011891886
0.011617284
0.011346753
0.011080417
0.010818393
0.010560783
0.010307684
0.010059179
0.0098153466
0.0095762475
0.024705419
0.024469688
0.024229962
0.023986116
0.023738113
0.02348591
0.023229478
0.02296881
0.022703923
0.022434858
0.022161679
0.021884473
0.021603349
0.02131844
0.021029896
0.020737892
0.020442617
0.020144282
0.019843111
0.019539345
0.019233236
0.01892505
0.018615061
0.018303553
0.017990815
0.017677142
0.017362831
0.017048182
0.016733494
0.016419064
0.016105187
0.015792153
0.015480248
0.015169748
0.014860924
0.014554038
0.014249341
0.013947075
0.013647472
0.01335075
0.01305712
0.012766776
0.012479904
0.012196677
0.011917255
0.011641787
0.011370411
0.011103253
0.010840427
0.010582038
0.01032818
0.010078938
0.0098343905
0.0095945976
0.024777193
0.02454007
0.024298983
0.024053811
0.023804504
0.023551015
0.023293317
0.0230314
0.022765281
0.022494998
0.022220614
0.021942214
0.021659907
0.021373822
0.021084112
0.020790947
0.02049452
0.020195038
0.019892727
0.019587826
0.019280588
0.018971279
0.018660174
0.018347556
0.018033716
0.017718948
0.01740355
0.017087824
0.016772068
0.016456581
0.016141658
0.015827591
0.015514664
0.015203157
0.01489334
0.014585475
0.014279816
0.013976604
0.013676071
0.013378437
0.013083912
0.012792693
0.012504964
0.012220898
0.011940658
0.01166439
0.011392235
0.011124316
0.01086075
0.010601641
0.010347082
0.010097159
0.0098519504
0.0096115163
0.024843267
0.024604859
0.024362518
0.024116123
0.023865614
0.023610943
0.023352079
0.023089014
0.022821761
0.022550357
0.022274864
0.021995365
0.021711968
0.021424803
0.021134019
0.020839787
0.020542299
0.020241762
0.019938401
0.019632455
0.019324179
0.019013837
0.018701704
0.018388065
0.01807321
0.017757434
0.017441037
0.017124318
0.01680758
0.016491119
0.016175234
0.015860214
0.015546348
0.015233913
0.014923181
0.014614415
0.014307869
0.014003785
0.013702396
0.013403923
0.013108574
0.012816548
0.012528029
0.012243192
0.011962196
0.011685193
0.011412319
0.0111437
0.010879452
0.010619678
0.010364474
0.010113923
0.0098681043
0.0096270787
0.024903942
0.02466435
0.024420856
0.024173335
0.023921722
0.023665966
0.023406033
0.023141914
0.02287362
0.022601187
0.022324676
0.022044169
0.021759772
0.021471614
0.021179845
0.020884635
0.020586173
0.020284667
0.019980342
0.019673438
0.019364208
0.019052917
0.018739842
0.018425265
0.018109478
0.017792777
0.017475461
0.017157832
0.016840191
0.016522837
0.016206067
0.015890174
0.015575443
0.015262156
0.014950584
0.014640991
0.01433363
0.014028746
0.01372657
0.013427325
0.013131219
0.012838452
0.012549207
0.01226366
0.011981972
0.011704291
0.011430757
0.011161494
0.010896619
0.010636235
0.010380437
0.010129308
0.0098829281
0.0096413579
0.024959506
0.024718829
0.024474278
0.024225725
0.0239731
0.02371635
0.023455438
0.023190354
0.022921107
0.022647733
0.02237029
0.022088861
0.021803549
0.021514483
0.021221812
0.020925705
0.020626352
0.02032396
0.020018753
0.019710972
0.019400869
0.01908871
0.01877477
0.018459335
0.018142695
0.017825147
0.017506991
0.017188528
0.01687006
0.016551887
0.016234308
0.015917613
0.015602092
0.015288024
0.014975682
0.014665331
0.014357224
0.014051606
0.01374871
0.013448757
0.013151958
0.012858511
0.012568602
0.012282404
0.01200008
0.011721779
0.011447639
0.011177786
0.010912336
0.010651392
0.010395049
0.010143391
0.009896495
0.0096544245
0.025010239
0.02476857
0.024523053
0.024273557
0.024020009
0.023762351
0.023500546
0.023234581
0.022964465
0.022690232
0.022411939
0.022129667
0.021843521
0.021553626
0.021260132
0.020963208
0.020663042
0.020359841
0.02005383
0.019745247
0.019434348
0.019121396
0.018806668
0.018490449
0.018173031
0.017854709
0.017535785
0.017216561
0.016897339
0.016578419
0.016260099
0.015942673
0.01562643
0.015311649
0.014998604
0.01468756
0.014378772
0.014072483
0.013768928
0.013468329
0.013170897
0.012876829
0.012586312
0.01229952
0.012016615
0.011737747
0.011463053
0.011192661
0.010926685
0.010665229
0.010408387
0.010156244
0.0099088759
0.0096663468
0.025056412
0.02481384
0.024567444
0.024317089
0.0240627
0.023804216
0.023541598
0.023274832
0.023003926
0.022728912
0.022449846
0.022166809
0.021879903
0.021589255
0.021295013
0.020997345
0.020696439
0.020392503
0.020085759
0.019776449
0.019464825
0.019151152
0.018835707
0.018518775
0.018200648
0.017881623
0.017562001
0.017242083
0.016922174
0.016602574
0.016283581
0.015965489
0.015648588
0.015333158
0.015019473
0.014707798
0.014398389
0.01409149
0.013787336
0.013486148
0.013188138
0.012893504
0.012602433
0.0123151
0.012031666
0.011752281
0.011477083
0.011206199
0.010939744
0.010677821
0.010420524
0.010167938
0.0099201391
0.0096771903
0.025098286
0.024854895
0.024607702