/*--------------------------------*- C++ -*----------------------------------*\
| =========                 |                                                 |
| \\      /  F ield         | OpenFOAM: The Open Source CFD Toolbox           |
|  \\    /   O peration     | Version:  2312                                  |
|   \\  /    A nd           | Website:  www.openfoam.com                      |
|    \\/     M anipulation  |                                                 |
\*---------------------------------------------------------------------------*/
FoamFile
{
    version     2.0;
    format      ascii;
    arch        "LSB;label=32;scalar=64";
    class       volScalarField;
    location    "0.08";
    object      k;
}
// * * * * * * * * * * * * * * * * * * * * * * * * * * * * * * * * * * * * * //

dimensions      [0 2 -2 0 0 0 0];

internalField   nonuniform List<scalar> 
3250
(
9.4441933
9.4295229
9.4147112
9.3997717
9.3847234
9.3695868
9.3543826
9.3391315
9.3238541
9.3085707
9.2933014
9.278066
9.2628842
9.2477748
9.2327566
9.2178476
9.2030653
9.1884267
9.1739481
9.1596448
9.1455318
9.1316231
9.1179317
9.1044701
9.0912496
9.0782809
9.0655737
9.0531366
9.0409776
9.0291035
9.0175203
9.0062332
8.9952463
8.984563
8.9741858
8.9641163
8.9543554
8.9449032
8.9357595
8.926923
8.9183926
8.9101668
8.9022447
8.8946259
9.4581956
9.4431383
9.4279428
9.4126236
9.3972007
9.3816946
9.3661265
9.3505171
9.3348871
9.319257
9.303647
9.288077
9.2725666
9.257135
9.2418008
9.2265822
9.2114968
9.1965616
9.1817928
9.1672062
9.1528163
9.1386374
9.1246826
9.1109642
9.0974937
9.0842817
9.0713378
9.0586708
9.0462884
9.0341975
9.0224041
9.0109131
8.9997289
8.9888544
8.9782923
8.9680439
8.95811
8.9484906
8.9391848
8.930191
8.921507
8.91313
8.9050585
8.8972992
9.482211
9.4664378
9.4505389
9.4345286
9.4184267
9.402254
9.3860316
9.3697805
9.3535213
9.3372747
9.3210608
9.3048996
9.2888107
9.2728133
9.2569261
9.2411673
9.2255545
9.2101045
9.1948337
9.1797577
9.1648912
9.1502482
9.1358418
9.1216844
9.1077872
9.0941608
9.0808146
9.0677574
9.0549967
9.0425393
9.030391
9.0185566
9.0070401
8.9958446
8.9849722
8.9744242
8.9642011
8.9543025
8.9447275
8.935474
8.9265396
8.9179214
8.9096179
8.9016363
9.5153891
9.4986196
9.4817427
9.4647725
9.4477286
9.4306319
9.4135035
9.3963642
9.3792349
9.3621361
9.3450879
9.3281105
9.3112232
9.2944454
9.2777956
9.261292
9.2449522
9.228793
9.2128307
9.1970807
9.1815578
9.1662759
9.1512479
9.136486
9.1220014
9.1078045
9.0939047
9.0803103
9.0670289
9.0540669
9.04143
9.0291227
9.0171488
9.005511
8.9942112
8.9832505
8.972629
8.9623461
8.9524003
8.9427896
8.933511
8.9245614
8.915939
8.9076515
9.5561794
9.5381772
9.5200916
9.5019359
9.4837298
9.4654939
9.4472493
9.4290167
9.4108168
9.3926701
9.3745967
9.3566166
9.3387491
9.3210134
9.303428
9.286011
9.2687798
9.2517513
9.2349415
9.2183658
9.2020387
9.185974
9.1701846
9.1546824
9.1394785
9.1245829
9.1100049
9.0957527
9.0818334
9.0682534
9.0550178
9.0421312
9.0295967
9.017417
9.0055935
8.9941269
8.983017
8.9722628
8.9618626
8.9518139
8.9421132
8.9327573
8.9237439
8.9150807
9.6032302
9.5837974
9.56431
9.5447808
9.525229
9.5056753
9.4861402
9.4666445
9.4472085
9.4278527
9.4085969
9.3894609
9.3704639
9.351625
9.3329624
9.3144942
9.2962374
9.2782089
9.2604244
9.2428992
9.2256477
9.2086833
9.1920187
9.1756657
9.1596351
9.1439368
9.1285795
9.1135713
9.098919
9.0846287
9.0707052
9.0571525
9.0439737
9.0311709
9.0187452
9.0066969
8.9950254
8.9837293
8.9728064
8.9622537
8.9520675
8.942244
8.9327805
8.9236846
9.6553659
9.6343381
9.6132891
9.5922309
9.5711824
9.5501638
9.5291954
9.5082976
9.4874905
9.4667941
9.4462281
9.4258119
9.4055645
9.3855047
9.3656506
9.3460198
9.3266293
9.3074955
9.2886342
9.2700601
9.2517874
9.2338295
9.2161986
9.1989062
9.1819629
9.1653782
9.1491606
9.1333179
9.1178564
9.1027818
9.0880988
9.0738108
9.0599205
9.0464296
9.0333388
9.020648
9.0083561
8.9964612
8.9849607
8.9738511
8.9631283
8.9527878
8.9428265
8.933252
9.7115496
9.6887935
9.6660527
9.6433391
9.6206713
9.5980689
9.5755519
9.5531402
9.5308534
9.5087112
9.4867328
9.4649373
9.4433434
9.4219694
9.400833
9.3799516
9.3593419
9.33902
9.3190011
9.2992999
9.2799301
9.2609048
9.242236
9.2239348
9.2060114
9.1884749
9.1713336
9.1545947
9.1382644
9.1223478
9.1068491
9.0917715
9.0771171
9.0628872
9.0490821
9.0357011
9.0227426
9.0102044
8.9980832
8.9863751
8.9750754
8.9641792
8.9536828
8.9435934
9.7708611
9.7462779
9.7217424
9.6972727
9.6728879
9.6486075
9.6244507
9.600437
9.5765855
9.5529152
9.529445
9.5061932
9.4831782
9.4604178
9.4379294
9.4157297
9.3938352
9.3722614
9.3510234
9.3301353
9.3096106
9.2894618
9.2697006
9.2503377
9.2313829
9.212845
9.1947318
9.1770501
9.1598057
9.1430032
9.1266464
9.110738
9.0952797
9.0802722
9.0657154
9.051608
9.037948
9.0247326
9.011958
8.9996198
8.9877127
8.9762312
8.965171
8.9545393
9.8857659
9.8591091
9.8325266
9.8060205
9.7796059
9.7533006
9.7271231
9.701092
9.6752258
9.6495432
9.6240626
9.5988022
9.5737803
9.5490148
9.5245232
9.5003229
9.4764307
9.4528628
9.4296352
9.4067631
9.3842608
9.3621422
9.3404203
9.3191071
9.298214
9.2777511
9.2577279
9.2381527
9.2190328
9.2003746
9.1821834
9.1644633
9.1472178
9.1304489
9.1141579
9.098345
9.0830094
9.0681496
9.0537628
9.0398457
9.0263941
9.0134028
9.0008661
8.9887779
8.9771333
8.9659392
9.9531868
9.9244505
9.8958317
9.8673368
9.838981
9.8107815
9.7827554
9.7549206
9.7272944
9.6998945
9.6727386
9.645844
9.6192283
9.5929084
9.5669015
9.541224
9.5158922
9.4909218
9.4663281
9.4421257
9.4183285
9.3949499
9.3720022
9.3494972
9.3274455
9.305857
9.2847405
9.264104
9.2439542
9.224297
9.2051372
9.1864786
9.1683239
9.1506748
9.1335319
9.1168951
9.1007629
9.0851331
9.0700027
9.0553677
9.0412231
9.0275635
9.0143825
9.0016732
8.9894302
8.9776602
10.021737
9.9908624
9.9601578
9.9296286
9.899289
9.8691548
9.8392423
9.8095679
9.7801479
9.7509989
9.7221375
9.6935803
9.6653437
9.6374441
9.6098976
9.5827199
9.5559267
9.5295329
9.5035532
9.4780016
9.4528915
9.4282354
9.4040454
9.3803326
9.357107
9.3343781
9.3121542
9.2904427
9.2692498
9.2485809
9.2284404
9.2088313
9.1897559
9.1712154
9.15321
9.1357387
9.1187997
9.1023903
9.0865067
9.0711445
9.0562981
9.0419614
9.0281275
9.0147888
9.0019395
8.9895857
10.090838
10.05779
10.024968
9.9923759
9.9600261
9.9279331
9.8961118
9.8645772
9.8333444
9.802429
9.7718462
9.7416117
9.7117408
9.6822489
9.6531513
9.6244629
9.5961985
9.5683724
9.5409983
9.5140898
9.4876594
9.4617192
9.4362805
9.4113539
9.386949
9.3630744
9.3397381
9.3169468
9.2947064
9.2730215
9.251896
9.2313325
9.2113326
9.1918971
9.1730254
9.1547162
9.1369671
9.1197747
9.1031347
9.087042
9.0714907
9.0564739
9.0419841
9.0280132
9.0145546
9.0016142
10.15999
10.124751
10.089797
10.055128
10.020756
9.9866939
9.9529552
9.9195533
9.886502
9.8538153
9.8215076
9.7895931
9.7580861
9.727001
9.696352
9.6661531
9.6364183
9.6071609
9.5783942
9.5501305
9.522382
9.4951601
9.4684754
9.4423377
9.4167562
9.3917389
9.3672931
9.343425
9.3201399
9.2974419
9.2753343
9.2538192
9.2328976
9.2125697
9.1928344
9.1736898
9.1551329
9.1371598
9.1197655
9.1029445
9.0866901
9.0709951
9.0558511
9.0412496
9.0271831
9.0136574
10.228765
10.191331
10.154241
10.117495
10.081102
10.045073
10.009421
9.9741562
9.9392919
9.9048406
9.8708151
9.8372284
9.8040938
9.7714243
9.7392332
9.7075334
9.676338
9.6456595
9.6155101
9.5859016
9.5568453
9.5283519
9.5004312
9.4730926
9.4463444
9.4201943
9.3946486
9.3697132
9.3453927
9.3216908
9.2986099
9.2761518
9.2543169
9.2331046
9.2125136
9.1925411
9.1731838
9.1544369
9.1362952
9.1187524
9.1018012
9.0854338
9.0696414
9.0544147
9.0397456
9.0256394
10.296791
10.25717
10.217956
10.179144
10.140742
10.10276
10.065208
10.028095
9.9914338
9.9552339
9.9195072
9.8842653
9.8495202
9.8152838
9.7815681
9.7483851
9.7157467
9.6836646
9.65215
9.621214
9.590867
9.561119
9.5319791
9.503456
9.4755573
9.4482899
9.4216599
9.3956722
9.370331
9.3456393
9.3215992
9.2982115
9.2754763
9.2533925
9.231958
9.2111696
9.1910232
9.1715137
9.1526352
9.1343808
9.1167428
9.0997125
9.0832808
9.0674376
9.0521741
9.0374955
10.363749
10.321965
10.280646
10.23979
10.199402
10.159489
10.120061
10.081125
10.04269
10.004766
9.9673627
9.9304904
9.8941596
9.8583809
9.8231652
9.7885235
9.7544663
9.7210046
9.6881486
9.6559084
9.6242937
9.5933137
9.5629767
9.5332907
9.5042627
9.4758989
9.4482047
9.4211846
9.3948419
9.3691791
9.3441978
9.3198982
9.2962798
9.273341
9.251079
9.2294901
9.2085696
9.188312
9.1687107
9.1497581
9.131446
9.1137654
9.0967063
9.080258
9.0644112
9.0491707
10.429369
10.385458
10.342066
10.299195
10.256851
10.215039
10.173766
10.133037
10.092861
10.053245
10.014196
9.975725
9.9378397
9.9005498
9.8638648
9.8277944
9.7923484
9.7575364
9.7233679
9.6898519
9.6569974
9.6248126
9.5933053
9.5624826
9.5323507
9.5029154
9.4741813
9.4461523
9.4188311
9.3922196
9.3663187
9.3411283
9.3166471
9.292873
9.2698026
9.2474317
9.225755
9.2047665
9.1844589
9.1648242
9.1458536
9.1275374
9.1098652
9.0928257
9.0764087
9.0606189
10.540058
10.493449
10.447437
10.402007
10.35716
10.312898
10.269225
10.226145
10.183662
10.141782
10.100511
10.059855
10.019822
9.9804186
9.9416534
9.9035347
9.8660709
9.8292705
9.7931421
9.7576943
9.7229352
9.6888727
9.6555144
9.6228672
9.5909375
9.5597309
9.5292524
9.4995059
9.4704948
9.4422211
9.4146862
9.3878904
9.3618329
9.336512
9.3119249
9.2880677
9.2649357
9.2425231
9.2208232
9.1998281
9.1795295
9.1599179
9.1409831
9.122714
9.1050988
9.0881267
9.0718018
10.604521
10.555791
10.507722
10.460299
10.41352
10.367385
10.321895
10.277053
10.232859
10.189319
10.146436
10.104214
10.062661
10.021781
9.9815807
9.942068
9.9032497
9.8651333
9.8277262
9.7910358
9.7550695
9.7198343
9.6853369
9.6515834
9.6185794
9.58633
9.5548392
9.5241106
9.4941467
9.4649491
9.4365185
9.4088546
9.3819561
9.3558207
9.3304451
9.3058249
9.2819547
9.2588282
9.2364382
9.2147764
9.1938337
9.1736002
9.1540652
9.135217
9.1170432
9.0995324
9.0826883
10.667038
10.616243
10.566169
10.516804
10.468144
10.420186
10.372929
10.326372
10.280516
10.235363
10.190915
10.147175
10.104146
10.061834
10.020243
9.9793797
9.9392492
9.8998581
9.8612126
9.8233194
9.7861846
9.7498145
9.7142148
9.679391
9.6453479
9.6120896
9.5796199
9.5479415
9.5170562
9.4869651
9.4576684
9.4291652
9.4014535
9.3745306
9.3483926
9.3230345
9.2984505
9.2746338
9.2515765
9.2292699
9.2077043
9.1868695
9.166754
9.1473457
9.1286317
9.1105996
9.0932532
10.727484
10.674686
10.622665
10.571414
10.520928
10.471201
10.42223
10.374013
10.326547
10.279832
10.233869
10.188659
10.144204
10.100508
10.057573
10.015404
9.9740061
9.933384
9.8935431
9.8544888
9.8162264
9.7787612
9.7420981
9.7062418
9.6711963
9.6369652
9.6035514
9.570957
9.5391833
9.5082308
9.478099
9.4487864
9.4202908
9.3926086
9.3657354
9.339666
9.3143938
9.2899116
9.2662109
9.2432825
9.2211164
9.1997016
9.1790264
9.1590779
9.1398428
9.121308
9.1034769
10.841402
10.785784
10.731034
10.677125
10.624048
10.571794
10.520356
10.469728
10.419906
10.370885
10.322663
10.275238
10.22861
10.18278
10.137749
10.093518
10.050092
10.007474
9.9656663
9.9246745
9.8845025
9.8451549
9.806636
9.7689497
9.7321001
9.6960905
9.6609236
9.6266018
9.5931265
9.5604985
9.5287175
9.4977827
9.4676919
9.4384424
9.41003
9.3824501
9.3556966
9.3297626
9.3046403
9.2803209
9.2567947
9.234051
9.2120785
9.1908648
9.1703968
9.1506604
9.1316421
9.1133445
10.899426
10.841856
10.785218
10.729485
10.674644
10.620685
10.567597
10.515372
10.464003
10.413484
10.363811
10.314979
10.266988
10.219835
10.17352
10.128045
10.083411
10.039619
9.9966738
9.9545768
9.9133319
9.8729425
9.8334121
9.7947441
9.7569413
9.7200066
9.6839419
9.648749
9.6144287
9.5809811
9.5484055
9.5167003
9.4858631
9.4558904
9.4267778
9.3985198
9.3711102
9.3445414
9.3188052
9.2938923
9.2697925
9.2464947
9.2239871
9.2022569
9.1812904
9.1610731
9.1415906
9.1228454
10.955098
10.89565
10.837194
10.779704
10.723166
10.667565
10.61289
10.559129
10.506274
10.454316
10.403249
10.353067
10.303767
10.255345
10.2078
10.161131
10.115339
10.070424
10.026387
9.9832319
9.9409593
9.8995724
9.8590736
9.8194655
9.7807504
9.7429301
9.7060062
9.6699795
9.6348505
9.6006185
9.5672825
9.5348402
9.5032886
9.4726239
9.4428411
9.4139343
9.3858967
9.3587204
9.3323966
9.3069157
9.2822669
9.2584388
9.235419
9.2131944
9.1917508
9.171073
9.1511462
9.1319725
11.008388
10.947139
10.886936
10.827758
10.769589
10.712413
10.656215
10.600982
10.546702
10.493366
10.440963
10.389489
10.338935
10.289299
10.240577
10.192767
10.145867
10.099878
10.054799
10.010632
9.967377
9.925037
9.8836131
9.8431071
9.8035205
9.7648545
9.7271099
9.6902871
9.6543858
9.6194049
9.5853427
9.5521965
9.5199629
9.4886374
9.4582146
9.4286883
9.400051
9.3722946
9.3454098
9.3193864
9.2942133
9.2698788
9.2463699
9.2236731
9.2017737
9.1806562
9.160305
9.1407218
11.123437
11.059304
10.996316
10.934436
10.873641
10.81391
10.755226
10.69757
10.640928
10.585286
10.530631
10.476953
10.424243
10.372493
10.321698
10.271852
10.222952
10.174996
10.127982
10.081908
10.036776
9.9925856
9.9493369
9.9070312
9.8656693
9.8252521
9.7857801
9.7472536
9.7096721
9.6730348
9.6373403
9.6025861
9.5687692
9.5358856
9.5039305
9.4728979
9.4427812
9.4135726
9.3852633
9.3578438
9.3313035
9.3056308
9.2808136
9.2568385
9.2336917
9.2113581
9.1898214
9.1690655
9.1490919
11.173696
11.107836
11.043185
10.9797
10.917358
10.856135
10.796009
10.736962
10.678975
10.622033
10.566121
10.511226
10.457339
10.404449
10.352549
10.301633
10.251696
10.202734
10.154744
10.107724
10.061674
10.016593
9.9724795
9.9293349
9.887159
9.8459518
9.8057133
9.7664429
9.7281399
9.6908029
9.6544296
9.6190175
9.5845628
9.5510611
9.5185072
9.4868948
9.4562166
9.4264645
9.3976295
9.3697015
9.3426695
9.3165216
9.2912452
9.2668268
9.2432519
9.2205053
9.19857
9.1774291
9.1570835
11.221507
11.154
11.087761
11.022747
10.958929
10.896283
10.834784
10.77441
10.715143
10.656963
10.599854
10.543802
10.488794
10.43482
10.381871
10.329937
10.279014
10.229096
10.18018
10.132261
10.085339
10.039412
9.9944781
9.9505371
9.9075884
9.8656313
9.8246651
9.7846888
9.745701
9.7076997
9.6706823
9.6346456
9.5995855
9.5654973
9.532375
9.5002122
9.4690011
9.4387332
9.4093991
9.3809883
9.3534896
9.3268906
9.3011784
9.276339
9.2523578
9.2292191
9.2069055
9.1853989
9.1646983
11.266902
11.197826
11.130075
11.063604
10.998382
10.934382
10.871577
10.809943
10.749458
10.690102
10.631857
10.574706
10.518635
10.463632
10.409686
10.356788
10.30493
10.254105
10.20431
10.15554
10.107792
10.061063
10.015351
9.9706553
9.9269743
9.8843067
9.8426511
9.802006
9.7623694
9.7237388
9.6861112
9.6494828
9.6138493
9.5792052
9.5455446
9.5128602
9.4811442
9.4503876
9.4205807
9.3917125
9.3637715
9.3367451
9.3106199
9.2853816
9.2610154
9.2375052
9.2148335
9.1929807
9.1719399
11.309922
11.239353
11.170166
11.102311
11.035755
10.970469
10.906424
10.843595
10.781955
10.721484
10.662162
10.60397
10.546892
10.490914
10.436025
10.382213
10.32947
10.277788
10.227162
10.177585
10.129055
10.081567
10.03512
9.9897108
9.9453373
9.9019977
9.8596903
9.8184127
9.7781625
9.7389369
9.7007322
9.6635443
9.6273685
9.5921989
9.558029
9.5248515
9.492658
9.4614392
9.431185
9.4018843
9.373525
9.3460942
9.3195783
9.2939627
9.2692322
9.2453707
9.2223608
9.2001824
9.1788239
9.1582885
11.350614
11.278629
11.208079
11.138912
11.071092
11.004589
10.93937
10.875408
10.812676
10.75115
10.690808
10.631631
10.573601
10.516702
10.460921
10.406246
10.352667
10.300175
10.248763
10.198426
10.149157
10.100954
10.053812
10.007728
9.9627012
9.9187273
9.8758044
9.8339298
9.7931005
9.7533131
9.7145637
9.6768477
9.6401599
9.6044942
9.5698436
9.5362005
9.5035562
9.4719011
9.4412247
9.4115155
9.3827613
9.3549487
9.3280639
9.302092
9.2770174
9.2528239
9.2294939
9.2070074
9.1853467
9.1645197
11.389034
11.315709
11.243869
11.17346
11.104445
11.03679
10.970461
10.905429
10.841665
10.779143
10.717839
10.657732
10.598803
10.541035
10.484413
10.428924
10.374556
10.321301
10.269149
10.218093
10.168129
10.119251
10.071454
10.024736
9.9790923
9.9345207
9.8910179
9.8485807
9.8072057
9.766889
9.7276262
9.6894126
9.6522423
9.616109
9.5810055
9.5469236
9.5138545
9.4817881
9.4507138
9.4206197
9.3914932
9.3633208
9.3360882
9.3097803
9.2843813
9.2598745
9.2362422
9.2134646
9.1915209
9.1704161
11.425243
11.350651
11.277593
11.206011
11.135868
11.067126
10.999751
10.93371
10.868973
10.805511
10.743301
10.682318
10.622543
10.563956
10.506542
10.450287
10.395177
10.341202
10.288353
10.236623
10.186003
10.13649
10.088078
10.040762
9.994539
9.9494052
9.9053568
9.8623904
9.820502
9.7796874
9.7399418
9.7012599
9.6636358
9.6270627
9.591533
9.5570384
9.5235696
9.4911163
9.4596675
9.4292112
9.3997345
9.3712236
9.3436638
9.3170398
9.2913354
9.2665336
9.2426165
9.2195642
9.1973549
9.1759906
11.459307
11.383521
11.309314
11.236628
11.165422
11.095656
11.027296
10.960305
10.894651
10.830307
10.767244
10.705437
10.644866
10.58551
10.527352
10.470376
10.414568
10.359918
10.306415
10.25405
10.202816
10.152706
10.103715
10.055839
10.009071
9.9634094
9.9188488
9.8753854
9.8330149
9.7917327
9.7515337
9.7124121
9.6743618
9.6373756
9.6014457
9.5665634
9.5327192
9.4999026
9.4681021
9.4373057
9.4075
9.3786711
9.350804
9.3238831
9.2978918
9.2728131
9.2486284
9.2253178
9.2028592
9.1812526
11.491296
11.414386
11.339098
11.265373
11.193167
11.12244
11.053153
10.98527
10.918757
10.853583
10.789719
10.727139
10.665821
10.605743
10.546887
10.489235
10.432773
10.37749
10.323373
10.270413
10.218602
10.167934
10.118401
10.069998
10.02272
9.9765634
9.9315226
9.8875933
9.8447709
9.8030504
9.7624262
9.7228925
9.6844426
9.6470691
9.610764
9.5755182
9.541322
9.5081647
9.4760345
9.4449191
9.414805
9.3856779
9.3575227
9.3303235
9.3040634
9.278725
9.2542896
9.2307369
9.2080446
9.1862115
11.521283
11.443317
11.367015
11.292314
11.21917
11.147541
11.077385
11.008666
10.941346
10.875394
10.81078
10.747476
10.685459
10.624704
10.565194
10.506909
10.449835
10.393959
10.339267
10.285751
10.233401
10.182209
10.132168
10.083273
10.035518
9.9888979
9.9434077
9.8990424
9.8557971
9.8136663
9.7726443
9.7327249
9.693901
9.6561651
9.6195087
9.5839228
9.5493971
9.5159209
9.4834822
9.4520682
9.4216654
9.3922593
9.3638345
9.3363747
9.3098631
9.2842818
9.2596119
9.2358328
9.2129218
9.1908771
11.549342
11.470387
11.393133
11.317519
11.243497
11.171022
11.100053
11.030551
10.962477
10.895797
10.830482
10.766501
10.703829
10.642442
10.58232
10.523445
10.465798
10.409368
10.354139
10.300103
10.247248
10.195567
10.145053
10.095698
10.047497
10.000444
9.9545341
9.9097616
9.8661211
9.8236071
9.7822135
9.7419336
9.7027603
9.6646858
9.6277013
9.5917975
9.5569641
9.5231899
9.4904628
9.45877
9.4280975
9.3984307
9.3697539
9.3420509
9.3153044
9.2894963
9.2646075
9.2406172
9.217502
9.1952598
11.575549
11.495668
11.417525
11.341056
11.266213
11.192949
11.12122
11.050986
10.982208
10.914849
10.848878
10.784265
10.720983
10.659006
10.598314
10.538887
10.480707
10.423759
10.36803
10.313509
10.260184
10.208047
10.157091
10.107307
10.05869
10.011234
9.9649321
9.9197798
9.8757709
9.8328996
9.7911593
9.7505433
9.7110442
9.6726539
9.6353634
9.5991631
9.5640426
9.5299905
9.4969945
9.4650415
9.4341175
9.4042076
9.3752961
9.3473662
9.3204007
9.2943813
9.2692887
9.2451016
9.2217962
9.1993701
11.599979
11.519235
11.440261
11.362995
11.287386
11.213386
11.140949
11.070033
11.000598
10.932607
10.866026
10.800823
10.736972
10.674447
10.613223
10.553282
10.494605
10.437176
10.380982
10.326008
10.272246
10.219685
10.168317
10.118134
10.06913
10.021298
9.974632
9.9291262
9.8847744
9.8415704
9.7995075
9.7585787
9.7187763
9.6800919
9.6425165
9.6060403
9.5706525
9.5363417
9.5030954
9.4709002
9.4397421
9.409606
9.3804758
9.352335
9.3251659
9.29895
9.2736678
9.2492979
9.2258158
9.2032187
11.622708
11.541162
11.461414
11.383405
11.307083
11.232398
11.159303
11.087752
11.017706
10.949127
10.881978
10.816228
10.751849
10.688812
10.627095
10.566677
10.507538
10.449662
10.393034
10.337641
10.283472
10.230517
10.178767
10.128213
10.078849
10.030669
9.9836641
9.9378299
9.8931595
9.8496464
9.8072838
9.7660642
9.72598
9.6870224
9.6491823
9.6124497
9.5768136
9.5422624
9.5087834
9.4763633
9.4449877
9.4146414
9.3853083
9.3569715
9.3296133
9.3032151
9.2777573
9.2532178
9.2295719
9.2068162
11.643809
11.56152
11.481054
11.402356
11.325372
11.250051
11.176343
11.104204
11.033591
10.964465
10.89679
10.830532
10.765662
10.702152
10.639978
10.579116
10.519549
10.461259
10.404229
10.348447
10.293901
10.24058
10.188476
10.137578
10.087881
10.039377
9.9920583
9.9459195
9.9009537
9.8571541
9.8145134
9.7730244
9.7326788
9.6934679
9.6553823
9.6184118
9.5825455
9.5477713
9.5140767
9.4814479
9.4498706
9.4193295
9.3898082
9.3612899
9.3337567
9.3071897
9.2815692
9.2568731
9.2330758
9.2101734
11.924094
11.835165
11.748267
11.663368
11.580383
11.499252
11.419915
11.342318
11.266407
11.192133
11.119448
11.04831
10.978678
10.910516
10.843787
10.778463
10.714515
10.651916
10.590645
10.530682
10.472007
10.414606
10.358465
10.30357
10.249911
10.197478
10.146262
10.096257
10.047453
9.9998441
9.9534236
9.9081844
9.8641195
9.8212217
9.7794832
9.7388957
9.6994504
9.6611376
9.6239471
9.5878676
9.5528871
9.5189928
9.486171
9.4544071
9.4236857
9.3939905
9.3653043
9.3376093
9.3108865
9.285116
9.2602753
9.2363385
9.213301
12.036061
11.944258
11.854606
11.767022
11.681451
11.597825
11.516078
11.43615
11.357986
11.28153
11.206731
11.133543
11.06192
10.99182
10.923207
10.856044
10.790301
10.725947
10.662957
10.601308
10.540978
10.48195
10.424205
10.367731
10.312514
10.258543
10.205807
10.154298
10.104008
10.054927
10.007051
9.9603698
9.9148782
9.8705684
9.8274331
9.7854642
9.7446534
9.7049916
9.6664691
9.6290753
9.592799
9.557628
9.5235494
9.4905494
9.4586132
9.4277254
9.3978696
9.3690286
9.3411844
9.314318
9.2884094
9.263436
9.239371
9.2162094
12.055369
11.962866
11.872544
11.784321
11.698133
11.613914
11.531599
11.451127
11.372439
11.295481
11.220199
11.146546
11.074475
11.003945
10.934916
10.867353
10.801223
10.736496
10.673146
10.611148
10.550481
10.491125
10.433065
10.376285
10.320771
10.266512
10.213497
10.161718
10.111165
10.06183
10.013706
9.9667856
9.9210614
9.8765261
9.8331719
9.7909908
9.7499743
9.710113
9.6713971
9.6338161
9.5973585
9.562012
9.5277636
9.4945993
9.4625045
9.4314634
9.4014598
9.3724763
9.3444949
9.3174966
9.2914614
9.2663663
9.2421841
9.2189091
12.073139
11.979992
11.889053
11.800239
11.713484
11.62872
11.545883
11.46491
11.38574
11.308319
11.232593
11.158512
11.08603
11.015104
10.945693
10.877762
10.811276
10.746206
10.682524
10.620206
10.559229
10.499574
10.441223
10.384161
10.328375
10.273851
10.220581
10.168552
10.117758
10.068189
10.019838
9.9726975
9.9267596
9.882017
9.8384617
9.7960856
9.7548799
9.7148353
9.6759418
9.6381887
9.6015644
9.5660566
9.5316521
9.4983369
9.4660963
9.4349145
9.4047751
9.3756608
9.3475535
9.3204344
9.2942833
9.2690773
9.2447884
9.2214102
12.089453
11.995713
11.904208
11.814851
11.727575
11.642311
11.558994
11.477561
11.39795
11.320104
11.24397
11.169497
11.096638
11.025348
10.955587
10.887318
10.820507
10.755122
10.691136
10.628524
10.567263
10.507333
10.448716
10.391396
10.335359
10.280594
10.227088
10.174832
10.123816
10.074033
10.025474
9.9781316
9.9319978
9.8870651
9.8433255
9.8007706
9.7593916
9.7191789
9.6801226
9.6422117
9.6054346
9.5697789
9.5352314
9.5017779
9.4694037
9.4380929
9.4078291
9.378595
9.3503727
9.3231432
9.2968864
9.2715795
9.2471941
9.2237226
12.104387
12.010104
11.91808
11.828225
11.740472
11.654752
11.570996
11.489141
11.409126
11.330892
11.254385
11.179553
11.106349
11.034726
10.964645
10.896067
10.828958
10.763286
10.699022
10.636142
10.574621
10.514439
10.455579
10.398023
10.341758
10.286771
10.23305
10.180586
10.129369
10.079389
10.03064
9.983113
9.9368002
9.8916938
9.8477856
9.8050673
9.7635298
9.7231635
9.6839583
9.6459032
9.6089865
9.5731957
9.5385174
9.5049376
9.4724412
9.4410126
9.4106352
9.3812918
9.3529644
9.3256343
9.2992816
9.2738835
9.2494111
9.2258562
12.118018
12.023239
11.93074
11.840431
11.752243
11.666105
11.581949
11.49971
11.419326
11.340738
11.263891
11.188732
11.115212
11.043287
10.972914
10.904054
10.836674
10.770739
10.706222
10.643097
10.581339
10.520929
10.461846
10.404076
10.347603
10.292414
10.238498
10.185843
10.134442
10.084284
10.035361
9.9876661
9.9411901
9.8959254
9.8518638
9.8089965
9.7673146
9.7268083
9.6874675
9.649281
9.612237
9.576323
9.5415256
9.5078306
9.4752231
9.4436871
9.4132063
9.3837634
9.3553405
9.327919
9.3014794
9.2759991
9.2514492
9.2278203
12.130418
12.035187
11.942256
11.851534
11.76295
11.676432
11.591912
11.509324
11.428604
11.349695
11.272538
11.197082
11.123276
11.051075
10.980437
10.911322
10.843694
10.777522
10.712775
10.649427
10.587454
10.526836
10.467552
10.409586
10.352924
10.297552
10.243458
10.190631
10.139063
10.088742
10.039663
9.9918145
9.9451904
9.8997819
9.8555808
9.8125783
9.7707652
9.7301319
9.6906678
9.6523619
9.6152024
9.5791766
9.5442711
9.5104715
9.477763
9.4461296
9.4155549
9.3860217
9.3575122
9.3300081
9.3034899
9.2779359
9.2533173
9.2296239
12.141657
12.046017
11.952694
11.861597
11.772653
11.685791
11.600942
11.518037
11.437014
11.357813
11.280376
11.20465
11.130586
11.058135
10.987257
10.91791
10.85006
10.783672
10.718717
10.655167
10.593
10.532193
10.472727
10.414585
10.357752
10.302214
10.247959
10.194977
10.143256
10.09279
10.043567
9.995581
9.9488228
9.9032843
9.858957
9.8158321
9.7739004
9.733152
9.6935765
9.6551626
9.6178986
9.5817716
9.5467682
9.5128741
9.4800742
9.4483527
9.4176932
9.3880784
9.3594906
9.3319118
9.3053231
9.2797032
9.2550243
9.2312754
12.151802
12.055792
11.962116
11.87068
11.781413
11.69424
11.609093
11.525903
11.444606
11.365142
11.287452
11.211484
11.137185
11.06451
10.993415
10.92386
10.855808
10.789226
10.724083
10.660353
10.59801
10.537033
10.477403
10.419102
10.362115
10.306427
10.252028
10.198904
10.147048
10.096449
10.047098
9.9989875
9.9521085
9.9064528
9.8620118
9.8187766
9.776738
9.735886
9.69621
9.6576989
9.6203407
9.5841226
9.5490311
9.5150518
9.4821696
9.4503688
9.4196328
9.3899446
9.3612864
9.3336404
9.3069883
9.2813098
9.2565782
9.2327823
12.160919
12.064577
11.970582
11.878843
11.789284
11.701833
11.616418
11.532971
11.451428
11.371728
11.293812
11.217625
11.143117
11.070241
10.998951
10.929209
10.860976
10.79422
10.728909
10.665016
10.602516
10.541387
10.481609
10.423166
10.36604
10.310218
10.255689
10.20244
10.150461
10.099743
10.050277
10.002055
9.9550677
9.9093069
9.8647639
9.8214299
9.7792954
9.7383505
9.6985845
9.6599861
9.6225435
9.5862437
9.5510731
9.5170175
9.4840616
9.4521897
9.4213852
9.3916311
9.3629098
9.3352036
9.3084947
9.2827639
9.2579864
9.2341508
12.169069
12.07243
11.978151
11.88614
11.796321
11.70862
11.622967
11.539291
11.457529
11.377617
11.299498
11.223117
11.148422
11.075366
11.003903
10.933993
10.8656
10.798687
10.733226
10.669188
10.606548
10.545283
10.485374
10.426803
10.369554
10.313613
10.258967
10.205606
10.153518
10.102694
10.053126
10.004804
9.9577199
9.9118653
9.8672314
9.8238092
9.7815892
9.7405613
9.700715
9.662039
9.624521
9.5881483
9.5529073
9.5187836
9.485762
9.4538267
9.4229612
9.3931484
9.3643708
9.3366109
9.3098512
9.2840736
9.2592556
9.2353842
12.176312
12.079409
11.984878
11.892625
11.802575
11.714653
11.628788
11.544909
11.462951
11.382852
11.304554
11.228
11.153139
11.079922
11.008306
10.938248
10.869711
10.802661
10.737067
10.6729
10.610135
10.54875
10.488724
10.43004
10.372682
10.316635
10.261886
10.208425
10.156241
10.105323
10.055664
10.007253
9.9600837
9.914146
9.8694315
9.8259311
9.7836353
9.742534
9.7026165
9.6638715
9.6262868
9.5898496
9.5545461
9.5203621
9.4872823
9.4552909
9.4243713
9.3945065
9.365679
9.3378713
9.3110663
9.2852467
9.2603919
9.2364807
9.2135292
12.182706
12.08557
11.990816
11.89835
11.808096
11.719979
11.633926
11.549868
11.467738
11.387474
11.309017
11.232311
11.157304
11.083947
11.012195
10.942006
10.873343
10.806172
10.74046
10.67618
10.613305
10.551814
10.491686
10.432902
10.375448
10.319307
10.264468
10.210919
10.15865
10.10765
10.05791
10.009422
9.962177
9.9161661
9.8713806
9.8278114
9.7854489
9.744283
9.7043029
9.6654972
9.6278538
9.5913598
9.5560015
9.5217645
9.4886335
9.4565926
9.4256255
9.3957149
9.3668436
9.3389938
9.3121485
9.286291
9.2614021
9.2374561
9.2144497
12.188305
12.090965
11.996016
11.903363
11.812931
11.724643
11.638426
11.554211
11.471931
11.391523
11.312927
11.236088
11.160953
11.087473
11.015602
10.9453
10.876527
10.809249
10.743435
10.679056
10.616085
10.554502
10.494284
10.435413
10.377875
10.321653
10.266735
10.213109
10.160765
10.109693
10.059884
10.011328
9.9640168
9.9179421
9.8730947
9.8294654
9.7870447
9.7458224
9.7057877
9.6669291
9.6292345
9.592691
9.5572849
9.5230016
9.489826
9.4577421
9.4267335
9.3967831
9.3678733
9.3399867
9.3131059
9.2872144
9.262294
9.2383162
9.2152702
12.193159
12.095642
12.000525
11.90771
11.817124
11.728688
11.64233
11.557978
11.475568
11.395035
11.31632
11.239365
11.164119
11.090533
11.01856
10.948159
10.879291
10.811921
10.746018
10.681553
10.618501
10.556837
10.496541
10.437596
10.379985
10.323692
10.268706
10.215014
10.162606
10.111472
10.061602
10.012987
9.9656193
9.9194895
9.8745886
9.8309075
9.7884366
9.7471655
9.7070837
9.6681795
9.6304407
9.5938545
9.558407
9.5240839
9.4908698
9.4587489
9.4277045
9.3977196
9.3687767
9.3408581
9.3139464
9.2880248
9.2630754
9.2390696
9.2159857
9.1938151
12.19732
12.099651
12.004388
11.911436
11.820717
11.732155
11.645676
11.561208
11.478686
11.398046
11.319228
11.242176
11.166835
11.093158
11.021097
10.950612
10.881663
10.814215
10.748236
10.683698
10.620575
10.558843
10.498481
10.439472
10.381798
10.325446
10.270401
10.216653
10.16419
10.113002
10.063081
10.014416
9.9670001
9.9208232
9.8758767
9.8321514
9.7896376
9.7483251
9.7082031
9.66926
9.6314836
9.594861
9.5593784
9.5250213
9.4917745
9.4596219
9.4285472
9.398533
9.3695618
9.3416159
9.3146775
9.2887295
9.2637539
9.2397234
9.2166093
9.1943902
12.200833
12.103036
12.007651
11.914582
11.823752
11.735084
11.648502
11.563936
11.48132
11.40059
11.321686
11.244551
11.169131
11.095377
11.023243
10.952686
10.883669
10.816155
10.750113
10.685514
10.622331
10.560541
10.500124
10.441061
10.383335
10.326932
10.271839
10.218043
10.165534
10.114302
10.064337