/*--------------------------------*- C++ -*----------------------------------*\
| =========                 |                                                 |
| \\      /  F ield         | OpenFOAM: The Open Source CFD Toolbox           |
|  \\    /   O peration     | Version:  2312                                  |
|   \\  /    A nd           | Website:  www.openfoam.com                      |
|    \\/     M anipulation  |                                                 |
\*---------------------------------------------------------------------------*/
FoamFile
{
    version     2.0;
    format      ascii;
    arch        "LSB;label=32;scalar=64";
    class       volScalarField;
    location    "0.08";
    object      Ma;
}
// * * * * * * * * * * * * * * * * * * * * * * * * * * * * * * * * * * * * * //

dimensions      [0 0 0 0 0 0 0];

internalField   nonuniform List<scalar> 
3250
(
0.0034254219
0.0034031717
0.0033801182
0.0033563177
0.0033317651
0.003306478
0.0032804829
0.0032538075
0.00322648
0.0031985293
0.0031699843
0.0031408746
0.0031112298
0.0030810799
0.0030504548
0.0030193847
0.0029878999
0.0029560303
0.0029238062
0.0028912573
0.0028584133
0.0028253035
0.002791957
0.0027584024
0.0027246677
0.0026907806
0.0026567683
0.0026226572
0.0025884735
0.0025542424
0.0025199889
0.0024857373
0.0024515113
0.0024173341
0.0023832285
0.0023492165
0.0023153194
0.0022815578
0.0022479509
0.0022145163
0.0021812692
0.0021482211
0.0021153933
0.0020828262
0.0033358549
0.0033132414
0.0032898333
0.0032657237
0.0032409226
0.0032154466
0.0031893214
0.0031625733
0.0031352294
0.0031073175
0.0030788656
0.0030499019
0.0030204551
0.0029905536
0.0029602261
0.0029295014
0.0028984082
0.002866975
0.0028352304
0.0028032025
0.0027709194
0.0027384087
0.0027056977
0.0026728133
0.0026397819
0.0026066295
0.0025733814
0.0025400623
0.0025066967
0.0024733081
0.0024399196
0.0024065537
0.0023732324
0.0023399774
0.0023068095
0.0022737494
0.0022408174
0.0022080332
0.0021754159
0.0021429838
0.0021107537
0.0020787353
0.0020469284
0.0020153621
0.0032837246
0.0032605177
0.0032365586
0.0032119405
0.0031866744
0.0031607768
0.0031342734
0.0031071904
0.0030795545
0.0030513928
0.0030227328
0.0029936021
0.0029640285
0.0029340398
0.0029036638
0.0028729284
0.0028418613
0.0028104902
0.0027788426
0.0027469456
0.0027148261
0.0026825108
0.0026500259
0.0026173971
0.0025846497
0.0025518084
0.0025188974
0.0024859404
0.0024529604
0.0024199799
0.0023870205
0.0023541037
0.00232125
0.0022884798
0.0022558128
0.0022232685
0.0021908663
0.0021586251
0.0021265639
0.0020947014
0.0020630554
0.0020316382
0.0020004475
0.0019694923
0.0032399227
0.0032159509
0.0031912735
0.0031659822
0.0031400876
0.0031136064
0.0030865642
0.0030589871
0.0030309016
0.0030023343
0.0029733122
0.0029438623
0.0029140116
0.0028837874
0.0028532165
0.002822326
0.0027911427
0.0027596935
0.0027280047
0.0026961027
0.0026640132
0.0026317619
0.0025993738
0.0025668736
0.0025342855
0.0025016331
0.0024689394
0.0024362269
0.0024035174
0.0023708321
0.0023381916
0.0023056159
0.0022731244
0.0022407359
0.0022084692
0.0021763424
0.0021443738
0.0021125816
0.002080984
0.0020495993
0.002018445
0.001987533
0.0019568597
0.0019264311
0.0032037616
0.0031788637
0.003153308
0.0031271846
0.0031005035
0.0030732815
0.0030455445
0.0030173184
0.0029886296
0.0029595044
0.0029299693
0.0029000507
0.0028697752
0.0028391692
0.002808259
0.0027770707
0.0027456306
0.0027139644
0.0026820976
0.0026500557
0.0026178635
0.0025855455
0.0025531259
0.0025206283
0.0024880757
0.0024554907
0.0024228952
0.0023903105
0.0023577573
0.0023252555
0.0022928246
0.0022604833
0.0022282497
0.0021961414
0.0021641759
0.0021323702
0.0021007413
0.0020693066
0.0020380835
0.0020070895
0.0019763418
0.0019458515
0.0019156133
0.0018856309
0.003175152
0.0031491862
0.0031226108
0.0030955139
0.0030679052
0.0030398017
0.0030112295
0.0029822147
0.0029527833
0.0029229616
0.0028927757
0.0028622517
0.0028314154
0.0028002928
0.0027689095
0.002737291
0.0027054626
0.0026734494
0.0026412762
0.0026089673
0.0025765469
0.0025440384
0.0025114651
0.0024788496
0.0024462139
0.0024135794
0.0023809672
0.0023483973
0.0023158893
0.0022834621
0.0022511339
0.0022189222
0.0021868439
0.0021549155
0.0021231531
0.0020915725
0.0020601898
0.0020290212
0.0019980832
0.0019673926
0.0019369661
0.0019068139
0.001876929
0.0018473128
0.00315351
0.0031263544
0.0030986368
0.0030704418
0.0030417806
0.0030126706
0.0029831384
0.00295321
0.0029229117
0.0028922694
0.0028613091
0.0028300564
0.0027985368
0.0027667757
0.0027347981
0.0027026289
0.0026702929
0.0026378144
0.0026052173
0.0025725252
0.0025397615
0.0025069488
0.0024741094
0.0024412649
0.0024084365
0.0023756446
0.0023429091
0.0023102491
0.0022776832
0.0022452292
0.002212904
0.0021807241
0.0021487052
0.0021168626
0.0020852111
0.0020537656
0.0020225409
0.0019915522
0.0019608151
0.0019303457
0.0019001596
0.0018702666
0.0018406579
0.0018113324
0.0031382255
0.0031097658
0.0030808078
0.0030514074
0.0030215839
0.0029913578
0.0029607556
0.0029298039
0.0028985287
0.0028669561
0.0028351116
0.0028030207
0.0027707084
0.0027381998
0.0027055193
0.0026726915
0.0026397403
0.0026066894
0.0025735623
0.0025403818
0.0025071703
0.0024739499
0.0024407418
0.0024075669
0.0023744455
0.0023413971
0.0023084406
0.0022755941
0.0022428752
0.0022103006
0.0021778863
0.0021456475
0.002113599
0.0020817548
0.0020501286
0.0020187342
0.0019875853
0.0019566959
0.0019260809
0.0018957553
0.0018657342
0.0018360265
0.0018066215
0.0017775159
0.0031287705
0.0030988689
0.0030685743
0.0030378801
0.0030067997
0.0029753624
0.0029435953
0.0029115249
0.0028791773
0.0028465784
0.0028137538
0.0027807285
0.0027475273
0.0027141749
0.0026806954
0.0026471129
0.0026134507
0.0025797321
0.0025459799
0.0025122163
0.002478463
0.0024447413
0.0024110719
0.0023774747
0.0023439691
0.0023105739
0.0022773071
0.0022441859
0.0022112268
0.0021784456
0.0021458573
0.0021134762
0.0020813157
0.0020493889
0.0020177086
0.0019862871
0.0019551373
0.0019242722
0.0018937056
0.0018634517
0.0018335248
0.001803933
0.0017746639
0.0017457118
0.0031859198
0.0031554413
0.0031244945
0.0030931422
0.0030614215
0.00302934
0.0029969216
0.0029641929
0.0029311804
0.0028979104
0.002864409
0.0028307019
0.0027968146
0.0027627719
0.0027285985
0.0026943187
0.0026599563
0.0026255349
0.0025910776
0.0025566071
0.0025221457
0.0024877151
0.0024533363
0.00241903
0.0023848162
0.0023507141
0.0023167424
0.002282919
0.002249261
0.002215785
0.0021825065
0.0021494403
0.0021166005
0.0020840004
0.0020516525
0.0020195688
0.001987761
0.0019562404
0.0019250189
0.0018941084
0.0018635218
0.0018332724
0.0018033739
0.0017738332
0.0017446367
0.0017157763
0.0031894969
0.0031574111
0.0031248843
0.0030920084
0.0030587988
0.0030252715
0.0029914523
0.0029573675
0.0029230436
0.0028885072
0.0028537842
0.0028189003
0.0027838809
0.0027487507
0.0027135343
0.0026782557
0.0026429384
0.0026076059
0.0025722808
0.0025369854
0.0025017416
0.0024665705
0.0024314928
0.0023965284
0.0023616968
0.0023270166
0.0022925057
0.0022581814
0.00222406
0.0021901573
0.0021564879
0.002123066
0.0020899046
0.0020570161
0.0020244121
0.0019921037
0.0019601013
0.0019284156
0.0018970572
0.0018660373
0.0018353677
0.0018050609
0.0017751296
0.0017455803
0.0017163976
0.0016875713
0.0031972901
0.0031635337
0.0031293909
0.0030949428
0.0030601992
0.0030251792
0.0029899099
0.002954418
0.0029187306
0.0028828742
0.0028468749
0.0028107586
0.0027745503
0.002738275
0.0027019569
0.00266562
0.0026292877
0.0025929831
0.0025567285
0.0025205461
0.0024844572
0.0024484825
0.0024126424
0.0023769563
0.002341443
0.0023061206
0.0022710065
0.0022361172
0.0022014685
0.0021670752
0.0021329515
0.0020991106
0.0020655647
0.0020323254
0.0019994034
0.0019668088
0.0019345514
0.0019026405
0.001871086
0.0018398981
0.0018090878
0.0017786666
0.0017486467
0.0017190335
0.0016898104
0.0016609652
0.0032087403
0.0031732907
0.0031375014
0.0031014461
0.0030651342
0.0030285864
0.0029918303
0.0029548933
0.0029178029
0.0028805856
0.0028432679
0.0028058756
0.0027684338
0.0027309675
0.0026935008
0.0026560575
0.0026186611
0.0025813344
0.0025440995
0.0025069783
0.0024699918
0.0024331605
0.0023965043
0.0023600422
0.0023237925
0.0022877729
0.0022520001
0.0022164902
0.0021812583
0.0021463187
0.0021116848
0.002077369
0.0020433829
0.0020097374
0.0019764422
0.0019435066
0.0019109395
0.0018787496
0.0018469455
0.0018155367
0.0017845333
0.0017539461
0.0017237863
0.0016940588
0.0016647458
0.001635833
0.0032233347
0.0031861776
0.0031487223
0.0031110386
0.0030731366
0.0030350377
0.0029967703
0.0029583622
0.002919841
0.0028812339
0.0028425672
0.0028038669
0.0027651583
0.0027264662
0.0026878149
0.0026492281
0.0026107291
0.0025723406
0.0025340847
0.0024959829
0.0024580562
0.0024203248
0.002382808
0.0023455247
0.0023084928
0.0022717295
0.0022352511
0.0021990732
0.0021632103
0.0021276761
0.0020924836
0.0020576444
0.0020231695
0.0019890689
0.0019553519
0.0019220269
0.0018891018
0.0018565846
0.0018244832
0.001792806
0.0017615624
0.0017307625
0.0017004167
0.0016705293
0.0016410811
0.0016120564
0.0032405855
0.0032017158
0.0031625876
0.0031232668
0.0030837643
0.0030441026
0.0030043104
0.0029644162
0.0029244478
0.0028844326
0.0028443971
0.0028043676
0.0027643693
0.0027244271
0.0026845653
0.0026448077
0.0026051776
0.0025656974
0.0025263894
0.0024872749
0.0024483745
0.0024097082
0.0023712954
0.0023331544
0.0022953028
0.0022577576
0.0022205347
0.0021836491
0.002147115
0.0021109456
0.0020751531
0.002039749
0.0020047433
0.0019701457
0.0019359645
0.0019022076
0.0018688822
0.0018359954
0.0018035543
0.0017715667
0.0017400411
0.0017089868
0.0016784135
0.0016483249
0.001618701
0.0015895243
0.0032600345
0.0032194585
0.0031786629
0.003137707
0.0030966041
0.0030553779
0.0030140577
0.0029726724
0.0029312502
0.0028898186
0.0028484045
0.0028070341
0.0027657328
0.0027245257
0.0026834371
0.0026424909
0.0026017102
0.0025611176
0.0025207352
0.0024805842
0.0024406853
0.0024010582
0.002361722
0.0023226949
0.0022839943
0.0022456368
0.0022076379
0.0021700124
0.0021327741
0.0020959357
0.0020595091
0.002023505
0.0019879332
0.0019528026
0.0019181211
0.0018838959
0.0018501334
0.0018168402
0.0017840225
0.0017516875
0.0017198429
0.0016884973
0.0016576599
0.0016273335
0.0015974975
0.001568133
0.003281261
0.0032389911
0.0031965468
0.0031539678
0.0031112734
0.0030684902
0.0030256477
0.0029827754
0.0029399016
0.0028970543
0.0028542604
0.0028115463
0.0027689376
0.0027264594
0.0026841362
0.0026419918
0.0026000495
0.0025583319
0.0025168611
0.0024756582
0.0024347437
0.0023941374
0.0023538583
0.0023139242
0.0022743526
0.0022351595
0.0021963605
0.0021579699
0.0021200012
0.0020824667
0.002045378
0.0020087454
0.0019725782
0.0019368849
0.0019016726
0.0018669482
0.0018327175
0.0017989863
0.0017657603
0.0017330459
0.0017008502
0.0016691812
0.0016380471
0.0016074508
0.0015773705
0.0015477863
0.0033039029
0.0032599441
0.0032158732
0.0031716912
0.0031274219
0.0030830966
0.0030387454
0.0029943979
0.0029500829
0.0029058284
0.0028616615
0.0028176086
0.0027736958
0.002729948
0.0026863899
0.0026430456
0.0025999382
0.0025570905
0.0025145246
0.0024722615
0.0024303219
0.0023887253
0.0023474906
0.0023066357
0.0022661778
0.0022261328
0.0021865159
0.0021473414
0.0021086224
0.002070371
0.0020325984
0.0019953145
0.0019585285
0.001922248
0.0018864802
0.001851231
0.001816506
0.0017823103
0.0017486491
0.0017155282
0.0016829538
0.0016509334
0.0016194748
0.0015885802
0.0015582275
0.0015283956
0.003373081
0.0033276115
0.0032820094
0.0032363204
0.0031905527
0.0031447309
0.0030988853
0.0030530457
0.003007242
0.0029615028
0.0029158564
0.00287033
0.0028249504
0.0027797434
0.0027347344
0.0026899482
0.0026454088
0.0026011397
0.0025571635
0.0025135024
0.0024701776
0.0024272096
0.002384618
0.0023424216
0.0023006383
0.0022592851
0.0022183778
0.0021779315
0.0021379602
0.0020984768
0.0020594934
0.0020210206
0.0019830684
0.0019456452
0.0019087587
0.0018724154
0.001836621
0.0018013805
0.0017666985
0.0017325798
0.0016990293
0.001666053
0.0016336577
0.0016018506
0.0015706336
0.001539984
0.0015098801
0.0033991618
0.0033520612
0.0033048507
0.003257578
0.0032102571
0.0031629127
0.0031155747
0.0030682733
0.003021038
0.0029738977
0.0029268807
0.0028800145
0.0028333259
0.0027868409
0.0027405851
0.0026945833
0.0026488598
0.002603438
0.0025583409
0.0025135906
0.0024692083
0.0024252146
0.0023816291
0.0023384707
0.002295757
0.0022535051
0.0022117307
0.0021704488
0.0021296733
0.0020894169
0.0020496914
0.0020105075
0.0019718746
0.0019338011
0.0018962944
0.0018593605
0.001823005
0.0017872322
0.0017520466
0.0017174522
0.0016834536
0.0016500562
0.0016172662
0.0015850905
0.0015535304
0.0015225632
0.0014921664
0.0034256559
0.0033769634
0.0033281929
0.003279379
0.0032305424
0.0031817106
0.0031329136
0.0030841818
0.0030355447
0.0029870314
0.0029386703
0.0028904889
0.0028425142
0.0027947724
0.0027472893
0.0027000897
0.0026531981
0.0026066382
0.0025604329
0.0025146043
0.002469174
0.0024241624
0.0023795893
0.0023354734
0.0022918326
0.0022486836
0.0022060423
0.0021639236
0.0021223413
0.002081308
0.0020408353
0.0020009338
0.0019616127
0.0019228802
0.0018847435
0.0018472083
0.0018102799
0.0017739624
0.0017382597
0.0017031755
0.001668714
0.00163488
0.0016016793
0.0015691182
0.001537198
0.0015058958
0.0014751884
0.0034523397
0.0034020889
0.0033518023
0.0033014901
0.0032511784
0.003200898
0.0031506793
0.0031005526
0.0030505477
0.0030006938
0.0029510191
0.0029015515
0.002852318
0.0028033451
0.0027546585
0.0027062834
0.0026582443
0.0026105651
0.0025632687
0.0025163776
0.0024699131
0.002423896
0.002378346
0.0023332818
0.0022887213
0.0022446814
0.0022011779
0.0021582256
0.0021158383
0.0020740284
0.0020328076
0.0019921863
0.0019521736
0.0019127775
0.001874005
0.0018358618
0.0017983527
0.0017614817
0.0017252522
0.0016896677
0.001654732
0.0016204494
0.0015868253
0.0015538657
0.0015215714
0.0014899197
0.0014588872
0.0035307131
0.0034790041
0.003427248
0.0033754778
0.0033237074
0.0032719634
0.0032202762
0.0031686762
0.0031171938
0.0030658585
0.0030146996
0.0029637456
0.0029130243
0.0028625629
0.002812388
0.0027625256
0.0027130009
0.0026638387
0.0026150628
0.0025666965
0.0025187621
0.0024712814
0.0024242749
0.0023777626
0.0023317632
0.0022862947
0.0022413739
0.0021970167
0.0021532378
0.002110051
0.0020674689
0.0020255029
0.0019841633
0.0019434593
0.0019033988
0.0018639884
0.0018252339
0.0017871398
0.00174971
0.0017129475
0.0016768556
0.0016414376
0.0016066976
0.0015726404
0.0015392718
0.0015065926
0.0014745799
0.0014432104
0.0035586278
0.0035054495
0.0034522382
0.0033990329
0.0033458519
0.0032927217
0.0032396725
0.0031867344
0.0031339378
0.0030813123
0.0030288871
0.0029766907
0.0029247512
0.0028730958
0.0028217512
0.0027707436
0.0027200985
0.0026698405
0.0026199939
0.0025705818
0.002521627
0.0024731511
0.0024251748
0.0023777181
0.0023308
0.0022844383
0.00223865
0.002193451
0.002148856
0.0021048789
0.0020615321
0.0020188271
0.0019767742
0.0019353825
0.0018946598
0.0018546128
0.001815247
0.0017765669
0.001738576
0.0017012773
0.0016646738
0.0016287684
0.001593565
0.001559068
0.0015252828
0.0014922103
0.0014598277
0.0014281117
0.0035861054
0.0035315077
0.0034768989
0.0034223121
0.0033677708
0.0033133027
0.0032589382
0.0032047073
0.0031506403
0.0030967669
0.0030431161
0.0029897167
0.0029365967
0.0028837835
0.0028313039
0.0027791843
0.0027274503
0.0026761267
0.0026252378
0.002574807
0.0025248571
0.0024754098
0.0024264861
0.002378106
0.0023302883
0.0022830513
0.0022364118
0.0021903858
0.0021449882
0.0021002326
0.0020561317
0.002012697
0.0019699386
0.0019278658
0.0018864863
0.0018458067
0.0018058325
0.001766568
0.0017280167
0.0016901814
0.0016530648
0.0016166696
0.0015809994
0.0015460584
0.0015118517
0.00147838
0.0014456209
0.0014135511
0.0036130228
0.0035570536
0.0035011009
0.0034451855
0.0033893348
0.0033335785
0.0032779468
0.00322247
0.0031671779
0.0031121004
0.0030572666
0.0030027051
0.0029484442
0.0028945113
0.0028409334
0.0027877369
0.0027349476
0.0026825905
0.00263069
0.0025792697
0.0025283523
0.0024779599
0.0024281134
0.0023788329
0.0023301375
0.0022820454
0.0022345735
0.0021877378
0.0021415534
0.0020960339
0.002051192
0.0020070393
0.001963586
0.0019208411
0.0018788126
0.0018375071
0.0017969298
0.0017570853
0.0017179767
0.0016796069
0.0016419782
0.0016050933
0.0015689553
0.0015335684
0.0014989374
0.001465063
0.001431923
0.0013994937
0.0036965724
0.0036392756
0.0035819885
0.0035247378
0.0034675444
0.0034104358
0.0033534417
0.0032965921
0.003239917
0.0031834464
0.0031272099
0.0030712366
0.0030155554
0.0029601944
0.0029051813
0.0028505431
0.0027963064
0.002742497
0.0026891402
0.0026362605
0.0025838815
0.0025320262
0.0024807166
0.0024299739
0.0023798182
0.0023302688
0.0022813437
0.0022330603
0.0021854345
0.0021384813
0.0020922146
0.0020466471
0.0020017903
0.0019576546
0.0019142491
0.0018715817
0.0018296591
0.0017884865
0.0017480684
0.0017084079
0.0016695078
0.0016313703
0.0015939978
0.0015573933
0.0015215607
0.0014865049
0.0014522267
0.0014187037
0.0013859104
0.0037233282
0.0036647608
0.0036062119
0.003547717
0.0034892989
0.0034309846
0.0033728036
0.0033147857
0.0032569608
0.0031993588
0.0031420091
0.0030849409
0.0030281831
0.0029717638
0.0029157109
0.0028600516
0.0028048124
0.0027500194
0.0026956979
0.0026418726
0.0025885672
0.0025358048
0.0024836075
0.0024319967
0.0023809925
0.0023306143
0.0022808803
0.0022318079
0.0021834131
0.002135711
0.0020887156
0.0020424396
0.0019968946
0.0019520911
0.0019080383
0.0018647441
0.0018222151
0.0017804569
0.0017394736
0.0016992686
0.0016598445
0.0016212033
0.0015833473
0.0015462795
0.0015100035
0.0014745244
0.0014398435
0.0014059384
0.0013727773
0.0037491867
0.0036894014
0.0036296485
0.0035699652
0.0035103761
0.0034509087
0.003391592
0.0033324558
0.0032735298
0.0032148437
0.003156427
0.0030983089
0.0030405181
0.002983083
0.0029260315
0.0028693907
0.0028131876
0.0027574482
0.0027021979
0.0026474615
0.002593263
0.0025396254
0.0024865711
0.0024341214
0.0023822966
0.0023311163
0.0022805987
0.0022307612
0.0021816201
0.0021331904
0.0020854863
0.0020385205
0.0019923048
0.0019468497
0.0019021644
0.0018582571
0.0018151343
0.0017728017
0.0017312635
0.001690523
0.0016505828
0.0016114449
0.0015731114
0.001535585
0.0014988696
0.0014629703
0.0014278904
0.0013936098
0.0013600846
0.0037740929
0.0037131441
0.0036522428
0.0035914257
0.0035307192
0.0034701508
0.0034097496
0.0033495449
0.0032895665
0.0032298438
0.0031704064
0.0031112833
0.0030525034
0.0029940951
0.0029360864
0.0028785045
0.0028213764
0.0027647283
0.0027085857
0.0026529735
0.0025979158
0.0025434357
0.0024895558
0.0024362973
0.0023836809
0.002331726
0.0022804511
0.0022298736
0.0021800099
0.0021308751
0.0020824835
0.002034848
0.0019879803
0.0019418911
0.0018965898
0.0018520844
0.0018083818
0.0017654876
0.0017234061
0.0016821408
0.001641694
0.0016020678
0.0015632641
0.0015252855
0.0014881357
0.0014518204
0.0014163454
0.001381699
0.0013478324
0.0037980056
0.0037359479
0.0036739527
0.0036120558
0.0035502846
0.0034886671
0.0034272319
0.0033660084
0.0033050258
0.0032443138
0.0031839017
0.0031238187
0.0030640935
0.0030047546
0.0029458301
0.0028873474
0.0028293335
0.0027718147
0.0027148166
0.0026583642
0.0026024817
0.0025471924
0.0024925187
0.0024384823
0.0023851037
0.0023324026
0.0022803975
0.0022291058
0.0021785442
0.0021287278
0.002079671
0.0020313867
0.0019838869
0.0019371823
0.0018912824
0.0018461953
0.001801928
0.0017584863
0.0017158745
0.0016740961
0.0016331536
0.0015930489
0.0015537838
0.0015153607
0.0014777829
0.0014410555
0.0014051849
0.0013701655
0.0013359641
0.0013025351
0.0038208958
0.0037577837
0.0036947484
0.0036318245
0.0035690409
0.0035064253
0.0034440062
0.0033818126
0.0033198739
0.0032582193
0.0031968782
0.0031358797
0.0030752528
0.0030150258
0.0029552269
0.0028958836
0.002837023
0.0027786715
0.0027208547
0.0026635979
0.0026069251
0.00255086
0.002495425
0.0024406417
0.002386531
0.0023331125
0.0022804048
0.0022284255
0.0021771913
0.0021267175
0.0020770185
0.0020281074
0.0019799961
0.0019326957
0.0018862155
0.001840564
0.0017957483
0.0017517741
0.001708646
0.0016663676
0.0016249413
0.0015843691
0.0015446526
0.0015057939
0.0014677959
0.0014306629
0.0013944009
0.0013590069
0.0013244503
0.0012907103
0.0038427459
0.0037786332
0.0037146105
0.0036507119
0.0035869669
0.0035234034
0.0034600496
0.0033969342
0.0033340863
0.0032715352
0.0032093102
0.0031474405
0.0030859547
0.0030248816
0.0029642493
0.0029040854
0.0028444169
0.0027852705
0.0027266719
0.0026686462
0.0026112179
0.0025544104
0.0024982465
0.0024427477
0.0023879351
0.0023338282
0.002280446
0.0022278061
0.0021759251
0.0021248186
0.0020745009
0.0020249854
0.0019762842
0.0019284082
0.001881367
0.0018351692
0.001789822
0.0017453314
0.001701702
0.0016589375
0.0016170403
0.0015760125
0.0015358556
0.0014965715
0.0014581627
0.0014206327
0.0013839865
0.0013482239
0.0013133166
0.0012792475
0.0038635481
0.0037984874
0.0037335291
0.0036687065
0.0036040504
0.0035395882
0.0034753478
0.0034113578
0.0033476471
0.0032842448
0.0032211803
0.0031584825
0.0030961805
0.0030343027
0.0029728774
0.0029119323
0.0028514945
0.0027915906
0.0027322466
0.0026734876
0.0026153381
0.0025578217
0.0025009612
0.0024447783
0.002389294
0.0023345282
0.0022804996
0.0022272262
0.0021747245
0.0021230103
0.0020720981
0.0020220012
0.0019727318
0.0019243011
0.0018767187
0.0018299934
0.0017841325
0.0017391421
0.0016950271
0.0016517911
0.0016094368
0.0015679662
0.0015273809
0.0014876824
0.0014488731
0.0014109559
0.0013739352
0.0013378116
0.0013025622
0.0012681671
0.0038833027
0.0038173454
0.003751502
0.0036858052
0.0036202868
0.0035549739
0.0034898941
0.0034250757
0.0033605474
0.0032963384
0.0032324777
0.0031689945
0.0031059177
0.003043276
0.0029810975
0.0029194101
0.0028582409
0.0027976166
0.0027375632
0.002678106
0.0026192695
0.0025610773
0.0025035524
0.0024467166
0.0023905909
0.0023351953
0.0022805486
0.0022266689
0.0021735729
0.0021212763
0.0020697937
0.0020191386
0.0019693234
0.0019203592
0.0018722559
0.0018250224
0.0017786661
0.0017331932
0.0016886088
0.0016449168
0.0016021198
0.0015602199
0.0015192187
0.0014791177
0.0014399189
0.0014016251
0.0013642401
0.0013277651
0.0012921804
0.0012574666
0.0039020173
0.0038352132
0.0037685337
0.0037020113
0.0036356782
0.0035695614
0.0035036881
0.0034380863
0.0033727846
0.0033078121
0.0032431978
0.0031789708
0.0031151601
0.0030517943
0.0029889017
0.00292651
0.0028646467
0.0028033384
0.0027426112
0.0026824903
0.0026230004
0.0025641653
0.0025060078
0.0024485501
0.002391813
0.0023358166
0.0022805801
0.0022261213
0.0021724572
0.0021196035
0.002067575
0.0020163853
0.0019660467
0.0019165706
0.001867967
0.0018202449
0.0017734118
0.0017274742
0.0016824373
0.0016383051
0.0015950804
0.0015527653
0.0015113615
0.0014708703
0.0014312938
0.0013926343
0.0013548957
0.0013180791
0.0012821671
0.0012471413
0.0039197051
0.0038521027
0.0037846347
0.0037173335
0.0036502321
0.0035833568
0.0035167346
0.0034503933
0.0033843613
0.0033186674
0.0032533409
0.0031884107
0.0031239058
0.0030598549
0.0029962864
0.0029332279
0.002870707
0.0028087504
0.0027473841
0.0026866336
0.0026265235
0.0025670778
0.0025083192
0.00245027
0.0023929513
0.0023363831
0.0022805846
0.0022255738
0.0021713678
0.0021179824
0.0020654324
0.0020137314
0.0019628921
0.0019129258
0.0018638428
0.0018156519
0.0017683612
0.001721977
0.0016765048
0.0016319487
0.0015883117
0.001545596
0.0015038033
0.001462935
0.0014229928
0.0013839792
0.0013458977
0.0013087498
0.0012725193
0.0012371891
0.0039363849
0.0038680306
0.0037998199
0.0037317856
0.0036639606
0.003596371
0.0035290433
0.0034620049
0.0033952843
0.0033289101
0.0032629116
0.0031973177
0.0031321574
0.0030674595
0.0030032522
0.0029395635
0.0028764207
0.0028138506
0.0027518794
0.0026905326
0.0026298349
0.0025698102
0.0025104815
0.0024518711
0.0023939999
0.0023368884
0.0022805556
0.0022250197
0.0021702978
0.0021164057
0.0020633586
0.00201117
0.0019598526
0.0019094179
0.0018598763
0.0018112369
0.0017635076
0.0017166952
0.0016708052
0.0016258419
0.0015818084
0.0015387071
0.0014965397
0.0014553076
0.0014150124
0.0013756565
0.0013372434
0.0012997748
0.0012632353
0.001227609
0.0039520792
0.0038830178
0.0038141082
0.0037453848
0.0036768798
0.0036086186
0.0035406271
0.0034729329
0.0034055642
0.0033385495
0.0032719181
0.0032056989
0.0031399209
0.0030746129
0.0030098031
0.0029455196
0.0028817897
0.0028186403
0.0027560976
0.0026941871
0.0026329336
0.0025723611
0.0025124926
0.0024533504
0.0023949558
0.0023373289
0.0022804891
0.0022244546
0.0021692425
0.0021148688
0.0020613486
0.0020086957
0.0019569229
0.0019060416
0.0018560624
0.0018069946
0.0017588462
0.0017116241
0.001665334
0.0016199804
0.0015755666
0.001532095
0.0014895674
0.0014479852
0.0014073501
0.0013676643
0.0013289311
0.0012911526
0.0012543142
0.0012184009
0.0039668139
0.0038970884
0.0038275215
0.0037581517
0.0036890087
0.003620117
0.0035515025
0.0034831923
0.0034152145
0.0033475979
0.0032803714
0.0032135641
0.003147205
0.0030813227
0.0030159457
0.002951102
0.0028868188
0.0028231233
0.0027600416
0.0026975992
0.002635821
0.0025747311
0.0025143526
0.0024547077
0.0023958178
0.0023377032
0.0022803832
0.0022238762
0.0021681993
0.0021133687
0.0020593995
0.0020063054
0.0019540995
0.0019027933
0.0018523975
0.0018029214
0.0017543733
0.0017067602
0.001660088
0.0016143612
0.0015695833
0.001525757
0.001482884
0.0014409659
0.0014000041
0.001360001
0.0013209598
0.0012828825
0.0012457557
0.0012095652
0.0039806157
0.0039102681
0.0038400843
0.0037701093
0.0037003688
0.0036308865
0.003561688
0.0034928002
0.0034242514
0.00335607
0.0032882851
0.0032209257
0.0031540208
0.0030875991
0.003021689
0.0029563185
0.0028915151
0.0028273057
0.0027637165
0.0027007733
0.0026385008
0.0025769231
0.0025160635
0.0024559443
0.0023965868
0.0023380115
0.0022802378
0.002223284
0.0021671673
0.0021119041
0.0020575093
0.0020039971
0.0019513804
0.0018996708
0.0018488792
0.001799015
0.0017500866
0.0017021011
0.0016550646
0.0016089818
0.0015638565
0.0015196912
0.0014764879
0.0014342481
0.0013929734
0.0013526658
0.0013133288
0.0012749645
0.0012375601
0.0012011025
0.0039935129
0.0039225811
0.0038518223
0.0037812823
0.0037109836
0.0036409491
0.0035712042
0.0035017761
0.0034326926
0.0033639824
0.0032956745
0.0032277978
0.0031603813
0.0030934539
0.0030270438
0.0029611791
0.0028958873
0.0028311953
0.0027671294
0.0027037153
0.002640978
0.0025789415
0.0025176291
0.0024570632
0.0023972653
0.0023382557
0.002280054
0.0022226786
0.0021661467
0.0021104747
0.0020556778
0.0020017701
0.0019487645
0.0018966729
0.0018455061
0.0017952738
0.0017459844
0.0016976452
0.0016502624
0.0016038409
0.0015583846
0.0015138962
0.0014703778
0.0014278309
0.0013862571
0.0013456584
0.0013060381
0.0012673986
0.0012297278
0.0011930136
0.0042207576
0.0041488886
0.0040771452
0.0040055319
0.003934052
0.0038627624
0.0037916973
0.0037208781
0.0036503283
0.0035800734
0.0035101406
0.0034405577
0.0033713533
0.0033025564
0.003234196
0.0031663011
0.0030989004
0.0030320223
0.0029656948
0.0028999454
0.0028348012
0.0027702884
0.0027064328
0.0026432593
0.0025807921
0.0025190544
0.0024580689
0.0023978568
0.0023384388
0.0022798344
0.0022220619
0.0021651389
0.0021090817
0.0020539055
0.0019996245
0.0019462517
0.0018937992
0.0018422777
0.001791697
0.0017420658
0.0016933915
0.0016456803
0.0015989374
0.0015531668
0.0015083713
0.0014645531
0.0014217137
0.0013798548
0.0013389783
0.0012990876
0.001260185
0.0012222594
0.0011852995
0.0043059454
0.0042334788
0.004161082
0.0040888152
0.0040166914
0.0039447146
0.0038729352
0.003801382
0.0037300785
0.0036590488
0.0035883188
0.0035179156
0.0034478671
0.0033782019
0.0033089489
0.0032401372
0.0031717957
0.0031039531
0.0030366379
0.002969878
0.002903701
0.0028381338
0.002773203
0.0027089341
0.0026453522
0.0025824816
0.0025203455
0.0024589664
0.002398366
0.0023385647
0.0022795822
0.0022214368
0.0021641462
0.0021077267
0.0020521937
0.0019975613
0.0019438427
0.0018910499
0.0018391939
0.0017882845
0.0017383305
0.0016893395
0.0016413177
0.0015942706
0.0015482022
0.0015031156
0.001459013
0.001415896
0.0013737662
0.0013326255
0.0012924773
0.001253324
0.0012151552
0.0011779607
0.0043182367
0.0042452746
0.0041723956
0.0040996432
0.0040270425
0.0039546066
0.0038823715
0.003810365
0.0037386116
0.003667136
0.0035959644
0.0035251238
0.0034546422
0.0033845483
0.0033148709
0.003245639
0.0031768816
0.0031086274
0.0030409048
0.0029737418
0.002907166
0.0028412043
0.0027758833
0.0027112286
0.0026472653
0.0025840176
0.0025215091
0.002459762
0.0023987982
0.0023386381
0.0022793014
0.0022208067
0.0021631715
0.0021064123
0.0020505443
0.001995582
0.0019415385
0.0018884259
0.0018362553
0.0017850365
0.0017347785
0.0016854889
0.0016371744
0.0015898401
0.0015434906
0.0014981288
0.0014537572
0.0014103774
0.0013679909
0.0013265997
0.0012862071
0.0012468157
0.0012084157
0.0011709978
0.0043296081
0.0042561876
0.0041828624
0.0041096644
0.0040366242
0.0039637606
0.0038911022
0.0038186753
0.0037465048
0.0036746159
0.0036030347
0.0035317884
0.003460905
0.0033904132
0.0033203417
0.0032507197
0.0031815759
0.0031129392
0.0030448379
0.0029773001
0.0029103533
0.0028440245
0.0027783402
0.0027133262
0.0026490075
0.0025854085
0.0025225526
0.0024604623
0.0023991593
0.0023386643
0.0022789968
0.0022201757
0.0021622183
0.0021051412
0.0020489598
0.0019936886
0.0019393407
0.0018859283
0.0018334626
0.0017819535
0.0017314101
0.00168184
0.0016332501
0.0015856457
0.0015390314
0.0014934105
0.0014487852
0.0014051574
0.0013625286
0.0013209007
0.0012802768
0.00124066
0.001202041
0.0011644111
0.0043400981
0.0042662575
0.0041925193
0.0041189117
0.0040454674
0.0039722076
0.0038991573
0.0038263417
0.0037537857
0.0036815145
0.0036095545
0.0035379328
0.0034666776
0.0033958175
0.0033253812
0.0032553978
0.0031858961
0.0031169049
0.0030484525
0.0029805671
0.002913276
0.0028466065
0.002780585
0.0027152373
0.0026505885
0.0025866629
0.002523484
0.0024610744
0.0023994558
0.0023386489
0.0022786734
0.002219548
0.0021612902
0.0021039167
0.002047443
0.0019918833
0.0019372511
0.0018835586
0.001830817
0.0017790363
0.0017282256
0.0016783929
0.0016295448
0.0015816872
0.0015348244
0.00148896
0.0014440965
0.0014002355
0.0013573786
0.0013155277
0.001274686
0.0012348565
0.0011960307
0.0011582005