/*--------------------------------*- C++ -*----------------------------------*\
| =========                 |                                                 |
| \\      /  F ield         | OpenFOAM: The Open Source CFD Toolbox           |
|  \\    /   O peration     | Version:  2312                                  |
|   \\  /    A nd           | Website:  www.openfoam.com                      |
|    \\/     M anipulation  |                                                 |
\*---------------------------------------------------------------------------*/
FoamFile
{
    version     2.0;
    format      ascii;
    arch        "LSB;label=32;scalar=64";
    class       volScalarField;
    location    "0.08";
    object      N2;
}
// * * * * * * * * * * * * * * * * * * * * * * * * * * * * * * * * * * * * * //

dimensions      [0 0 0 0 0 0 0];

internalField   nonuniform List<scalar> 
3250
(
0.74259403
0.7429954
0.74340258
0.74381494
0.74423195
0.74465307
0.74507775
0.74550546
0.74593566
0.74636785
0.74680149
0.7472361
0.74767117
0.74810623
0.74854082
0.74897447
0.74940676
0.74983727
0.75026558
0.75069132
0.75111411
0.75153361
0.75194949
0.75236141
0.75276911
0.75317228
0.75357068
0.75396407
0.75435222
0.75473492
0.755112
0.75548327
0.75584858
0.7562078
0.75656079
0.75690745
0.75724768
0.75758141
0.75790855
0.75822905
0.75854286
0.75884995
0.75915029
0.75944387
0.74248612
0.74289037
0.74330041
0.74371562
0.74413545
0.74455936
0.7449868
0.74541724
0.74585015
0.74628499
0.74672126
0.74715845
0.74759607
0.74803363
0.74847067
0.74890673
0.74934138
0.74977419
0.75020476
0.75063271
0.75105766
0.75147926
0.75189718
0.7523111
0.75272073
0.75312579
0.75352602
0.75392118
0.75431105
0.75469543
0.75507412
0.75544695
0.75581377
0.75617444
0.75652885
0.75687686
0.75721841
0.75755339
0.75788175
0.75820342
0.75851836
0.75882652
0.75912789
0.75942244
0.7422849
0.7426945
0.74310984
0.74353031
0.74395536
0.74438444
0.744817
0.7452525
0.7456904
0.74613017
0.74657131
0.74701329
0.74745561
0.74789781
0.74833939
0.74877992
0.74921895
0.74965605
0.75009081
0.75052286
0.75095181
0.75137732
0.75179905
0.75221668
0.75262992
0.75303849
0.75344213
0.7538406
0.75423368
0.75462117
0.75500287
0.75537862
0.75574826
0.75611166
0.75646869
0.75681925
0.75716324
0.75750059
0.75783122
0.75815508
0.75847213
0.75878232
0.75908563
0.75938205
0.74200358
0.74242061
0.74284334
0.74327113
0.74370344
0.7441397
0.74457937
0.7450219
0.74546675
0.74591338
0.74636128
0.74680992
0.7472588
0.74770744
0.74815536
0.74860211
0.74904723
0.7494903
0.74993091
0.75036867
0.75080321
0.75123416
0.7516612
0.75208401
0.75250229
0.75291576
0.75332417
0.75372727
0.75412484
0.75451667
0.75490259
0.75528242
0.75565601
0.75602322
0.75638394
0.75673806
0.75708548
0.75742614
0.75775996
0.75808689
0.75840689
0.75871993
0.75902597
0.75932501
0.74165404
0.74208028
0.74251214
0.74294899
0.74339027
0.74383542
0.74428388
0.74473511
0.74518855
0.74564367
0.74609993
0.74655681
0.74701381
0.74747042
0.74792619
0.74838063
0.7488333
0.74928376
0.74973162
0.75017646
0.75061791
0.75105563
0.75148926
0.75191849
0.75234303
0.75276258
0.7531769
0.75358575
0.75398889
0.75438614
0.75477729
0.7551622
0.7555407
0.75591266
0.75627796
0.75663651
0.75698821
0.75733298
0.75767078
0.75800153
0.75832522
0.7586418
0.75895124
0.75925355
0.741247
0.74168392
0.74212638
0.74257373
0.74302542
0.74348089
0.74393956
0.74440088
0.74486429
0.74532925
0.74579522
0.74626166
0.74672808
0.74719396
0.74765882
0.7481222
0.74858364
0.7490427
0.74949896
0.74995203
0.75040153
0.7508471
0.75128839
0.7517251
0.75215691
0.75258354
0.75300475
0.75342028
0.75382992
0.75423346
0.75463072
0.75502154
0.75540576
0.75578325
0.75615391
0.75651762
0.7568743
0.75722389
0.75756632
0.75790154
0.75822952
0.75855023
0.75886365
0.75916978
0.74079212
0.74124094
0.7416952
0.74215427
0.74261757
0.74308453
0.74355457
0.74402714
0.74450166
0.74497759
0.74545437
0.74593148
0.74640839
0.7468846
0.74735961
0.74783295
0.74830416
0.7487728
0.74923845
0.74970071
0.75015918
0.75061351
0.75106336
0.7515084
0.75194833
0.75238288
0.75281177
0.75323478
0.75365167
0.75406225
0.75446633
0.75486376
0.75525438
0.75563806
0.7560147
0.75638419
0.75674645
0.75710142
0.75744903
0.75778925
0.75812205
0.75844739
0.75876527
0.75907567
0.74029807
0.74075981
0.74122687
0.74169863
0.74217451
0.74265393
0.7431363
0.74362106
0.74410762
0.74459543
0.74508394
0.7455726
0.74606089
0.74654829
0.7470343
0.74751844
0.74800025
0.74847928
0.7489551
0.74942731
0.74989552
0.75035936
0.75081849
0.75127258
0.75172133
0.75216445
0.75260169
0.75303281
0.75345758
0.7538758
0.7542873
0.7546919
0.75508947
0.75547988
0.75586302
0.75623879
0.75660712
0.75696794
0.75732119
0.75766685
0.75800488
0.75833527
0.75865798
0.75897304
0.73977259
0.74024813
0.74072879
0.74121404
0.74170328
0.74219593
0.74269139
0.74318909
0.74368844
0.74418887
0.74468982
0.74519075
0.74569111
0.74619039
0.74668809
0.7471837
0.74767676
0.74816683
0.74865346
0.74913624
0.74961479
0.75008873
0.75055772
0.75102142
0.75147954
0.75193179
0.7523779
0.75281764
0.75325079
0.75367714
0.75409651
0.75450876
0.75491372
0.75531129
0.75570134
0.7560838
0.75645858
0.75682562
0.75718488
0.75753633
0.75787993
0.75821568
0.75854356
0.75886358
0.73826106
0.73873879
0.73922295
0.73971277
0.74020765
0.74070699
0.7412102
0.74171668
0.74222583
0.74273705
0.74324976
0.74376338
0.74427734
0.74479108
0.74530407
0.74581577
0.74632566
0.74683326
0.74733809
0.74783968
0.74833761
0.74883145
0.74932081
0.74980531
0.75028461
0.75075837
0.75122628
0.75168807
0.75214346
0.75259222
0.75303413
0.75346898
0.75389661
0.75431684
0.75472954
0.7551346
0.75553189
0.75592134
0.75630288
0.75667644
0.75704199
0.7573995
0.75774894
0.7580903
0.75842359
0.7587488
0.73766323
0.73815613
0.73865522
0.73915985
0.73966941
0.74018332
0.74070095
0.74122171
0.74174497
0.74227015
0.74279665
0.74332388
0.74385126
0.74437823
0.74490424
0.74542874
0.74595124
0.7464712
0.74698817
0.74750167
0.74801125
0.7485165
0.74901701
0.74951242
0.75000236
0.75048649
0.75096452
0.75143616
0.75190113
0.75235921
0.75281017
0.7532538
0.75368994
0.75411843
0.75453913
0.75495192
0.75535669
0.75575337
0.75614189
0.75652219
0.75689423
0.757258
0.75761347
0.75796064
0.75829951
0.75863009
0.73705238
0.73756069
0.73807506
0.73859484
0.73911943
0.73964821
0.74018058
0.74071592
0.74125361
0.74179304
0.74233362
0.74287475
0.74341584
0.74395631
0.74449562
0.74503321
0.74556856
0.74610117
0.74663053
0.74715618
0.74767767
0.74819457
0.74870648
0.74921302
0.74971383
0.75020857
0.75069694
0.75117863
0.7516534
0.75212099
0.75258119
0.7530338
0.75347865
0.75391557
0.75434444
0.75476513
0.75517755
0.75558162
0.75597727
0.75636445
0.75674314
0.75711331
0.75747494
0.75782805
0.75817263
0.7585087
0.73643373
0.73695765
0.73748751
0.73802263
0.73856243
0.73910629
0.73965358
0.74020369
0.74075599
0.74130986
0.7418647
0.74241989
0.74297486
0.74352901
0.74408178
0.74463262
0.745181
0.74572639
0.7462683
0.74680625
0.7473398
0.7478685
0.74839195
0.74890977
0.74942158
0.74992706
0.75042589
0.75091778
0.75140246
0.75187969
0.75234925
0.75281095
0.75326461
0.75371008
0.75414722
0.75457592
0.75499608
0.75540763
0.75581051
0.75620467
0.75659009
0.75696674
0.75733462
0.75769375
0.75804411
0.75838574
0.73581192
0.73635154
0.73689697
0.73744753
0.73800263
0.73856165
0.73912394
0.7396889
0.74025588
0.74082426
0.74139343
0.74196277
0.74253168
0.74309957
0.74366587
0.74423002
0.74479148
0.74534973
0.74590425
0.74645457
0.74700024
0.7475408
0.74807585
0.74860499
0.74912787
0.74964414
0.75015348
0.75065561
0.75115026
0.75163718
0.75211616
0.75258699
0.75304951
0.75350357
0.75394902
0.75438577
0.75481372
0.75523279
0.75564294
0.75604411
0.75643629
0.75681946
0.75719362
0.75755879
0.75791497
0.75826219
0.73519103
0.73574635
0.73630734
0.73687333
0.73744372
0.73801787
0.73859516
0.73917494
0.73975659
0.74033946
0.74092294
0.7415064
0.74208923
0.74267085
0.74325066
0.74382811
0.74440263
0.74497371
0.74554083
0.7461035
0.74666125
0.74721366
0.74776029
0.74830075
0.74883467
0.74936172
0.74988156
0.75039392
0.75089852
0.75139511
0.75188349
0.75236345
0.75283482
0.75329745
0.75375121
0.75419599
0.75463172
0.7550583
0.7554757
0.75588388
0.75628281
0.75667249
0.75705292
0.75742413
0.75778611
0.75813892
0.73457463
0.73514556
0.73572201
0.73630333
0.7368889
0.7374781
0.73807027
0.73866479
0.739261
0.73985826
0.74045595
0.74105344
0.7416501
0.74224534
0.74283857
0.74342921
0.74401671
0.74460053
0.74518015
0.74575508
0.74632485
0.74688901
0.74744713
0.74799883
0.74854372
0.74908146
0.74961174
0.75013425
0.75064873
0.75115493
0.75165264
0.75214165
0.75262181
0.75309295
0.75355496
0.75400773
0.75445117
0.75488521
0.75530981
0.75572494
0.75613057
0.75652672
0.75691338
0.75729058
0.75765833
0.75801668
0.73396583
0.7345522
0.73514393
0.7357404
0.73634099
0.73694505
0.73755195
0.73816102
0.73877162
0.73938311
0.73999484
0.74060618
0.7412165
0.74182521
0.74243169
0.74303537
0.74363568
0.74423208
0.74482406
0.7454111
0.74599273
0.74656851
0.74713799
0.74770078
0.74825651
0.74880482
0.7493454
0.74987794
0.75040218
0.75091787
0.7514248
0.75192276
0.7524116
0.75289115
0.75336131
0.75382196
0.75427302
0.75471443
0.75514615
0.75556814
0.7559804
0.75638292
0.75677573
0.75715885
0.75753229
0.75789612
0.73336726
0.73396883
0.73457562
0.73518701
0.73580237
0.73642107
0.73704245
0.73766584
0.73829061
0.73891608
0.73954162
0.74016659
0.74079035
0.7414123
0.74203181
0.74264831
0.74326123
0.74387001
0.74447414
0.74507309
0.74566639
0.74625358
0.74683424
0.74740795
0.74797433
0.74853304
0.74908374
0.74962615
0.75015999
0.75068501
0.751201
0.75170776
0.75220513
0.75269296
0.75317112
0.75363952
0.75409808
0.75454673
0.75498544
0.75541419
0.75583295
0.75624176
0.75664061
0.75702954
0.75740859
0.75777779
0.73217045
0.7327812
0.73339767
0.73401922
0.73464525
0.7352751
0.73590815
0.73654371
0.73718114
0.73781978
0.73845896
0.73909804
0.73973635
0.74037328
0.74100819
0.74164047
0.74226953
0.7428948
0.7435157
0.74413172
0.74474234
0.74534707
0.74594545
0.74653705
0.74712144
0.74769826
0.74826715
0.74882778
0.74937984
0.74992308
0.75045724
0.75098211
0.75149749
0.75200321
0.75249914
0.75298514
0.75346113
0.75392703
0.75438278
0.75482834
0.75526369
0.75568883
0.75610377
0.75650854
0.75690317
0.7572877
0.75766217
0.73158406
0.73220953
0.73284058
0.73347657
0.73411689
0.7347609
0.73540795
0.73605737
0.7367085
0.73736068
0.73801324
0.73866552
0.73931687
0.73996664
0.74061421
0.74125895
0.74190026
0.74253757
0.74317031
0.74379794
0.74441994
0.74503582
0.74564512
0.74624739
0.74684221
0.74742922
0.74800804
0.74857834
0.74913984
0.74969225
0.75023532
0.75076885
0.75129264
0.75180651
0.75231034
0.752804
0.75328739
0.75376045
0.75422311
0.75467535
0.75511715
0.75554851
0.75596944
0.75637998
0.75678017
0.75717003
0.75754964
0.73101409
0.73165389
0.73229912
0.73294916
0.73360339
0.73426118
0.73492186
0.73558476
0.73624923
0.73691458
0.73758015
0.73824528
0.7389093
0.73957156
0.74023143
0.74088829
0.74154153
0.74219055
0.74283479
0.74347371
0.74410679
0.74473351
0.74535342
0.74596607
0.74657104
0.74716794
0.74775642
0.74833614
0.7489068
0.74946812
0.75001987
0.75056182
0.75109378
0.75161558
0.75212709
0.75262818
0.75311877
0.75359879
0.75406817
0.75452691
0.75497497
0.75541237
0.75583913
0.75625528
0.75666086
0.75705592
0.75744051
0.73046184
0.73111556
0.73177454
0.73243822
0.73310595
0.7337771
0.734451
0.73512698
0.73580437
0.7364825
0.73716069
0.73783827
0.73851457
0.73918895
0.73986075
0.74052936
0.74119415
0.74185453
0.74250993
0.74315979
0.74380359
0.74444083
0.74507103
0.74569374
0.74630854
0.74691504
0.74751288
0.74810172
0.74868126
0.74925123
0.74981138
0.75036149
0.75090137
0.75143085
0.7519498
0.7524581
0.75295567
0.75344243
0.75391833
0.75438335
0.75483749
0.75528074
0.75571314
0.75613472
0.75654554
0.75694562
0.75733505
0.72926697
0.72992837
0.73059553
0.73126784
0.73194471
0.7326255
0.73330957
0.73399626
0.73468488
0.73537477
0.73606525
0.73675564
0.73744526
0.73813344
0.73881952
0.73950286
0.74018282
0.74085878
0.74153013
0.74219631
0.74285675
0.74351092
0.74415832
0.74479846
0.7454309
0.7460552
0.74667098
0.74727786
0.74787552
0.74846365
0.74904197
0.74961024
0.75016823
0.75071577
0.75125267
0.75177881
0.75229408
0.75279838
0.75329165
0.75377385
0.75424495
0.75470495
0.75515386
0.75559171
0.75601854
0.75643441
0.75683935
0.75723345
0.72873993
0.72941445
0.7300946
0.73077977
0.73146937
0.73216276
0.73285929
0.73355831
0.73425912
0.73496107
0.73566345
0.7363656
0.73706682
0.73776645
0.73846382
0.73915828
0.73984918
0.7405359
0.74121784
0.74189441
0.74256504
0.74322921
0.7438864
0.74453613
0.74517793
0.74581139
0.74643611
0.74705172
0.74765787
0.74825427
0.74884064
0.74941674
0.74998233
0.75053724
0.7510813
0.75161437
0.75213634
0.75264714
0.75314669
0.75363495
0.7541119
0.75457755
0.75503191
0.75547501
0.75590689
0.75632762
0.75673725
0.75713584
0.72823354
0.7289207
0.72961333
0.73031088
0.73101273
0.73171824
0.73242676
0.73313763
0.73385018
0.73456371
0.73527754
0.735991
0.73670338
0.73741402
0.73812224
0.73882738
0.7395288
0.74022587
0.74091798
0.74160454
0.74228498
0.74295876
0.74362536
0.7442843
0.74493512
0.74557738
0.74621069
0.74683468
0.747449
0.74805336
0.74864746
0.74923108
0.74980397
0.75036597
0.7509169
0.75145663
0.75198506
0.75250209
0.75300767
0.75350176
0.75398434
0.75445541
0.754915
0.75536314
0.75579989
0.75622529
0.75663941
0.75704233
0.7277482
0.72844748
0.72915212
0.72986154
0.73057514
0.73129228
0.73201231
0.73273455
0.73345835
0.734183
0.73490781
0.73563211
0.7363552
0.73707639
0.73779502
0.73851041
0.73922193
0.73992892
0.74063078
0.74132692
0.74201676
0.74269975
0.74337539
0.74404316
0.74470262
0.74535332
0.74599487
0.7466269
0.74724905
0.74786104
0.74846256
0.74905338
0.74963329
0.75020208
0.7507596
0.75130571
0.75184032
0.75236333
0.75287469
0.75337436
0.75386234
0.75433861
0.75480322
0.75525619
0.75569759
0.75612748
0.75654592
0.75695298
0.72657902
0.72728411
0.72799501
0.72871114
0.72943194
0.73015679
0.73088507
0.7316161
0.73234924
0.7330838
0.73381909
0.73455441
0.73528909
0.73602242
0.73675371
0.7374823
0.7382075
0.73892867
0.73964516
0.74035635
0.74106166
0.74176049
0.7424523
0.74313657
0.7438128
0.74448052
0.7451393
0.74578874
0.74642845
0.7470581
0.74767738
0.748286
0.74888372
0.74947032
0.75004561
0.75060943
0.75116166
0.75170217
0.7522309
0.75274779
0.75325281
0.75374594
0.75422719
0.75469659
0.75515419
0.75560004
0.75603421
0.75645677
0.7568678
0.72612501
0.72684133
0.72756334
0.72829046
0.72902213
0.72975774
0.73049664
0.7312382
0.73198173
0.73272657
0.73347202
0.73421738
0.73496196
0.73570507
0.73644601
0.7371841
0.73791866
0.73864905
0.7393746
0.74009471
0.74080876
0.74151618
0.74221641
0.74290892
0.74359322
0.74426884
0.74493533
0.74559229
0.74623934
0.74687614
0.74750238
0.74811778
0.74872208
0.74931508
0.74989657
0.75046641
0.75102446
0.75157062
0.75210481
0.75262697
0.75313708
0.75363513
0.75412113
0.7545951
0.75505711
0.75550721
0.75594547
0.75637197
0.75678679
0.72569277
0.72641982
0.72715242
0.72789002
0.72863205
0.7293779
0.73012694
0.73087852
0.73163196
0.73238659
0.73314171
0.73389663
0.73465066
0.73540308
0.73615321
0.73690035
0.73764384
0.738383
0.73911719
0.73984579
0.74056817
0.74128377
0.74199202
0.74269239
0.74338437
0.74406751
0.74474134
0.74540547
0.74605952
0.74670313
0.747336
0.74795785
0.74856843
0.74916751
0.74975491
0.75033048
0.75089408
0.75144561
0.751985
0.75251218
0.75302715
0.75352988
0.75402039
0.75449872
0.75496493
0.75541907
0.75586123
0.75629148
0.75670991
0.72528215
0.72601939
0.72676207
0.72750963
0.72826151
0.72901711
0.72977578
0.73053688
0.73129975
0.73206369
0.73282801
0.73359202
0.73435502
0.7351163
0.73587516
0.73663091
0.73738288
0.73813039
0.73887279
0.73960946
0.74033977
0.74106314
0.74177901
0.74248685
0.74318614
0.74387642
0.74455724
0.74522818
0.74588887
0.74653896
0.74717814
0.74780612
0.74842266
0.74902753
0.74962055
0.75020156
0.75077043
0.75132707
0.75187139
0.75240335
0.75292292
0.75343011
0.75392491
0.75440738
0.75487757
0.75533555
0.7557814
0.75621522
0.75663708
0.72489283
0.72563974
0.72639199
0.72714901
0.72791024
0.72867508
0.7294429
0.73021304
0.73098484
0.73175762
0.73253068
0.73330331
0.73407482
0.7348445
0.73561165
0.73637557
0.73713559
0.73789102
0.73864121
0.73938553
0.74012336
0.74085411
0.74157721
0.74229213
0.74299836
0.74369542
0.74438286
0.74506027
0.74572726
0.7463835
0.74702866
0.74766245
0.74828464
0.74889501
0.74949335
0.75007953
0.75065341
0.75121488
0.75176389
0.75230038
0.75282432
0.75333572
0.7538346
0.75432099
0.75479495
0.75525657
0.75570592
0.7561431
0.75656818
0.75698129
0.72452443
0.72528051
0.72604181
0.72680779
0.72757788
0.72835147
0.72912795
0.72990666
0.73068693
0.73146807
0.7322494
0.7330302
0.73380977
0.73458741
0.7353624
0.73613406
0.73690169
0.73766462
0.73842219
0.73917376
0.73991871
0.74065644
0.7413864
0.74210802
0.74282082
0.7435243
0.74421801
0.74490154
0.74557451
0.74623656
0.74688738
0.74752669
0.74815423
0.74876979
0.74937318
0.74996424
0.75054286
0.75110892
0.75166236
0.75220313
0.75273121
0.75324661
0.75374933
0.75423944
0.75471697
0.75518202
0.75563468
0.75607503
0.75650316
0.75691917
0.72417649
0.72494123
0.7257111
0.72648554
0.727264
0.72804588
0.72883054
0.72961734
0.73040561
0.73119466
0.7319838
0.73277232
0.73355952
0.73434468
0.73512709
0.73590606
0.73668089
0.73745091
0.73821545
0.73897387
0.73972554
0.74046988
0.74120631
0.74193428
0.74265328
0.74336282
0.74406246
0.74475178
0.74543039
0.74609794
0.74675411
0.74739862
0.74803123
0.7486517
0.74925985
0.74985554
0.75043863
0.75100902
0.75156665
0.75211147
0.75264346
0.75316263
0.75366899
0.7541626
0.75464351
0.75511181
0.75556758
0.75601093
0.75644192
0.75686069
0.72384848
0.7246214
0.72539935
0.72618178
0.72696814
0.72775783
0.72855021
0.72934465
0.73014047
0.73093698
0.73173349
0.7325293
0.73332368
0.73411593
0.73490534
0.73569121
0.73647283
0.73724953
0.73802065
0.73878554
0.73954356
0.74029413
0.74103666
0.74177061
0.74249546
0.74321073
0.74391597
0.74461074
0.74529467
0.74596741
0.74662863
0.74727805
0.74791543
0.74854053
0.74915318
0.74975323
0.75034054
0.75091502
0.7514766
0.75202523
0.75256091
0.75308364
0.75359343
0.75409034
0.75457444
0.75504579
0.75550451
0.75595068
0.75638439
0.75680575
0.72353983
0.72432046
0.72510602
0.72589597
0.72668977
0.72748681
0.72828647
0.7290881
0.72989102
0.73069456
0.73149802
0.73230068
0.73310183
0.73390076
0.73469676
0.73548912
0.73627714
0.73706014
0.73783745
0.73860842
0.73937243
0.74012886
0.74087714
0.74161672
0.74234709
0.74306775
0.74377825
0.74447816
0.7451671
0.74584472
0.7465107
0.74716475
0.74780661
0.74843608
0.74905296
0.74965711
0.75024839
0.75082672
0.75139202
0.75194425
0.7524834
0.75300947
0.7535225
0.75402252
0.75450961
0.75498385
0.75544533
0.75589416
0.75633043
0.75675425
0.72324993
0.7240378
0.72483051
0.72562754
0.72642833
0.72723228
0.72803878
0.72884717
0.72965678
0.73046692
0.7312769
0.732086
0.73289352
0.73369873
0.73450092
0.73529938
0.73609342
0.73688234
0.73766547
0.73844216
0.73921178
0.73997373
0.74072741
0.74147229
0.74220784
0.74293356
0.74364901
0.74435376
0.74504741
0.74572962
0.74640006
0.74705846
0.74770455
0.74833811
0.74895898
0.74956698
0.75016199
0.75074393
0.75131273
0.75186834
0.75241075
0.75293997
0.75345603
0.75395898
0.75444888
0.75492583
0.75538992
0.75584125
0.75627992
0.75670605
0.72297815
0.72377281
0.72457223
0.72537589
0.72618324
0.72699369
0.7278066
0.72862132
0.7294372
0.73025354
0.73106964
0.73188479
0.73269828
0.73350938
0.73431738
0.73512157
0.73592125
0.73671572
0.73750431
0.73828637
0.73906126
0.73982838
0.74058714
0.74133698
0.74207739
0.74280787
0.74352796
0.74423724
0.74493531
0.74562183
0.74629646
0.74695893
0.74760898
0.7482464
0.74887099
0.74948261
0.75008113
0.75066646
0.75123853
0.75179731
0.75234278
0.75287496
0.75339386
0.75389955
0.7543921
0.75487159
0.75533812
0.7557918
0.75623273
0.75666103
0.72272381
0.72352483
0.72433054
0.72514041
0.72595391
0.72677042
0.72758934
0.72841001
0.72923176
0.7300539
0.73087573
0.73169655
0.73251562
0.73333224
0.73414568
0.73495524
0.73576019
0.73655986
0.73735357
0.73814066
0.73892049
0.73969245
0.74045595
0.74121045
0.74195541
0.74269034
0.74341478
0.7441283
0.74483051
0.74552106
0.74619962
0.74686591
0.74751967
0.74816069
0.74878877
0.74940378
0.75000558
0.75059408
0.75116923
0.75173097
0.75227931
0.75281425
0.75333582
0.75384408
0.75433911
0.75482098
0.7552898
0.75574568
0.75618873
0.75661906
0.72248624
0.7232932
0.72410478
0.72492047
0.72573971
0.7265619
0.72738644
0.72821266
0.72903989
0.72986746
0.73069465
0.73152076
0.73234506
0.73316683
0.73398536
0.73479992
0.73560982
0.73641435
0.73721284
0.73800462
0.73878906
0.73956555
0.7403335
0.74109234
0.74184156
0.74258065
0.74330915
0.74402664
0.74473272
0.74542704
0.74610927
0.74677913
0.74743635
0.74808074
0.74871209
0.74933026
0.74993513
0.7505266
0.75110461
0.75166913
0.75222015
0.75275767
0.75328174
0.7537924
0.75428974
0.75477383
0.7552448
0.75570274
0.75614777
0.75658
0.72226475
0.72307726
0.72389432
0.72471542
0.72554002
0.72636752
0.72719729
0.72802869
0.72886104
0.72969367
0.73052586
0.7313569
0.73218608
0.73301266
0.73383594
0.73465518
0.73546968
0.73627874
0.73708169
0.73787786
0.73866661
0.73944732
0.74021941
0.74098231
0.74173549
0.74247847
0.74321076
0.74393195
0.74464165
0.74533948
0.74602513
0.74669832
0.74735878
0.7480063
0.7486407
0.74926183
0.74986955
0.75046379
0.75104449
0.75161159
0.75216511
0.75270504
0.75323143
0.75374434
0.75424383
0.75473001
0.75520297
0.75566284
0.75610971
0.75654372
0.72205865
0.72287631
0.72369848
0.72452463
0.72535422
0.72618665
0.72702131
0.72785753
0.72869465
0.72953199
0.73036883
0.73120447
0.73203819
0.73286925
0.73369694
0.73452054
0.73533933
0.73615261
0.73695972
0.73775997
0.73855272
0.73933737
0.74011331
0.74087999
0.74163687
0.74238346
0.74311929
0.74384393
0.74455698
0.74525809
0.74594693
0.74662321
0.74728669
0.74793714
0.74857437
0.74919825
0.74980864
0.75040546
0.75098864
0.75155816
0.752114
0.75265618
0.75318474
0.75369973
0.75420124
0.75468935
0.75516418
0.75562584
0.75607444
0.75651009
0.72186724
0.7226897
0.72351661
0.72434746
0.72518169
0.72601871
0.7268579
0.7276986
0.72854016
0.72938187
0.73022304
0.73106296
0.73190089
0.73273611
0.73356791
0.73439555
0.73521832
0.73603554
0.7368465
0.73765054
0.73844702
0.73923532
0.74001485
0.74078504
0.74154536
0.7422953
0.74303442
0.74376226
0.74447843
0.74518258
0.74587439
0.74655355
0.74721983
0.74787299
0.74851287
0.7491393
0.74975216
0.75035138
0.75093688
0.75150863
0.75206663
0.7526109
0.75314147
0.75365841
0.75416179
0.7546517
0.75512827
0.7555916
0.7560418
0.75647899
0.71923961
0.72005089
0.72086775
0.72168981
0.72251674
0.72334807
0.72418328
0.72502182
0.72586309
0.72670648
0.72755134
0.728397
0.72924278
0.73008796
0.73093184
0.73177368
0.73261276
0.73344837
0.73427976
0.73510623
0.73592708
0.73674162
0.73754918
0.73834912
0.73914081
0.73992366
0.7406971
0.74146061
0.74221367
0.74295583
0.74368664
0.74440571
0.74511269
0.74580724
0.74648907
0.74715794
0.74781363
0.74845595
0.74908475
0.74969991
0.75030134
0.75088899
0.75146283
0.75202283
0.75256904
0.75310148
0.75362022
0.75412533
0.75461692
0.7550951
0.75555998
0.75601167
0.75645029
0.71825305
0.71906274
0.71987832
0.72069944
0.72152572
0.7223568
0.72319221
0.72403146
0.72487399
0.7257192
0.72656648
0.72741519
0.72826465
0.72911418
0.72996307
0.73081061
0.73165608
0.73249873
0.73333786
0.73417272
0.73500261
0.73582683
0.73664468
0.7374555
0.73825863
0.73905346
0.73983939
0.74061584
0.7413823
0.74213824
0.74288321
0.74361678
0.74433853
0.74504812
0.74574521
0.74642952
0.74710079
0.74775881
0.74840339
0.74903438
0.74965167
0.75025516
0.7508448
0.75142055
0.75198242
0.75253041
0.75306458
0.75358499
0.75409171
0.75458485
0.75506452
0.75553084
0.75598391
0.75642387
0.71808581
0.71889953
0.71971909
0.72054414
0.72137431
0.72220922
0.72304842
0.7238914
0.7247376
0.72558645
0.72643733
0.72728958
0.72814256
0.72899555
0.72984787
0.7306988
0.7315476
0.73239356
0.73323593
0.734074
0.73490705
0.73573437
0.73655528
0.7373691
0.73817519
0.73897292
0.73976168
0.74054092
0.7413101
0.74206871
0.74281628
0.74355238
0.74427661
0.7449886
0.74568804
0.74637464
0.74704813
0.7477083
0.74835497
0.74898799
0.74960724
0.75021263
0.7508041
0.75138163
0.75194521
0.75249486
0.75303063
0.75355257
0.75406078
0.75455535
0.75503641
0.75550406
0.75595841
0.7563996
0.71793187
0.71874931
0.71957253
0.7204012
0.72123496
0.7220734
0.72291608
0.72376249
0.72461209
0.72546428
0.72631847
0.727174
0.7280302
0.72888639
0.72974187
0.73059591
0.73144779
0.73229678
0.73314215
0.73398317
0.73481913
0.73564931
0.73647304
0.73728963
0.73809843
0.73889882
0.73969021
0.74047201
0.74124369
0.74200475
0.74275472
0.74349316
0.74421967
0.74493388
0.74563549
0.74632418
0.74699972
0.74766187
0.74831047
0.74894535
0.74956641
0.75017355
0.75076671
0.75134588
0.75191103
0.75246221
0.75299945
0.75352282
0.7540324
0.75452829
0.75501062
0.7554795
0.75593504
0.75637737
0.71779055
0.7186114
0.71943799
0.72026998
0.72110703
0.72194872
0.72279459
0.72364416
0.72449687
0.72535214
0.72620936
0.7270679
0.72792707
0.72878619
0.72964457
0.73050147
0.73135618
0.73220795
0.73305607
0.73389981
0.73473844
0.73557125
0.73639757
0.7372167
0.738028
0.73883084
0.73962463
0.74040878
0.74118277
0.74194609
0.74269825
0.74343884
0.74416744
0.7448837
0.74558729
0.74627792
0.74695533
0.74761931
0.74826968
0.74890627
0.74952899
0.75013773
0.75073245
0.75131312
0.75187973
0.75243231
0.7529709
0.75349557
0.75400641
0.75450352
0.75498702
0.75545704
0.75591368
0.75635706
0.71766118
0.71848516
0.71931482
0.72014986
0.72098992
0.72183457
0.72268338
0.72353583
0.7243914
0.72524949
0.72610949
0.72697078
0.72783267
0.72869448
0.72955551
0.73041503
0.73127233
0.73212666
0.7329773
0.73382352
0.73466459
0.73549982
0.7363285
0.73714996
0.73796355
0.73876864
0.73956463
0.74035094
0.74112704
0.74189242
0.7426466
0.74338916
0.74411968
0.74483781
0.74554322
0.74623562
0.74691475
0.7475804
0.74823238
0.74887055
0.74949479
0.75010501
0.75070115
0.75128319
0.75185113
0.752405
0.75294483
0.7534707
0.75398269
0.75448092
0.7549655
0.75543656
0.75589422
0.75633857
0.7175431
0.71836993
0.71920241
0.72004023
0.72088303
0.7217304
0.72258187
0.72343697
0.72429513
0.7251558
0.72601835
0.72688214
0.72774652
0.72861078
0.72947423
0.73033615
0.73119581
0.73205248
0.73290542
0.7337539
0.73459722
0.73543464
0.73626549
0.73708908
0.73790476
0.7387119
0.7395099
0.74029818
0.74107621
0.74184347
0.7425995
0.74334385
0.74407613
0.74479596
0.74550304
0.74619705
0.74687776
0.74754493
0.7481984
0.748838
0.74946363
0.75007519
0.75067264
0.75125594
0.75182509
0.75238013
0.75292109
0.75344806
0.75396111
0.75446036
0.75494593
0.75541795
0.75587653
0.7563218
0.71743568
0.71826511
0.71910015
0.7199405
0.7207858
0.72163563
0.72248954
0.72334703
0.72420757
0.72507057
0.72593544
0.72680152
0.72766815
0.72853465
0.72940031
0.73026441
0.73112622
0.73198501
0.73284004
0.73369059
0.73453594
0.73537537
0.73620819
0.73703371
0.7378513
0.7386603
0.73946013
0.74025021
0.74102999
0.74179897
0.74255668
0.74330267
0.74403654
0.74475793
0.74546652
0.74616201
0.74684415
0.74751271
0.74816752
0.74880843
0.74943533
0.75004812
0.75064675
0.75123119
0.75180146
0.75235756
0.75289956
0.75342752
0.75394153
0.75444171
0.75492818
0.75540108
0.75586053
0.75630664
0.71733831
0.7181701
0.71900747
0.71985011
0.72069766
0.72154973
0.72240584
0.72326551
0.7241282
0.72499333
0.72586029
0.72672844
0.72759713
0.72846565
0.72933331
0.73019938
0.73106314
0.73192386
0.7327808
0.73363322
0.73448041
0.73532166
0.73615626
0.73698355
0.73780286
0.73861356
0.73941505
0.74020675
0.74098813
0.74175867
0.74251789
0.74326537
0.74400069
0.7447235
0.74543346
0.74613028
0.74681372
0.74748354
0.74813958
0.74878168
0.74940972
0.75002362
0.75062333
0.75120881
0.75178008
0.75233716
0.75288009
0.75340896
0.75392384
0.75442487
0.75491216
0.75538586
0.75584609
0.75629298
0.71725041
0.71808432
0.71892379
0.7197685
0.7206181
0.72147218
0.72233028
0.72319191
0.72405654
0.72492359
0.72579245
0.72666248
0.72753301
0.72840336
0.72927283
0.73014069
0.73100621
0.73186867
0.73272732
0.73358144
0.7344303
0.73527318
0.7361094
0.73693828
0.73775914
0.73857138
0.73937437
0.74016754
0.74095036
0.7417223
0.74248291
0.74323172
0.74396836
0.74469244
0.74540364
0.74610167
0.74678628
0.74745725
0.74811439
0.74875756
0.74938664
0.75000155
0.75060223
0.75118865
0.75176083
0.75231878
0.75286256
0.75339225
0.75390793
0.75440971
0.75489775
0.75537217
0.75583312
0.75628074
0.71717141
0.71800723
0.71884858
0.71969515
0.72054659
0.72140248
0.72226237
0.72312577
0.72399215
0.72486092
0.72573148
0.72660319
0.72747539
0.72834739
0.72921848
0.73008794
0.73095505
0.73181907
0.73267927
0.73353491
0.73438526
0.73522963
0.7360673
0.7368976
0.73771988
0.73853348
0.73933783
0.74013232
0.74091644
0.74168965
0.74245149
0.74320151
0.74393932
0.74466455
0.74537688
0.746076
0.74676166
0.74743365
0.74809179
0.74873593
0.74936594
0.74998175
0.75058331
0.75117058
0.75174357
0.75230232
0.75284686
0.75337728
0.75389367
0.75439615
0.75488484
0.75535992
0.75582152
0.75626982
0.71710076
0.7179383
0.71878134
0.71962957
0.72048265
0.72134016
0.72220165
0.72306663
0.72393457
0.72480488
0.72567696
0.72655018
0.72742387
0.72829734
0.72916988
0.73004078
0.73090931
0.73177473
0.73263631
0.73349331
0.73434501
0.7351907
0.73602967
0.73686125
0.73768478
0.73849962
0.73930517
0.74010085
0.74088612
0.74166047
0.74242342
0.74317452
0.74391339
0.74463965
0.74535297
0.74605306
0.74673968
0.74741259
0.74807162
0.74871662
0.74934747
0.74996409
0.75056643
0.75115446
0.75172818
0.75228764
0.75283286
0.75336394
0.75388097
0.75438406
0.75487335
0.75534901
0.75581119
0.75626008
0.71703797
0.71787703
0.71872156
0.71957127
0.72042581
0.72128476
0.72214767
0.72301406
0.72388338
0.72475506
0.7256285
0.72650306
0.72737807
0.72825285
0.72912668
0.72999886
0.73086865
0.73173532
0.73259812
0.73345634
0.73430923
0.73515609
0.73599622
0.73682894
0.73765359
0.73846953
0.73927615
0.74007289
0.74085919
0.74163455
0.74239848
0.74315056
0.74389036
0.74461753
0.74533175
0.74603271
0.74672016
0.74739389