/*--------------------------------*- C++ -*----------------------------------*\
| =========                 |                                                 |
| \\      /  F ield         | OpenFOAM: The Open Source CFD Toolbox           |
|  \\    /   O peration     | Version:  2312                                  |
|   \\  /    A nd           | Website:  www.openfoam.com                      |
|    \\/     M anipulation  |                                                 |
\*---------------------------------------------------------------------------*/
FoamFile
{
    version     2.0;
    format      ascii;
    arch        "LSB;label=32;scalar=64";
    class       volScalarField;
    location    "0.08";
    object      nut;
}
// * * * * * * * * * * * * * * * * * * * * * * * * * * * * * * * * * * * * * //

dimensions      [0 2 -1 0 0 0 0];

internalField   nonuniform List<scalar> 
3250
(
0.035311415
0.035531668
0.035756295
0.035985282
0.036218655
0.036456443
0.036698671
0.036945357
0.037196513
0.037452143
0.037712242
0.037976799
0.038245791
0.038519191
0.038796957
0.039079041
0.039365384
0.039655916
0.03995056
0.040249224
0.040551808
0.040858201
0.041168282
0.041481919
0.041798969
0.042119278
0.042442685
0.042769014
0.043098085
0.043429703
0.043763669
0.044099772
0.044437794
0.04477751
0.045118686
0.045461083
0.045804456
0.046148555
0.046493124
0.046837907
0.047182645
0.047527083
0.047870971
0.048214071
0.035312278
0.035532487
0.035757056
0.035985979
0.036219286
0.036457009
0.036699172
0.036945796
0.037196893
0.037452466
0.037712513
0.03797702
0.038245968
0.038519327
0.038797056
0.039079109
0.039365425
0.039655935
0.039950561
0.040249213
0.04055179
0.040858181
0.041168265
0.041481909
0.041798971
0.042119297
0.042442724
0.042769079
0.043098179
0.04342983
0.043763833
0.044099976
0.04443804
0.044777801
0.045119025
0.04546147
0.045804893
0.046149039
0.046493653
0.046838473
0.047183231
0.047527661
0.047871507
0.048214596
0.035310152
0.0355302
0.035754616
0.035983391
0.036216556
0.036454144
0.036696181
0.036942688
0.037193676
0.037449152
0.037709111
0.037973542
0.038242424
0.038515729
0.038793416
0.039075438
0.039361736
0.03965224
0.039946871
0.04024554
0.040548145
0.040854576
0.041164711
0.041478417
0.041795551
0.04211596
0.04243948
0.042765936
0.043095145
0.043426915
0.043761042
0.044097316
0.044435519
0.044775422
0.045116793
0.045459389
0.045802963
0.046147264
0.046492031
0.046837002
0.047181911
0.047526489
0.047870482
0.048213725
0.035306873
0.035526662
0.035750832
0.035979373
0.036212317
0.036449697
0.03669154
0.036937866
0.03718869
0.037444016
0.037703841
0.037968156
0.038236939
0.038510161
0.038787784
0.039069759
0.039356027
0.039646519
0.039941156
0.040239848
0.040542494
0.040848982
0.041159191
0.041472986
0.041790225
0.042110753
0.042434406
0.04276101
0.043090378
0.043422319
0.043756629
0.044093095
0.044431498
0.04477161
0.045113196
0.045456012
0.045799812
0.04614434
0.046489338
0.04683454
0.04717968
0.047524489
0.047868714
0.048212194
0.035302628
0.03552206
0.035745891
0.035974111
0.036206753
0.036443848
0.036685427
0.036931509
0.03718211
0.037437234
0.03769688
0.037961036
0.038229685
0.038502795
0.038780329
0.039062238
0.039348464
0.039638937
0.039933578
0.040232296
0.040534991
0.04084155
0.04115185
0.041465759
0.041783131
0.042103811
0.042427634
0.042754425
0.043083998
0.043416158
0.0437507
0.044087413
0.044426074
0.044766454
0.045108316
0.045451418
0.045795508
0.046140332
0.04648563
0.046831134
0.047176578
0.047521691
0.04786622
0.048210006
0.035297651
0.035516625
0.035740023
0.035967835
0.036200091
0.036436827
0.036678071
0.036923844
0.037174161
0.03742903
0.037688447
0.037952404
0.03822088
0.038493847
0.038771265
0.039053088
0.039339256
0.039629699
0.039924339
0.040223083
0.040525832
0.040832471
0.041142878
0.041456917
0.041774445
0.042095304
0.042419329
0.042746342
0.043076157
0.043408577
0.043743397
0.044080403
0.044419372
0.044760072
0.045102266
0.045445709
0.045790148
0.046135328
0.046480986
0.046826855
0.047172666
0.047518147
0.047863043
0.048207199
0.035292191
0.03551061
0.035733483
0.035960799
0.036192589
0.036428888
0.036669726
0.036915125
0.0371651
0.037419659
0.037678799
0.037942512
0.038210777
0.038483567
0.038760843
0.039042556
0.039328648
0.039619048
0.039913678
0.040212445
0.040515248
0.040821973
0.041132495
0.04144668
0.04176438
0.04208544
0.04240969
0.042736954
0.043067042
0.043399758
0.043734893
0.044072232
0.044411551
0.044752616
0.045095188
0.04543902
0.045783859
0.046129446
0.046475517
0.046821805
0.047168036
0.047513939
0.047859258
0.048203836
0.035286459
0.035504239
0.0357265
0.035953236
0.036184481
0.03642027
0.036660634
0.036905595
0.037155169
0.037409364
0.037668179
0.037931604
0.03819962
0.0384722
0.038749304
0.039030883
0.039316879
0.039607222
0.039901831
0.040200615
0.040503469
0.040810281
0.041120924
0.041435263
0.041753149
0.042074425
0.042398921
0.042726457
0.043056844
0.043389883
0.043725364
0.044063069
0.044402773
0.04474424
0.045087229
0.045431491
0.045776771
0.046122809
0.046469338
0.046816089
0.047162787
0.047509158
0.047854945
0.048199993
0.035280589
0.035497703
0.035719278
0.035945355
0.036175979
0.036411186
0.036651009
0.036895471
0.037144587
0.037398367
0.03765681
0.037919906
0.038187636
0.038459972
0.038736875
0.039018297
0.039304177
0.039594446
0.039889022
0.040187813
0.040490714
0.040797611
0.041108378
0.041422876
0.041740957
0.04206246
0.042387216
0.042715042
0.043045748
0.043379132
0.043714982
0.044053081
0.044393198
0.044735097
0.045078535
0.04542326
0.045769016
0.04611554
0.046462564
0.046809815
0.047157018
0.047503896
0.04785019
0.048195746
0.034855696
0.035063055
0.035274902
0.035491202
0.035711996
0.035937335
0.036167264
0.036401822
0.036641041
0.036884946
0.037133552
0.037386869
0.037644896
0.037907623
0.038175031
0.038447092
0.038723767
0.039005007
0.039290751
0.039580929
0.039875459
0.040174247
0.040477189
0.040784168
0.041095058
0.041409717
0.041727998
0.042049737
0.042374762
0.042702891
0.04303393
0.043367675
0.043703915
0.044042427
0.044382979
0.044725335
0.045069247
0.045414462
0.045760722
0.046107761
0.046455308
0.04680309
0.047150828
0.047498245
0.047845077
0.048191172
0.034852209
0.035058592
0.035269478
0.035484863
0.035704793
0.035929319
0.036158486
0.036392333
0.036630892
0.036874187
0.037122236
0.037375045
0.037632615
0.037894937
0.038161991
0.038433747
0.038710168
0.038991203
0.039276792
0.039566863
0.039861334
0.040160109
0.040463084
0.04077014
0.041081149
0.04139597
0.041714452
0.042036431
0.042361733
0.042690173
0.043021556
0.043355676
0.043692318
0.044031258
0.044372264
0.044715093
0.045059499
0.045405225
0.045752009
0.046099585
0.046447679
0.046796015
0.047144313
0.047492292
0.047839686
0.048186345
0.034849255
0.035054538
0.03526438
0.035478776
0.035697774
0.035921423
0.036149769
0.03638285
0.036620698
0.036863337
0.037110784
0.037363047
0.037620125
0.037882009
0.038148679
0.038420105
0.038696248
0.038977058
0.039262473
0.039552422
0.03984682
0.040145572
0.040448571
0.040755698
0.041066823
0.041381804
0.041700487
0.042022708
0.04234829
0.042677046
0.043008779
0.043343281
0.043680336
0.044019716
0.044361186
0.044704503
0.045049416
0.045395667
0.045742992
0.046091121
0.046439779
0.046788687
0.047137563
0.047486122
0.047834097
0.048181337
0.034846821
0.035050934
0.035259666
0.035473011
0.035691019
0.035913737
0.036141211
0.036373479
0.036610572
0.036852515
0.037099324
0.037351006
0.037607561
0.037868978
0.038135238
0.03840631
0.038682155
0.038962721
0.039247947
0.039537759
0.039832072
0.040130791
0.040433806
0.040740997
0.041052233
0.04136737
0.041686253
0.042008715
0.042334578
0.042663653
0.04299574
0.043330629
0.043668102
0.044007928
0.04434987
0.044693683
0.045039113
0.045385899
0.045733775
0.046082469
0.046431702
0.046781194
0.04713066
0.047479812
0.047828381
0.048176216
0.034844926
0.035047809
0.035255375
0.035467619
0.035684587
0.035906328
0.036132888
0.036364303
0.036600605
0.036841818
0.037087958
0.037339031
0.037595036
0.037855963
0.038121792
0.038392491
0.038668019
0.038948326
0.039233348
0.039523011
0.039817229
0.040115904
0.040418927
0.040726176
0.041037517
0.041352807
0.041671886
0.041994587
0.04232073
0.042650123
0.042982565
0.043317843
0.043655736
0.043996012
0.04433843
0.044682744
0.045028695
0.045376022
0.045724455
0.04607372
0.046423536
0.046773618
0.047123681
0.047473434
0.047822604
0.048171041
0.034843572
0.035045176
0.035251531
0.035462631
0.03567852
0.035899248
0.036124859
0.03635539
0.036590872
0.036831328
0.037076773
0.037327214
0.037582649
0.037843067
0.038108446
0.038378755
0.038653954
0.038933988
0.039218794
0.039508297
0.039802409
0.040101033
0.040404056
0.040711356
0.041022797
0.041338234
0.041657506
0.041980443
0.042306863
0.042636572
0.042969367
0.043305033
0.043643346
0.043984071
0.044326967
0.044671781
0.045018256
0.045366125
0.045715118
0.046064955
0.046415356
0.046766033
0.047116695
0.047467052
0.047816827
0.048165868
0.034842742
0.035043034
0.035248144
0.035458066
0.035672846
0.035892533
0.036117169
0.036346791
0.03658143
0.036821108
0.03706584
0.037315631
0.037570479
0.037830373
0.03809529
0.038365197
0.038640054
0.038919805
0.039204385
0.03949372
0.039787719
0.040086283
0.0403893
0.040696644
0.04100818
0.041323758
0.041643218
0.041966386
0.042293079
0.042623101
0.042956246
0.043292297
0.043631027
0.043972199
0.044315569
0.044660883
0.045007879
0.045356289
0.045705839
0.046056249
0.046407233
0.046758502
0.047109763
0.047460723
0.047811101
0.048160746
0.0348424
0.035041369
0.035245211
0.035453933
0.035667581
0.035886205
0.036109847
0.036338544
0.036572324
0.036811209
0.037055214
0.037304343
0.037558594
0.037817953
0.038082398
0.038351895
0.038626401
0.038905861
0.039190209
0.039479368
0.039773247
0.040071746
0.04037475
0.040682133
0.040993757
0.041309472
0.041629114
0.041952508
0.042279469
0.042609799
0.042943289
0.04327972
0.043618862
0.043960476
0.044304316
0.044650124
0.044997636
0.045346583
0.045696686
0.046047663
0.046399226
0.046751083
0.047102939
0.047454497
0.047805475
0.048155719
0.03484249
0.035040162
0.035242724
0.035450229
0.035662731
0.035880279
0.036102915
0.036330674
0.036563586
0.03680167
0.03704494
0.037293401
0.037547047
0.037805865
0.038069832
0.038338912
0.038613063
0.038892227
0.039176337
0.039465315
0.03975907
0.040057498
0.040360484
0.040667901
0.040979608
0.041295454
0.041615272
0.041938887
0.04226611
0.042596741
0.04293057
0.043267374
0.043606921
0.043948972
0.044293274
0.044639569
0.044987592
0.045337067
0.045687716
0.046039253
0.046391387
0.046743825
0.047096269
0.047448418
0.047799987
0.048150823
0.03465182
0.034843126
0.035039414
0.035240671
0.035446947
0.035658294
0.035874758
0.036096383
0.0363232
0.036555239
0.036792519
0.037035052
0.03728284
0.03753588
0.037794155
0.038057641
0.038326303
0.038600095
0.03887896
0.03916283
0.039451624
0.03974525
0.040043604
0.040346569
0.040654014
0.0409658
0.04128177
0.041601759
0.041925588
0.042253067
0.042583992
0.042918152
0.043255321
0.043595267
0.043937744
0.044282501
0.044629275
0.044977798
0.045327793
0.045678978
0.046031065
0.046383761
0.04673677
0.047089791
0.047442521
0.047794671
0.048146088
0.034654342
0.034844178
0.035039076
0.035239024
0.035444068
0.035654259
0.035869641
0.036090254
0.036316131
0.036547299
0.036783776
0.037025573
0.037272691
0.037525125
0.037782859
0.038045865
0.038314109
0.038587543
0.038866109
0.039149737
0.039438346
0.039731841
0.040030118
0.040333057
0.040640527
0.040952386
0.041268476
0.04158863
0.041912667
0.042240393
0.042571606
0.042906088
0.043243615
0.043583949
0.043926844
0.044272044
0.044619286
0.044968299
0.045318802
0.045670512
0.046023138
0.046376384
0.046729952
0.047083537
0.047436836
0.047789555
0.04814154
0.034657177
0.034845581
0.035039103
0.035237751
0.035441571
0.035650611
0.035864917
0.036084526
0.03630947
0.036539773
0.036775454
0.03701652
0.037262974
0.037514808
0.037772004
0.038034535
0.038302363
0.038575441
0.03885371
0.039137097
0.03942552
0.039718884
0.040017081
0.040319992
0.040627484
0.040939412
0.041255617
0.04157593
0.041900167
0.042228134
0.042559625
0.042894422
0.043232295
0.043573008
0.043916309
0.044261942
0.044609641
0.04495913
0.04531013
0.045662352
0.046015503
0.046369285
0.046723398
0.047077534
0.047431387
0.047784661
0.0481372
0.034660267
0.034847294
0.035039461
0.035236822
0.03543943
0.035647334
0.035860576
0.036079192
0.036303214
0.036532664
0.036767557
0.037007904
0.037253702
0.037504943
0.037761609
0.038023671
0.03829109
0.038563817
0.03884179
0.039124939
0.039413178
0.03970641
0.040004528
0.040307409
0.04061492
0.040926912
0.041243227
0.041563693
0.041888124
0.042216324
0.042548085
0.042883186
0.043221397
0.043562476
0.043906173
0.044252226
0.044600368
0.044950322
0.045301803
0.045654522
0.046008184
0.046362488
0.046717129
0.047071801
0.047426192
0.047780005
0.048133081
0.034483349
0.034663704
0.034849299
0.035040117
0.035236208
0.035437622
0.035644406
0.035856601
0.036074241
0.036297356
0.036525967
0.036760089
0.036999728
0.037244882
0.037495542
0.037751688
0.038013289
0.038280305
0.038552687
0.038830372
0.039113285
0.039401343
0.039694445
0.039992483
0.040295334
0.04060286
0.040914914
0.041231334
0.041551947
0.041876565
0.04220499
0.042537011
0.042872407
0.043210944
0.043552379
0.043896458
0.044242919
0.044591491
0.044941894
0.045293842
0.045647043
0.0460012
0.046356008
0.046711163
0.047066353
0.047421265
0.047775598
0.048129195
0.034488484
0.034667351
0.034851539
0.035041031
0.035235875
0.035436118
0.035641805
0.035852974
0.036069659
0.036291887
0.036519677
0.036753044
0.036991991
0.037236517
0.037486609
0.037742246
0.038003397
0.038270021
0.038542065
0.038819467
0.039102151
0.03939003
0.039683005
0.039980964
0.040283783
0.040591323
0.040903436
0.041219956
0.04154071
0.041865508
0.04219415
0.042526423
0.042862103
0.043200955
0.043542733
0.043887182
0.044234037
0.044583024
0.044933861
0.045286261
0.045639928
0.045994563
0.046349859
0.046705509
0.047061199
0.047416614
0.04777145
0.048125547
0.0344937
0.034671147
0.034853966
0.035042166
0.035235792
0.035434892
0.035639508
0.035849677
0.03606543
0.036286793
0.036513785
0.036746416
0.036984691
0.037228604
0.037478143
0.037733286
0.037993999
0.038260241
0.038531958
0.038809084
0.039091544
0.03937925
0.0396721
0.039969982
0.040272769
0.040580322
0.040892489
0.041209106
0.041529996
0.041854967
0.042183817
0.042516332
0.042852286
0.043191442
0.043533551
0.043878357
0.044225591
0.044574978
0.044926234
0.045279069
0.045633185
0.045988281
0.046344047
0.046700174
0.047056346
0.047412245
0.047767563
0.048122142
0.034498955
0.034675052
0.034856544
0.035043486
0.035235928
0.035433917
0.035637492
0.035846689
0.036061538
0.036282061
0.036508277
0.036740195
0.036977817
0.037221138
0.037470141
0.037724805
0.037985094
0.038250966
0.038522365
0.038799225
0.039081468
0.039369005
0.039661735
0.039959541
0.040262296
0.040569861
0.040882081
0.04119879
0.04151981
0.041844947
0.042173998
0.042506746
0.042842963
0.043182411
0.043524838
0.043869986
0.044217585
0.044567357
0.044919017
0.04527227
0.045626819
0.045982357
0.046338576
0.046695162
0.047051796
0.047408159
0.047763939
0.048118977
0.034335113
0.03450433
0.034679046
0.034859241
0.035044961
0.035236255
0.035433166
0.035635733
0.035843989
0.036057963
0.036277675
0.036503141
0.03673437
0.036971361
0.037214109
0.037462596
0.037716797
0.037976677
0.038242191
0.038513284
0.038789886
0.039071921
0.039359296
0.039651908
0.039949641
0.040252366
0.040559941
0.040872212
0.041189009
0.041510153
0.04183545
0.042164693
0.042497665
0.042834135
0.043173862
0.043516596
0.043862072
0.044210022
0.044560163
0.044912209
0.045265865
0.045620828
0.045976792
0.046333445
0.04669047
0.047047548
0.047404355
0.047760574
0.048116047
0.034341912
0.034509704
0.034683083
0.03486202
0.035046559
0.035236743
0.035432614
0.035634208
0.035841557
0.036054687
0.036273617
0.036498361
0.036728926
0.03696531
0.037207506
0.037455496
0.037709252
0.037968739
0.03823391
0.038504708
0.038781063
0.039062897
0.039350116
0.039642616
0.039940279
0.040242974
0.04055056
0.040862878
0.04117976
0.041501024
0.041826473
0.0421559
0.042489086
0.042825798
0.043165794
0.04350882
0.043854612
0.044202896
0.044553392
0.044905808
0.045259848
0.045615209
0.04597158
0.046328649
0.046686097
0.0470436
0.04740083
0.047757465
0.048113342
0.034348589
0.034515027
0.034687122
0.03486485
0.03504825
0.035237367
0.035432237
0.035632896
0.035839373
0.036051691
0.03626987
0.03649392
0.036723848
0.03695965
0.037201317
0.037448829
0.037702159
0.037961269
0.038226111
0.038496627
0.038772746
0.039054387
0.039341457
0.039633849
0.039931445
0.040234113
0.040541708
0.040854073
0.041171036
0.041492413
0.041818009
0.042147612
0.042481003
0.042817947
0.043158199
0.043501504
0.043847597
0.044196203
0.044547037
0.044899807
0.045254215
0.045609956
0.045966717
0.046324184
0.046682035
0.047039945
0.047397582
0.04775461
0.048110844
0.034355128
0.034520267
0.034691133
0.034867701
0.03505001
0.035238102
0.035432013
0.035631775
0.035837415
0.036048957
0.036266416
0.036489802
0.03671912
0.036954365
0.037195526
0.037442582
0.037695505
0.037954255
0.038218783
0.038489029
0.038764923
0.039046381
0.039333308
0.039625598
0.03992313
0.040225771
0.040533376
0.040845785
0.041162826
0.041484312
0.041810047
0.042139819
0.042473405
0.04281057
0.043151067
0.04349464
0.04384102
0.044189931
0.044541088
0.044894197
0.045248956
0.045605058
0.045962192
0.046320039
0.046678276
0.047036578
0.047394608
0.047752016
0.04810855
0.034361505
0.0345254
0.03469509
0.034870549
0.035051815
0.035238927
0.03543192
0.035630825
0.035835667
0.036046466
0.036263237
0.03648599
0.036714725
0.036949439
0.037190118
0.037436739
0.037689274
0.037947681
0.03821191
0.0384819
0.038757579
0.039038862
0.039325655
0.039617847
0.039915319
0.040217936
0.04052555
0.040838002
0.041155116
0.041476708
0.041802576
0.042132508
0.042466281
0.042803656
0.043144387
0.043488214
0.043834868
0.044184071
0.044535535
0.044888965
0.045244058
0.045600506
0.045957994
0.046316203
0.04667481
0.047033487
0.0473919
0.047749703
0.048106627
0.048462515
0.034367697
0.034530404
0.034698972
0.034873373
0.035053644
0.035239822
0.03543194
0.035630027
0.035834108
0.036044199
0.036260316
0.036482465
0.036710647
0.036944856
0.037185075
0.037431284
0.03768345
0.037941531
0.038205476
0.038475223
0.038750698
0.039031817
0.039318481
0.039610582
0.039907998
0.040210591
0.040518215
0.040830708
0.041147893
0.041469584
0.04179558
0.042125665
0.042459615
0.042797191
0.043138143
0.043482212
0.043829127
0.044178607
0.044530363
0.044884099
0.04523951
0.045596286
0.045954111
0.046312664
0.046671622
0.047030656
0.047389435
0.047747615
0.048104882
0.04846116
0.034373686
0.034535261
0.034702761
0.034876154
0.035055478
0.035240768
0.035432054
0.035629365
0.035832721
0.036042141
0.036257636
0.036479213
0.036706869
0.036940597
0.037180382
0.037426199
0.037678015
0.037935788
0.038199464
0.038468981
0.038744264
0.039025227
0.039311771
0.039603786
0.039901148
0.040203721
0.040511354
0.040823886
0.04114114
0.041462926
0.041789042
0.042119273
0.042453391
0.042791158
0.043132321
0.04347662
0.043823782
0.044173524
0.044525558
0.044879584
0.045235297
0.045592384
0.045950529
0.046309409
0.046668698
0.04702807
0.047387192
0.047745724
0.048103336
0.048459918
0.034379454
0.034539954
0.034706439
0.034878877
0.035057303
0.035241749
0.035432247
0.03562882
0.035831491
0.036040274
0.03625518
0.036476214
0.036703373
0.036936647
0.03717602
0.037421467
0.037672953
0.037930434
0.038193857
0.038463157
0.038738258
0.039019074
0.039305505
0.039597439
0.039894751
0.040197305
0.040504949
0.040817519
0.041134837
0.041456714
0.041782945
0.042113314
0.042447593
0.04278554
0.043126903
0.04347142
0.043818816
0.044168808
0.044521104
0.044875405
0.045231404
0.045588786
0.045947233
0.046306422
0.046666026
0.047025715
0.047385159
0.047744017
0.048101953
0.048458825
0.034384989
0.034544471
0.034709996
0.034881529
0.035059103
0.035242752
0.035432503
0.03562838
0.035830401
0.036038583
0.036252932
0.036473453
0.036700142
0.036932988
0.037171973
0.03741707
0.037668244
0.037925451
0.038188635
0.038457731
0.038732662
0.03901334
0.039299664
0.039591523
0.03988879
0.040191326
0.04049898
0.040811586
0.041128967
0.041450929
0.04177727
0.04210777
0.042442201
0.042780319
0.043121872
0.043466594
0.043814212
0.04416444
0.044516985
0.044871546
0.045227814
0.045585475
0.045944208
0.046303689
0.04666359
0.04702358
0.047383325
0.047742486
0.048100724
0.048457879
0.034390281
0.034548801
0.034713419
0.034884097
0.035060869
0.035243764
0.03543281
0.035628029
0.035829438
0.036037052
0.036250876
0.036470914
0.03669716
0.036929602
0.037168222
0.03741299
0.037663872
0.037920821
0.03818378
0.038452684
0.038727456
0.039008005
0.03929423
0.039586018
0.039883242
0.040185763
0.040493427
0.040806069
0.041123509
0.041445554
0.041771998
0.042102622
0.042437196
0.042775477
0.043117208
0.043462126
0.043809952
0.044160403
0.044513183
0.044867989
0.045224512
0.045582436
0.045941439
0.046301196
0.046661376
0.047021649
0.047381679
0.047741125
0.048099644
0.04845707
0.034395323
0.034552938
0.034716701
0.034886574
0.035062588
0.035244773
0.035433155
0.035627755
0.035828588
0.036035668
0.036248999
0.036468582
0.036694412
0.036926475
0.037164751
0.037409211
0.037659818
0.037916524
0.038179274
0.038447999
0.038722621
0.039003049
0.039289182
0.039580905
0.03987809
0.040180597
0.040488272
0.040800947
0.041118443
0.041440566
0.041767108
0.042097851
0.04243256
0.042770994
0.043112894
0.043457995
0.043806019
0.04415668
0.044509681
0.044864719
0.045221482
0.045579654
0.045938911
0.046298927
0.046659371
0.04701991
0.047380208
0.047739921
0.048098704
0.048456385
0.03440011
0.034556876
0.034719835
0.034888951
0.035064253
0.035245772
0.03543353
0.035627547
0.035827839
0.036034417
0.036247285
0.036466442
0.036691881
0.036923589
0.037161543
0.037405715
0.037656064
0.037912545
0.038175097
0.038443655
0.038718137
0.038998453
0.039284501
0.039576163
0.039873312
0.040175807
0.040483493
0.040796201
0.041113751
0.041435947
0.041762582
0.042093436
0.042428273
0.042766851
0.043108911
0.043454185
0.043802395
0.044153253
0.044506462
0.044861717
0.045218707
0.045577112
0.045936609
0.046296869
0.046657561
0.04701835
0.047378899
0.047738863
0.048097894
0.048455816
0.034404639
0.034560613
0.034722818
0.034891223
0.035065858
0.03524675
0.035433923
0.035627395
0.03582718
0.036033288
0.036245722
0.03646448
0.036689554
0.036920929
0.037158583
0.037402484
0.037652594
0.037908863
0.038171233
0.038439634
0.038713987
0.038994199
0.039280166
0.039571773
0.039868889
0.040171374
0.04047907
0.04079181
0.041109411
0.041431677
0.0417584
0.042089358
0.042424317
0.04276303
0.043105239
0.043450676
0.043799061
0.044150104
0.044503509
0.044858969
0.045216171
0.045574795
0.045934517
0.046295007
0.046655932
0.047016956
0.047377741
0.047737941
0.048097204
0.048455353
0.034408908
0.034564149
0.034725647
0.034893386
0.035067396
0.035247702
0.035434327
0.035627289
0.0358266
0.036032268
0.036244297
0.036462683
0.036687416
0.036918481
0.037155854
0.037399504
0.03764939
0.037905462
0.038167662
0.038435918
0.03871015
0.038990265
0.039276159
0.039567715
0.039864802
0.040167277
0.040474985
0.040787755
0.041105404
0.041427736
0.041754542
0.042085598
0.042420671
0.042759511
0.043101861
0.043447451
0.043796
0.044147218
0.044500806
0.044856458
0.045213859
0.045572689
0.045932621
0.046293326
0.04665447
0.047015715
0.047376722
0.047737143
0.048096624
0.048454985
0.034412914
0.034567485
0.034728322
0.034895438
0.035068863
0.035248622
0.035434736
0.035627221
0.03582609
0.036031349
0.036242999
0.036461038
0.036685454
0.03691623
0.037153343
0.037396758
0.037646436
0.037902326
0.038164367
0.038432489
0.038706609
0.038986636
0.039272462
0.03956397
0.03986103
0.040163498
0.040471217
0.040784016
0.041101711
0.041424106
0.041750989
0.042082138
0.042417317
0.042756277
0.043098759
0.043444492
0.043793195
0.044144576
0.044498336
0.044854168
0.045211755
0.045570777
0.045930908
0.046291814
0.046653163
0.047014615
0.04737583
0.047736459
0.048096143
0.048454703
0.034416667
0.034570621
0.034730843
0.034897377
0.035070256
0.035249505
0.035435142
0.035627184
0.035825641
0.036030519
0.036241818
0.036459534
0.036683655
0.036914163
0.037151033
0.037394232
0.037643717
0.037899437
0.038161332
0.038429329
0.038703347
0.038983291
0.039269055
0.039560521
0.039857556
0.040160018
0.040467748
0.040780574
0.041098313
0.041420767
0.041747724
0.04207896
0.042414238
0.042753311
0.043095916
0.043441783
0.043790629
0.044142163
0.044496084
0.044852083
0.045209845
0.045569047
0.045929362
0.046290458
0.046651998
0.047013644
0.047375054
0.047735877
0.048095753
0.0484545
0.033998264
0.034132614
0.034273197
0.034420242
0.034573569
0.03473321
0.034899202
0.035071573
0.035250346
0.035435541
0.035627171
0.035825246
0.03602977
0.036240743
0.03645816
0.036682007
0.036912267
0.037148913
0.03739191
0.037641217
0.037896781
0.038158541
0.038426423
0.038700346
0.038980215
0.039265922
0.039557348
0.039854362
0.040156819
0.04046456
0.040777413
0.041095193
0.041417702
0.041744727
0.042076045
0.042411417
0.042750594
0.043093315
0.043439306
0.043788287
0.044139963
0.044494034
0.04485019
0.045208115
0.045567485
0.045927973
0.046289245
0.046650964
0.047012792
0.047374384
0.04773539
0.048095445
0.048454366
0.033876124
0.034003507
0.034137205
0.034277199
0.03442359
0.034576327
0.034735426
0.034900912
0.035072811
0.035251144
0.035435929
0.035627177
0.035824897
0.036029094
0.036239766
0.036456905
0.0366805
0.03691053
0.037146969
0.037389781
0.037638923
0.037894343
0.038155977
0.038423755
0.03869759
0.038977389
0.039263044
0.039554435
0.03985143
0.040153883
0.040461635
0.040774513
0.041092332
0.041414893
0.041741983
0.042073377
0.042408836
0.042748111
0.043090939
0.043437048
0.043786153
0.044137962
0.044492173
0.044848475
0.045206551
0.045566078
0.045926726
0.046288163
0.04665005
0.047012047
0.04737381
0.047734987
0.048095211
0.048454294
0.033881679
0.034008396
0.034141477
0.034280892
0.034426699
0.034578894
0.03473749
0.034902508
0.03507397
0.035251896
0.035436301
0.035627196
0.03582459
0.036028484
0.036238877
0.036455761
0.036679123
0.036908941
0.037145188
0.03738783
0.03763682
0.037892107
0.038153628
0.038421308
0.038695064
0.0389748
0.039260407
0.039551766
0.039848744
0.040151194
0.040458956
0.040771859
0.041089715
0.041412324
0.041739474
0.042070939
0.04240648
0.042745846
0.043088774
0.043434991
0.043784213
0.044136145
0.044490486
0.044846924
0.045205141
0.045564814
0.045925612
0.046287201
0.046649244
0.0470114
0.047373323
0.047734661
0.048095042
0.048454278
0.033886799
0.034012914
0.034145423
0.034284296
0.034429575
0.034581273
0.034739405
0.034903991
0.03507505
0.0352526
0.035436655
0.035627225
0.035824317
0.036027932
0.036238069
0.036454718
0.036677865
0.036907489
0.037143561
0.037386045
0.037634897
0.037890062
0.038151478
0.038419069
0.038692752
0.03897243
0.039257995
0.039549325
0.039846287
0.040148735
0.040456509
0.040769434
0.041087324
0.04140998
0.041737186
0.042068717
0.042404334
0.042743784
0.043086805
0.043433123
0.043782453
0.0441345
0.044488961
0.044845525
0.045203873
0.045563681
0.045924618
0.04628635
0.046648538
0.047010841
0.047372914
0.047734402
0.048094931
0.048454311
0.033891509
0.034017071
0.034149054
0.034287426
0.034432224
0.034583467
0.034741174
0.034905363
0.035076051
0.035253255
0.035436988
0.035627259
0.035824074
0.036027434
0.036237335
0.036453769
0.036676719
0.036906164
0.037142075
0.037384416
0.03763314
0.037888194
0.038149514
0.038417025
0.038690641
0.038970267
0.039255792
0.039547097
0.039844046
0.040146493
0.040454276
0.040767223
0.041085146
0.041407844
0.041735103
0.042066696
0.042402383
0.042741912
0.043085019
0.04343143
0.04378086
0.044133013
0.044487585
0.044844266
0.045202735
0.045562668
0.045923734
0.046285598
0.046647921
0.047010362
0.047372575
0.047734204
0.048094872
0.048454387
0.033895829
0.034020884
0.034152384
0.034290296
0.034434655
0.034585483
0.034742801
0.034906626
0.035076974
0.035253861
0.035437299
0.035627296
0.035823857
0.036026983
0.036236669
0.036452905
0.036675675
0.036904957
0.037140721
0.037382931
0.037631539
0.037886492
0.038147724
0.038415161
0.038688718
0.038968296
0.039253786
0.039545067
0.039842005
0.040144451
0.040452245
0.040765213
0.041083166
0.041405904
0.041733211
0.042064861
0.042400613
0.042740215
0.043083402
0.043429899
0.043779421
0.044131672
0.044486348
0.044843136
0.045201718
0.045561766
0.045922951
0.046284938
0.046647386
0.047009955
0.047372298
0.047734059
0.048094859
0.048454499
0.033899779
0.03402437
0.034155428
0.034292919
0.034436877
0.034587328
0.03474429
0.034907782
0.03507782
0.035254417
0.035437586
0.035627333
0.035823663
0.036026575
0.036236064
0.03645212
0.036674726
0.03690386
0.03713949
0.03738158
0.037630083
0.037884943
0.038146096
0.038413467
0.038686969
0.038966504
0.039251963
0.039543224
0.039840151
0.040142598
0.040450402
0.040763389
0.04108137
0.041404145
0.041731498
0.0420632
0.042399013
0.042738681
0.043081942
0.043428519
0.043778126
0.044130468
0.044485238
0.044842126
0.04520081
0.045560966
0.045922261
0.04628436
0.046646924
0.047009611
0.047372076
0.047733962
0.048094886
0.048454644
0.033903377
0.034027543
0.034158198
0.034295306
0.034438901
0.034589008
0.034745647
0.034908836
0.035078591
0.035254925
0.035437848
0.035627368
0.035823487
0.036026205
0.036235516
0.036451408
0.036673865
0.036902864
0.037138373
0.037380354
0.037628761
0.037883538
0.03814462
0.03841193
0.038685383
0.038964879
0.03925031
0.039541553
0.039838472
0.040140919
0.040448733
0.040761738
0.041079746
0.041402555
0.04172995
0.042061701
0.042397569
0.0427373
0.043080628
0.043427278
0.043776964
0.044129388
0.044484246
0.044841225
0.045200004
0.045560258
0.045921654
0.046283857
0.046646528
0.047009325
0.047371903
0.047733906
0.048094947
0.048454815
0.03390664
0.034030421
0.03416071
0.034297469
0.034440734
0.03459053
0.034746877
0.034909792
0.03507929
0.035255385
0.035438086
0.0356274
0.035823328
0.03602587
0.036235019
0.036450763
0.036673085
0.036901961
0.037137361
0.037379244
0.037627565
0.037882267
0.038143284
0.03841054
0.038683948
0.038963411
0.039248817
0.039540043
0.039836955
0.040139404
0.040447227
0.040760249