/*--------------------------------*- C++ -*----------------------------------*\
| =========                 |                                                 |
| \\      /  F ield         | OpenFOAM: The Open Source CFD Toolbox           |
|  \\    /   O peration     | Version:  2312                                  |
|   \\  /    A nd           | Website:  www.openfoam.com                      |
|    \\/     M anipulation  |                                                 |
\*---------------------------------------------------------------------------*/
FoamFile
{
    version     2.0;
    format      ascii;
    arch        "LSB;label=32;scalar=64";
    class       volScalarField;
    location    "0.08";
    object      omega;
}
// * * * * * * * * * * * * * * * * * * * * * * * * * * * * * * * * * * * * * //

dimensions      [0 0 -1 0 0 0 0];

internalField   nonuniform List<scalar> 
3250
(
267.4544
265.38363
263.3022
261.21156
259.11298
257.00771
254.89704
252.78228
250.66473
248.54574
246.42665
244.3088
242.19355
240.08227
237.97631
235.87702
233.78574
231.70381
229.63253
227.57321
225.52711
223.49547
221.47953
219.48044
217.49937
215.53743
213.59567
211.67513
209.77678
207.90157
206.05037
204.22403
202.42333
200.64901
198.90175
197.1822
195.49092
193.82846
192.19529
190.59184
189.01849
187.47557
185.96332
184.48195
267.84439
265.76069
263.66664
261.56364
259.45295
257.33583
255.21356
253.08744
250.95879
248.82893
246.69921
244.57098
242.4456
240.32442
238.20881
236.10012
233.99968
231.90883
229.82888
227.76113
225.70684
223.66726
221.64361
219.63705
217.64875
215.67981
213.73128
211.80421
209.89955
208.01825
206.1612
204.32921
202.52308
200.74354
198.99128
197.26691
195.57103
193.90416
192.26678
190.65931
189.08215
187.53563
186.02002
184.53539
268.54064
266.43356
264.31661
262.1912
260.05859
257.92003
255.77679
253.63018
251.4815
249.33207
247.18326
245.03639
242.89283
240.75394
238.62106
236.49555
234.37875
232.27199
230.17657
228.09379
226.02492
223.97119
221.93383
219.91399
217.91284
215.93146
213.97092
212.03225
210.1164
208.22431
206.35686
204.51486
202.69911
200.91032
199.14918
197.4163
195.71225
194.03756
192.3927
190.77809
189.19411
187.64107
186.11924
184.62868
269.50529
267.36594
265.2174
263.06107
260.8982
258.73005
256.55788
254.38297
252.20665
250.03024
247.85506
245.68247
243.51382
241.35046
239.19375
237.04502
234.90563
232.77688
230.66009
228.55655
226.46752
224.39423
222.3379
220.29969
218.28074
216.28216
214.30498
212.35023
210.41887
208.51182
206.62995
204.77407
202.94496
201.14334
199.36985
197.62513
195.90973
194.22417
192.56889
190.94432
189.35082
187.78869
186.25817
184.75931
270.69314
268.51419
266.32688
264.13261
261.93263
259.72817
257.5205
255.3109
253.10067
250.89114
248.68363
246.47948
244.28005
242.08667
239.9007
237.72347
235.55633
233.40059
231.25755
229.1285
227.0147
224.91737
222.83772
220.77692
218.73609
216.71632
214.71866
212.74412
210.79366
208.86817
206.96852
205.09553
203.24994
201.43246
199.64375
197.88441
196.15498
194.45596
192.78781
191.15091
189.54561
187.97221
186.43093
184.92179
272.06429
269.83976
267.60783
265.3699
263.12721
260.88098
258.63248
256.38296
254.13374
251.88611
249.6414
247.40095
245.1661
242.93818
240.71854
238.50852
236.30944
234.12262
231.94935
229.79092
227.64857
225.52354
223.41701
221.33015
219.26408
217.21988
215.19858
213.2012
211.22866
209.28188
207.3617
205.46891
203.60427
201.76846
199.96213
198.18586
196.44019
194.7256
193.04251
191.39132
189.77235
188.18587
186.6321
185.11104
273.58364
271.30872
269.02749
266.74132
264.45144
262.15908
259.86546
257.57186
255.27956
252.98986
250.70406
248.42351
246.14952
243.88344
241.6266
239.38033
237.14594
234.92476
232.71807
230.52714
228.35322
226.19753
224.06126
221.94555
219.85153
217.78026
215.73279
213.71008
211.71309
209.74269
207.79973
205.88498
203.99919
202.14304
200.31714
198.52206
196.75834
195.02643
193.32675
191.65966
190.02547
188.42445
186.85678
185.32243
275.22029
272.89118
270.55694
268.21895
265.87838
263.53645
261.19439
258.85344
256.51487
254.17998
251.85005
249.52642
247.2104
244.90332
242.6065
240.32128
238.04895
235.79083
233.54821
231.32233
229.11445
226.92578
224.7575
222.61075
220.48663
218.38623
216.31054
214.26056
212.23721
210.24136
208.27383
206.33541
204.42681
202.54869
200.70167
198.8863
197.10308
195.35246
193.63485
191.95057
190.29994
188.68318
187.10047
185.55176
276.94722
274.56081
272.17074
269.77818
267.38427
264.9902
262.59716
260.20639
257.81914
255.43669
253.06034
250.69137
248.33111
245.98088
243.64199
241.31575
239.00348
236.70647
234.42599
232.1633
229.91964
227.69622
225.49419
223.31471
221.15887
219.02773
216.92229
214.84352
212.79235
210.76962
208.77617
206.81273
204.88003
202.97871
201.10936
199.27253
197.4687
195.69829
193.9617
192.25925
190.5912
188.95779
187.35915
185.79522
283.61981
281.18226
278.74001
276.29441
273.84652
271.39744
268.94827
266.50018
264.05434
261.61197
259.1743
256.74261
254.31815
251.90223
249.49615
247.10121
244.71872
242.34999
239.99631
237.65898
235.33926
233.0384
230.75763
228.49815
226.26113
224.04768
221.85891
219.69585
217.55952
215.45086
213.37078
211.32014
209.29973
207.31031
205.35255
203.4271
201.53453
199.67537
197.85009
196.05909
194.30275
192.58136
190.89519
189.24442
187.6292
186.04941
285.58267
283.08184
280.57778
278.07172
275.56471
273.05782
270.55213
268.04878
265.54894
263.05378
260.56455
258.08247
255.60882
253.14486
250.69189
248.2512
245.8241
243.41187
241.01581
238.6372
236.2773
233.93736
231.61859
229.32217
227.04928
224.80103
222.57851
220.38274
218.21473
216.07542
213.9657
211.88641
209.83835
207.82224
205.83876
203.88854
201.97213
200.09004
198.24272
196.43057
194.65393
192.91308
191.20827
189.53967
187.90738
186.31129
287.57393
285.0091
282.44245
279.87517
277.3083
274.74287
272.17995
269.62065
267.06612
264.51753
261.97607
259.44298
256.9195
254.40689
251.90643
249.41941
246.94711
244.49082
242.05182
239.63138
237.23076
234.85119
232.49389
230.16003
227.85077
225.56721
223.31044
221.08149
218.88133
216.7109
214.57108
212.46272
210.38657
208.34336
206.33375
204.35836
202.41771
200.51232
198.6426
196.80894
195.01165
193.25102
191.52724
189.84049
188.19085
186.57817
289.57699
286.94784
284.3183
281.68953
279.06253
276.43832
273.81794
271.20247
268.59303
265.99077
263.39688
260.81256
258.23905
255.67759
253.12944
250.59588
248.07818
245.57762
243.09547
240.633
238.19146
235.77206
233.37602
231.00451
228.65867
226.33961
224.04839
221.78605
219.55354
217.35179
215.18169
213.04404
210.93962
208.86912
206.8332
204.83244
202.86738
200.9385
199.04621
197.19087
195.37278
193.59219
191.8493
190.14425
188.4771
186.84768
291.57732
288.884
286.19173
283.50163
280.81468
278.13186
275.45419
272.78271
270.11854
267.46278
264.81662
262.18123
259.55783
256.94765
254.35195
251.77197
249.209
246.66428
244.1391
241.63469
239.1523
236.69316
234.25846
231.84936
229.467
227.11249
224.78688
222.49117
220.22635
217.99332
215.79294
213.62604
211.49334
209.39556
207.33333
205.30722
203.31775
201.36538
199.4505
197.57347
195.73456
193.934
192.17198
190.44861
188.76394
187.11776
293.56246
290.80552
288.05106
285.30018
282.55382
279.81292
277.07847
274.35151
271.6331
268.92434
266.22638
263.54039
260.86756
258.2091
255.56627
252.94029
250.33243
247.74394
245.17608
242.63009
240.10721
237.60864
235.13558
232.68919
230.27061
227.88091
225.52115
223.19234
220.89543
218.63134
216.4009
214.20493
212.04416
209.91928
207.8309
205.7796
203.76586
201.79014
199.85282
197.95422
196.09461
194.27421
192.49316
190.75157
189.04947
187.38663
295.52182
292.70212
289.88634
287.07554
284.27061
281.47248
278.68208
275.90043
273.12857
270.36758
267.61858
264.88271
262.16115
259.45512
256.76581
254.09449
251.44237
248.81072
246.20077
243.61377
241.05094
238.51348
236.00258
233.5194
231.06505
228.64063
226.24716
223.88566
221.55708
219.2623
217.00218
214.7775
212.589
210.43734
208.32313
206.24692
204.20921
202.21041
200.2509
198.33098
196.4509
194.61087
192.811
191.0514
189.33206
187.65273
297.44648
294.56513
291.68918
288.81958
285.9572
283.10292
280.25765
277.42237
274.59808
271.78585
268.98678
266.20199
263.43264
260.67992
257.94503
255.2292
252.53366
249.85965
247.20839
244.58113
241.97908
239.40344
236.85538
234.33606
231.84659
229.38804
226.96147
224.56785
222.20813
219.8832
217.5939
215.341
213.12523
210.94724
208.80763
206.70693
204.64563
202.62413
200.64279
198.7019
196.80169
194.94234
193.12396
191.34663
189.61032
187.91477
299.32904
296.38727
293.4525
290.52549
287.607
284.69788
281.79902
278.91135
276.03587
273.1736
270.32562
267.49304
264.677
261.87867
259.09925
256.33994
253.60196
250.88655
248.19492
245.52831
242.88791
240.27493
237.69054
235.13588
232.61205
230.12014
227.66117
225.23612
222.84594
220.49151
218.17364
215.89312
213.65065
211.44688
209.2824
207.15773
205.07333
203.0296
201.02688
199.06544
197.14551
195.26723
193.43072
191.63601
189.88308
188.17163
304.17039
301.16268
298.16243
295.17051
292.18764
289.21457
286.25211
283.3011
280.36247
277.43717
274.52621
271.63065
268.75157
265.89009
263.04738
260.22461
257.42297
254.64368
251.88796
249.15703
246.45209
243.77435
241.12501
238.50522
235.91612
233.35883
230.83439
228.34385
225.88818
223.4683
221.0851
218.73939
216.43193
214.16343
211.93452
209.74578
207.59772
205.49079
203.42537
201.4018
199.42032
197.48114
195.5844
193.73019
191.91853
190.14937
188.42241
306.00844
302.94276
299.88582
296.8385
293.80149
290.77551
287.76133
284.75977
281.77173
278.79813
275.83997
272.89826
269.97408
267.06854
264.18278
261.31796
258.47527
255.65591
252.86108
250.09199
247.34987
244.63589
241.95125
239.2971
236.67457
234.08477
231.52876
229.00756
226.52213
224.07341
221.66226
219.2895
216.95587
214.66207
212.40873
210.19641
208.02562
205.89679
203.81029
201.76643
199.76547
197.80758
195.89289
194.02147
192.19333
190.40839
188.66634
307.78728
304.6654
301.55364
298.45277
295.36343
292.28632
289.22216
286.17175
283.13595
280.11568
277.11188
274.12557
271.1578
268.20966
265.28228
262.37681
259.49441
256.63629
253.80363
250.99765
248.21955
245.47051
242.75171
240.06431
237.40943
234.78817
232.20159
229.6507
227.13647
224.65982
222.22161
219.82264
217.46367
215.14536
212.86836
210.6332
208.44038
206.29033
204.1834
202.1199
200.10005
198.12403
196.19194
194.30384
192.45972
190.6595
188.90283
309.50378
306.32754
303.16291
300.01044
296.87069
293.7443
290.63198
287.5345
284.45269
281.38742
278.33965
275.31035
272.30057
269.31137
266.34386
263.39919
260.47851
257.58301
254.71388
251.87231
249.0595
246.27664
243.52489
240.8054
238.1193
235.46768
232.8516
230.27206
227.73002
225.2264
222.76206
220.33779
217.95433
215.61237
213.3125
211.05528
208.84119
206.67064
204.54397
202.46149
200.4234
198.42985
196.48096
194.57675
192.7172
190.9022
189.1314
314.39528
311.15498
307.92681
304.71145
301.5094
298.3212
295.14746
291.98887
288.84615
285.72011
282.61162
279.52157
276.45096
273.40078
270.3721
267.36602
264.38366
261.42617
258.49473
255.59051
252.71471
249.86851
247.0531
244.26965
241.51928
238.80314
236.1223
233.47781
230.87069
228.30188
225.7723
223.28279
220.83416
218.42713
216.06237
213.74048
211.46201
209.22742
207.03712
204.89145
202.79067
200.735
198.72458
196.7595
194.83976
192.96534
191.13611
189.35169
316.03089
312.73968
309.46174
306.19775
302.94819
299.71356
296.49444
293.29149
290.10541
286.93698
283.78703
280.65646
277.54623
274.45732
271.39079
268.34771
265.3292
262.3364
259.37047
256.4326
253.52395
250.64572
247.79908
244.98519
242.20519
239.4602
236.75131
234.07955
231.44594
228.85142
226.2969
223.78323
221.31119
218.88151
216.49486
214.15182
211.85293
209.59865
207.38937
205.22543
203.10708
201.03452
199.00788
197.02723
195.09257
193.20386
191.36096
189.56346
317.59707
314.25699
310.93143
307.62094
304.32594
301.04691
297.7844
294.53903
291.31148
288.10251
284.91292
281.74359
278.59546
275.4695
272.36675
269.28827
266.23517
263.20858
260.20966
257.23956
254.29948
251.39058
248.51403
245.671
242.86263
240.09002
237.35425
234.65638
231.99739
229.37824
226.79983
224.263
221.76853
219.31715
216.90951
214.54619
212.22773
209.95457
207.72711
205.54565
203.41045
201.3217
199.27951
197.28394
195.33499
193.43258
191.57658
189.76654
319.09338
315.7065
312.33549
308.98062
305.64228
302.32089
299.01698
295.73114
292.46402
289.21636
285.98894
282.78262
279.59831
276.43699
273.29967
270.1874
267.10128
264.04242
261.01199
258.01112
255.04101
252.10281
249.1977
246.32683
243.49134
240.69233
237.93089
235.20805
232.52481
229.88212
227.28086
224.7219
222.20598
219.73385
217.30614
214.92344
212.58626
210.29505
208.05019
205.85198
203.70067
201.59642
199.53936
197.52952
195.5669
193.6514
191.78286
189.96085
323.9668
320.5193
317.0882
313.67396
310.27687
306.89726
303.53555
300.19223
296.86785
293.56306
290.27855
287.0151
283.77356
280.5548
277.3598
274.18954
271.04508
267.9275
264.8379
261.77743
258.74725
255.74851
252.78239
249.85005
246.95264
244.09129
241.26712
238.48119
235.73454
233.02816
230.36301
227.73997
225.15988
222.62351
220.13158
217.68472
215.28352
212.92848
210.62004
208.35857
206.14438
203.97769
201.85866
199.7874
197.76395
195.78827
193.86028
191.9798
190.14637
325.36616
321.87572
318.40262
314.94734
311.51014
308.09133
304.69131
301.31053
297.94953
294.60894
291.28942
287.99174
284.71671
281.46521
278.23819
275.03662
271.86155
268.71405
265.59522
262.5062
259.44812
256.42217
253.42948
250.47124
247.54857
244.66263
241.8145
239.00526
236.23595
233.50756
230.82103
228.17725
225.57705
223.0212
220.51042
218.04533
215.6265
213.25445
210.92961
208.65233
206.42291
204.24156
202.10846
200.02368
197.98725
195.99914
194.05926
192.16743
190.32316
326.69484
323.16359
319.65065
316.15644
312.6812
309.22522
305.78887
302.37257
298.97685
295.6023
292.24957
288.91941
285.61262
282.33006
279.07266
275.84139
272.63728
269.46139
266.31481
263.19868
260.11414
257.06233
254.04443
251.06159
248.11495
245.20564
242.33476
239.50339
236.71255
233.96324
231.2564
228.59292
225.97361
223.39925
220.87055
218.38813
215.95256
213.56435
211.22391
208.9316
206.6877
204.49243
202.34594
200.2483
198.19954
196.19961
194.24842
192.34581
190.49132
327.95401
324.38411
320.83344
317.30237
313.79113
310.29996
306.82921
303.37929
299.9507
296.544
293.15984
289.79893
286.46207
283.15009
279.86392
276.60452
273.3729
270.17012
266.99726
263.85545
260.74582
257.66953
254.62773
251.62157
248.6522
245.72075
242.82831
239.97595
237.16471
234.39556
231.66946
228.98729
226.34986
223.75795
221.21225
218.71339
216.26194
213.85839
211.50315
209.19658
206.93895
204.73047
202.57128
200.46144
198.40097
196.38982
194.42789
192.51503
190.65093
329.14512
325.53869
321.95235
318.38646
314.84119
311.31677
307.81353
304.33184
300.87218
297.43511
294.02124
290.63127
287.26598
283.92621
280.61284
277.32684
274.06922
270.84101
267.6433
264.4772
261.34385
258.2444
255.17999
252.15178
249.16091
246.2085
243.29565
240.42344
237.59288
234.80496
232.06063
229.36076
226.70618
224.09765
221.53586
219.02145
216.55496
214.13688
211.76764
209.44756
207.17693
204.95593
202.7847
200.66331
198.59175
196.56996
194.59782
192.67518
190.80165
188.97675
330.26983
326.62895
323.00897
319.41022
315.83286
312.27708
308.74318
305.23153
301.74257
298.27684
294.83494
291.41756
288.02545
284.65945
281.32042
278.00933
274.72715
271.47495
268.25378
265.06476
261.90901
258.78769
255.70193
252.6529
249.64172
246.66952
243.7374
240.84642
237.99762
235.19197
232.43041
229.71383
227.04304
224.4188
221.84181
219.31268
216.83198
214.40018
212.01769
209.68485
207.40192
205.16909
202.98649
200.85417
198.77212
196.74027
194.75847
192.82654
190.94417
189.11061
331.33001
327.65668
324.00502
320.37534
316.76775
313.18244
309.61968
306.07981
302.56326
299.07054
295.60225
292.15905
288.74169
285.35097
281.98778
278.65304
275.34774
272.07292
268.82965
265.61902
262.44217
259.30024
256.19436
253.12569
250.09537
247.10451
244.15422
241.24555
238.37953
235.55716
232.77936
230.047
227.36092
224.72187
222.13053
219.58753
217.09342
214.64867
212.25368
209.9088
207.61427
205.37028
203.17695
201.03432
198.94237
196.90101
194.9101
192.96942
191.07866
189.23714
332.32764
328.62381
324.94237
321.2836
317.6476
314.03453
310.44464
306.87825
303.33576
299.81768
296.32457
292.8571
289.41599
286.00204
282.61611
279.25914
275.93209
272.636
269.37194
266.14099
262.94428
259.78295
256.65814
253.571
250.52265
247.51423
244.54683
241.62151
238.7393
235.90117
233.10807
230.36088
227.6604
225.00739
222.40254
219.84647
217.33973
214.88278
212.47603
210.1198
207.81434
205.55984
203.3564
201.20405
199.10278
197.05248
195.05298
193.10407
191.20544
189.35644
333.26482
329.53236
325.82297
322.13691
318.47425
314.83513
311.21978
307.62849
304.06167
300.51978
297.00338
293.51313
290.04973
286.61396
283.2067
279.82885
276.48138
273.16532
269.88173
266.63169
263.41633
260.23679
257.09419
253.98969
250.92442
247.8995
244.91602
241.97505
239.07761
236.22468
233.41721
230.65605
227.94204
225.27592
222.65837
220.09002
217.5714
215.10298
212.68516
210.31827
208.00254
205.73815
203.5252
201.36372
199.25368
197.19496
195.18741
193.23078
191.32475
189.46872
334.14372
330.38443
326.64885
322.93722
319.24958
315.58606
311.94685
308.33225
304.74262
301.17843
297.64022
294.12861
290.64432
287.18812
283.76086
280.36344
276.99684
273.66206
270.36016
267.09222
263.85938
260.66275
257.50347
254.38269
251.30154
248.26114
245.26258
242.30693
239.39521
236.5284
233.70743
230.93318
228.20646
225.52803
222.89857
220.31868
217.78892
215.30974
212.88153
210.50462
208.17925
205.90558
203.68371
201.51366
199.39539
197.32879
195.31367
193.3498
191.43685
189.57423
334.96657
331.18218
327.4221
323.68654
319.97554
316.2892
312.62769
308.99128
305.38032
301.79527
298.23665
294.70508
291.20125
287.72593
284.27995
280.86423
277.47971
274.12741
270.80838
267.5237
264.27448
261.06186
257.88697
254.75095
251.65493
248.60004
245.58736
242.61796
239.69285
236.81304
233.97943
231.19292
228.4543
225.76434
223.12371
220.53302
217.99281
215.50354
213.06561
210.67932
208.34491
206.06254
203.83231
201.65423
199.52826
197.45426
195.43207
193.46142
191.542
189.67319
335.73562
331.92777
328.1448
324.3869
320.6541
316.94645
313.26412
309.60735
305.97649
302.37196
298.79429
295.24407
291.72199
288.22881
284.76536
281.33253
277.93129
274.56262
271.22758
267.92725
264.66274
261.43517
258.24569
255.09542
251.98551
248.91707
245.89119
242.90893
239.97132
237.07934
234.23392
231.43594
228.68619
225.98544
223.33437
220.73358
218.1836
215.6849
213.23786
210.8428
208.49994
206.20944
203.97139
201.7858
199.65262
197.57172
195.5429
193.56592
191.64045
189.76586
336.45315
332.62339
328.81907
325.04036
321.28724
317.55974
313.858
310.18227
306.53285
302.91017
299.31473
295.74713
292.20804
288.69821
285.21847
281.7697
278.35285
274.96892
271.61895
268.30403
265.02525
261.78374
258.58064
255.41709
252.29421
249.21313
246.17493
243.18067
240.23139
237.32806
234.47161
231.66292
228.90279
226.19197
223.53114
220.92092
218.36182
215.85431
213.39878
210.99552
208.64477
206.34668
204.10133
201.90874
199.76883
197.68148
195.64649
193.6636
191.73248
189.85251
337.12141
333.2712
329.44702
325.64895
321.87693
318.13097
314.41119
310.71781
307.05113
303.41156
299.7996
296.21582
292.6609
289.13558
285.64068
282.17707
278.74569
275.34756
271.98369
268.65518
265.36311
262.10863
258.89285
255.71692
252.58196
249.4891
246.43943
243.434
240.47384
237.55994
234.69321
231.87454
229.10473
226.38453
223.71462
221.0956
218.52801
216.01229
213.54884
211.13794
208.77984
206.47467
204.22252
202.0234
199.87722
197.78387
195.74313
193.75474
191.81837
189.93337
337.74262
333.87334
330.03074
326.21471
322.42515
318.66205
314.92552
311.21575
307.53304
303.87779
300.25048
296.65169
293.08207
289.54235
286.03336
282.55596
279.1111
275.69976
272.32298
268.98184
265.67743
262.41087
259.18331
255.99588
252.8497
249.74589
246.68554
243.66972
240.69946
237.77572
234.89943
232.07148
229.29267
226.56375
223.88539
221.25819
218.68269
216.15934
213.68852
211.27052
208.90557
206.59383
204.33535
202.13015
199.97815
197.87922
195.83313
193.83964
191.89838
190.00872
338.31891
334.43193
330.57228
326.73963
322.93383
319.15486
315.4028
311.67785
307.98029
304.3105
300.66897
297.05625
293.473
289.91994
286.39789
282.90771
279.45033
276.02675
272.638
269.28514
265.96927
262.69153
259.45304
256.25493
253.09833
249.98436
246.91412
243.88866
240.909
237.97614
235.09098
232.25442
229.46725
226.73023
224.04402
221.40923
218.8264
216.29596
213.81829
211.3937
209.02241
206.70455
204.4402
202.22937
200.07196
197.96784
195.91681
193.91857
191.97279
190.07881
350.72656
346.74064
342.78293
338.85199
334.94903
331.07368
327.22569
323.40488
319.61124
315.84483
312.10584
308.39454
304.71131
301.05662
297.43102
293.83515
290.26975
286.73561
283.2336
279.76465
276.32973
272.92989
269.56619
266.23973
262.95162
259.703
256.49501
253.32877
250.2054
247.12598
244.09159
241.10324
238.16192
235.26855
232.42401
229.6291
226.88458
224.1911
221.54928
218.95964
216.42263
213.93863
211.50793
209.13075
206.80724
204.53745
202.32139
200.15898
198.05007
195.99444
193.99182
192.04185
190.14388
355.29629
351.26548
347.26352
343.29006
339.34437
335.42674
331.53696
327.67483
323.84019
320.03301
316.25336
312.50141
308.77743
305.08179
301.41495
297.77745
294.16995
290.59315
287.04785
283.53491
280.05526
276.60988
273.1998
269.82609
266.48983
263.19215
259.93418
256.71706
253.54191
250.40984
247.32195
244.27931
241.28293
238.33379
235.43283
232.58091
229.77885
227.02738
224.32719
221.67886
219.08294
216.53986
214.05
211.61365
209.23103
206.90228
204.62746
202.40658
200.23954
198.1262
196.06634
194.05967
192.10584
190.20418
355.80789
351.76213
347.74548
343.7577
339.79827
335.86713
331.96409
328.08894
324.24157
320.42193
316.63009
312.8662
309.13055
305.42348
301.74545
298.097
294.47877
290.89147
287.33588
283.81288
280.32338
276.86836
273.44884
270.06589
266.72061
263.41411
260.14752
256.92197
253.73861
250.59852
247.50282
244.45257
241.44878
238.49244
235.58447
232.72575
229.91708
227.15922
224.45283
221.7985
219.19678
216.6481
214.15283
211.71127
209.32363
206.99006
204.7106
202.48527
200.31396
198.19654
196.13278
194.12239
192.16501
190.25996
356.27853
352.21891
348.18878
344.18788
340.21576
336.27219
332.35696
328.46987
324.61081
320.77972
316.97668
313.20184
309.45545
305.73788
302.04957
298.39105
294.76296
291.16601
287.60098
284.06872
280.57016
277.10627
273.67808
270.28664
266.93306
263.61844
260.34393
257.11064
253.91971
250.77226
247.66937
244.61212
241.60151
238.63854
235.72413
232.85915
230.04441
227.28066
224.56856
221.90872
219.30166
216.74782
214.24758
211.80122
209.40897
207.07095
204.78723
202.55779
200.38256
198.26139
196.19404
194.18023
192.2196
190.31145
356.71037
352.63802
348.59553
344.58261
340.59881
336.64384
332.71744
328.81941
324.94963
321.10806
317.29476
313.50987
309.75365
306.02645
302.32872
298.66097
295.02385
291.41804
287.84435
284.3036
280.79674
277.32472
273.88857
270.48935
267.12815
263.80609
260.5243
257.28392
254.08606
250.93184
247.82236
244.75868
241.74182
238.77276
235.85243
232.98171
230.1614
227.39224
224.67491
222.01
219.39804
216.83947
214.33466
211.8839
209.4874
207.14531
204.85767
202.62448
200.44565
198.32103
196.25039
194.23346
192.26985
190.35888
357.10551
353.02152
348.96772
344.94381
340.94933
336.98391
333.0473
329.13927
325.2597
321.40855
317.58587
313.7918
310.0266
306.2906
302.58425
298.90807
295.26268
291.64879
288.06717
284.51867
281.0042
277.52475
274.08132
270.67498
267.30682
263.97796
260.68952
257.44263
254.23843
251.07802
247.96251
244.89294
241.87036
238.89573
235.97
233.09401
230.2686
227.49449
224.77237
222.10282
219.48638
216.92347
214.41448
211.9597
209.55932
207.21349
204.92226
202.68563
200.50351
198.37574
196.3021
194.28231
192.316
190.40247
357.46599
353.3714
349.30729
345.27336
341.26912
337.29419
333.34826
329.43112
325.54264
321.68276
317.85153
314.0491
310.2757
306.53169
302.81748
299.13361
295.48069
291.85943
288.27058
284.71501
281.19362
277.70739
274.25732
270.84449
267.46998
264.13491
260.8404
257.58758
254.37759
251.21154
248.09052
245.0156
241.98779
239.00809
236.07741
233.19663
230.36656
227.58794
224.86144
222.18766
219.56712
217.00026
214.48746
212.02899
209.62507
207.27583
204.98133
202.74156
200.55643
198.42579
196.34941
194.32703
192.35827
190.44243
357.79379
353.68957
349.61611
345.57307
341.55996
337.57637
333.62199
329.69657
325.79998
321.93217
318.09318
314.28315
310.50232
306.75102
303.02968
299.33882
295.67906
292.0511
288.45569
284.89369
281.36601
277.87361
274.41752
270.99878
267.6185
264.27778
260.97776
257.71956
254.5043
251.33312
248.20709
245.12729
242.09474
239.11041
236.17524
233.29009
230.45579
227.67306
224.94258
222.26495
219.64069
217.07023
214.55396
212.09214
209.685
207.33266
205.03519
202.79256
200.60469
198.47143
196.39257
194.36784
192.39687
190.47898
358.09082
353.97789
349.89595
345.84467
341.82353
337.8321
333.87005
329.93714
326.03322
322.15824
318.31222
314.49531
310.70775
306.94985
303.22206
299.52488
295.85893
292.22489
288.62354
285.05572
281.52234
278.02437
274.56281
271.13873
267.75322
264.40739
261.10237
257.83929
254.61927
251.44343
248.31287
245.22865
242.19179
239.20328
236.26403
233.37494
230.53679
227.75034
225.01626
222.33513
219.70749
217.13378
214.61436
212.14951
209.73944
207.3843
205.08412
202.8389
200.64855
198.51293
196.43181
194.40495
192.432
190.51231
358.35888
354.23811
350.14853
346.08982
342.06144
338.06294
334.09398
330.15432
326.24379
322.36233
318.50998
314.68688
310.89324
307.1294
303.39578
299.6929
296.02137
292.38186
288.77515
285.20209
281.66357
278.16056
274.69408
271.26518
267.87496
264.52451
261.21498
257.94749
254.72318
251.54314
248.40849
245.32028
242.27954
239.28724
236.34432
233.45166
230.61005
227.82024
225.0829
222.39862
219.76793
217.19127
214.66901
212.20142
209.78872
207.43103
205.12842
202.88086
200.68827
198.55051
196.46736
194.43857
192.46384
190.5426
358.59973
354.47192
350.3755
346.31012
342.27523
338.27039
334.29523
330.3495
326.43304
322.54578
318.68775
314.85908
311.05999
307.29082
303.55198
299.84398
296.16743
292.52302
288.9115
285.33372
281.79059
278.28306
274.81216
271.37893
267.98447
264.62989
261.31631
258.04486
254.81668
251.63288
248.49455
245.40276
242.35852
239.36283
236.41661
233.52074
230.67601
227.88318
225.14291
222.45581
219.82238
217.24307
214.71825
212.2482
209.83313
207.47316
205.16835
202.91869
200.72409
198.5844
196.49942
194.4689
192.49257
190.57
358.81505
354.68096
350.57842
346.50709
342.4664
338.45589
334.4752
330.52405
326.60229
322.70984
318.84674
315.0131
311.20915
307.43521
303.69171
299.97914
296.29812
292.64932
289.0335
285.45152
281.90427
278.39271
274.91785
271.48076
268.08251
264.72423
261.40703
258.13205
254.90042
251.71325
248.57163
245.47663
242.42928
239.43055
236.48138
233.58264
230.73513
227.9396
225.19671
222.50707
219.8712
217.28952
214.76242
212.29017
209.87297
207.51096
205.20419
202.95265
200.75625
198.61483
196.52821
194.49613
192.51834
190.59459
359.00642
354.86675
350.75879
346.68218
342.63634
338.62081
334.6352
330.67924
326.75278
322.85573
318.98812
315.15007
311.34181
307.56364
303.816
300.09937
296.41438
292.76168
289.14206
285.55634
282.00543
278.49028
275.01192
271.57139
268.16979
264.80822
261.4878
258.20969
254.97499
251.78482
248.64028
245.54244
242.49232
239.49089
236.5391
233.6378
230.78782
227.98989
225.24468
222.55278
219.91473
217.33095
214.80182
212.3276
209.90852
207.5447
205.23619
202.98297
200.78496
198.64201
196.55392
194.52044
192.54132
190.61631
188.74511
359.17536
355.03079
350.91805
346.83679
342.78641
338.76644
334.7765
330.81631
326.8857
322.98459
319.11301
315.27107
311.459
307.67711
303.92582
300.20562
296.51712
292.86099
289.23801
285.649
282.09486
278.57655
275.0951
271.65154
268.24697
264.8825
261.55925
258.27836
255.04096
251.84815
248.70104
245.60068
242.54811
239.54431
236.59019
233.68665
230.83448
228.03443
225.28716
222.59328
219.9533
217.36767
214.83674
212.3608
209.94005
207.57462
205.26457
203.00988
200.81045
198.66614
196.57675
194.54202
192.5617
190.63554
188.76283
359.32332
355.17446
351.05755
346.97223
342.91789
338.89405
334.90031
330.93641
327.00217
323.09752
319.22246
315.37713
311.56173
307.77659
304.0221
300.29878
296.60721
292.94809
289.32216
285.73027
282.17331
278.65224
275.16808
271.72187
268.31471
264.9477
261.62197
258.33866
255.09889
251.90377
248.7544
245.65184
242.59713
239.59124
236.6351
233.72958
230.8755
228.07359
225.32453
222.6289
219.98724
217.39998
214.86748
212.39002
209.96781
207.60098
205.28958
203.03359
200.83291
198.68741
196.59687
194.56104
192.57964
190.6524
188.77865
359.45168
355.29911
351.17859
347.08975
343.032
339.0048
335.00778
331.04067
327.10329
323.19556
319.3175
315.46922
311.65094
307.86297
304.10572
300.3797
296.68548
293.02376
289.39529
285.8009
282.24149
278.71803
275.23153
271.78302
268.37361
265.00441
261.67653
258.39112
255.14929
251.95217
248.80084
245.69638
242.63981
239.63211
236.67421
233.76698
230.91124
228.10772
225.3571
222.65996
220.01684
217.42816
214.8943
212.41552
209.99205
207.624
205.31142
203.0543
200.85255
198.70601
196.61447
194.57768
192.59532
190.6671
188.79239
186.97048
359.56174
355.406
351.2824
347.19057
343.12988
339.09982
335.09999
331.13013
327.19006
323.2797
319.39906
315.54827
311.72753
307.93715
304.17754
300.44919
296.75271
293.08876
289.45811
285.86159
282.3001
278.77459
275.28607
271.8356
268.42427
265.05318
261.72347
258.43625
255.19267
251.99383
248.84083
245.73473
242.67657
239.66732
236.70791
233.79922
230.94205
228.13715
225.38519
222.68676
220.04238
217.45249
214.91746
212.43756
210.01299
207.6439
205.33031
203.07223
200.86955
198.72211
196.62971
194.59208
192.6089
190.67982
188.8043
186.98129
359.65474
355.49634
351.37015
347.2758
343.21266
339.18018
335.17798
331.2058
327.26345
323.35088
319.46808
315.61516
311.79235
307.99993
304.23833
300.50804
296.80964
293.14382
289.51134
285.91302
282.34976
278.82252
275.33232
271.88019
268.46724
265.09456
261.76329
258.47456
255.22949
252.0292
248.87478
245.76731
242.7078
239.69724
236.73656
233.82663