/*--------------------------------*- C++ -*----------------------------------*\
| =========                 |                                                 |
| \\      /  F ield         | OpenFOAM: The Open Source CFD Toolbox           |
|  \\    /   O peration     | Version:  2312                                  |
|   \\  /    A nd           | Website:  www.openfoam.com                      |
|    \\/     M anipulation  |                                                 |
\*---------------------------------------------------------------------------*/
FoamFile
{
    version     2.0;
    format      ascii;
    arch        "LSB;label=32;scalar=64";
    class       surfaceScalarField;
    location    "0.08";
    object      phi;
}
// * * * * * * * * * * * * * * * * * * * * * * * * * * * * * * * * * * * * * //

dimensions      [1 0 -1 0 0 0 0];

oriented        oriented;

internalField   nonuniform List<scalar> 
6378
(
2.3583694e-07
-1.8400041e-07
2.3277635e-07
-1.837752e-07
2.2971319e-07
-1.8348775e-07
2.2664441e-07
-1.8313958e-07
2.2357039e-07
-1.8273113e-07
2.2049294e-07
-1.8226324e-07
2.1741425e-07
-1.8173681e-07
2.1433651e-07
-1.8115282e-07
2.1126186e-07
-1.8051229e-07
2.0819241e-07
-1.7981633e-07
2.0513026e-07
-1.7906608e-07
2.0207745e-07
-1.7826274e-07
1.9903599e-07
-1.7740752e-07
1.9600784e-07
-1.765017e-07
1.9299495e-07
-1.755466e-07
1.8999919e-07
-1.7454356e-07
1.8702244e-07
-1.7349397e-07
1.840665e-07
-1.7239921e-07
1.8113314e-07
-1.7126074e-07
1.782241e-07
-1.7008e-07
1.7534107e-07
-1.6885846e-07
1.7248569e-07
-1.6759762e-07
1.6965956e-07
-1.6629896e-07
1.6686425e-07
-1.6496399e-07
1.6410127e-07
-1.6359423e-07
1.6137209e-07
-1.6219117e-07
1.5867812e-07
-1.6075634e-07
1.5602074e-07
-1.5929124e-07
1.5340128e-07
-1.5779738e-07
1.5082102e-07
-1.5627625e-07
1.4828117e-07
-1.5472936e-07
1.4578292e-07
-1.531582e-07
1.433274e-07
-1.5156426e-07
1.409157e-07
-1.4994904e-07
1.3854889e-07
-1.48314e-07
1.3622801e-07
-1.4666061e-07
1.3395409e-07
-1.4499031e-07
1.3172815e-07
-1.4330449e-07
1.295512e-07
-1.4160444e-07
1.2742415e-07
-1.3989137e-07
1.2534772e-07
-1.3816629e-07
1.2332226e-07
-1.3643007e-07
1.2134808e-07
-1.3468381e-07
-1.3293048e-07
2.3059289e-07
-1.7821198e-07
2.2758725e-07
-1.7798866e-07
2.2457854e-07
-1.7770576e-07
2.2156473e-07
-1.773642e-07
2.1854615e-07
-1.7696477e-07
2.1552454e-07
-1.7650831e-07
2.1250195e-07
-1.759957e-07
2.0948048e-07
-1.7542789e-07
2.0646222e-07
-1.7480587e-07
2.0344927e-07
-1.7413068e-07
2.0044365e-07
-1.7340343e-07
1.9744739e-07
-1.7262524e-07
1.9446244e-07
-1.7179728e-07
1.9149076e-07
-1.7092078e-07
1.8853422e-07
-1.6999698e-07
1.8559468e-07
-1.6902716e-07
1.8267397e-07
-1.6801264e-07
1.7977384e-07
-1.6695476e-07
1.7689604e-07
-1.6585489e-07
1.7404226e-07
-1.647144e-07
1.7121416e-07
-1.6353471e-07
1.6841334e-07
-1.6231721e-07
1.6564137e-07
-1.6106335e-07
1.6289978e-07
-1.5977454e-07
1.6019005e-07
-1.5845224e-07
1.575136e-07
-1.5709786e-07
1.5487182e-07
-1.5571285e-07
1.5226604e-07
-1.5429865e-07
1.4969754e-07
-1.5285668e-07
1.4716755e-07
-1.5138838e-07
1.4467723e-07
-1.4989517e-07
1.4222772e-07
-1.4837846e-07
1.3982009e-07
-1.4683968e-07
1.3745539e-07
-1.4528024e-07
1.3513465e-07
-1.4370154e-07
1.3285893e-07
-1.4210498e-07
1.3062934e-07
-1.4049194e-07
1.2844706e-07
-1.3886375e-07
1.263134e-07
-1.3722172e-07
1.2422975e-07
-1.3556709e-07
1.2219716e-07
-1.3390105e-07
1.2021487e-07
-1.3222471e-07
1.1827771e-07
-1.305392e-07
-1.2884596e-07
2.2643277e-07
-1.7258472e-07
2.2346338e-07
-1.7236291e-07
2.2049102e-07
-1.7208393e-07
2.175139e-07
-1.7174862e-07
2.1453236e-07
-1.7135779e-07
2.115481e-07
-1.7091227e-07
2.0856313e-07
-1.7041293e-07
2.0557952e-07
-1.6986068e-07
2.0259933e-07
-1.6925649e-07
1.996246e-07
-1.6860134e-07
1.9665734e-07
-1.6789629e-07
1.9369953e-07
-1.6714241e-07
1.907531e-07
-1.6634081e-07
1.8781994e-07
-1.6549267e-07
1.8490191e-07
-1.6459917e-07
1.8200084e-07
-1.6366153e-07
1.7911849e-07
-1.62681e-07
1.7625662e-07
-1.6165886e-07
1.7341692e-07
-1.6059641e-07
1.7060105e-07
-1.5949496e-07
1.6781064e-07
-1.5835586e-07
1.6504727e-07
-1.5718044e-07
1.6231248e-07
-1.5597005e-07
1.5960776e-07
-1.5472607e-07
1.5693457e-07
-1.5344984e-07
1.5429431e-07
-1.5214275e-07
1.5168833e-07
-1.5080615e-07
1.4911792e-07
-1.4944141e-07
1.4658434e-07
-1.4804988e-07
1.4408876e-07
-1.4663293e-07
1.4163232e-07
-1.451919e-07
1.3921609e-07
-1.4372814e-07
1.3684111e-07
-1.4224301e-07
1.3450839e-07
-1.4073782e-07
1.3221892e-07
-1.3921393e-07
1.2997376e-07
-1.3767264e-07
1.2777404e-07
-1.3611527e-07
1.2562098e-07
-1.3454311e-07
1.2351598e-07
-1.329574e-07
1.2146049e-07
-1.3135936e-07
1.1945565e-07
-1.2975016e-07
1.1750074e-07
-1.2813092e-07
1.1559011e-07
-1.2650276e-07
-1.2486685e-07
2.2310653e-07
-1.6711726e-07
2.201581e-07
-1.6689653e-07
2.1720701e-07
-1.6662097e-07
2.1425147e-07
-1.6629141e-07
2.1129187e-07
-1.6590863e-07
2.0832989e-07
-1.6547345e-07
2.0536756e-07
-1.6498671e-07
2.0240691e-07
-1.644493e-07
1.9944997e-07
-1.6386214e-07
1.9649876e-07
-1.6322618e-07
1.9355525e-07
-1.6254241e-07
1.9062139e-07
-1.6181187e-07
1.8769907e-07
-1.6103561e-07
1.8479016e-07
-1.6021475e-07
1.8189647e-07
-1.5935042e-07
1.7901979e-07
-1.5844378e-07
1.7616186e-07
-1.5749602e-07
1.7332441e-07
-1.5650836e-07
1.7050909e-07
-1.5548203e-07
1.6771755e-07
-1.5441828e-07
1.6495138e-07
-1.5331839e-07
1.6221213e-07
-1.5218363e-07
1.5950133e-07
-1.5101528e-07
1.5682044e-07
-1.4981464e-07
1.5417089e-07
-1.4858301e-07
1.5155405e-07
-1.4732167e-07
1.4897126e-07
-1.4603194e-07
1.4642378e-07
-1.4471509e-07
1.4391283e-07
-1.4337243e-07
1.4143955e-07
-1.4200524e-07
1.3900506e-07
-1.4061479e-07
1.3661037e-07
-1.3920237e-07
1.342565e-07
-1.3776926e-07
1.3194441e-07
-1.363167e-07
1.2967508e-07
-1.3484598e-07
1.2744954e-07
-1.3335834e-07
1.2526892e-07
-1.3185502e-07
1.2313447e-07
-1.3033725e-07
1.210476e-07
-1.2880622e-07
1.1900982e-07
-1.272631e-07
1.1702231e-07
-1.2570904e-07
1.1508434e-07
-1.2414512e-07
1.131902e-07
-1.2257244e-07
-1.2099212e-07
2.2043238e-07
-1.6180719e-07
2.1749299e-07
-1.6158716e-07
2.1455131e-07
-1.6131459e-07
2.1160552e-07
-1.6099026e-07
2.0865605e-07
-1.6061497e-07
2.0570463e-07
-1.6018951e-07
2.0275324e-07
-1.5971469e-07
1.9980392e-07
-1.5919136e-07
1.968587e-07
-1.5862041e-07
1.9391954e-07
-1.5800275e-07
1.909884e-07
-1.5733933e-07
1.8806718e-07
-1.5663112e-07
1.8515776e-07
-1.5587915e-07
1.8226195e-07
-1.5508447e-07
1.7938154e-07
-1.5424815e-07
1.7651829e-07
-1.533713e-07
1.7367391e-07
-1.5245505e-07
1.7085009e-07
-1.5150057e-07
1.6804847e-07
-1.5050903e-07
1.6527067e-07
-1.4948161e-07
1.6251824e-07
-1.4841951e-07
1.5979273e-07
-1.4732396e-07
1.5709563e-07
-1.4619618e-07
1.5442839e-07
-1.4503738e-07
1.5179241e-07
-1.438488e-07
1.4918904e-07
-1.4263168e-07
1.466196e-07
-1.4138723e-07
1.4408532e-07
-1.4011669e-07
1.4158741e-07
-1.3882129e-07
1.3912697e-07
-1.3750223e-07
1.3670509e-07
-1.3616073e-07
1.3432277e-07
-1.3479801e-07
1.3198098e-07
-1.3341526e-07
1.2968066e-07
-1.320137e-07
1.2742275e-07
-1.305945e-07
1.2520828e-07
-1.2915886e-07
1.2303835e-07
-1.2770795e-07
1.2091421e-07
-1.2624293e-07
1.188373e-07
-1.2476496e-07
1.1680914e-07
-1.2327514e-07
1.1483091e-07
-1.2177458e-07
1.1290195e-07
-1.2026434e-07
1.1101646e-07
-1.1874547e-07
-1.1721905e-07
2.1825386e-07
-1.5665049e-07
2.1531455e-07
-1.5643095e-07
2.1237334e-07
-1.5616101e-07
2.0942838e-07
-1.5584146e-07
2.0648018e-07
-1.5547313e-07
2.0353047e-07
-1.5505679e-07
2.0058125e-07
-1.5459322e-07
1.9763455e-07
-1.5408326e-07
1.9469237e-07
-1.5352773e-07
1.9175665e-07
-1.5292751e-07
1.8882933e-07
-1.5228351e-07
1.8591227e-07
-1.5159667e-07
1.830073e-07
-1.5086795e-07
1.8011622e-07
-1.5009835e-07
1.7724079e-07
-1.4928889e-07
1.7438273e-07
-1.4844065e-07
1.7154373e-07
-1.4755469e-07
1.6872544e-07
-1.4663211e-07
1.6592949e-07
-1.4567402e-07
1.6315745e-07
-1.4468156e-07
1.6041088e-07
-1.4365587e-07
1.5769129e-07
-1.425981e-07
1.5500014e-07
-1.4150941e-07
1.5233888e-07
-1.4039097e-07
1.4970888e-07
-1.3924393e-07
1.4711148e-07
-1.3806947e-07
1.4454796e-07
-1.3686875e-07
1.4201956e-07
-1.3564293e-07
1.3952743e-07
-1.3439317e-07
1.3707269e-07
-1.3312063e-07
1.3465638e-07
-1.3182646e-07
1.3227948e-07
-1.305118e-07
1.2994293e-07
-1.2917779e-07
1.2764765e-07
-1.2782556e-07
1.2539457e-07
-1.2645624e-07
1.2318467e-07
-1.2507096e-07
1.2101905e-07
-1.2367083e-07
1.1889896e-07
-1.2225695e-07
1.1682581e-07
-1.2083041e-07
1.1480112e-07
-1.1939228e-07
1.1282611e-07
-1.1794361e-07
1.1090012e-07
-1.1648543e-07
1.0901739e-07
-1.1501875e-07
-1.135446e-07
2.1643802e-07
-1.5164207e-07
2.1349244e-07
-1.5142312e-07
2.1054533e-07
-1.5115568e-07
2.0759482e-07
-1.508405e-07
2.0464152e-07
-1.5047865e-07
2.0168719e-07
-1.5007088e-07
1.9873385e-07
-1.4961797e-07
1.957835e-07
-1.4912068e-07
1.9283813e-07
-1.4857984e-07
1.8989968e-07
-1.4799627e-07
1.8697003e-07
-1.4737083e-07
1.8405103e-07
-1.4670442e-07
1.8114447e-07
-1.4599796e-07
1.7825212e-07
-1.4525241e-07
1.7537569e-07
-1.4446874e-07
1.725169e-07
-1.4364795e-07
1.6967739e-07
-1.4279108e-07
1.668588e-07
-1.4189916e-07
1.6406271e-07
-1.4097326e-07
1.6129071e-07
-1.4001445e-07
1.585443e-07
-1.390238e-07
1.5582499e-07
-1.3800243e-07
1.5313422e-07
-1.3695141e-07
1.504734e-07
-1.3587186e-07
1.4784391e-07
-1.3476488e-07
1.4524704e-07
-1.3363157e-07
1.4268409e-07
-1.3247304e-07
1.4015624e-07
-1.3129039e-07
1.3766466e-07
-1.3008472e-07
1.3521042e-07
-1.2885712e-07
1.3279456e-07
-1.2760867e-07
1.3041803e-07
-1.2634046e-07
1.2808175e-07
-1.2505356e-07
1.2578663e-07
-1.2374905e-07
1.2353356e-07
-1.22428e-07
1.2132352e-07
-1.2109146e-07
1.1915757e-07
-1.1974048e-07
1.1703694e-07
-1.1837612e-07
1.1496303e-07
-1.1699941e-07
1.1293736e-07
-1.1561137e-07
1.1096113e-07
-1.14213e-07
1.0903374e-07
-1.1280529e-07
1.0714948e-07
-1.113892e-07
-1.0996572e-07
2.148726e-07
-1.4677586e-07
2.1191748e-07
-1.4655879e-07
2.0896053e-07
-1.4629377e-07
2.0600024e-07
-1.4598251e-07
2.0303758e-07
-1.4562669e-07
2.0007439e-07
-1.45227e-07
1.971127e-07
-1.4478418e-07
1.9415452e-07
-1.4429897e-07
1.9120182e-07
-1.4377215e-07
1.8825649e-07
-1.4320448e-07
1.8532041e-07
-1.4259681e-07
1.8239538e-07
-1.4194998e-07
1.7948317e-07
-1.4126487e-07
1.765855e-07
-1.4054239e-07
1.7370407e-07
-1.3978347e-07
1.7084056e-07
-1.3898908e-07
1.6799659e-07
-1.3816017e-07
1.6517376e-07
-1.3729774e-07
1.6237366e-07
-1.3640281e-07
1.5959781e-07
-1.3547638e-07
1.5684773e-07
-1.3451949e-07
1.5412489e-07
-1.3353317e-07
1.5143071e-07
-1.3251845e-07
1.4876659e-07
-1.314764e-07
1.4613388e-07
-1.3040804e-07
1.4353388e-07
-1.2931444e-07
1.4096783e-07
-1.2819662e-07
1.3843693e-07
-1.2705564e-07
1.3594231e-07
-1.2589252e-07
1.3348504e-07
-1.2470831e-07
1.3106613e-07
-1.2350403e-07
1.2868652e-07
-1.2228071e-07
1.2634712e-07
-1.2103935e-07
1.240488e-07
-1.1978098e-07
1.2179245e-07
-1.1850659e-07
1.1957902e-07
-1.172172e-07
1.1740954e-07
-1.159138e-07
1.1528523e-07
-1.1459737e-07
1.1320746e-07
-1.132689e-07
1.1117772e-07
-1.1192936e-07
1.0919724e-07
-1.1057971e-07
1.0726544e-07
-1.0922089e-07
1.0537669e-07
-1.0785383e-07
-1.0647944e-07
2.1346332e-07
-1.4205598e-07
2.1049928e-07
-1.4183527e-07
2.0753075e-07
-1.415702e-07
2.0455831e-07
-1.4126236e-07
2.0158374e-07
-1.4091212e-07
1.9860915e-07
-1.4052009e-07
1.9563662e-07
-1.4008691e-07
1.9266813e-07
-1.3961326e-07
1.8970565e-07
-1.3909986e-07
1.8675102e-07
-1.3854745e-07
1.8380609e-07
-1.3795683e-07
1.8087263e-07
-1.3732879e-07
1.7795236e-07
-1.3666419e-07
1.7504699e-07
-1.3596389e-07
1.7215818e-07
-1.3522878e-07
1.6928758e-07
-1.3445976e-07
1.6643679e-07
-1.3365777e-07
1.6360739e-07
-1.3282373e-07
1.6080093e-07
-1.3195862e-07
1.5801893e-07
-1.3106339e-07
1.5526287e-07
-1.3013901e-07
1.525342e-07
-1.2918648e-07
1.4983434e-07
-1.2820677e-07
1.4716466e-07
-1.2720087e-07
1.4452649e-07
-1.2616977e-07
1.419211e-07
-1.2511447e-07
1.3934975e-07
-1.2403594e-07
1.3681359e-07
-1.2293517e-07
1.3431375e-07
-1.2181315e-07
1.3185128e-07
-1.2067085e-07
1.2942718e-07
-1.1950923e-07
1.2704238e-07
-1.1832927e-07
1.2469775e-07
-1.1713193e-07
1.2239417e-07
-1.1591815e-07
1.2013249e-07
-1.1468889e-07
1.1791365e-07
-1.134451e-07
1.1573867e-07
-1.1218771e-07
1.1360872e-07
-1.1091767e-07
1.1152516e-07
-1.0963589e-07
1.0948945e-07
-1.0834331e-07
1.0750281e-07
-1.0704083e-07
1.0556472e-07
-1.0572936e-07
1.0366965e-07
-1.0440977e-07
-1.0308295e-07
2.1809563e-07
-1.3777611e-07
2.1512194e-07
-1.376424e-07
2.1214672e-07
-1.3746373e-07
2.0916814e-07
-1.3724207e-07
2.0618506e-07
-1.369787e-07
2.0319864e-07
-1.3667441e-07
2.0021086e-07
-1.3632968e-07
1.9722375e-07
-1.3594505e-07
1.9423931e-07
-1.3552115e-07
1.912595e-07
-1.3505861e-07
1.882862e-07
-1.3455812e-07
1.8532125e-07
-1.3402039e-07
1.8236644e-07
-1.3344617e-07
1.7942351e-07
-1.3283623e-07
1.7649415e-07
-1.3219138e-07
1.7358004e-07
-1.3151244e-07
1.7068282e-07
-1.3080026e-07
1.6780409e-07
-1.3005569e-07
1.6494545e-07
-1.2927963e-07
1.6210843e-07
-1.2847296e-07
1.5929458e-07
-1.276366e-07
1.5650538e-07
-1.2677145e-07
1.537423e-07
-1.2587843e-07
1.5100677e-07
-1.2495849e-07
1.4830019e-07
-1.2401254e-07
1.456239e-07
-1.2304153e-07
1.4297922e-07
-1.2204639e-07
1.4036742e-07
-1.2102805e-07
1.3778971e-07
-1.1998745e-07
1.3524725e-07
-1.1892552e-07
1.3274115e-07
-1.1784318e-07
1.3027245e-07
-1.1674135e-07
1.2784212e-07
-1.1562096e-07
1.2545109e-07
-1.144829e-07
1.2310023e-07
-1.1332809e-07
1.2079037e-07
-1.1215742e-07
1.1852237e-07
-1.1097179e-07
1.1629713e-07
-1.097721e-07
1.1411566e-07
-1.0855922e-07
1.1197911e-07
-1.0733404e-07
1.098888e-07
-1.0609745e-07
1.0784617e-07
-1.0485032e-07
1.0585241e-07
-1.0359351e-07
1.0390707e-07
-1.0232788e-07
1.0200475e-07
-1.0105427e-07
-9.9773505e-08
2.1683073e-07
-1.3331856e-07
2.1384456e-07
-1.3317865e-07
2.1085555e-07
-1.3299759e-07
2.0786195e-07
-1.3277581e-07
2.0486426e-07
-1.3251428e-07
2.0186403e-07
-1.3221358e-07
1.9886319e-07
-1.3187423e-07
1.958637e-07
-1.314968e-07
1.928675e-07
-1.3108188e-07
1.8987648e-07
-1.3063008e-07
1.868925e-07
-1.3014205e-07
1.8391733e-07
-1.2961849e-07
1.8095274e-07
-1.2906011e-07
1.7800043e-07
-1.2846764e-07
1.7506206e-07
-1.2784186e-07
1.7213928e-07
-1.2718354e-07
1.6923369e-07
-1.2649349e-07
1.6634687e-07
-1.2577253e-07
1.634804e-07
-1.250215e-07
1.6063579e-07
-1.2424125e-07
1.5781455e-07
-1.2343263e-07
1.5501815e-07
-1.2259652e-07
1.5224804e-07
-1.2173378e-07
1.4950562e-07
-1.2084529e-07
1.4679227e-07
-1.1993194e-07
1.4410932e-07
-1.1899462e-07
1.4145808e-07
-1.1803419e-07
1.3883978e-07
-1.1705156e-07
1.3625563e-07
-1.1604759e-07
1.3370678e-07
-1.1502317e-07
1.3119431e-07
-1.1397917e-07
1.2871925e-07
-1.1291646e-07
1.2628257e-07
-1.1183589e-07
1.2388518e-07
-1.1073834e-07
1.2152793e-07
-1.0962464e-07
1.1921164e-07
-1.0849565e-07
1.1693717e-07
-1.0735221e-07
1.1470538e-07
-1.0619516e-07
1.1251727e-07
-1.0502534e-07
1.1037395e-07
-1.0384358e-07
1.0827672e-07
-1.0265071e-07
1.0622698e-07
-1.0144756e-07
1.0422593e-07
-1.0023496e-07
1.0227314e-07
-9.9013714e-08
1.0036338e-07
-9.7784626e-08
-9.6548467e-08
2.1554375e-07
-1.2898058e-07
2.1254381e-07
-1.2883665e-07
2.0954067e-07
-1.2865346e-07
2.0653325e-07
-1.2843168e-07
2.0352229e-07
-1.2817194e-07
2.0050949e-07
-1.2787477e-07
1.9749675e-07
-1.2754071e-07
1.9448599e-07
-1.271703e-07
1.914791e-07
-1.2676411e-07
1.8847793e-07
-1.2632274e-07
1.8548429e-07
-1.2584682e-07
1.8249993e-07
-1.2533701e-07
1.7952656e-07
-1.2479397e-07
1.7656584e-07
-1.2421843e-07
1.7361942e-07
-1.236111e-07
1.706889e-07
-1.2297273e-07
1.6777586e-07
-1.223041e-07
1.6488186e-07
-1.2160597e-07
1.6200844e-07
-1.2087915e-07
1.591571e-07
-1.2012443e-07
1.5632931e-07
-1.1934264e-07
1.5352654e-07
-1.1853458e-07
1.5075019e-07
-1.177011e-07
1.4800167e-07
-1.1684302e-07
1.4528232e-07
-1.1596117e-07
1.4259346e-07
-1.150564e-07
1.3993636e-07
-1.1412952e-07
1.3731227e-07
-1.1318139e-07
1.3472236e-07
-1.1221283e-07
1.3216777e-07
-1.1122467e-07
1.2964957e-07
-1.1021772e-07
1.2716878e-07
-1.0919281e-07
1.2472634e-07
-1.0815076e-07
1.2232316e-07
-1.0709236e-07
1.1996008e-07
-1.0601841e-07
1.1763792e-07
-1.0492973e-07
1.153575e-07
-1.0382709e-07
1.1311968e-07
-1.027113e-07
1.1092542e-07
-1.0158313e-07
1.0877582e-07
-1.0044337e-07
1.0667214e-07
-9.9292815e-08
1.0461574e-07
-9.8132243e-08
1.0260782e-07
-9.6962436e-08
1.00648e-07
-9.5784169e-08
9.8731208e-08
-9.4598197e-08
-9.3405243e-08
2.1419364e-07
-1.2475874e-07
2.1118087e-07
-1.2461116e-07
2.0816536e-07
-1.244262e-07
2.0514604e-07
-1.2420448e-07
2.0212379e-07
-1.2394656e-07
1.9910034e-07
-1.2365292e-07
1.9607757e-07
-1.2332409e-07
1.9305737e-07
-1.2296059e-07
1.900416e-07
-1.2256297e-07
1.8703206e-07
-1.2213181e-07
1.8403052e-07
-1.216677e-07
1.8103869e-07
-1.2117127e-07
1.7805823e-07
-1.2064316e-07
1.7509079e-07
-1.2008406e-07
1.7213796e-07
-1.1949465e-07
1.6920133e-07
-1.1887565e-07
1.6628245e-07
-1.1822777e-07
1.6338285e-07
-1.1755177e-07
1.6050403e-07
-1.1684839e-07
1.5764748e-07
-1.161184e-07
1.5481465e-07
-1.1536257e-07
1.5200697e-07
-1.1458168e-07
1.4922584e-07
-1.137765e-07
1.4647262e-07
-1.1294784e-07
1.4374866e-07
-1.1209646e-07
1.4105525e-07
-1.1122317e-07
1.3839364e-07
-1.1032875e-07
1.3576506e-07
-1.0941398e-07
1.3317067e-07
-1.0847966e-07
1.3061159e-07
-1.0752656e-07
1.2808888e-07
-1.0655545e-07
1.2560354e-07
-1.055671e-07
1.2315652e-07
-1.0456229e-07
1.2074869e-07
-1.0354176e-07
1.183809e-07
-1.0250628e-07
1.1605395e-07
-1.0145659e-07
1.1376865e-07
-1.0039343e-07
1.1152583e-07
-9.9317549e-08
1.0932645e-07
-9.8229689e-08
1.0717156e-07
-9.713059e-08
1.050624e-07
-9.6020991e-08
1.030003e-07
-9.4901637e-08
1.0098642e-07
-9.3773268e-08
9.9020454e-08
-9.2636619e-08
9.709751e-08
-9.1492405e-08
-9.0341305e-08
2.1275065e-07
-1.2064774e-07
2.0972749e-07
-1.2049698e-07
2.0670201e-07
-1.2031057e-07
2.0367326e-07
-1.2008911e-07
2.006422e-07
-1.1983313e-07
1.9761055e-07
-1.1954311e-07
1.9458018e-07
-1.1921953e-07
1.9155294e-07
-1.188629e-07
1.8853065e-07
-1.1847375e-07
1.8551507e-07
-1.1805262e-07
1.8250793e-07
-1.1760009e-07
1.7951089e-07
-1.1711675e-07
1.7652559e-07
-1.1660322e-07
1.7355363e-07
-1.1606015e-07
1.7059658e-07
-1.1548818e-07
1.6765599e-07
-1.1488801e-07
1.6473338e-07
-1.1426031e-07
1.6183026e-07
-1.1360579e-07
1.5894811e-07
-1.1292516e-07
1.5608838e-07
-1.1221915e-07
1.532525e-07
-1.1148849e-07
1.5044188e-07
-1.1073392e-07
1.476579e-07
-1.0995617e-07
1.449019e-07
-1.0915599e-07
1.421752e-07
-1.0833412e-07
1.3947907e-07
-1.0749131e-07
1.3681475e-07
-1.066283e-07
1.3418345e-07
-1.0574583e-07
1.3158632e-07
-1.0484464e-07
1.2902445e-07
-1.0392547e-07
1.264989e-07
-1.0298904e-07
1.2401065e-07
-1.0203608e-07
1.2156065e-07
-1.010673e-07
1.1914975e-07
-1.0008343e-07
1.1677879e-07
-9.9085161e-08
1.1444856e-07
-9.8073203e-08
1.1215985e-07
-9.7048256e-08
1.099135e-07
-9.6011015e-08
1.0771041e-07
-9.4962177e-08
1.0555162e-07
-9.390244e-08
1.0343834e-07
-9.2832501e-08
1.0137186e-07
-9.1753062e-08
9.9353328e-08
-9.0664826e-08
9.7382481e-08
-8.956849e-08
9.5454626e-08
-8.8464731e-08
-8.7354184e-08
2.111938e-07
-1.1664242e-07
2.0816316e-07
-1.1648908e-07
2.0513062e-07
-1.1630163e-07
2.0209536e-07
-1.1608072e-07
1.9905838e-07
-1.158269e-07
1.9602141e-07
-1.1554063e-07
1.9298628e-07
-1.1522238e-07
1.899548e-07
-1.1487264e-07
1.8692875e-07
-1.1449191e-07
1.8390987e-07
-1.1408071e-07
1.8089982e-07
-1.1363958e-07
1.7790024e-07
-1.131691e-07
1.7491273e-07
-1.1266985e-07
1.7193885e-07
-1.1214245e-07
1.6898015e-07
-1.1158751e-07
1.6603814e-07
-1.1100569e-07
1.6311431e-07
-1.1039763e-07
1.6021014e-07
-1.0976401e-07
1.5732708e-07
-1.091055e-07
1.5446657e-07
-1.0842279e-07
1.5163002e-07
-1.0771657e-07
1.4881879e-07
-1.0698753e-07
1.4603426e-07
-1.0623638e-07
1.4327773e-07
-1.0546382e-07
1.4055051e-07
-1.0467055e-07
1.3785386e-07
-1.0385727e-07
1.3518898e-07
-1.030247e-07
1.3255708e-07
-1.0217351e-07
1.2995928e-07
-1.0130442e-07
1.2739667e-07
-1.004181e-07
1.2487028e-07
-9.9515253e-08
1.223811e-07
-9.8596552e-08
1.1993004e-07
-9.7662672e-08
1.1751797e-07
-9.6714284e-08
1.1514569e-07
-9.5752051e-08
1.12814e-07
-9.4776633e-08
1.1052368e-07
-9.3788684e-08
1.0827554e-07
-9.278886e-08
1.0607046e-07
-9.1777813e-08
1.0390946e-07
-9.0756199e-08
1.0179371e-07
-8.9724675e-08
9.9724467e-08
-8.8683903e-08
9.7702863e-08
-8.7634549e-08
9.5728682e-08
-8.6577274e-08
9.3797432e-08
-8.551272e-08
-8.4441476e-08
2.0950867e-07
-1.1273788e-07
2.0647394e-07
-1.1258283e-07
2.0343764e-07
-1.1239484e-07
2.0039909e-07
-1.1217478e-07
1.973594e-07
-1.1192337e-07
1.9432027e-07
-1.1164105e-07
1.9128349e-07
-1.1132826e-07
1.8825087e-07
-1.1098547e-07
1.8522412e-07
-1.1061316e-07
1.8220495e-07
-1.1021182e-07
1.7919498e-07
-1.0978197e-07
1.7619581e-07
-1.0932416e-07
1.73209e-07
-1.0883894e-07
1.7023609e-07
-1.0832689e-07
1.6727857e-07
-1.0778862e-07
1.6433794e-07
-1.0722472e-07
1.6141566e-07
-1.0663583e-07
1.5851318e-07
-1.0602258e-07
1.5563192e-07
-1.053856e-07
1.5277329e-07
-1.0472556e-07
1.4993868e-07
-1.0404309e-07
1.4712944e-07
-1.0333887e-07
1.443469e-07
-1.0261355e-07
1.4159236e-07
-1.0186779e-07
1.388671e-07
-1.0110227e-07
1.3617235e-07
-1.0031764e-07
1.3350932e-07
-9.9514573e-08
1.3087917e-07
-9.8693714e-08
1.2828301e-07
-9.7855724e-08
1.2572194e-07
-9.7001252e-08
1.2319696e-07
-9.6130943e-08
1.2070903e-07
-9.5245436e-08
1.1825908e-07
-9.4345364e-08
1.1584796e-07
-9.3431354e-08
1.1347645e-07
-9.250403e-08
1.1114536e-07
-9.1564008e-08
1.0885542e-07
-9.0611904e-08
1.0660746e-07
-8.9648329e-08
1.0440233e-07
-8.8673896e-08
1.0224102e-07
-8.768922e-08
1.0012466e-07
-8.669492e-08
9.8054483e-08
-8.5691621e-08
9.6031592e-08
-8.4679951e-08
9.4055826e-08
-8.3660539e-08
9.2122897e-08
-8.263399e-08
-8.1600853e-08
2.0768603e-07
-1.0893e-07
2.0465132e-07
-1.0877419e-07
2.0161488e-07
-1.0858604e-07
1.9857651e-07
-1.0836713e-07
1.9553749e-07
-1.0811838e-07
1.9249953e-07
-1.0784021e-07
1.8946443e-07
-1.0753304e-07
1.8643393e-07
-1.071973e-07
1.8340973e-07
-1.0683344e-07
1.8039347e-07
-1.0644194e-07
1.7738675e-07
-1.0602328e-07
1.7439112e-07
-1.0557798e-07
1.714081e-07
-1.0510658e-07
1.684392e-07
-1.0460963e-07
1.6548589e-07
-1.0408769e-07
1.6254962e-07
-1.0354134e-07
1.5963183e-07
-1.0297118e-07
1.5673394e-07
-1.0237781e-07
1.5385734e-07
-1.0176183e-07
1.5100343e-07
-1.0112386e-07
1.4817355e-07
-1.0046451e-07
1.4536904e-07
-9.9784424e-08
1.4259121e-07
-9.9084213e-08
1.3984133e-07
-9.8364508e-08
1.3712066e-07
-9.7625934e-08
1.3443041e-07
-9.6869118e-08
1.3177178e-07
-9.6094681e-08
1.2914589e-07
-9.5303246e-08
1.2655387e-07
-9.4495426e-08
1.2399676e-07
-9.3671833e-08
1.2147558e-07
-9.2833073e-08
1.1899127e-07
-9.1979745e-08
1.1654474e-07
-9.1112445e-08
1.1413683e-07
-9.0231758e-08
1.1176833e-07
-8.933827e-08
1.0944002e-07
-8.8432556e-08
1.0715263e-07
-8.7515194e-08
1.0490697e-07
-8.6586754e-08
1.0270386e-07
-8.5647811e-08
1.0054429e-07
-8.4698941e-08
9.8429319e-08
-8.3740727e-08
9.6360167e-08
-8.2773758e-08
9.4337916e-08
-8.1798626e-08
9.2362449e-08
-8.081593e-08
9.0429693e-08
-7.9826239e-08
-7.8830064e-08
2.0572149e-07
-1.0522052e-07
2.0269145e-07
-1.0506041e-07
1.9965865e-07
-1.048714e-07
1.9662399e-07
-1.0465385e-07
1.935891e-07
-1.0440801e-07
1.9055577e-07
-1.0413424e-07
1.8752575e-07
-1.0383287e-07
1.8450075e-07
-1.035043e-07
1.8148243e-07
-1.0314896e-07
1.7847239e-07
-1.0276729e-07
1.7547217e-07
-1.0235976e-07
1.724833e-07
-1.0192686e-07
1.6950726e-07
-1.014691e-07
1.6654552e-07
-1.00987e-07
1.6359952e-07
-1.004811e-07
1.6067068e-07
-9.9951956e-08
1.5776042e-07
-9.9400128e-08
1.5487011e-07
-9.8826184e-08
1.5200114e-07
-9.8230701e-08
1.4915486e-07
-9.7614262e-08
1.4633259e-07
-9.6977453e-08
1.4353565e-07
-9.6320864e-08
1.4076533e-07
-9.5645086e-08
1.3802288e-07
-9.4950711e-08
1.3530952e-07
-9.423833e-08
1.3262646e-07
-9.3508534e-08
1.2997486e-07
-9.2761909e-08
1.2735585e-07
-9.1999038e-08
1.2477051e-07
-9.1220502e-08
1.2221989e-07
-9.0426873e-08
1.1970498e-07
-8.9618722e-08
1.1722673e-07
-8.8796611e-08
1.1478602e-07
-8.7961095e-08
1.1238369e-07
-8.7112727e-08
1.1002052e-07
-8.6252051e-08
1.0769727e-07
-8.5379607e-08
1.0541467e-07
-8.4495933e-08
1.031735e-07
-8.3601565e-08
1.0097459e-07
-8.2697038e-08
9.881886e-08
-8.1782893e-08
9.6707375e-08
-8.0859677e-08
9.46413e-08
-7.9927945e-08
9.2621698e-08
-7.8988258e-08
9.0648502e-08
-7.804118e-08
8.8717852e-08
-7.7087252e-08
-7.6126941e-08
2.0664258e-07
-1.0172945e-07
2.0361962e-07
-1.0159647e-07
2.0059549e-07
-1.0143534e-07
1.975691e-07
-1.0124679e-07
1.9454144e-07
-1.0103115e-07
1.9151412e-07
-1.0078863e-07
1.8848886e-07
-1.0051953e-07
1.8546737e-07
-1.0022417e-07
1.8245128e-07
-9.9902915e-08
1.7944221e-07
-9.9556165e-08
1.7644171e-07
-9.9184343e-08
1.7345129e-07
-9.8787896e-08
1.7047243e-07
-9.8367289e-08
1.6750659e-07
-9.7923009e-08
1.6455518e-07
-9.7455554e-08
1.6161963e-07
-9.6965437e-08
1.5870132e-07
-9.645318e-08
1.5580163e-07
-9.5919318e-08
1.5292193e-07
-9.5364389e-08
1.5006356e-07
-9.478894e-08
1.4722786e-07
-9.4193523e-08
1.4441611e-07
-9.3578693e-08
1.4162962e-07
-9.2945007e-08
1.3886963e-07
-9.2293025e-08
1.3613739e-07
-9.1623304e-08
1.3343409e-07
-9.0936404e-08
1.3076093e-07
-9.0232879e-08
1.2811904e-07
-8.9513283e-08
1.2550953e-07
-8.8778164e-08
1.2293347e-07
-8.8028069e-08
1.203919e-07
-8.7263535e-08
1.1788578e-07
-8.6485098e-08
1.1541606e-07
-8.5693283e-08
1.1298361e-07
-8.4888614e-08
1.1058924e-07
-8.4071604e-08
1.0823375e-07
-8.3242764e-08
1.0591787e-07
-8.2402598e-08
1.0364234e-07
-8.1551608e-08
1.014079e-07
-8.0690294e-08
9.9215376e-08
-7.9819157e-08
9.7065661e-08
-7.8938703e-08
9.4959781e-08
-7.8049446e-08
9.2898867e-08
-7.7151907e-08
9.0883962e-08
-7.6246619e-08
8.8915047e-08
-7.5334113e-08
8.6988473e-08
-7.4414898e-08
-7.3489406e-08
2.0439334e-07
-9.8190936e-08
2.0137985e-07
-9.8057321e-08
1.9836504e-07
-9.7896339e-08
1.9534853e-07
-9.770898e-08
1.9233138e-07
-9.7495751e-08
1.8931512e-07
-9.7256916e-08
1.8630139e-07
-9.6992766e-08
1.8329183e-07
-9.6703618e-08
1.8028803e-07
-9.6389818e-08
1.7729155e-07
-9.6051743e-08
1.743039e-07
-9.5689797e-08
1.7132654e-07
-9.5304404e-08
1.6836091e-07
-9.4896009e-08
1.6540844e-07
-9.4465073e-08
1.6247051e-07
-9.4012072e-08
1.5954851e-07
-9.3537492e-08
1.566438e-07
-9.304183e-08
1.5375773e-07
-9.2525591e-08
1.5089163e-07
-9.1989288e-08
1.4804683e-07
-9.1433439e-08
1.4522461e-07
-9.0858565e-08
1.4242627e-07
-9.0265191e-08
1.3965306e-07
-8.9653846e-08
1.3690622e-07
-8.9025056e-08
1.3418696e-07
-8.8379349e-08
1.3149646e-07
-8.7717251e-08
1.2883589e-07
-8.7039287e-08
1.2620636e-07
-8.6345976e-08
1.2360897e-07
-8.5637837e-08
1.2104477e-07
-8.491538e-08
1.1851478e-07
-8.4179112e-08
1.1601996e-07
-8.3429534e-08
1.1356122e-07
-8.2667141e-08
1.1113944e-07
-8.189242e-08
1.0875543e-07
-8.1105853e-08
1.0640996e-07
-8.0307916e-08
1.0410377e-07
-7.949908e-08
1.0183756e-07
-7.8679812e-08
9.9612096e-08
-7.785058e-08
9.742815e-08
-7.7011852e-08
9.5286603e-08
-7.61641e-08
9.3188448e-08
-7.5307808e-08
9.1134781e-08
-7.4443467e-08
8.9126622e-08
-7.3571576e-08
8.7164001e-08
-7.2692641e-08
8.524348e-08
-7.1807137e-08
-7.0915462e-08
2.0200627e-07
-9.4735337e-08
1.9900624e-07
-9.4601443e-08
1.9600466e-07
-9.4440924e-08
1.930017e-07
-9.4255117e-08
1.8999857e-07
-9.4044656e-08
1.8699681e-07
-9.3809815e-08
1.83998e-07
-9.3550876e-08
1.8100373e-07
-9.3268139e-08
1.7801552e-07
-9.2961935e-08
1.7503489e-07
-9.2632623e-08
1.7206331e-07
-9.2280583e-08
1.6910219e-07
-9.1906223e-08
1.6615295e-07
-9.1509965e-08
1.6321696e-07
-9.1092249e-08
1.6029558e-07
-9.0653525e-08
1.5739017e-07
-9.0194256e-08
1.5450206e-07
-8.9714914e-08
1.5163256e-07
-8.9215979e-08
1.48783e-07
-8.8697935e-08
1.4595464e-07
-8.8161274e-08
1.4314878e-07
-8.7606489e-08
1.4036666e-07
-8.7034077e-08
1.3760952e-07
-8.6444536e-08
1.3487857e-07
-8.5838365e-08
1.32175e-07
-8.5216061e-08
1.2949997e-07
-8.4578122e-08
1.2685462e-07
-8.3925041e-08
1.2424006e-07
-8.3257307e-08
1.2165735e-07
-8.2575408e-08
1.1910754e-07
-8.1879824e-08
1.1659162e-07
-8.1171031e-08
1.1411054e-07
-8.0449498e-08
1.1166521e-07
-7.9715688e-08
1.0925648e-07
-7.8970057e-08
1.0688516e-07
-7.8213057e-08
1.0455202e-07
-7.744513e-08
1.0225777e-07
-7.6666716e-08
1.0000313e-07
-7.587825e-08
9.7788823e-08
-7.5080169e-08
9.5615614e-08
-7.427291e-08
9.3484359e-08
-7.3456915e-08
9.1396016e-08
-7.2632636e-08
8.9351649e-08
-7.1800536e-08
8.7352259e-08
-7.0961087e-08
8.5397918e-08
-7.0114763e-08
8.3485398e-08
-6.9262013e-08
-6.8403197e-08
1.9948855e-07
-9.1363338e-08
1.9650595e-07
-9.1226829e-08
1.9352119e-07
-9.1066438e-08
1.9053524e-07
-9.0882448e-08
1.8754952e-07
-9.0675065e-08
1.8456558e-07
-9.0444507e-08
1.8158496e-07
-9.0191021e-08
1.786092e-07
-8.9914887e-08
1.7563978e-07
-8.9616416e-08
1.7267816e-07
-8.9295949e-08
1.6972575e-07
-8.895385e-08
1.6678395e-07
-8.8590504e-08
1.6385413e-07
-8.8206314e-08
1.6093762e-07
-8.7801698e-08
1.5803576e-07
-8.7377085e-08
1.5514988e-07
-8.6932914e-08
1.5228126e-07
-8.6469633e-08
1.494312e-07
-8.5987695e-08
1.4660099e-07
-8.5487562e-08
1.4379188e-07
-8.4969697e-08
1.4100513e-07
-8.4434568e-08
1.3824195e-07
-8.3882644e-08
1.3550357e-07
-8.3314397e-08
1.3279116e-07
-8.2730297e-08
1.301059e-07
-8.2130815e-08
1.2744893e-07
-8.1516418e-08
1.2482136e-07
-8.0887572e-08
1.2222427e-07
-8.0244737e-08
1.1965873e-07
-7.9588372e-08
1.1712575e-07
-7.8918928e-08
1.1462631e-07
-7.8236851e-08
1.1216135e-07
-7.7542582e-08
1.0973176e-07
-7.6836553e-08
1.0733839e-07
-7.6119192e-08
1.0498204e-07
-7.5390918e-08
1.0266346e-07
-7.4652145e-08
1.0038336e-07
-7.3903283e-08
9.8142449e-08
-7.3144738e-08
9.5941429e-08
-7.2376916e-08
9.3781054e-08
-7.1600224e-08
9.1662152e-08
-7.0815078e-08
8.9585652e-08
-7.00219e-08
8.7552586e-08
-6.9221125e-08
8.5563931e-08
-6.8413199e-08
8.3619806e-08
-6.7598566e-08
8.171719e-08
-6.6777648e-08
-6.5950772e-08
1.9981305e-07
-8.8179756e-08
1.9685125e-07
-8.8066137e-08
1.9388796e-07
-8.7929358e-08
1.9092289e-07
-8.7770019e-08
1.8795708e-07
-8.7588307e-08
1.8499195e-07
-8.7384365e-08
1.8202899e-07
-8.7158381e-08
1.790697e-07
-8.6910582e-08
1.7611554e-07
-8.6641231e-08
1.7316795e-07
-8.6350622e-08
1.7022834e-07
-8.6039079e-08
1.6729809e-07
-8.5706948e-08
1.6437855e-07
-8.5354597e-08
1.6147105e-07
-8.4982409e-08
1.585769e-07
-8.4590779e-08
1.5569739e-07
-8.4180117e-08
1.5283383e-07
-8.3750837e-08
1.4998747e-07
-8.3303366e-08
1.4715959e-07
-8.2838133e-08
1.4435144e-07
-8.2355574e-08
1.4156424e-07
-8.1856129e-08
1.3879923e-07
-8.1340239e-08