/*--------------------------------*- C++ -*----------------------------------*\
| =========                 |                                                 |
| \\      /  F ield         | OpenFOAM: The Open Source CFD Toolbox           |
|  \\    /   O peration     | Version:  2312                                  |
|   \\  /    A nd           | Website:  www.openfoam.com                      |
|    \\/     M anipulation  |                                                 |
\*---------------------------------------------------------------------------*/
FoamFile
{
    version     2.0;
    format      ascii;
    arch        "LSB;label=32;scalar=64";
    class       volScalarField;
    location    "0.08";
    object      T;
}
// * * * * * * * * * * * * * * * * * * * * * * * * * * * * * * * * * * * * * //

dimensions      [0 0 0 1 0 0 0];

internalField   nonuniform List<scalar> 
3250
(
406.04112
405.14837
404.22835
403.28168
402.30932
401.31232
400.29172
399.24861
398.1841
397.09932
395.99542
394.87355
393.7349
392.58063
391.41195
390.23004
389.03611
387.83134
386.61693
385.39406
384.16391
382.92764
381.6864
380.44133
379.19355
377.94415
376.69421
375.4448
374.19692
372.95161
371.70983
370.47253
369.24065
368.01507
366.79667
365.58627
364.3847
363.19272
362.01109
360.84052
359.68172
358.53535
357.40206
356.28255
406.38528
405.48564
404.55869
403.60509
402.62581
401.6219
400.59442
399.54446
398.47313
397.38158
396.27094
395.14239
393.99709
392.83625
391.66104
390.47268
389.27235
388.06127
386.84062
385.61158
384.37535
383.13309
381.88595
380.63506
379.38156
378.12655
376.8711
375.61627
374.36309
373.11258
371.86571
370.62344
369.38669
368.15636
366.93331
365.71839
364.5124
363.31613
362.1303
360.95566
359.79287
358.64259
357.50545
356.38221
407.02611
406.11362
405.17385
404.20744
403.21539
402.19876
401.1586
400.09602
399.01213
397.90809
396.78503
395.64415
394.48661
393.31362
392.12638
390.92609
389.71396
388.49119
387.25899
386.01856
384.77107
383.51771
382.25962
380.99797
379.73387
378.46843
377.20274
375.93786
374.67483
373.41465
372.15831
370.90678
369.66096
368.42178
367.19008
365.96672
364.7525
363.54819
362.35455
361.17229
360.00209
358.84461
357.70046
356.57042
407.92088
406.9906
406.03307
405.04895
404.03925
403.00501
401.94732
400.86729
399.76603
398.6447
397.50447
396.34651
395.17203
393.98222
392.7783
391.56148
390.33299
389.09402
387.84581
386.58954
385.32643
384.05764
382.78435
381.50772
380.22888
378.94894
377.66899
376.39011
375.11333
373.83968
372.57013
371.30567
370.0472
368.79565
367.55187
366.3167
365.09096
363.87543
362.67085
361.47793
360.29736
359.12978
357.97584
356.83628
409.03073
408.07855
407.09918
406.09327
405.06185
404.00598
402.92673
401.82522
400.7026
399.56001
398.39864
397.21968
396.02433
394.81382
393.58936
392.35218
391.1035
389.84457
388.5766
387.30081
386.0184
384.73057
383.43851
382.14337
380.84629
379.54841
378.25083
376.95462
375.66082
374.37048
373.08457
371.80407
370.52992
369.26301
368.00423
366.75441
365.51437
364.28488
363.0667
361.86053
360.66707
359.48694
358.3208
357.16939
410.32046
409.34302
408.33845
407.30742
406.25096
405.17012
404.06601
402.93974
401.79247
400.62536
399.43961
398.23641
397.01699
395.78257
394.53438
393.27368
392.00171
390.71969
389.42888
388.13051
386.82578
385.51592
384.20211
382.88553
381.56734
380.24867
378.93063
377.61432
376.30078
374.99106
373.68615
372.38704
371.09465
369.8099
368.53367
367.26681
366.01013
364.7644
363.53038
362.30879
361.1003
359.90555
358.72519
357.55996
411.75829
410.75287
409.7204
408.66156
407.57736
406.46889
405.33725
404.18357
403.00901
401.81475
400.60198
399.37193
398.12583
396.86492
395.59044
394.30367
393.00584
391.69822
390.38207
389.05862
387.72911
386.39477
385.0568
383.7164
382.37472
381.03293
379.69214
378.35346
377.01794
375.68664
374.36057
373.0407
371.72799
370.42335
369.12766
367.84178
366.56652
365.30266
364.05097
362.81214
361.58686
360.37578
359.17952
357.99884
413.31557
412.28009
411.21759
410.12879
409.01474
407.87652
406.71525
405.53206
404.32812
403.10462
401.86277
400.60381
399.32897
398.03952
396.73672
395.42183
394.09614
392.76091
391.41742
390.06692
388.71067
387.3499
385.98585
384.61971
383.25266
381.88588
380.52049
379.15761
377.79831
376.44366
375.09467
373.75234
372.41761
371.09142
369.77464
368.46815
367.17275
365.88923
364.61835
363.36082
362.11732
360.8885
359.67499
358.47753
414.96649
413.89958
412.80538
411.68498
410.53944
409.36985
408.17733
406.96303
405.72811
404.47379
403.20127
401.91181
400.60666
399.2871
397.9544
396.60984
395.25473
393.89035
392.51798
391.1389
389.75438
388.36568
386.97404
385.58068
384.18679
382.79355
381.40212
380.01362
378.62914
377.24975
375.87648
374.51033
373.15226
371.80321
370.46406
369.13569
367.81892
366.51453
365.22328
363.94589
362.68304
361.43537
360.20352
358.98822
418.80467
417.76091
416.68892
415.58886
414.46172
413.30851
412.13029
410.92815
409.70321
408.45662
407.18956
405.90324
404.5989
403.27779
401.94117
400.59034
399.22659
397.85122
396.46554
395.07086
393.66847
392.25968
390.84577
389.42801
388.00766
386.58597
385.16413
383.74336
382.3248
380.90961
379.49889
378.09371
376.69512
375.30413
373.92172
372.54881
371.18633
369.83512
368.49603
367.16985
365.85733
364.55919
363.27612
362.00877
360.75774
359.5238
420.6456
419.56796
418.46185
417.32787
416.16697
414.98014
413.76844
412.53295
411.27479
409.99512
408.69513
407.37603
406.03908
404.68552
403.31665
401.93377
400.53818
399.13121
397.71418
396.28841
394.85522
393.41593
391.97184
390.52424
389.07441
387.6236
386.17305
384.72396
383.27752
381.83488
380.39716
378.96545
377.54081
376.12426
374.71678
373.31932
371.93279
370.55806
369.19598
367.84734
366.51289
365.19337
363.88945
362.60179
361.33099
360.07782
422.52025
421.40792
420.26727
419.0989
417.90376
416.68284
415.43718
414.16788
412.87604
411.56284
410.22945
408.87712
407.50709
406.12063
404.71904
403.30364
401.87575
400.43671
398.98785
397.53051
396.06604
394.59577
393.12102
391.6431
390.1633
388.6829
387.20315
385.72526
384.25045
382.77988
381.31468
379.85597
378.4048
376.96221
375.5292
374.10672
372.69569
371.29699
369.91147
368.53993
367.18313
365.8418
364.51662
363.20824
361.91728
360.64448
424.41188
423.26467
422.08928
420.88634
419.65678
418.40159
417.12181
415.81852
414.49283
413.14592
411.77898
410.39323
408.98995
407.57041
406.13592
404.68781
403.22743
401.75612
400.27523
398.78613
397.29017
395.78871
394.28308
392.77461
391.26462
389.75439
388.2452
386.73829
385.23487
383.73613
382.24321
380.75724
379.2793
377.81044
376.35165
374.90391
373.46814
372.04523
370.63603
369.24136
367.86197
366.49859
365.15192
363.8226
362.51125
361.21862
426.30611
425.12406
423.914
422.67656
421.41266
420.12328
418.80945
417.47225
416.11279
414.73225
413.33182
411.91274
410.47627
409.02371
407.55639
406.07563
404.5828
403.07926
401.56639
400.04555
398.51813
396.98549
395.44899
393.90998
392.3698
390.82974
389.2911
387.75514
386.22308
384.69614
383.17547
381.66222
380.15746
378.66227
377.17766
375.7046
374.24404
372.79686
371.36393
369.94606
368.54402
367.15854
365.79031
364.43998
363.10818
361.79564
428.19043
426.97382
425.72938
424.45773
423.15978
421.8365
420.48892
419.1181
417.72517
416.31128
414.87765
413.42552
411.95615
410.47085
408.97095
407.45781
405.93279
404.39728
402.85265
401.30031
399.74165
398.17805
396.6109
395.04155
393.47136
391.90165
390.33374
388.7689
387.20837
385.65338
384.10511
382.56471
381.03327
379.51188
378.00157
376.50331
375.01806
373.54672
372.09015
370.64917
369.22456
367.81706
366.42736
365.0561
363.70391
362.37154
430.05408
428.80339
427.52504
426.21965
424.88813
423.53143
422.15057
420.74661
419.32067
417.87392
416.40756
414.92284
413.42102
411.90344
410.37142
408.82633
407.26956
405.70249
404.12653
402.54309
400.95358
399.35941
397.76198
396.16266
394.56282
392.96382
391.36697
389.77358
388.1849
386.60218
385.0266
383.45934
381.90151
380.3542
378.81844
377.29524
375.78555
374.29028
372.81031
371.34646
369.8995
368.47019
367.05921
365.66722
364.29484
362.94281
431.88784
430.60375
429.29213
427.95364
426.58917
425.19968
423.78617
422.3497
420.89139
419.4124
417.91393
416.39723
414.86358
413.31431
411.75077
410.17432
408.58636
406.98831
405.38158
403.7676
402.14779
400.52358
398.89638
397.2676
395.63863
394.01081
392.38551
390.76403
389.14766
387.53765
385.9352
384.3415
382.75769
381.18485
379.62405
378.07628
376.54252
375.02369
373.52066
372.03427
370.5653
369.11449
367.68255
366.27012
364.87784
363.50644
433.68387
432.36732
431.02319
429.65235
428.25569
426.83416
425.38877
423.92055
422.43062
420.92014
419.3903
417.84237
416.27763
414.6974
413.10305
411.49595
409.87752
408.24918
406.61237
404.96851
403.31907
401.66547
400.00916
398.35155
396.69404
395.03803
393.38487
391.73589
390.09239
388.45564
386.82687
385.20727
383.59799
382.00014
380.41478
378.84293
377.28558
375.74364
374.218
372.7095
371.21893
369.74704
368.29453
366.86207
365.45026
364.05984
436.75708
435.4364
434.08785
432.71201
431.30967
429.88168
428.42899
426.95257
425.45346
423.93277
422.39165
420.83131
419.25298
417.65798
416.04763
414.42329
412.78637
411.13827
409.48044
407.81432
406.14137
404.46305
402.78082
401.09613
399.41042
397.7251
396.04159
394.36126
392.68546
391.0155
389.35267
387.69821
386.05333
384.4192
382.79693
381.1876
379.59224
378.01184
376.44734
374.89962
373.36953
371.85787
370.36538
368.89279
367.44073
366.00985
364.60086
438.49159
437.13962
435.76008
434.35348
432.92058
431.46222
429.97931
428.47281
426.94377
425.39326
423.82244
422.23251
420.62473
419.00039
417.36082
415.70741
414.04155
412.36467
410.67823
408.98367
407.28249
405.57614
403.86611
402.15387
400.44086
398.72854
397.01831
395.31158
393.60971
391.91403
390.22585
388.54642
386.87696
385.21866
383.57264
381.94
380.32177
378.71895
377.13249
375.56329
374.01219
372.48
370.96748
369.47533
368.00421
366.55476
365.1277
440.17134
438.78927
437.3798
435.94349
434.48106
432.99335
431.48124
429.94568
428.3877
426.80839
425.20887
423.59037
421.95412
420.30142
418.63362
416.9521
415.25827
413.55356
411.83944
410.11739
408.38888
406.65542
404.91849
403.17958
401.44015
399.70168
397.96558
396.23329
394.50617
392.78558
391.07283
389.36921
387.67593
385.99421
384.32517
382.66993
381.02953
379.40498
377.79723
376.20719
374.63572
373.08362
371.55166
370.04054
368.55094
367.08348
365.63888
441.79303
440.38208
438.94379
437.47883
435.98796
434.47197
432.93172
431.36818
429.78233
428.17526
426.54811
424.90207
423.23839
421.55838
419.86337
418.15476
416.43397
414.70243
412.96163
411.21306
409.45821
407.69859
405.93571
404.17106
402.40614
400.64243
398.88136
397.12438
395.37288
393.62824
391.89176
390.16476
388.44848
386.74412
385.05285
383.37577
381.71394
380.06838
378.44005
376.82988
375.23871
373.66736
372.11661
370.58715
369.07967
367.59479
366.13324
444.7661
443.35462
441.91564
440.4496
438.95712
437.43891
435.89575
434.32848
432.73805
431.12543
429.49171
427.838
426.16551
424.47548
422.76922
421.04807
419.31342
417.56671
415.80939
414.04294
412.26886
410.48868
408.7039
406.91605
405.12664
403.33719
401.54917
399.76407
397.98333
396.20836
394.44054
392.68122
390.9317
389.19326
387.4671
385.75439
384.05626
382.37378
380.70798
379.05982
377.43023
375.82008
374.23018
372.6613
371.11417
369.58945
368.08778
366.60987
446.29261
444.85398
443.38816
441.89552
440.37666
438.83225
437.26305
435.66989
434.05369
432.41543
430.75616
429.07702
427.37918
425.6639
423.93248
422.18627
420.42667
418.65511
416.87306
415.08201
413.28348
411.47898
409.67006
407.85825
406.04509
404.23208
402.42075
400.61257
398.80901
397.01149
395.22142
393.44015
391.66901
389.90927
388.16215
386.42885
384.7105
383.00818
381.32292
379.6557
378.00744
376.37904
374.7713
373.185
371.62087
370.07958
368.56176
367.06812
447.75446
446.28997
444.7985
443.28044
441.73635
440.1669
438.57281
436.95491
435.31408
433.6513
431.96763
430.26416
428.5421
426.80268
425.04721
423.27704
421.49357
419.69825
417.89254
416.07796
414.25602
412.42827
410.59625
408.7615
406.92559
405.09003
403.25637
401.42609
399.60067
397.78155
395.97016
394.16786
392.37599
390.59584
388.82865
387.07561
385.33787
383.61652
381.9126
380.2271
378.56095
376.91504
375.2902
373.68719
372.10676
370.54957
369.01625
367.50754
449.15115
447.66207
446.14613
444.60381
443.03567
441.44233
439.8245
438.183
436.51868
434.83253
433.12557
431.39892
429.65374
427.8913
426.11288
424.31985
422.51362
420.69562
418.86734
417.03029
415.18601
413.33605
411.48197
409.62532
407.76768
405.91059
404.05558
402.20418
400.35787
398.51812
396.68635
394.86394
393.05226
391.25259
389.4662
387.69428
385.938
384.19845
382.47668
380.7737
379.09044
377.42778
375.78657
374.16758
372.57154
370.99914
369.451
367.92784
451.96867
450.4829
448.97024
447.43098
445.86557
444.27452
442.65845
441.01803
439.35406
437.66741
435.95901
434.22989
432.48116
430.714
428.92964
427.12938
425.31459
423.48668
421.64708
419.79731
417.93887
416.07331
414.20219
412.32708
410.44957
408.57121
406.69359
404.81824
402.9467
401.08047
399.22103
397.36983
395.52825
393.69766
391.87937
390.07466
388.28473
386.51075
384.75383
383.01504
381.29537
379.59577
377.91713
376.26029
374.62604
373.01511
371.42818
369.86587
368.32892
453.25834
451.74986
450.2148
448.65339
447.06604
445.45324
443.81557
442.1537
440.4684
438.76052
437.03099
435.28084
433.51115
431.72309
429.91792
428.09691
426.26145
424.41293
422.55282
420.68261
418.80384
416.91804
415.02681
413.13171
411.23435
409.3363
407.43914
405.54444
403.65374
401.76856
399.89039
398.02068
396.16085
394.31226
392.47625
390.65409
388.84701
387.05618
385.28273
383.52771
381.79215
380.07699
378.38313
376.71141
375.06263
373.43751
371.83673
370.26092
368.7108
454.48271
452.95277
451.39647
449.81406
448.2059
446.57247
444.91433
443.23212
441.52661
439.79861
438.04906
436.27896
434.4894
432.68155
430.85663
429.01596
427.16089
425.29284
423.41327
421.52368
419.62561
417.72062
415.8103
413.89624
411.98003
410.06328
408.14758
406.2345
404.32561
402.42243
400.52646
398.63918
396.76201
394.89633
393.04347
391.20474
389.38136
387.57452
385.78535
384.01492
382.26425
380.53429
378.82596
377.1401
375.4775
373.83889
372.22496
370.63631
369.07362
455.64291
454.09265
452.51625
450.91396
449.28612
447.63317
445.95566
444.25421
442.52957
440.78254
439.01404
437.22507
435.41672
433.59013
431.74654
429.88725
428.01363
426.12708
424.22909
422.32115
420.40482
418.48165
416.55325
414.62122
412.68716
410.7527
408.81942
406.88893
404.96279
403.04255
401.12972
399.22578
397.33216
395.45027
393.58144
391.72699
389.88815
388.06613
386.26205
384.47699
382.71199
380.968
379.24595
377.54667
375.87096
374.21956
372.59315
370.99232
369.41764
456.74027
455.1708
453.57542
451.95435
450.30791
448.63653
446.94072
445.2211
443.47839
441.71339
439.927
438.12021
436.2941
434.44981
432.58858
430.71171
428.82056
426.91654
425.00114
423.07586
421.14226
419.20191
417.25642
415.3074
413.35646
411.40524
409.45535
407.50839
405.56594
403.62955
401.70076
399.78105
397.87187
395.97463
394.09069
392.22136
390.36789
388.53148
386.71329
384.91439
383.13582
381.37855
379.64349
377.9315
376.24339
374.57988
372.94167
371.32937
369.74362
368.18493
457.77632
456.18873
454.57544
452.93666
451.27268
449.58391
447.87086
446.13411
444.37436
442.59242
440.78917
438.96558
437.12272
435.26175
433.38389
431.49044
429.58275
427.66226
425.73043
423.7888
421.8389
419.88234
417.92072
415.95566
413.98879
412.02176
410.05617
408.09366
406.1358
404.18417
402.2403
400.3057
398.38182
396.47009
394.57186
392.68847
390.82117
388.97118
387.13964
385.32765
383.53626
381.76643
380.01909
378.29509
376.59525
374.9203
373.27094
371.6478
370.05148
368.48275
458.75277
457.14811
455.51795
453.86249
452.18201
450.47688
448.74758
446.99471
445.21894
443.42105
441.60192
439.76252
437.90391
436.02724
434.13372
432.22465
430.3014
428.36539
426.41811
424.46106
422.49582
420.52399
418.54717
416.567
414.58512
412.60318
410.62281
408.64563
406.67325
404.70724
402.74916
400.80052
398.86278
396.93737
395.02568
393.12902
391.24868
389.38587
387.54174
385.71741
383.91392
382.13224
380.37331
378.63798
376.92707
375.24133
373.58145
371.94808
370.34182
368.76338
459.67145
458.05074
456.40473
454.73359
453.03758
451.31708
449.57253
447.80451
446.01368
444.20081
442.36677
440.51251
438.6391
436.74767
434.83943
432.91569
430.97781
429.02722
427.0654
425.09387
423.1142
421.128
419.13689
417.14251
415.14651
413.15055
411.15626
409.16528
407.17923
405.1997
403.22824
401.26638
399.31559
397.37731
395.45293
393.54379
391.65116
389.77628
387.9203
386.08435
384.26945
382.47662
380.70677
378.96077
377.23944
375.54352
373.87373
372.23071
370.61506
369.02746
460.53431
458.89853
457.23763
455.55177
453.84121
452.10628
450.34743
448.5652
446.76024
444.93332
443.08529
441.2171
439.3298
437.42452
435.50248
433.56498
431.61337
429.64909
427.67362
425.6885
423.69529
421.6956
419.69107
417.68335
415.67409
413.66495
411.65759
409.65366
407.65477
405.66253
403.67849
401.70421
399.74115
397.79078
395.85448
393.9336
392.02943
390.1432
388.27608
386.42919
384.60358
382.80025
381.02013
379.2641
377.53296
375.82749
374.14837
372.49627
370.87178
369.27556
461.34336
459.69345
458.01859
456.31896
454.59476
452.84632
451.07406
449.27853
447.46035
445.62027
443.75914
441.8779
439.97759
438.05935
436.12438
434.17398
432.20952
430.23242
428.24416
426.2463
424.2404
422.22807
420.21097
418.19073
416.16904
414.14755
412.12794
410.11185
408.10092
406.09675
404.10093
402.11499
400.14043
398.1787
396.23122
394.29932
392.38431
390.48743
388.60985
386.75271
384.91704
383.10386
381.3141
379.54865
377.80831
376.09385
374.40598
372.74534
371.11254
369.50823
462.10067
460.43753
458.74962
457.03709
455.30014
453.53907
451.75429
449.94631
448.11577
446.26339
444.39001
442.49657
440.58411
438.65374
436.70668
434.74423
432.76774
430.77864
428.77843
426.76865
424.75087
422.72673
420.69785
418.66591
416.63258
414.59953
412.56844
410.54098
408.51877
406.50344
404.49657
402.49972
400.51438
398.54202
396.58406
394.64185
392.71669
390.80983
388.92245
387.05569
385.2106
383.38819
381.5894
379.81511
378.06615
376.34327
374.64719
372.97856
371.33796
369.72606
462.80832
461.13282
459.43272
457.70815
455.9593
454.18644
452.38997
450.57038
448.7283
446.86444
444.97964
443.07481
441.151
439.20932
437.25098
435.27726
433.28955
431.28925
429.27788
427.25696
425.2281
423.1929
421.15303
419.11015
417.06595
415.0221
412.98029
410.94219
408.90944
406.88368
404.86649
402.85943
400.86402
398.88172
396.91396
394.96209
393.02744
391.11125
389.21471
387.33895
385.48505
383.654
381.84676
380.06421
378.30718
376.57642
374.87266
373.19653
371.54864
369.92964
463.46844
461.78139
460.06991
458.33413
456.57419
454.79035
452.98298
451.15259
449.29976
447.42521
445.52975
443.61432
441.67994
439.72771
437.75885
435.77465
433.77647
431.76574
429.74395
427.71266
425.67345
423.62796
421.57784
419.52476
417.47041
415.41649
413.36467
411.31665
409.27407
407.23857
405.21174
403.19516
401.19034
399.19877
397.22186
395.26099
393.31747
391.39256
389.48747
387.60331
385.74118
383.90207
382.08693
380.29667
378.53209
376.79397
375.08303
373.39991
371.7452
370.11956
464.08312
462.38529
460.66323
458.91702
457.14676
455.35271
453.53522
451.69477
449.83195
447.94745
446.0421
444.1168
442.17258
440.21055
438.2319
436.23794
434.23002
432.20958
430.17811
428.13716
426.08833
424.03325
421.97358
419.91101
417.84721
415.78391
413.72278
411.66552
409.61378
407.56921
405.53341
403.50795
401.49437
399.49415
397.50872
395.53945
393.58767
391.65465
389.74157
387.84959
385.97978
384.13315
382.31066
380.5132
378.74159
376.99661
375.27897
373.58932
371.92826
370.29642
464.65442
462.94656
461.21468
459.45879
457.67897
455.87544
454.04855
452.19877
450.32666
448.43294
446.51839
444.58394
442.63059
440.65945
438.67172
436.6687
434.65174
432.62227
430.58181
428.53189
426.47412
424.41013
422.34159
420.27018
418.19762
416.12559
414.05581
411.98995
409.9297
407.87669
405.83254
403.79884
401.77711
399.76885
397.77548
395.79841
393.83895
391.89836
389.97787
388.0786
386.20165
384.34802
382.51868
380.71452
378.93637
377.185
375.46112
373.7654
372.09842
370.46082
465.18438
463.46719
461.72624
459.96139
458.17271
456.3604
454.52481
452.66638
450.78568
448.88341
446.96034
445.0174
443.05559
441.07601
439.07987
437.06844
435.0431
433.00528
430.95647
428.89823
426.83217
424.75992
422.68315
420.60356
418.52286
416.44274
414.36492
412.29109
410.22294
408.1621
406.11021
404.06885
402.03955
400.02382
398.0231
396.03877
394.07218
392.12458
390.19719
388.29116
386.40757
384.54745
382.71175
380.90136
379.11713
377.35982
375.63015
373.92877
372.25629
370.61334
470.70937
469.05481
467.3769
465.67474
463.94916
462.19986
460.42674
458.62987
456.80946
454.96582
453.09939
451.21075
449.30056
447.36963
445.41884
443.4492
441.46182
439.45789
437.43869
435.40559
433.36003
431.30351
429.23757
427.16384
425.08394
422.99956
420.91239
418.82415
416.73654
414.65128
412.57007
410.49459
408.42651
406.36744
404.31899
402.28268
400.26004
398.25249
396.26145
394.28823
392.33413
390.40036
388.48806
386.59832
384.73217
382.89057
381.07442
379.28454
377.52173
375.78668
374.08007
372.40248
370.75455
472.82652
471.1864
469.52358
467.8375
466.12776
464.39445
462.63745
460.85671
459.0523
457.22441
455.37334
453.49954
451.60357
449.68608
447.74788
445.78985
443.81299
441.8184
439.80728
437.78091
435.74066
433.68795
431.6243
429.55126
427.47043
425.38348
423.29206
421.19789
419.10268
417.00815
414.91602
412.82799
410.74575
408.67096
406.60526
404.55024
402.50746
400.47842
398.46457
396.46731
394.48798
392.52786
390.58818
388.67008
386.77465
384.90293
383.05587
381.23438
379.43928
377.67137
375.93135
374.21988
372.53756
370.88503
473.27391
471.62619
469.95579
468.26231
466.5454
464.80497
463.0409
461.25315
459.44179
457.60701
455.74911
453.86852
451.9658
450.0416
448.0967
446.132
444.14849
442.14727
440.12953
438.09655
436.0497
433.99042
431.9202
429.8406
427.75325
425.65978
423.56188
421.46126
419.35963
417.25872
415.16024
413.06592
410.97744
408.89647
406.82466
404.76359
402.71483
400.67988
398.66021
396.65722
394.67225
392.70658
390.76144
388.83798
386.9373
385.06043
383.20834
381.38191
379.582
377.80937
376.06475
374.3488
372.66211
371.00533
473.68556
472.03073
470.35338
468.6531
466.92956
465.18257
463.412
461.61782
459.80009
457.95898
456.09481
454.20799
452.29906
450.36869
448.41764
446.44682
444.4572
442.44988
440.42606
438.38701
436.3341
434.26876
432.1925
430.10689
428.01353
425.91408
423.81022
421.70366
419.59612
417.48934
415.38503
413.28492
411.1907
409.10405
407.0266
404.95996
402.9057
400.86532
398.84029
396.83202
394.84185
392.87107
390.9209
388.99251
387.087
385.20539
383.34865
381.51768
379.71332
377.93635
376.18749
374.4674
372.77669
371.11597
474.06331
472.40194
470.7182
469.01169
467.28205
465.52904
463.75252
461.95245
460.12888
458.28198
456.41206
454.51953
452.60492
450.66889
448.71222
446.73577
444.74055
442.72765
440.69825
438.65364
436.59517
434.52429
432.44249
430.35136
428.25249
426.14755
424.03822
421.92621
419.81326
417.70109
415.59143
413.486
411.38652
409.29464
407.21202
405.14027
403.08095
401.03559
399.00564
396.99251
394.99757
393.02209
391.06731
389.13439
387.22443
385.33846
383.47745
381.64231
379.83387
378.05291
376.30015
374.57625
372.88182
371.21749
474.409
472.74165
471.05208
469.33987
467.60463
465.84612
464.06416
462.2587
460.42979
458.57761
456.70243
454.80468
452.88489
450.94369
448.98187
447.0003
444.99996
442.98195
440.94745
438.89775
436.8342
434.75825
432.67139
430.57521
428.4713
426.36134
424.247
422.13002
420.0121
417.895
415.78044
413.67016
411.56584
409.46919
407.38183
405.3054
403.24145
401.19152
399.15706
397.13949
395.14018
393.1604
391.20139
389.26432
387.35028
385.46032
383.5954
381.75642
379.94423
378.15961
376.40328
374.67588
372.97804
371.31038
474.72443
473.05163
471.35674
469.63933
467.899
466.13546
464.34854
462.53818
460.70441
458.84741
456.96745
455.06495
453.14042
451.19452
449.22801
447.24176
445.23676
443.2141
441.17495
439.12061
437.05243
434.97185
432.88039
430.77959
428.67109
426.55655
424.43765
422.31612
420.19368
418.07208
415.95305
413.83832
411.72961
409.62858
407.53691
405.4562
403.38803
401.33392
399.29534
397.27372
395.2704
393.28669
391.32382
389.38295
387.46519
385.57158
383.70308
381.8606
380.04499
378.25702
376.49741
374.76682
373.06585
371.39513
475.01133
473.33359
471.63386
469.91172
468.16676
466.39866
464.60724
462.79242
460.95424
459.09287
457.20857
455.30175
453.37293
451.42275
449.45198
447.46149
445.45225
443.42536
441.382
439.32344
437.25105
435.16627
433.07061
430.96563
428.85295
426.73424
424.61119
422.48553
420.35897
418.23328
416.11019
413.99142
411.8787
409.7737
407.67809
405.59349
403.52147
401.46356
399.42124
397.39592
395.38896
393.40167
391.43528
389.49095
387.5698
385.67286
383.8011
381.95543
380.13669
378.34567
376.58307
374.84956
373.14573
371.4722
475.27137
473.58915
471.88505
470.15864
468.40948
466.63726
464.84176
463.02291
461.18074
459.31541
457.42718
455.51645
453.58375
451.62971
449.65509
447.66075
445.64768
443.61696
441.56978
439.50741
437.43121
435.34262
433.24316
431.13439
429.01793
426.89545
424.76864
422.63922
420.50894
418.37954
416.25275
414.13032
412.01397
409.90537
407.80619
405.71806
403.64255
401.58119
399.53546
397.50679
395.49653
393.50599
391.5364
389.58893
387.6647
385.76473
383.89001
382.04144
380.21987
378.42606
376.66075
374.92458
373.21815
371.54206
475.50615
473.8199
472.11186
470.3816
468.62866
466.85271
465.05355
463.23106
461.3853
459.5164
457.62463
455.71038
453.77418
451.81666
449.83856
447.84076
445.82424
443.79007
441.73944
439.67363
437.59399
435.50198
433.39909
431.28689
429.16702
427.04113
424.91093
422.77813
420.64448
418.51173
416.38161
414.25588
412.13624
410.02438
407.92198
405.83066
403.75199
401.68752
399.63872
397.60701
395.59376
393.60028
391.62779
389.67749
387.75046
385.84776
383.97036
382.11917
380.29502
378.49871
376.73093
374.99236
373.28355
371.60511
475.71719
474.02733
472.31576
470.58205
468.82572
467.04643
465.24397
463.41823
461.56924
459.69714
457.80219
455.8848
453.94546
451.98481
450.0036
448.00269
445.98306
443.9458
441.89208
439.82318
437.74046
435.64536
433.53939
431.42413
429.30119
427.17224
425.03898
422.90314
420.76647
418.6307
416.49759
414.36888
412.24629
410.13151
408.02621
405.93201
403.85051
401.78323
399.73165
397.69721
395.68128
393.68514
391.71005
389.75719
387.82765
385.92249
384.04267
382.18911
380.36265
378.56406
376.79407
375.05332
373.34238
371.6618
475.90596
474.21288
472.49817
470.76137
469.00202
467.21976
465.41435
463.58571
461.73384
459.85888
457.96111
456.04089
454.09875
452.13531
450.15132
448.14764
446.12525
444.08522
442.02874
439.95708
437.87161
435.77375
433.66504
431.54702
429.42134
427.28966
425.15367
423.01512
420.87573
418.73727
416.60149
414.47011
412.34488
410.22748
408.11958
406.02281
403.93876
401.86897
399.81491
397.77802
395.75967
393.76116
391.78374
389.82858
387.89679
385.98941
384.10743
382.25174
380.4232
378.62258
376.8506
375.1079
373.39505
371.71254
476.07385
474.37792
472.66042
470.92089
469.15886
467.37396
465.56595
463.73473
461.88031
460.00282
458.10253
456.17982
454.2352
452.26928
450.28282
448.27668
446.25183
444.20935
442.15042
440.07631
437.98839
435.8881
433.77693
431.65648
429.52836
427.39425
425.25584
423.11486
420.97307
418.83221
416.69404
414.5603
412.43271
410.31298
408.20276
406.10371
404.01739
401.94536
399.88909
397.85002
395.82952
393.8289
391.84939
389.89218
387.95838
386.04903
384.16511
382.30753
380.47713
378.6747
376.90094
375.1565
373.44195
371.75779
370.1043
476.2222
474.52376
472.8038
471.06188
469.29749
467.51027
465.69996
463.86647
462.0098
460.13008
458.22758
456.30267
454.35586
452.38776
450.39913
448.39082
446.36381
444.31917
442.25807
440.18181
438.09173
435.98928
433.87596
431.75335
429.62308
427.48682
425.34627
423.20316
421.05924
418.91626
416.77598
414.64015
412.51048
410.38868
408.27642
406.17533
404.08701
402.01299
399.95477
397.91377
395.89136
393.88886
391.90751
389.94848
388.0129
386.1018
384.21616
382.3569
380.52485
378.72081
376.94547
375.19949
373.48345
371.79781
370.14311
476.35226
474.65163
472.92954
471.18552
469.41908
467.62983
465.81752
463.98204
462.12341
460.24174
458.33731
456.41048
454.46176
452.49176
450.50123
448.49103
446.46212
444.41559
442.35261
440.27445
438.18248
436.07814
433.96294
431.83845
429.70629
427.56815
425.42572
423.28074
421.13495
418.99012
416.84799
414.71031
412.57882
410.45521
408.34115
406.23828
404.1482
402.07244
400.01249
397.96979
395.94571
393.94156
391.95858
389.99796
388.0608
386.14816
384.26101
382.40027
380.56677
378.7613
376.98458
375.23725
373.51988
371.83298
370.17705
476.46524
474.76272
473.03878
471.29296
469.52475
467.73375
465.91971
464.08252
462.22218
460.33883
458.43273
456.50424
454.55386
452.58222
450.59005
448.5782
446.54766
444.49949
442.43487
440.35508
438.26148
436.1555
434.03866
431.91253
429.77875
427.63897
425.49491
423.3483
421.2009
419.05445
416.91071
414.77144
412.63835
410.51316
408.39754
406.29313
404.20151
402.12423
400.06278
398.0186
395.99306
393.98746
392.00307
390.04105
388.10253
386.18854
384.30007
382.43803
380.60326
378.79656
377.01862
375.2701
373.55159
371.86359
370.20662
368.58101
476.56227
474.85814
473.13263
471.38528
469.61557
467.82308
466.00756
464.16889
462.3071
460.42232
458.51479
456.58488
454.63309
452.66004
450.66647
448.65323
446.62128
444.57171
442.5057
440.42451
438.3295
436.22212
434.10388
431.97635
429.84116
427.69998
425.55452
423.40652
421.25772
419.10988
416.96477
414.82412
412.68967
410.56312
408.44615
406.3404
404.24746
402.16887
400.10613
398.06067
396.03387
394.02703
392.04141
390.07819
388.13848
386.22333
384.33372
382.47056
380.63469
378.82691
377.04792
375.29838
373.57888
371.88993
370.23203
368.60575
476.64444
474.93896
473.21214
471.46351
469.69254
467.8988
466.08203
464.24213
462.37912
460.49313
458.5844
456.6533
454.70032
452.72609
450.73134
448.71691
446.68379
444.63304
442.56585
440.48348
438.38729
436.27873
434.1593
432.03058
429.89421
427.75185
425.60521
423.45602
421.30604
419.15703
417.01074