/*--------------------------------*- C++ -*----------------------------------*\
| =========                 |                                                 |
| \\      /  F ield         | OpenFOAM: The Open Source CFD Toolbox           |
|  \\    /   O peration     | Version:  2312                                  |
|   \\  /    A nd           | Website:  www.openfoam.com                      |
|    \\/     M anipulation  |                                                 |
\*---------------------------------------------------------------------------*/
FoamFile
{
    version     2.0;
    format      ascii;
    arch        "LSB;label=32;scalar=64";
    class       volVectorField;
    location    "0.08";
    object      U;
}
// * * * * * * * * * * * * * * * * * * * * * * * * * * * * * * * * * * * * * //

dimensions      [0 1 -1 0 0 0 0];

internalField   nonuniform List<vector> 
3250
(
(0.80677243 -1.1381513 0)
(0.79434647 -1.1337936 0)
(0.78186135 -1.1289947 0)
(0.7693659 -1.1237557 0)
(0.75686009 -1.118082 0)
(0.74435034 -1.1119861 0)
(0.73184868 -1.1054808 0)
(0.71936673 -1.0985797 0)
(0.70691584 -1.0912966 0)
(0.69450708 -1.083646 0)
(0.68215119 -1.0756424 0)
(0.66985854 -1.0673007 0)
(0.65763919 -1.0586358 0)
(0.64550281 -1.0496628 0)
(0.63345872 -1.0403971 0)
(0.62151586 -1.030854 0)
(0.60968279 -1.0210488 0)
(0.59796771 -1.010997 0)
(0.5863784 -1.0007138 0)
(0.57492232 -0.99021441 0)
(0.56360649 -0.97951393 0)
(0.55243758 -0.96862724 0)
(0.54142187 -0.95756902 0)
(0.53056529 -0.94635371 0)
(0.51987336 -0.9349955 0)
(0.50935127 -0.92350826 0)
(0.49900382 -0.91190556 0)
(0.48883547 -0.90020066 0)
(0.47885032 -0.88840645 0)
(0.46905212 -0.87653549 0)
(0.45944429 -0.86460002 0)
(0.45002993 -0.85261192 0)
(0.44081183 -0.84058271 0)
(0.43179248 -0.82852361 0)
(0.42297413 -0.81644544 0)
(0.41435882 -0.80435864 0)
(0.40594839 -0.79227317 0)
(0.39774455 -0.78019846 0)
(0.38974886 -0.7681432 0)
(0.38196269 -0.75611532 0)
(0.37438691 -0.74412175 0)
(0.36702035 -0.73216864 0)
(0.35986474 -0.72026462 0)
(0.35293137 -0.70842162 0)
(0.81143836 -1.0904257 0)
(0.79888997 -1.0862252 0)
(0.78627298 -1.0815904 0)
(0.77364509 -1.076533 0)
(0.76100915 -1.0710643 0)
(0.74837124 -1.065196 0)
(0.73574314 -1.0589407 0)
(0.72313636 -1.0523109 0)
(0.71056225 -1.04532 0)
(0.69803196 -1.0379815 0)
(0.68555632 -1.0303091 0)
(0.67314579 -1.0223169 0)
(0.66081051 -1.0140191 0)
(0.64856021 -1.0054299 0)
(0.63640428 -0.9965639 0)
(0.6243517 -0.98743552 0)
(0.61241107 -0.9780593 0)
(0.60059063 -0.96844972 0)
(0.58889821 -0.95862124 0)
(0.57734125 -0.94858819 0)
(0.56592684 -0.93836479 0)
(0.55466166 -0.92796507 0)
(0.543552 -0.91740286 0)
(0.5326038 -0.90669179 0)
(0.52182259 -0.8958452 0)
(0.51121355 -0.88487616 0)
(0.50078148 -0.87379746 0)
(0.49053078 -0.86262156 0)
(0.48046553 -0.85136061 0)
(0.47058942 -0.84002644 0)
(0.46090578 -0.82863055 0)
(0.45141762 -0.81718411 0)
(0.44212762 -0.80569798 0)
(0.43303819 -0.79418269 0)
(0.42415153 -0.78264844 0)
(0.4154697 -0.77110506 0)
(0.40699473 -0.75956197 0)
(0.39872874 -0.74802812 0)
(0.39067404 -0.73651186 0)
(0.38283316 -0.72502081 0)
(0.37520861 -0.71356173 0)
(0.36779868 -0.70214045 0)
(0.36059197 -0.69076325 0)
(0.35358778 -0.67944347 0)
(0.82032447 -1.0583941 0)
(0.8075464 -1.0542462 0)
(0.79470143 -1.0496802 0)
(0.78184729 -1.044707 0)
(0.76898719 -1.0393381 0)
(0.75612735 -1.0335852 0)
(0.74327963 -1.0274604 0)
(0.7304557 -1.0209763 0)
(0.71766702 -1.0141455 0)
(0.70492488 -1.0069812 0)
(0.6922402 -0.99949671 0)
(0.67962359 -0.99170545 0)
(0.66708524 -0.98362116 0)
(0.65463501 -0.97525765 0)
(0.64228233 -0.96662884 0)
(0.63003627 -0.95774868 0)
(0.6179055 -0.94863115 0)
(0.60589831 -0.93929022 0)
(0.59402258 -0.92973977 0)
(0.58228582 -0.91999359 0)
(0.57069514 -0.91006534 0)
(0.55925728 -0.8999685 0)
(0.54797857 -0.88971637 0)
(0.53686496 -0.87932199 0)
(0.52592201 -0.86879819 0)
(0.51515492 -0.8581575 0)
(0.50456847 -0.84741217 0)
(0.49416707 -0.83657416 0)
(0.48395476 -0.82565509 0)
(0.47393516 -0.81466629 0)
(0.46411156 -0.80361877 0)
(0.45448686 -0.79252321 0)
(0.44506366 -0.78138998 0)
(0.43584428 -0.77022913 0)
(0.42683084 -0.75905041 0)
(0.41802539 -0.74786319 0)
(0.40943001 -0.73667651 0)
(0.40104699 -0.72549898 0)
(0.39287887 -0.71433875 0)
(0.38492847 -0.70320347 0)
(0.37719859 -0.69210033 0)
(0.36968794 -0.68103599 0)
(0.36238407 -0.67001669 0)
(0.3552821 -0.65904945 0)
(0.83273187 -1.0277129 0)
(0.81963649 -1.0236038 0)
(0.80647848 -1.0190926 0)
(0.79331394 -1.0141899 0)
(0.78014598 -1.008907 0)
(0.76698121 -1.0032553 0)
(0.75383175 -0.99724681 0)
(0.74070947 -0.99089352 0)
(0.72762606 -0.98420786 0)
(0.71459293 -0.97720248 0)
(0.70162119 -0.96989022 0)
(0.68872154 -0.96228412 0)
(0.67590432 -0.95439739 0)
(0.66317947 -0.94624335 0)
(0.65055652 -0.93783541 0)
(0.63804463 -0.92918702 0)
(0.62565254 -0.92031163 0)
(0.61338861 -0.91122269 0)
(0.60126081 -0.90193355 0)
(0.58927669 -0.89245747 0)
(0.57744344 -0.88280757 0)
(0.56576783 -0.87299681 0)
(0.55425624 -0.86303794 0)
(0.54291466 -0.8529435 0)
(0.53174869 -0.84272577 0)
(0.52076352 -0.83239678 0)
(0.50996395 -0.82196827 0)
(0.49935438 -0.81145168 0)
(0.48893881 -0.80085815 0)
(0.47872085 -0.79019851 0)
(0.46870369 -0.77948328 0)
(0.45889019 -0.76872266 0)
(0.44928284 -0.75792656 0)
(0.43988387 -0.74710455 0)
(0.43069533 -0.73626592 0)
(0.42171921 -0.72541961 0)
(0.41295761 -0.71457424 0)
(0.40441286 -0.70373805 0)
(0.39608764 -0.69291888 0)
(0.38798493 -0.68212414 0)
(0.38010769 -0.67136081 0)
(0.37245473 -0.66063542 0)
(0.3650131 -0.64995423 0)
(0.35777676 -0.63932376 0)
(0.84815454 -0.99815498 0)
(0.83466638 -0.99407071 0)
(0.82112083 -0.98960008 0)
(0.80757204 -0.98475335 0)
(0.79402309 -0.97954163 0)
(0.78048102 -0.97397616 0)
(0.76695825 -0.9680685 0)
(0.75346694 -0.96183044 0)
(0.740019 -0.95527398 0)
(0.72662607 -0.94841136 0)
(0.7132994 -0.941255 0)
(0.70004985 -0.93381751 0)
(0.68688789 -0.92611163 0)
(0.67382356 -0.91815021 0)
(0.66086652 -0.9099462 0)
(0.64802601 -0.90151254 0)
(0.63531086 -0.89286221 0)
(0.62272953 -0.88400815 0)
(0.61029005 -0.8749632 0)
(0.59800006 -0.86574013 0)
(0.5858668 -0.85635154 0)
(0.57389711 -0.84680987 0)
(0.56209741 -0.83712737 0)
(0.55047373 -0.82731608 0)
(0.5390317 -0.81738777 0)
(0.52777654 -0.80735398 0)
(0.51671304 -0.79722593 0)
(0.50584561 -0.7870146 0)
(0.49517822 -0.77673064 0)
(0.48471444 -0.76638441 0)
(0.47445742 -0.75598595 0)
(0.46440992 -0.745545 0)
(0.45457438 -0.735071 0)
(0.44495293 -0.72457308 0)
(0.43554753 -0.71406008 0)
(0.42636011 -0.70354051 0)
(0.41739273 -0.69302257 0)
(0.40864771 -0.68251413 0)
(0.40012778 -0.67202269 0)
(0.39183602 -0.66155538 0)
(0.3837755 -0.65111894 0)
(0.37594508 -0.64071969 0)
(0.36833137 -0.63036369 0)
(0.36092728 -0.62005722 0)
(0.86613127 -0.9698261 0)
(0.85218465 -0.96575591 0)
(0.83818697 -0.96131433 0)
(0.82418998 -0.9565116 0)
(0.81019675 -0.95135868 0)
(0.79621483 -0.94586659 0)
(0.78225698 -0.94004658 0)
(0.76833567 -0.93391011 0)
(0.75446307 -0.92746884 0)
(0.74065105 -0.92073462 0)
(0.72691104 -0.91371946 0)
(0.71325406 -0.90643556 0)
(0.69969072 -0.89889523 0)
(0.68623119 -0.89111089 0)
(0.67288523 -0.88309502 0)
(0.65966219 -0.87486012 0)
(0.64657101 -0.8664187 0)
(0.63362024 -0.85778321 0)
(0.62081798 -0.84896603 0)
(0.60817197 -0.83997944 0)
(0.5956895 -0.83083555 0)
(0.58337748 -0.82154632 0)
(0.57124238 -0.81212352 0)
(0.55929028 -0.8025787 0)
(0.54752683 -0.79292314 0)
(0.53595726 -0.78316791 0)
(0.5245864 -0.77332376 0)
(0.51341862 -0.7634012 0)
(0.50245789 -0.75341042 0)
(0.49170773 -0.74336132 0)
(0.48117125 -0.73326349 0)
(0.47085115 -0.72312623 0)
(0.46074977 -0.71295853 0)
(0.45086916 -0.7027691 0)
(0.44121121 -0.69256632 0)
(0.43177775 -0.68235832 0)
(0.42257077 -0.67215289 0)
(0.41359256 -0.66195752 0)
(0.40484584 -0.65177938 0)
(0.3963337 -0.64162529 0)
(0.38805926 -0.63150174 0)
(0.38002143 -0.62141483 0)
(0.37220647 -0.61137038 0)
(0.36460635 -0.60137438 0)
(0.88624317 -0.94259058 0)
(0.87178104 -0.9385288 0)
(0.85727612 -0.93410848 0)
(0.84277612 -0.92934075 0)
(0.82828433 -0.92423725 0)
(0.81380897 -0.91880872 0)
(0.79936315 -0.91306614 0)
(0.78495968 -0.90702066 0)
(0.77061102 -0.90068358 0)
(0.75632928 -0.89406638 0)
(0.74212608 -0.8871807 0)
(0.72801262 -0.88003834 0)
(0.71399963 -0.87265121 0)
(0.70009742 -0.8650313 0)
(0.68631587 -0.85719066 0)
(0.67266445 -0.84914138 0)
(0.6591522 -0.84089551 0)
(0.64578775 -0.83246505 0)
(0.63257932 -0.82386193 0)
(0.6195347 -0.81509795 0)
(0.60666128 -0.80618478 0)
(0.59396601 -0.79713391 0)
(0.58145543 -0.78795664 0)
(0.56913564 -0.77866404 0)
(0.55701234 -0.76926697 0)
(0.54509077 -0.759776 0)
(0.53337576 -0.75020147 0)
(0.52187168 -0.7405534 0)
(0.51058247 -0.73084155 0)
(0.49951163 -0.72107539 0)
(0.48866221 -0.71126407 0)
(0.47803684 -0.70141647 0)
(0.46763779 -0.69154115 0)
(0.45746703 -0.6816464 0)
(0.44752634 -0.67174021 0)
(0.43781747 -0.66183029 0)
(0.4283423 -0.65192405 0)
(0.41910307 -0.64202863 0)
(0.41010244 -0.63215085 0)
(0.40134349 -0.62229724 0)
(0.39282933 -0.61247399 0)
(0.38455888 -0.60268697 0)
(0.37651813 -0.59294175 0)
(0.36869819 -0.58324403 0)
(0.90811434 -0.91630726 0)
(0.89308217 -0.91225158 0)
(0.87802634 -0.90784894 0)
(0.86297769 -0.90310967 0)
(0.8479412 -0.89804863 0)
(0.83292691 -0.89267644 0)
(0.81794827 -0.88700374 0)
(0.80301848 -0.88104134 0)
(0.7881503 -0.87480018 0)
(0.77335607 -0.86829136 0)
(0.75864762 -0.86152618 0)
(0.74403628 -0.85451602 0)
(0.72953296 -0.84727242 0)
(0.71514808 -0.83980699 0)
(0.70089166 -0.83213136 0)
(0.68677328 -0.8242572 0)
(0.67280208 -0.81619614 0)
(0.6589868 -0.80795976 0)
(0.64533575 -0.79955953 0)
(0.6318568 -0.79100683 0)
(0.6185574 -0.78231287 0)
(0.60544459 -0.77348871 0)
(0.59252493 -0.76454519 0)
(0.57980458 -0.75549296 0)
(0.56728925 -0.7463424 0)
(0.55498421 -0.73710367 0)
(0.54289429 -0.72778666 0)
(0.53102384 -0.71840097 0)
(0.5193768 -0.70895592 0)
(0.5079566 -0.69946057 0)
(0.49676626 -0.68992365 0)
(0.48580834 -0.68035362 0)
(0.47508504 -0.67075865 0)
(0.46459823 -0.66114662 0)
(0.45434959 -0.65152513 0)
(0.44434077 -0.64190151 0)
(0.43457355 -0.6322828 0)
(0.42505008 -0.62267579 0)
(0.41577294 -0.61308696 0)
(0.40674513 -0.60352253 0)
(0.39796975 -0.59398843 0)
(0.38944574 -0.58449025 0)
(0.38115881 -0.57503332 0)
(0.37309932 -0.56562303 0)
(0.93141113 -0.8908863 0)
(0.91575148 -0.88682519 0)
(0.90011029 -0.88242871 0)
(0.88447757 -0.87771257 0)
(0.86885757 -0.87268913 0)
(0.85326601 -0.8673683 0)
(0.83771694 -0.86176027 0)
(0.8222239 -0.85587537 0)
(0.80679996 -0.84972417 0)
(0.79145763 -0.84331741 0)
(0.77620891 -0.83666601 0)
(0.76106532 -0.82978101 0)
(0.74603787 -0.82267357 0)
(0.73113715 -0.81535491 0)
(0.71637328 -0.80783629 0)
(0.70175596 -0.80012897 0)
(0.68729445 -0.79224417 0)
(0.67299759 -0.78419307 0)
(0.65887377 -0.77598671 0)
(0.64493096 -0.76763605 0)
(0.63117668 -0.75915187 0)
(0.61761799 -0.7505448 0)
(0.60426155 -0.74182526 0)
(0.59111353 -0.73300346 0)
(0.57817967 -0.72408937 0)
(0.56546524 -0.71509272 0)
(0.55297508 -0.70602297 0)
(0.54071353 -0.69688932 0)
(0.52868449 -0.68770069 0)
(0.51689136 -0.6784657 0)
(0.5053371 -0.66919271 0)
(0.49402421 -0.65988977 0)
(0.48295481 -0.65056466 0)
(0.47213067 -0.64122489 0)
(0.46155338 -0.63187766 0)
(0.45122446 -0.62252995 0)
(0.44114561 -0.61318845 0)
(0.43131884 -0.60385958 0)
(0.42174663 -0.59454952 0)
(0.4124319 -0.58526419 0)
(0.40337769 -0.57600922 0)
(0.39458293 -0.56678996 0)
(0.38603316 -0.55761147 0)
(0.37771802 -0.54847885 0)
(0.98825599 -0.87340648 0)
(0.97206425 -0.86996122 0)
(0.95579094 -0.86622172 0)
(0.93951622 -0.8621447 0)
(0.92325044 -0.85775102 0)
(0.90699187 -0.85305621 0)
(0.89075492 -0.84806811 0)
(0.8745542 -0.84279597 0)
(0.85840374 -0.83724944 0)
(0.84231723 -0.83143847 0)
(0.82630788 -0.82537325 0)
(0.81038837 -0.81906418 0)
(0.79457085 -0.81252183 0)
(0.77886696 -0.80575689 0)
(0.76328788 -0.79878018 0)
(0.74784431 -0.79160254 0)
(0.7325465 -0.78423486 0)
(0.71740428 -0.77668801 0)
(0.70242701 -0.76897282 0)
(0.68762364 -0.76110005 0)
(0.67300264 -0.75308038 0)
(0.65857206 -0.74492432 0)
(0.64433949 -0.73664227 0)
(0.63031206 -0.72824442 0)
(0.61649645 -0.7197408 0)
(0.60289887 -0.71114119 0)
(0.58952508 -0.70245517 0)
(0.57638038 -0.69369205 0)
(0.56346956 -0.6848609 0)
(0.55079698 -0.67597051 0)
(0.53836648 -0.66702939 0)
(0.52618145 -0.6580458 0)
(0.51424477 -0.64902769 0)
(0.50255888 -0.63998275 0)
(0.49112582 -0.63091837 0)
(0.47994725 -0.62184168 0)
(0.46902467 -0.61275955 0)
(0.45835949 -0.60367858 0)
(0.44795326 -0.59460513 0)
(0.43780789 -0.58554528 0)
(0.42792573 -0.57650492 0)
(0.41830959 -0.56748964 0)
(0.40896243 -0.55850482 0)
(0.39988316 -0.54955554 0)
(0.39105718 -0.54064661 0)
(0.38247352 -0.53178283 0)
(1.0148478 -0.84942321 0)
(0.99796223 -0.84597084 0)
(0.98102695 -0.84220006 0)
(0.96409591 -0.83811477 0)
(0.94717106 -0.83373175 0)
(0.93026171 -0.82905951 0)
(0.91338236 -0.82410664 0)
(0.89654737 -0.81888228 0)
(0.87977094 -0.81339581 0)
(0.86306689 -0.80765685 0)
(0.84644855 -0.8016753 0)
(0.82992872 -0.79546122 0)
(0.8135197 -0.78902486 0)
(0.79723328 -0.78237658 0)
(0.78108074 -0.77552684 0)
(0.76507294 -0.76848612 0)
(0.74922026 -0.76126495 0)
(0.73353262 -0.75387382 0)
(0.71801952 -0.7463232 0)
(0.70268997 -0.73862344 0)
(0.68755256 -0.73078483 0)
(0.6726154 -0.72281749 0)
(0.65788615 -0.71473143 0)
(0.643372 -0.70653645 0)
(0.62907965 -0.69824216 0)
(0.61501536 -0.68985796 0)
(0.60118488 -0.68139303 0)
(0.58759352 -0.67285629 0)
(0.57424608 -0.66425642 0)
(0.56114688 -0.65560182 0)
(0.54829973 -0.64690064 0)
(0.53570797 -0.63816074 0)
(0.52337442 -0.62938971 0)
(0.51130146 -0.62059487 0)
(0.49949103 -0.61178325 0)
(0.48794472 -0.60296163 0)
(0.47666388 -0.59413653 0)
(0.46564982 -0.58531421 0)
(0.45490397 -0.57650068 0)
(0.44442809 -0.56770175 0)
(0.43422439 -0.55892295 0)
(0.42429557 -0.55016963 0)
(0.41464446 -0.54144687 0)
(0.40526996 -0.53275952 0)
(0.3961574 -0.52411213 0)
(0.38729523 -0.5155092 0)
(1.0420662 -0.82603304 0)
(1.0244777 -0.82254867 0)
(1.0068549 -0.81875845 0)
(0.98923953 -0.81467297 0)
(0.97163677 -0.81030173 0)
(0.95405735 -0.80565333 0)
(0.93651611 -0.80073655 0)
(0.91902767 -0.79556033 0)
(0.90160644 -0.79013381 0)
(0.88426636 -0.78446637 0)
(0.86702092 -0.77856759 0)
(0.84988305 -0.77244725 0)
(0.83286517 -0.76611525 0)
(0.81597921 -0.75958164 0)
(0.79923659 -0.75285651 0)
(0.78264829 -0.74595002 0)
(0.76622481 -0.73887232 0)
(0.74997619 -0.73163356 0)
(0.73391202 -0.72424381 0)
(0.71804143 -0.71671306 0)
(0.70237307 -0.70905122 0)
(0.68691513 -0.70126805 0)
(0.67167534 -0.69337314 0)
(0.65666091 -0.68537592 0)
(0.64187861 -0.67728563 0)
(0.6273347 -0.66911128 0)
(0.61303496 -0.66086167 0)
(0.59898467 -0.65254534 0)
(0.58518863 -0.64417059 0)
(0.57165112 -0.63574548 0)
(0.55837594 -0.62727775 0)
(0.54536636 -0.61877493 0)
(0.53262515 -0.61024424 0)
(0.52015461 -0.60169265 0)
(0.50795658 -0.59312684 0)
(0.49603257 -0.58455326 0)
(0.48438381 -0.57597808 0)
(0.47301149 -0.56740723 0)
(0.46191689 -0.55884643 0)
(0.45110163 -0.55030116 0)
(0.44056777 -0.54177667 0)
(0.43031787 -0.53327801 0)
(0.42035463 -0.52481004 0)
(0.41067694 -0.51637734 0)
(0.40127006 -0.50798422 0)
(0.39212198 -0.4996349 0)
(1.0696843 -0.80315505 0)
(1.0513793 -0.79964361 0)
(1.0330497 -0.79584167 0)
(1.0147343 -0.79175766 0)
(0.99643886 -0.78740023 0)
(0.9781748 -0.78277781 0)
(0.95995736 -0.77789893 0)
(0.94180147 -0.77277229 0)
(0.9237217 -0.7674068 0)
(0.90573218 -0.76181156 0)
(0.88784652 -0.75599587 0)
(0.87007778 -0.74996919 0)
(0.85243853 -0.74374112 0)
(0.83494081 -0.73732136 0)
(0.81759618 -0.73071968 0)
(0.80041572 -0.72394588 0)
(0.78341007 -0.71700979 0)
(0.76658937 -0.70992116 0)
(0.74996332 -0.70268974 0)
(0.73354112 -0.69532514 0)
(0.71733152 -0.6878369 0)
(0.70134277 -0.68023441 0)
(0.68558264 -0.67252689 0)
(0.6700584 -0.66472342 0)
(0.65477685 -0.65683284 0)
(0.63974425 -0.64886382 0)
(0.6249664 -0.64082477 0)
(0.61044858 -0.63272389 0)
(0.59619555 -0.62456911 0)
(0.58221159 -0.61636811 0)
(0.56850043 -0.60812832 0)
(0.55506529 -0.59985689 0)
(0.5419089 -0.59156071 0)
(0.52903345 -0.5832464 0)
(0.51644071 -0.57492032 0)
(0.50413209 -0.56658858 0)
(0.4921087 -0.55825703 0)
(0.4803716 -0.54993131 0)
(0.46892192 -0.5416168 0)
(0.45776113 -0.53331871 0)
(0.44689114 -0.52504199 0)
(0.43631434 -0.51679146 0)
(0.42603329 -0.50857169 0)
(0.41604687 -0.50038704 0)
(0.40634033 -0.4922416 0)
(0.39690124 -0.48413928 0)
(1.0974975 -0.78073495 0)
(1.0784645 -0.77720319 0)
(1.0594166 -0.77339375 0)
(1.0403904 -0.76931479 0)
(1.0213919 -0.7649746 0)
(1.0024333 -0.76038126 0)
(0.98353005 -0.75554307 0)
(0.96469737 -0.75046846 0)
(0.94594997 -0.74516606 0)
(0.92730216 -0.73964472 0)
(0.90876767 -0.73391342 0)
(0.89035971 -0.72798132 0)
(0.87209095 -0.72185771 0)
(0.85397357 -0.71555197 0)
(0.83601924 -0.70907353 0)
(0.81823917 -0.70243187 0)
(0.80064409 -0.69563644 0)
(0.78324425 -0.68869668 0)
(0.76604945 -0.68162197 0)
(0.74906898 -0.67442157 0)
(0.73231166 -0.66710467 0)
(0.71578579 -0.6596803 0)
(0.69949921 -0.65215732 0)
(0.68345921 -0.64454445 0)
(0.66767262 -0.63685019 0)
(0.65214572 -0.62908283 0)
(0.6368843 -0.62125045 0)
(0.62189363 -0.61336088 0)
(0.60717845 -0.60542171 0)
(0.59274301 -0.59744029 0)
(0.57859099 -0.5894237 0)
(0.56472556 -0.58137876 0)
(0.55114937 -0.57331201 0)
(0.53786455 -0.56522977 0)
(0.52487277 -0.55713807 0)
(0.51217532 -0.54904271 0)
(0.49977323 -0.54094923 0)
(0.48766739 -0.53286295 0)
(0.4758588 -0.52478899 0)
(0.46434877 -0.51673225 0)
(0.45313904 -0.50869743 0)
(0.44223181 -0.50068908 0)
(0.43162953 -0.49271154 0)
(0.42133101 -0.48476894 0)
(0.41132155 -0.47686515 0)
(0.40158838 -0.46900381 0)
(1.1253234 -0.75872468 0)
(1.1055553 -0.75517904 0)
(1.0857826 -0.75136755 0)
(1.0660393 -0.74729845 0)
(1.046332 -0.74297987 0)
(1.0266733 -0.73841964 0)
(1.007079 -0.73362577 0)
(0.98756443 -0.72860646 0)
(0.96814453 -0.72337005 0)
(0.94883373 -0.71792509 0)
(0.9296459 -0.71228028 0)
(0.91059438 -0.70644449 0)
(0.89169195 -0.70042667 0)
(0.8729509 -0.69423588 0)
(0.85438302 -0.68788126 0)
(0.83599963 -0.68137192 0)
(0.81781156 -0.674717 0)
(0.79982917 -0.66792559 0)
(0.78206233 -0.66100673 0)
(0.76452042 -0.65396935 0)
(0.74721231 -0.64682227 0)
(0.73014639 -0.63957419 0)
(0.71333051 -0.63223363 0)
(0.69677202 -0.62480895 0)
(0.68047774 -0.61730831 0)
(0.66445399 -0.60973966 0)
(0.64870654 -0.60211074 0)
(0.63324064 -0.59442904 0)
(0.61806103 -0.58670184 0)
(0.60317189 -0.57893612 0)
(0.58857686 -0.57113866 0)
(0.57427907 -0.56331594 0)
(0.56028108 -0.55547422 0)
(0.54658495 -0.54761947 0)
(0.53319226 -0.53975742 0)
(0.5201042 -0.53189357 0)
(0.50732165 -0.52403317 0)
(0.4948454 -0.51618126 0)
(0.48267629 -0.50834267 0)
(0.47081545 -0.50052202 0)
(0.45926445 -0.49272377 0)
(0.44802533 -0.48495221 0)
(0.43710034 -0.47721145 0)
(0.42648829 -0.46950542 0)
(0.41617453 -0.46183775 0)
(0.40614603 -0.45421184 0)
(1.153001 -0.73708194 0)
(1.1324946 -0.73353109 0)
(1.1119955 -0.72972405 0)
(1.0915333 -0.72567029 0)
(1.0711154 -0.72137838 0)
(1.0507551 -0.71685591 0)
(1.0304683 -0.71211067 0)
(1.0102706 -0.70715055 0)
(0.99017709 -0.70198365 0)
(0.97020237 -0.69661819 0)
(0.95036039 -0.69106259 0)
(0.9306646 -0.68532542 0)
(0.9111279 -0.67941531 0)
(0.89176269 -0.67334104 0)
(0.87258086 -0.66711139 0)
(0.85359382 -0.66073517 0)
(0.83481252 -0.65422119 0)
(0.81624739 -0.64757822 0)
(0.7979084 -0.64081495 0)
(0.77980499 -0.63393998 0)
(0.7619461 -0.6269618 0)
(0.74434016 -0.61988877 0)
(0.72699508 -0.61272908 0)
(0.70991822 -0.60549076 0)
(0.69311642 -0.59818163 0)
(0.67659601 -0.59080931 0)
(0.66036274 -0.58338122 0)
(0.64442185 -0.57590453 0)
(0.62877805 -0.56838617 0)
(0.61343547 -0.56083284 0)
(0.59839773 -0.55325099 0)
(0.58366786 -0.54564679 0)
(0.56924838 -0.53802619 0)
(0.55514125 -0.53039487 0)
(0.54134796 -0.52275826 0)
(0.5278696 -0.51512159 0)
(0.51470694 -0.5074898 0)
(0.50186061 -0.49986767 0)
(0.48933131 -0.49225974 0)
(0.47712 -0.4846704 0)
(0.46522807 -0.47710385 0)
(0.45365736 -0.46956415 0)
(0.44240996 -0.46205519 0)
(0.43148463 -0.45458067 0)
(0.42086683 -0.44714404 0)
(0.41054335 -0.43974845 0)
(1.1803888 -0.71577391 0)
(1.1591434 -0.71222699 0)
(1.1379221 -0.70843151 0)
(1.1167434 -0.70439882 0)
(1.0956168 -0.70013896 0)
(1.0745569 -0.69565936 0)
(1.0535797 -0.69096748 0)
(1.0327012 -0.68607093 0)
(1.0119364 -0.68097748 0)
(0.99130019 -0.67569508 0)
(0.97080655 -0.67023186 0)
(0.95046905 -0.66459607 0)
(0.93030068 -0.65879606 0)
(0.91031393 -0.65284028 0)
(0.89052081 -0.64673722 0)
(0.87093281 -0.64049537 0)
(0.85156098 -0.63412322 0)
(0.83241583 -0.62762921 0)
(0.8135074 -0.62102172 0)
(0.79484521 -0.61430901 0)
(0.77643825 -0.60749927 0)
(0.758295 -0.60060051 0)
(0.7404234 -0.59362061 0)
(0.72283083 -0.58656727 0)
(0.70552415 -0.57944799 0)
(0.68850968 -0.57227008 0)
(0.67179317 -0.56504064 0)
(0.65537983 -0.55776652 0)
(0.63927434 -0.55045436 0)
(0.6234808 -0.54311054 0)
(0.60800275 -0.5357412 0)
(0.59284318 -0.52835224 0)
(0.57800453 -0.52094931 0)
(0.56348869 -0.51353779 0)
(0.54929705 -0.50612286 0)
(0.53543059 -0.49870942 0)
(0.52188995 -0.49130219 0)
(0.50867565 -0.48390565 0)
(0.49578822 -0.47652412 0)
(0.48322845 -0.4691617 0)
(0.47099753 -0.46182239 0)
(0.45909712 -0.45451 0)
(0.44752913 -0.44722822 0)
(0.43629227 -0.43998056 0)
(0.42537215 -0.43277027 0)
(0.41475541 -0.42560025 0)
(1.2073634 -0.69479363 0)
(1.1853827 -0.69124649 0)
(1.1634476 -0.68746459 0)
(1.1415586 -0.68345838 0)
(1.1197283 -0.67923617 0)
(1.0979738 -0.67480481 0)
(1.0763115 -0.67017133 0)
(1.0547574 -0.66534299 0)
(1.0333269 -0.66032726 0)
(1.0120346 -0.65513178 0)
(0.99089471 -0.64976438 0)
(0.96992093 -0.64423303 0)
(0.94912631 -0.6385458 0)
(0.92852344 -0.63271082 0)
(0.90812441 -0.62673628 0)
(0.88794081 -0.62063036 0)
(0.86798376 -0.61440124 0)
(0.84826386 -0.60805705 0)
(0.82879122 -0.60160585 0)
(0.80957541 -0.5950556 0)
(0.79062549 -0.58841416 0)
(0.77194997 -0.58168923 0)
(0.75355681 -0.57488837 0)
(0.73545343 -0.56801897 0)
(0.71764669 -0.56108824 0)
(0.70014289 -0.55410316 0)
(0.68294779 -0.54707053 0)
(0.66606658 -0.53999691 0)
(0.64950387 -0.53288864 0)
(0.63326374 -0.5257518 0)
(0.61734968 -0.51859225 0)
(0.60176462 -0.51141561 0)
(0.58651091 -0.50422723 0)
(0.57159036 -0.49703224 0)
(0.55700429 -0.48983553 0)
(0.54275355 -0.48264175 0)
(0.52883869 -0.47545536 0)
(0.51526006 -0.46828059 0)
(0.50201805 -0.46112149 0)
(0.48911328 -0.45398196 0)
(0.47654674 -0.44686575 0)
(0.4643199 -0.43977646 0)
(0.45243447 -0.43271758 0)
(0.44088913 -0.42569245 0)
(0.42966964 -0.41870409 0)
(0.41876259 -0.41175521 0)
(1.2565546 -0.67742349 0)
(1.233828 -0.67410873 0)
(1.2111295 -0.67056381 0)
(1.1884797 -0.66680123 0)
(1.1658842 -0.66282793 0)
(1.1433575 -0.65864942 0)
(1.1209163 -0.65427194 0)
(1.0985769 -0.64970209 0)
(1.0763554 -0.64494678 0)
(1.0542671 -0.64001316 0)
(1.0323268 -0.6349086 0)
(1.0105488 -0.62964065 0)
(0.98894671 -0.62421699 0)
(0.96753377 -0.61864538 0)
(0.94632264 -0.61293369 0)
(0.92532548 -0.60708978 0)
(0.90455398 -0.60112156 0)
(0.88401932 -0.5950369 0)
(0.86373219 -0.5888436 0)
(0.84370275 -0.58254944 0)
(0.82394064 -0.57616206 0)
(0.80445495 -0.56968902 0)
(0.78525424 -0.56313771 0)
(0.7663465 -0.55651539 0)
(0.74773916 -0.54982916 0)
(0.72943907 -0.54308591 0)
(0.71145255 -0.53629234 0)
(0.69378533 -0.52945495 0)
(0.67644256 -0.52258001 0)
(0.65942884 -0.51567358 0)
(0.64274819 -0.50874147 0)
(0.62640404 -0.50178925 0)
(0.61039927 -0.49482225 0)
(0.59473615 -0.4878456 0)
(0.57941642 -0.48086413 0)
(0.56444129 -0.47388248 0)
(0.54981153 -0.46690506 0)
(0.53552755 -0.45993606 0)
(0.52158958 -0.45297949 0)
(0.50799785 -0.44603916 0)
(0.49475279 -0.43911874 0)
(0.48185522 -0.43222177 0)
(0.46930638 -0.42535165 0)
(0.45710783 -0.41851168 0)
(0.44525817 -0.411705 0)
(0.43374338 -0.40493447 0)
(0.42255001 -0.39820257 0)
(1.2831419 -0.6569881 0)
(1.2596972 -0.65368069 0)
(1.2362858 -0.65015593 0)
(1.21293 -0.64642399 0)
(1.1896387 -0.64249102 0)
(1.1664261 -0.63836259 0)
(1.1433087 -0.63404473 0)
(1.1203028 -0.62954376 0)
(1.0974244 -0.62486631 0)
(1.0746888 -0.62001925 0)
(1.0521109 -0.61500967 0)
(1.0297051 -0.60984484 0)
(1.0074849 -0.60453216 0)
(0.98546379 -0.59907912 0)
(0.96365439 -0.59349328 0)
(0.94206898 -0.58778224 0)
(0.92071931 -0.58195359 0)
(0.89961666 -0.5760149 0)
(0.87877176 -0.56997369 0)
(0.85819485 -0.56383744 0)
(0.83789561 -0.55761348 0)
(0.81788319 -0.55130908 0)
(0.79816616 -0.54493134 0)
(0.77875254 -0.53848723 0)
(0.75964978 -0.53198354 0)
(0.74086473 -0.52542688 0)
(0.72240369 -0.51882368 0)
(0.70427237 -0.51218014 0)
(0.68647591 -0.50550226 0)
(0.66901887 -0.49879582 0)
(0.6519052 -0.49206636 0)
(0.6351383 -0.4853192 0)
(0.61872097 -0.47855942 0)
(0.60265542 -0.47179184 0)
(0.58694331 -0.4650211 0)
(0.57158577 -0.45825156 0)
(0.55658345 -0.4514874 0)
(0.54193665 -0.44473258 0)
(0.52764547 -0.43799086 0)
(0.51370999 -0.43126585 0)
(0.50013046 -0.424561 0)
(0.48690748 -0.41787963 0)
(0.47404213 -0.41122498 0)
(0.46153574 -0.40460014 0)
(0.44938689 -0.39800809 0)
(0.43758178 -0.3914515 0)
(0.42610701 -0.38493265 0)
(1.3090375 -0.63679471 0)
(1.2848832 -0.63351037 0)
(1.2607746 -0.63001593 0)
(1.2367279 -0.6263218 0)
(1.2127542 -0.62243575 0)
(1.1888688 -0.61836347 0)
(1.1650881 -0.61411082 0)
(1.1414285 -0.60968389 0)
(1.1179058 -0.60508907 0)
(1.0945356 -0.60033294 0)
(1.0713326 -0.59542236 0)
(1.0483111 -0.59036429 0)
(1.0254851 -0.58516588 0)
(1.0028677 -0.57983433 0)
(0.98047191 -0.57437692 0)
(0.95830992 -0.56880097 0)
(0.9363936 -0.56311377 0)
(0.91473429 -0.55732262 0)
(0.89334279 -0.55143475 0)
(0.87222938 -0.54545732 0)
(0.8514038 -0.5393974 0)
(0.83087524 -0.53326196 0)
(0.81065229 -0.52705781 0)
(0.790743 -0.52079165 0)
(0.7711548 -0.51446997 0)
(0.75189458 -0.50809912 0)
(0.73296861 -0.50168524 0)
(0.71438258 -0.49523428 0)
(0.69614159 -0.48875195 0)
(0.67825017 -0.48224379 0)
(0.66071224 -0.47571506 0)
(0.64353113 -0.46917084 0)
(0.62670957 -0.46261594 0)
(0.61024972 -0.45605498 0)
(0.59415315 -0.44949231 0)
(0.57842089 -0.4429321 0)
(0.56305352 -0.43637826 0)
(0.54805122 -0.42983455 0)
(0.53341394 -0.42330451 0)
(0.51914162 -0.41679154 0)
(0.50523433 -0.41029888 0)
(0.49169249 -0.40382968 0)
(0.47851695 -0.39738697 0)
(0.46570886 -0.39097368 0)
(0.45326678 -0.38459261 0)
(0.44117712 -0.37824628 0)
(0.42942661 -0.37193674 0)
(1.3341755 -0.61686251 0)
(1.3093265 -0.61359883 0)
(1.2845383 -0.61013726 0)
(1.2598167 -0.60648664 0)
(1.2351759 -0.60265344 0)
(1.2106325 -0.59864302 0)
(1.1862033 -0.59446095 0)
(1.1619046 -0.59011307 0)
(1.1377523 -0.58560549 0)
(1.1137616 -0.58094456 0)
(1.0899477 -0.57613685 0)
(1.0663247 -0.57118908 0)
(1.0429065 -0.56610812 0)
(1.0197066 -0.5609009 0)
(0.99673775 -0.55557444 0)
(0.97401241 -0.55013574 0)
(0.95154246 -0.54459185 0)
(0.92933929 -0.53894976 0)
(0.90741378 -0.53321642 0)
(0.88577626 -0.52739872 0)
(0.8644365 -0.52150345 0)
(0.84340372 -0.51553729 0)
(0.82268655 -0.50950677 0)
(0.80229305 -0.50341832 0)
(0.78223066 -0.49727817 0)
(0.76250626 -0.49109238 0)
(0.74312611 -0.48486685 0)
(0.72409589 -0.47860724 0)
(0.70542066 -0.47231903 0)
(0.6871049 -0.46600749 0)
(0.6691525 -0.45967765 0)
(0.65156673 -0.45333433 0)
(0.63435027 -0.44698212 0)
(0.61750519 -0.44062538 0)
(0.60103301 -0.43426826 0)
(0.58493467 -0.42791469 0)
(0.56921063 -0.42156836 0)
(0.55386098 -0.41523283 0)
(0.53888554 -0.40891142 0)
(0.52428409 -0.40260734 0)
(0.51005654 -0.39632364 0)
(0.49620309 -0.39006329 0)
(0.48272442 -0.38382914 0)
(0.46962149 -0.37762396 0)
(0.4568928 -0.37145038 0)
(0.44452505 -0.36531076 0)
(0.4325051 -0.35920696 0)
(1.3840875 -0.60022453 0)
(1.3585136 -0.59717693 0)
(1.3329904 -0.59393683 0)
(1.3075334 -0.59051359 0)
(1.2821515 -0.58691249 0)
(1.2568598 -0.58313796 0)
(1.231675 -0.57919489 0)
(1.2066137 -0.57508853 0)
(1.1816921 -0.57082446 0)
(1.1569261 -0.56640853 0)
(1.1323309 -0.56184685 0)
(1.1079216 -0.55714573 0)
(1.0837125 -0.55231163 0)
(1.0597174 -0.54735116 0)
(1.0359499 -0.54227098 0)
(1.0124228 -0.53707782 0)
(0.98914864 -0.53177844 0)
(0.96613935 -0.52637958 0)
(0.94340639 -0.52088798 0)
(0.92096068 -0.51531031 0)
(0.8988126 -0.50965318 0)
(0.87697197 -0.5039231 0)
(0.85544803 -0.49812648 0)
(0.83424944 -0.4922696 0)
(0.81338425 -0.48635861 0)
(0.79285995 -0.48039947 0)
(0.77268337 -0.474398 0)
(0.75286079 -0.46835982 0)
(0.73339783 -0.46229037 0)
(0.71429956 -0.45619487 0)
(0.69557041 -0.45007834 0)
(0.67721422 -0.44394557 0)
(0.6592342 -0.43780117 0)
(0.64163297 -0.43164948 0)
(0.62441256 -0.42549466 0)
(0.60757439 -0.41934062 0)
(0.59111933 -0.41319107 0)
(0.57504775 -0.40704953 0)
(0.55935961 -0.40091932 0)
(0.54405463 -0.39480359 0)
(0.52913243 -0.38870534 0)
(0.51459274 -0.38262747 0)
(0.5004356 -0.37657275 0)
(0.48666145 -0.37054388 0)
(0.4732711 -0.36454347 0)
(0.46026302 -0.35857399 0)
(0.44762418 -0.35263764 0)
(0.43534163 -0.3467361 0)
(1.408249 -0.58073875 0)
(1.3820117 -0.57771865 0)
(1.3558293 -0.57451659 0)
(1.3297205 -0.57114071 0)
(1.3036963 -0.56759555 0)
(1.2777719 -0.56388539 0)
(1.2519636 -0.56001491 0)
(1.226288 -0.55598913 0)
(1.200761 -0.55181337 0)
(1.1753986 -0.54749325 0)
(1.150216 -0.54303464 0)
(1.1252282 -0.53844359 0)
(1.1004495 -0.53372632 0)
(1.0758939 -0.52888917 0)
(1.0515749 -0.52393853 0)
(1.0275055 -0.51888088 0)
(1.0036981 -0.5137227 0)
(0.98016481 -0.50847047 0)
(0.95691713 -0.50313065 0)
(0.93396604 -0.49770964 0)
(0.91132194 -0.49221379 0)
(0.88899469 -0.48664935 0)
(0.86699356 -0.48102245 0)
(0.84532724 -0.47533913 0)
(0.82400379 -0.46960526 0)
(0.80303068 -0.46382658 0)
(0.78241477 -0.45800863 0)
(0.76216229 -0.45215679 0)
(0.74227887 -0.44627627 0)
(0.72276953 -0.44037204 0)
(0.70363866 -0.4344489 0)
(0.68489006 -0.42851141 0)
(0.6665269 -0.42256395 0)
(0.64855174 -0.41661065 0)
(0.63096653 -0.41065544 0)
(0.61377264 -0.40470205 0)
(0.59697084 -0.39875397 0)
(0.58056143 -0.39281453 0)
(0.56454426 -0.38688685 0)
(0.54891892 -0.38097389 0)
(0.53368488 -0.3750785 0)
(0.51884172 -0.36920338 0)
(0.50438927 -0.36335115 0)
(0.49032782 -0.35752435 0)
(0.47665797 -0.35172544 0)
(0.46337816 -0.34595672 0)