/*--------------------------------*- C++ -*----------------------------------*\
| =========                 |                                                 |
| \\      /  F ield         | OpenFOAM: The Open Source CFD Toolbox           |
|  \\    /   O peration     | Version:  2312                                  |
|   \\  /    A nd           | Website:  www.openfoam.com                      |
|    \\/     M anipulation  |                                                 |
\*---------------------------------------------------------------------------*/
FoamFile
{
    version     2.0;
    format      ascii;
    arch        "LSB;label=32;scalar=64";
    class       volScalarField;
    location    "0.05";
    object      CH4;
}
// * * * * * * * * * * * * * * * * * * * * * * * * * * * * * * * * * * * * * //

dimensions      [0 0 0 0 0 0 0];

internalField   nonuniform List<scalar> 
3221
(
0.00021880058
0.00067865336
0.0011609707
0.0016655162
0.0021919544
0.0027398562
0.0033087038
0.0038978958
0.0045067523
0.0051345207
0.0057803812
0.0064434533
0.0071228014
0.007817441
0.008526345
0.0092484492
0.0099826577
0.010727849
0.011482878
0.012246586
0.013017798
0.013795333
0.014578002
0.015364613
0.016153976
0.016944902
0.017736208
0.018526716
0.019315251
0.020100652
0.020881769
0.02165746
0.0224266
0.023188074
0.023940784
0.024683647
0.025415593
0.026135574
0.026842555
0.027535523
0.028213481
0.028875456
0.029520493
0.030147661
0.030756052
0.031344783
0.031912997
0.032459866
0.032984598
0.033486437
0.033964675
0.034418672
0.00022156162
0.00068723986
0.0011756845
0.0016866491
0.0022197829
0.0027746388
0.0033506799
0.0039472842
0.0045637512
0.0051993071
0.005853111
0.0065242608
0.0072118
0.0079147233
0.0086319828
0.0093624941
0.010105141
0.010858783
0.011622257
0.012394384
0.013173972
0.013959822
0.014750728
0.015545482
0.016342877
0.017141709
0.017940781
0.018738898
0.019534874
0.020327534
0.021115713
0.021898261
0.022674039
0.023441923
0.024200804
0.02494959
0.025687205
0.026412591
0.027124708
0.027822536
0.028505076
0.029171347
0.029820393
0.030451279
0.031063095
0.031654955
0.032225999
0.032775394
0.033302333
0.033806038
0.034285783
0.03474105
0.00022692457
0.00070391163
0.0012042308
0.0017276129
0.0022736805
0.0028419552
0.0034318647
0.0040427495
0.0046738694
0.0053244099
0.0059934888
0.0066801626
0.0073834332
0.008102254
0.0088355363
0.0095821555
0.010340956
0.011110758
0.011890361
0.012678548
0.013474093
0.01427576
0.01508231
0.015892501
0.016705096
0.017518862
0.018332569
0.019144994
0.019954926
0.020761163
0.021562519
0.02235782
0.023145905
0.023925633
0.024695877
0.025455529
0.026203498
0.026938714
0.027660128
0.02836671
0.029057453
0.029731373
0.030387508
0.031024922
0.031642703
0.032239966
0.03281585
0.033369526
0.033900189
0.03440707
0.034889457
0.035346858
0.00023476182
0.00072827578
0.001245941
0.0017874479
0.0023523759
0.0029401994
0.0035502948
0.0041819478
0.0048343609
0.0055066601
0.0061979025
0.0069070834
0.0076331432
0.008374974
0.0091314261
0.0099013147
0.010683425
0.011476519
0.012279339
0.013090614
0.01390906
0.014733392
0.015562318
0.016394549
0.017228799
0.018063791
0.01889825
0.019730912
0.020560527
0.021385859
0.022205686
0.023018802
0.02382402
0.02462017
0.025406104
0.026180691
0.026942825
0.027691421
0.028425417
0.029143774
0.02984548
0.030529545
0.031195008
0.031840933
0.032466411
0.033070562
0.033652534
0.034211506
0.034746684
0.035257314
0.035742701
0.036202377
0.00024498135
0.00076005034
0.0013003367
0.0018654711
0.0024549708
0.0030682445
0.0037045991
0.004363247
0.005043314
0.0057438478
0.006463825
0.0072021595
0.00795771
0.0087292868
0.009515659
0.010315561
0.0111277
0.011950758
0.012783402
0.013624284
0.014472051
0.015325345
0.016182806
0.01704308
0.01790482
0.018766685
0.019627344
0.02048548
0.021339794
0.022189002
0.023031841
0.023867065
0.024693453
0.025509803
0.02631494
0.027107713
0.027886995
0.028651688
0.029400718
0.030133042
0.030847644
0.031543536
0.032219759
0.032875387
0.03350952
0.034121292
0.034709866
0.035274438
0.035814237
0.036328528
0.036816641
0.037278137
0.00025752491
0.00079905928
0.0013671213
0.0019612619
0.0025809155
0.003225404
0.0038939439
0.0045856534
0.0052995615
0.0060346159
0.006789692
0.007563601
0.0083550983
0.009162891
0.0099856455
0.010821995
0.011670544
0.012529878
0.013398566
0.014275167
0.015158235
0.01604632
0.01693798
0.01783178
0.018726289
0.019620093
0.020511791
0.021400003
0.022283368
0.023160549
0.02403023
0.024891123
0.025741967
0.026581529
0.027408604
0.028222019
0.029020633
0.029803336
0.03056905
0.031316729
0.032045364
0.032753974
0.033441615
0.034107377
0.03475038
0.035369782
0.035964771
0.036534574
0.037078448
0.037595692
0.03808567
0.038547976
0.00027236582
0.00084522559
0.0014461689
0.0020746455
0.0027299842
0.0034113974
0.0041179877
0.004848756
0.0056026108
0.0063783769
0.0071748047
0.0079905797
0.0088243304
0.0096746374
0.010540041
0.01141905
0.012310146
0.013211792
0.014122439
0.01504053
0.015964507
0.016892813
0.017823902
0.018756235
0.019688288
0.020618558
0.021545564
0.02246785
0.023383985
0.02429257
0.025192235
0.026081645
0.026959498
0.027824528
0.028675508
0.029511246
0.03033059
0.031132427
0.031915683
0.032679322
0.033422347
0.034143801
0.034842764
0.035518354
0.036169727
0.036796074
0.037396626
0.037970649
0.038517443
0.039036353
0.039526785
0.039988382
0.00028950695
0.00089856529
0.0015375137
0.0022056777
0.0029022559
0.0036263256
0.0043768496
0.0051526855
0.0059525948
0.006775253
0.0076192596
0.0084831475
0.0093653929
0.010264424
0.011178629
0.012106365
0.013045968
0.013995754
0.014954031
0.015919104
0.016889282
0.017862881
0.018838227
0.019813662
0.020787556
0.021758304
0.02272433
0.023684095
0.024636092
0.025578855
0.026510958
0.027431018
0.028337697
0.029229702
0.030105785
0.030964748
0.031805438
0.03262675
0.033427625
0.034207052
0.034964064
0.035697738
0.036407195
0.037091598
0.037750152
0.038382102
0.038986731
0.03956336
0.040111349
0.0406301
0.041119076
0.041577975
0.00030897915
0.00095918257
0.0016413422
0.0023546338
0.0030980989
0.0038706514
0.0046710855
0.0054980854
0.0063502362
0.0072260342
0.0081238978
0.0090421778
0.0099791679
0.010933114
0.011902224
0.012884677
0.01387863
0.014882228
0.015893611
0.016910921
0.017932309
0.018955937
0.019979987
0.021002672
0.022022234
0.023036954
0.024045155
0.025045204
0.026035517
0.027014561
0.027980854
0.028932971
0.029869544
0.030789262
0.031690871
0.032573176
0.033435041
0.034275384
0.035093181
0.035887461
0.036657306
0.037401846
0.038120263
0.038811784
0.039475679
0.040111263
0.040717891
0.041294957
0.041841893
0.042358172
0.042843328
0.043297125
0.00033083993
0.0010272661
0.0017579869
0.0025220003
0.0033181607
0.0041451869
0.0050016715
0.0058860923
0.0067968236
0.0077321482
0.0086902693
0.0096693212
0.010667381
0.011682479
0.012712609
0.013755738
0.014809814
0.01587278
0.016942581
0.018017166
0.019094499
0.020172569
0.021249399
0.022323049
0.023391623
0.024453278
0.025506226
0.026548742
0.027579162
0.028595889
0.029597396
0.030582223
0.031548985
0.032496369
0.033423132
0.034328103
0.035210181
0.03606833
0.036901581
0.037709028
0.038489822
0.039243171
0.039968338
0.040664633
0.041331416
0.041968089
0.042574096
0.043148921
0.043692085
0.044203146
0.044681723
0.045127656
0.0003551726
0.0011030867
0.0018879228
0.0027084696
0.0035633608
0.0044510842
0.0053699938
0.0063183224
0.0072941948
0.0082956407
0.0093206082
0.010366975
0.011432563
0.012515147
0.013612468
0.014722243
0.015842178
0.016969981
0.018103361
0.019240044
0.020377786
0.021514382
0.02264767
0.023775545
0.024895962
0.026006945
0.027106596
0.028193096
0.029264709
0.030319785
0.031356761
0.032374164
0.03337061
0.034344804
0.03529554
0.036221696
0.03712223
0.037996182
0.038842664
0.039660859
0.040450016
0.041209445
0.041938514
0.04263664
0.043303293
0.043937983
0.044540262
0.045109721
0.045645983
0.046148709
0.046617614
0.047052623
0.00038208566
0.0011869954
0.0020317647
0.0029149376
0.0038348882
0.004789833
0.0057778447
0.006796867
0.00784473
0.0089191646
0.010017817
0.011138264
0.012278022
0.013434568
0.014605345
0.015787778
0.016979291
0.018177308
0.019379271
0.020582656
0.021784982
0.022983823
0.024176816
0.025361677
0.026536204
0.027698289
0.028845924
0.029977208
0.031090345
0.032183647
0.03325554
0.03430456
0.035329352
0.036328672
0.037301376
0.038246425
0.039162871
0.040049857
0.04090661
0.041732433
0.042526701
0.043288853
0.044018387
0.044714854
0.045377852
0.046007022
0.046602043
0.047162627
0.047688518
0.048179488
0.048635361
0.049056156
0.00041171261
0.0012794239
0.002190268
0.0031425038
0.0041342023
0.0051632617
0.0062274239
0.0073242928
0.008451351
0.009605977
0.010785461
0.011987023
0.013207824
0.014444985
0.015695603
0.016956763
0.018225548
0.019499061
0.020774443
0.022048882
0.023319632
0.024584022
0.025839477
0.027083522
0.028313798
0.029528069
0.030724233
0.031900318
0.033054492
0.034185059
0.035290462
0.036369279
0.037420223
0.038442133
0.039433973
0.040394819
0.041323857
0.042220369
0.043083731
0.0439134
0.044708908
0.045469851
0.046195886
0.046886718
0.047542099
0.048161819
0.048745699
0.04929359
0.049805367
0.050280928
0.050720213
0.051123343
0.000444212
0.0013808848
0.0023643302
0.0033924756
0.0044630382
0.0055735436
0.0067213462
0.0079036498
0.0091175279
0.010359944
0.011627768
0.012917799
0.014226777
0.015551413
0.016888391
0.018234389
0.019586106
0.02094028
0.022293704
0.023643243
0.024985859
0.02631862
0.027638724
0.028943509
0.030230462
0.031497237
0.032741656
0.033961708
0.035155555
0.036321532
0.037458139
0.038564043
0.039638066
0.040679181
0.041686498
0.042659258
0.043596818
0.044498645
0.045364298
0.046193424
0.046985742
0.047741037
0.048459148
0.049139961
0.049783399
0.050389419
0.050958002
0.051489148
0.051982876
0.052439217
0.052858234
0.053240156
0.00047976789
0.0014919741
0.0025549952
0.0036663742
0.0048234155
0.0060232091
0.0072626544
0.0085384851
0.009847293
0.011185551
0.012549635
0.013935844
0.015340433
0.016759616
0.018189589
0.019626573
0.02106682
0.022506649
0.023942461
0.025370767
0.02678821
0.028191587
0.029577867
0.030944205
0.03228796
0.033606698
0.0348982
0.036160458
0.037391676
0.038590265
0.03975484
0.040884208
0.041977356
0.043033441
0.044051774
0.045031807
0.045973118
0.046875396
0.047738425
0.048562077
0.049346291
0.050091066
0.05079645
0.051462529
0.052089417
0.052677253
0.053226188
0.053736385
0.054208011
0.054641238
0.055036257
0.055393403
0.00051859071
0.0016133739
0.00276346
0.0039659449
0.0052176523
0.006515162
0.0078548393
0.0092328644
0.010645261
0.012087922
0.013556641
0.015047135
0.016555068
0.018076071
0.01960579
0.021139904
0.022674159
0.024204395
0.02572658
0.02723684
0.028731486
0.030207036
0.031660242
0.033088101
0.034487872
0.035857079
0.037193514
0.038495223
0.039760514
0.04098794
0.042176292
0.043324583
0.044432027
0.045498025
0.046522146
0.047504105
0.048443746
0.049341027
0.050195996
0.051008781
0.051779572
0.05250861
0.053196171
0.05384256
0.054448097
0.055013112
0.055537939
0.056022908
0.05646834
0.05687455
0.057241856
0.057570704
0.00056091838
0.0017458579
0.0029910831
0.0042931708
0.0056483833
0.0070527023
0.0085018649
0.0099913986
0.011516655
0.013072847
0.014655077
0.01625836
0.017877669
0.019507969
0.021144253
0.02278158
0.024415117
0.026040173
0.027652245
0.029247049
0.030820558
0.032369023
0.033889006
0.035377386
0.036831373
0.038248513
0.03962667
0.040964021
0.042259052
0.043510536
0.044717517
0.045879285
0.04699535
0.048065425
0.049089392
0.050067286
0.050999266
0.051885598
0.052726632
0.053522785
0.054274525
0.054982353
0.055646794
0.056268384
0.056847661
0.057385155
0.057881385
0.058336851
0.058752032
0.059127381
0.059463345
0.059760473
0.00060701799
0.0018902964
0.0032393961
0.0046502899
0.0061185829
0.0076395545
0.0092082012
0.010819279
0.012467349
0.014146812
0.01585194
0.017576931
0.019315951
0.021063178
0.022812853
0.024559327
0.026297114
0.028020944
0.029725807
0.031407004
0.033060178
0.034681346
0.036266924
0.037813738
0.039319024
0.040780427
0.042195971
0.043564055
0.044883435
0.046153193
0.04737271
0.048541636
0.049659852
0.050727447
0.051744681
0.052711958
0.053629799
0.05449882
0.055319705
0.056093185
0.056820029
0.057501016
0.058136933
0.058728556
0.059276644
0.059781934
0.060245129
0.060666897
0.06104787
0.061388641
0.061689776
0.061951923
0.0006571878
0.0020476651
0.0035101186
0.0050398168
0.0066315943
0.0082799032
0.009978864
0.011722325
0.0135039
0.015317016
0.017154974
0.019011008
0.020878334
0.022750216
0.024620027
0.026481317
0.028327883
0.030153827
0.031953622
0.033722156
0.03545478
0.037147333
0.038796159
0.040398116
0.04195057
0.04345136
0.044898781
0.046291564
0.047628841
0.048910102
0.05013516
0.051304108
0.052417277
0.053475199
0.054478568
0.055428211
0.056325053
0.057170091
0.057964372
0.058708966
0.059404953
0.060053408
0.060655381
0.061211896
0.061723933
0.062192432
0.062618276
0.063002298
0.063345277
0.063647935
0.063910952
0.064135065
0.00071175986
0.0022190537
0.0038051751
0.0054645693
0.0071911648
0.0089784351
0.010819471
0.012707028
0.014633584
0.016591423
0.018572698
0.0205695
0.022573934
0.024578203
0.026574694
0.028556067
0.030515335
0.032445949
0.034341867
0.036197604
0.03800828
0.039769641
0.041478068
0.043130571
0.044724761
0.046258803
0.047731394
0.049141718
0.050489401
0.051774452
0.052997214
0.05415831
0.055258594
0.056299107
0.057281034
0.058205668
0.059074372
0.059888555
0.060649646
0.061359068
0.062018226
0.062628488
0.063191176
0.063707554
0.06417882
0.064606108
0.064990477
0.065332917
0.065634339
0.065895584
0.066117435
0.066300705
0.00077110308
0.0024056777
0.0041267171
0.0059277005
0.0078014868
0.0097403992
0.011736286
0.013780591
0.015864459
0.017978811
0.020114433
0.02226207
0.024412534
0.02655681
0.028686177
0.030792315
0.032867414
0.034904269
0.036896356
0.038837891
0.040723865
0.042550056
0.044313022
0.046010073
0.047639211
0.049199083
0.050688934
0.052108544
0.053458158
0.054738414
0.055950285
0.05709501
0.058174038
0.059188979
0.060141554
0.061033558
0.061866823
0.062643189
0.063364479
0.064032476
0.064648911
0.065215446
0.065733664
0.066205064
0.066631053
0.067012949
0.067351975
0.067649256
0.067905829
0.068122638
0.068300552
0.06844045
0.00083562695
0.0026088923
0.0044771477
0.006432736
0.0084672588
0.010571651
0.012736269
0.014951015
0.01720543
0.019488811
0.021790323
0.024099132
0.026404554
0.028696191
0.030964092
0.03319889
0.035391933
0.037535392
0.039622341
0.04164681
0.043603809
0.045489313
0.047300239
0.049034369
0.050690277
0.052267271
0.053765307
0.055184907
0.056527064
0.057793162
0.058984897
0.060104203
0.06115319
0.062134085
0.063049186
0.063900817
0.064691295
0.065422901
0.066097856
0.066718304
0.067286296
0.067803774
0.068272575
0.068694417
0.069070906
0.069403522
0.069693633
0.069942489
0.07015123
0.070320886
0.070452401
0.070546698
0.00090578596
0.0028302085
0.0048591529
0.0069836301
0.009193727
0.011478712
0.013827179
0.01622717
0.01866631
0.021131955
0.023611356
0.02609184
0.028561001
0.031006894
0.03341823
0.035784555
0.038096396
0.04034538
0.04252431
0.044627203
0.04664928
0.048586932
0.050437642
0.052199873
0.053872987
0.055457143
0.056953182
0.058362518
0.059687023
0.060928934
0.06209076
0.063175199
0.064185074
0.065123271
0.065992688
0.066796196
0.067536604
0.068216634
0.068838902
0.069405898
0.069919974
0.07038335
0.070798093
0.071166126
0.071489221
0.071769007
0.072006974
0.072204479
0.072362745
0.072482872
0.072565856
0.072612627
0.00098208472
0.0030713122
0.005275747
0.0075848016
0.0099867456
0.012468872
0.015017647
0.017618875
0.020257883
0.022919719
0.025589383
0.028252065
0.030893407
0.033499758
0.036058414
0.038557835
0.040987804
0.043339549
0.045605796
0.047780778
0.049860184
0.051841077
0.053721749
0.055501597
0.057181001
0.058761174
0.06024402
0.061631991
0.062927965
0.064135128
0.065256878
0.066296737
0.06725828
0.068145076
0.068960637
0.069708384
0.070391615
0.071013481
0.071576973
0.072084911
0.072539937
0.072944519
0.073300931
0.07361127
0.073877454
0.074101234
0.074284201
0.0744278
0.074533314
0.074601888
0.07463458
0.074632154
0.001065084
0.0033340965
0.0057302992
0.00824119
0.01085288
0.013550276
0.016317275
0.019136988
0.021991984
0.024864576
0.027737121
0.030592358
0.033413744
0.036185787
0.038894337
0.04152683
0.044072458
0.046522268
0.048869181
0.051107942
0.053235023
0.055248447
0.057147607
0.058933117
0.060606614
0.062170573
0.063628131
0.064982924
0.066238942
0.067400409
0.068471672
0.069457116
0.070361093
0.071187865
0.071941557
0.072626131
0.073245352
0.073802779
0.074301759
0.074745416
0.075136655
0.075478154
0.07577237
0.076021546
0.076227711
0.076392714
0.076518221
0.076605748
0.076656604
0.076671945
0.076653133
0.076600437
0.0011554154
0.0036206745
0.0062265789
0.0089583513
0.011799498
0.014732034
0.017736749
0.020793506
0.023881576
0.026980029
0.030068152
0.033125897
0.036134322
0.039076003
0.041935381
0.044699018
0.047355756
0.049896769
0.052315526
0.054607659
0.056770772
0.058804192
0.060708755
0.062486575
0.064140792
0.065675345
0.067094768
0.068404007
0.069608259
0.070712849
0.071723117
0.072644334
0.073481633
0.074239963
0.074924046
0.075538359
0.076087103
0.07657422
0.077003381
0.077377977
0.077701131
0.077975709
0.078204313
0.078389306
0.078532779
0.078636659
0.078702642
0.078732348
0.078727014
0.078688205
0.078616574
0.078512025
0.0012537736
0.0039334109
0.0067688374
0.0097425422
0.012834873
0.016024339
0.01928796
0.022601678
0.025940824
0.02928065
0.032596901
0.035866411
0.039067662
0.042181281
0.045190428
0.048081048
0.050841985
0.053464954
0.055944411
0.05827731
0.06046279
0.062501887
0.064397229
0.06615272
0.067773242
0.06926439
0.070632241
0.071883153
0.073023605
0.074060066
0.074998887
0.075846228
0.07660799
0.077289784
0.077896898
0.078434274
0.078906529
0.079317948
0.079672469
0.079973708
0.080224967
0.08042927
0.08058932
0.080707591
0.08078614
0.080826993
0.080831758
0.08080251
0.080740129
0.080644842
0.080521363
0.080365586
0.0013609375
0.0042749729
0.0073618729
0.01060082
0.013968324
0.01743862
0.02098415
0.024576126
0.028185183
0.031782107
0.035338607
0.038828088
0.04222635
0.045512157
0.048667644
0.051678528
0.05453413
0.057227231
0.059753801
0.062112598
0.064304783
0.066333526
0.068203595
0.069920973
0.071492508
0.07292562
0.074228046
0.07540764
0.076472205
0.077429372
0.078286502
0.079050617
0.079728358
0.080325954
0.080849202
0.081303483
0.081693771
0.082024631
0.08230022
0.082524339
0.082700399
0.082831593
0.082920617
0.082970163
0.082981974
0.082958391
0.082901279
0.082810664
0.082691827
0.08254092
0.082361812
0.082154428
0.0014777831
0.0046483741
0.0080111143
0.01154117
0.01521036
0.018987703
0.022840069
0.026732973
0.030631474
0.034501178
0.038309261
0.04202545
0.04562286
0.049078624
0.052374264
0.055495813
0.058433684
0.061182361
0.063739916
0.066107491
0.068288791
0.070289549
0.072117018
0.073779527
0.07528609
0.07664609
0.077869017
0.078964263
0.079940974
0.080807929
0.081573469
0.08224544
0.082831162
0.083337418
0.083770476
0.084136092
0.084439502
0.084685524
0.08487846
0.085022268
0.08512033
0.085176145
0.085192069
0.085171575
0.085115806
0.085025483
0.084906777
0.084755552
0.084576675
0.084369924
0.084136629
0.083877375
0.0016052965
0.0050570293
0.0087227265
0.01257265
0.016572872
0.020686013
0.024872163
0.029089985
0.033297961
0.037455752
0.041525534
0.045473208
0.049269363
0.052889912
0.05631637
0.059535801
0.062540476
0.065327303
0.067897151
0.070254193
0.072405205
0.074358901
0.076125347
0.077715458
0.079140578
0.080412154
0.081541477
0.082539493
0.083416667
0.084182892
0.08484743
0.085418879
0.085905164
0.086313571
0.08665076
0.086922769
0.087135
0.08729254
0.087399677
0.087460631
0.087478294
0.087457216
0.087398597
0.08730681
0.087183032
0.087026541
0.086842672
0.086630989
0.08639336
0.086130535
0.085843396
0.085532547
0.0017445908
0.0055048225
0.0095037359
0.013705579
0.018069345
0.022549799
0.027098778
0.031666725
0.036204425
0.04066481
0.045004667
0.049186088
0.053177503
0.05695425
0.06049866
0.063799735
0.066852492
0.069657104
0.072218039
0.074543151
0.076642809
0.078529112
0.080215232
0.081714864
0.083041803
0.084209615
0.085231401
0.08611963
0.086886037
0.087541552
0.08809628
0.088559473
0.088939599
0.089244346
0.089480666
0.089654837
0.089772187
0.089838309
0.089857004
0.089833445
0.089768859
0.089669841
0.089536894
0.089371908
0.089177823
0.088955626
0.088707823
0.088435342
0.088139399
0.087820847
0.087480403
0.087118551
0.0018969274
0.0059961901
0.010362186
0.014951749
0.019715122
0.024597406
0.02954039
0.03448471
0.039372226
0.044148383
0.048764343
0.053178632
0.057358167
0.061278628
0.064924228
0.068286998
0.071365728
0.074164844
0.076693231
0.078963082
0.080988857
0.082786408
0.084372253
0.085763014
0.086974999
0.088023896
0.088924577
0.089690964
0.090335973
0.090871474
0.091308287
0.091656252
0.091924268
0.092120273
0.092251449
0.092324381
0.092343593
0.092316308
0.092244674
0.09213562
0.091988165
0.091808241
0.091600361
0.09136304
0.091099131
0.09081077
0.090499604
0.0901667
0.089813047
0.089439443
0.089046496
0.088634492
0.002063742
0.0065362231
0.011307324
0.016324695
0.021527721
0.026849585
0.03221987
0.037567582
0.042824353
0.04792749
0.052822522
0.057464971
0.061821223
0.065868536
0.069594331
0.072994928
0.076074107
0.078841588
0.081311506
0.083501026
0.085429165
0.087115832
0.08858107
0.089844508
0.090924964
0.0918402
0.092606767
0.093239924
0.09375365
0.094160597
0.094472232
0.094698835
0.094849596
0.094932549
0.094955003
0.09492447
0.094842864
0.09472069
0.094558634
0.094360772
0.094129821
0.093868528
0.093587826
0.093277747
0.092944134
0.092590001
0.092216202
0.091823632
0.091413116
0.090985387
0.090541021
0.090079959
0.0022466753
0.0071307937
0.012349839
0.017840022
0.023527204
0.029329859
0.03516278
0.040941281
0.046585464
0.052024038
0.057197243
0.062058567
0.066575253
0.070727724
0.07450816
0.07791868
0.080969388
0.083676361
0.086059798
0.088142432
0.089948231
0.091501389
0.092825582
0.093943444
0.094876236
0.09564368
0.096263865
0.096753219
0.09712663
0.097397394
0.097577511
0.097677468
0.097706724
0.097673071
0.09758451
0.097449203
0.097265305
0.097043132
0.096793065
0.096506402
0.096191933
0.095852686
0.095493238
0.095111751
0.094710581
0.094291792
0.093856409
0.09340522
0.092938907
0.09245817
0.091963789
0.091455006
0.0024476121
0.0077867129
0.013502149
0.019515808
0.025736642
0.032064959
0.038397699
0.044634226
0.050681897
0.056460703
0.061906402
0.066971939
0.071627271
0.075857899
0.079662635
0.083051108
0.086041115
0.088656154
0.090923263
0.092871261
0.094529369
0.095926209
0.097089099
0.098043598
0.098813263
0.0994196
0.099882055
0.10021796
0.10044303
0.10057096
0.1006142
0.10058309
0.10048844
0.10033547
0.10013314
0.099891269
0.099604311
0.099285374
0.098940896
0.098568
0.098170879
0.097753216
0.097317942
0.096865538
0.096397488
0.095915249
0.095419564
0.09491105
0.094390177
0.093857588
0.093315057
0.092760172
0.0026687288
0.0085119283
0.01477877
0.021373102
0.028182666
0.035085329
0.041956601
0.0486775
0.055141671
0.061260763
0.066967493
0.072216364
0.076982387
0.081258473
0.085052254
0.088382658
0.091276579
0.093765958
0.095885364
0.097670113
0.099154874
0.10037272
0.10135452
0.10212861
0.10272058
0.1031535
0.10344795
0.10362179
0.10369167
0.10367105
0.10357397
0.10340855
0.10318769
0.10291262
0.10259616
0.10224362
0.10185509
0.10143847
0.10100321
0.10054399
0.10006453
0.099569141
0.099059921
0.098537851
0.098004138
0.097459963
0.096905494
0.096341183
0.095767141
0.095183517
0.094595549
0.093996564
0.0029125526
0.0093157748
0.016196777
0.023436554
0.030896141
0.038425724
0.045875266
0.053105043
0.059994459
0.066447914
0.072397316
0.077801525
0.082643501
0.08692636
0.090668927
0.093901289
0.096660815
0.098988823
0.10092798
0.10252038
0.10380619
0.10482282
0.10560454
0.10618214
0.10658295
0.10683131
0.10694877
0.10695298
0.10686265
0.1066896
0.10644924
0.10614624
0.10579429
0.10539635
0.10496755
0.10450643
0.10401492
0.10349888
0.10297774
0.10243267
0.10187122
0.1012995
0.10071815
0.10012802
0.099530181
0.098925986
0.098314453
0.097696139
0.097070626
0.096435383
0.09580657
0.095166111
0.0031820361
0.010209296
0.017776396
0.025735194
0.033913
0.042125919
0.050193753
0.057953845
0.06527154
0.072046048
0.078211659
0.083735156
0.088611025
0.09285574
0.096501827
0.099592413
0.10217663
0.10430595
0.10603157
0.10740244
0.10846411
0.10925811
0.10982179
0.11018812
0.11038559
0.11043948
0.11037258
0.11020227
0.10994794
0.10961739
0.10922659
0.10878821
0.10830652
0.10778188
0.10724428
0.10667629
0.10608187
0.10547325
0.10485728
0.10422849
0.1035895
0.1029437
0.10229227
0.10163592
0.10097557
0.10031387
0.099647046
0.098976814
0.098302693
0.0034806518
0.011205658
0.019541763
0.028303426
0.037275257
0.046231544
0.05495694
0.063264161
0.071005748
0.078079015
0.084424915
0.090022697
0.094882582
0.099037832
0.10253727
0.10543887
0.10780464
0.10969683
0.1111753
0.11229579
0.11310898
0.11366003
0.11398906
0.11413089
0.11411427
0.11396649
0.1137104
0.11335912
0.11293206
0.11244597
0.11190258
0.11133011
0.11072135
0.11007344
0.10941994
0.10874438
0.10805203
0.10735112
0.10664574
0.10593481
0.10521954
0.10450181
0.10378251
0.10306195
0.10234035
0.10162483
0.10090409
0.1001841
0.099463323
0.0038125119
0.012320692
0.021521911
0.031182292
0.041032268
0.050795095
0.060215145
0.069079762
0.077231406
0.084570307
0.091049716
0.09666695
0.1014527
0.10546068
0.1087586
0.11142091
0.1135234
0.11513935
0.11633726
0.11717937
0.11772092
0.11801014
0.11808945
0.11799581
0.11775794
0.11740098
0.11694509
0.11641313
0.11581049
0.11517138
0.11448088
0.11376711
0.11302468
0.11225588
0.11149669
0.1107146
0.10992434
0.10913282
0.10834169
0.10755104
0.10676158
0.10597429
0.10518961
0.10440718
0.10362404
0.10286123
0.10208641
0.10131924
0.10055397
0.0041825235
0.013573608
0.023752065
0.034421089
0.045242294
0.055877141
0.06602488
0.075448239
0.083984278
0.091542792
0.098096605
0.1036677
0.1083125
0.11210896
0.11514612
0.11751628
0.11930949
0.12061005
0.1214947
0.12203166
0.12228012
0.12229027
0.12210834
0.12177094
0.12129878
0.12072855
0.12007028
0.11935914
0.11858621
0.11778288
0.11693867
0.11609671
0.11522352
0.11434083
0.11346367
0.11258094
0.11169773
0.11081845
0.10994482
0.10907728
0.1082162
0.10736198
0.10651468
0.10567392
0.10483921
0.10401668
0.10319045
0.10238386
0.10157664
0.0045965896
0.014987956
0.026275362
0.038079463
0.049974462
0.061547832
0.072449795
0.082421445
0.091301557
0.09901849
0.10557365
0.1110213
0.11544934
0.11896376
0.12167704
0.12370024
0.12513773
0.12608428
0.12662422
0.12683104
0.12676702
0.12648599
0.12603109
0.12543473
0.12472612
0.123943
0.12308937
0.1221853
0.1212332
0.12028247
0.1192917
0.11830537
0.11731019
0.1163151
0.11532822
0.11434668
0.11337258
0.11240847
0.11145557
0.11051419
0.10958437
0.10866604
0.10775892
0.1068625
0.10597644
0.10510213
0.10423362
0.10337788
0.10252279
0.0050618742
0.016592929
0.029145153
0.04223013
0.055311255
0.067888785
0.07956193
0.090056087
0.099222
0.10701837
0.11348601
0.11872022
0.1228465
0.12600244
0.12832549
0.12994573
0.13098136
0.1315365
0.13170205
0.13155721
0.13116621
0.13057444
0.12983836
0.12898043
0.12804366
0.12703591
0.12596765
0.12489156
0.12376862
0.12265086
0.12152263
0.12040151
0.11928574
0.11817996
0.11708868
0.11601153
0.11494947
0.11390373
0.11287489
0.11186289
0.1108674
0.10988794
0.10892386
0.10797442
0.10703894
0.10611712
0.10520608
0.10430728
0.10341533
0.0055871549
0.018425164
0.032428135
0.046962462
0.061351717
0.074995579
0.087443483
0.098414744
0.10778629
0.11556214
0.12183552
0.12675256
0.13048281
0.13319844
0.1350625
0.13622352
0.13681233
0.13694055
0.13670682
0.1361922
0.13544952
0.13454001
0.13352053
0.13241157
0.13121593
0.12999722
0.12872879
0.12745624
0.12617264
0.1248987
0.12363254
0.12238239
0.12114933
0.11993601
0.11874484
0.11757588
0.11642932
0.11530544
0.11420413
0.11312489
0.11206695
0.11102944
0.11001135
0.10901162
0.10802919
0.10706301
0.10611109
0.1051729
0.10424541
0.0061833016
0.020531289
0.036208666
0.052387281
0.068215701
0.082981176
0.096187732
0.10756411
0.11703373
0.12466495
0.13061831
0.13510095
0.13833221
0.14052117
0.14185612
0.1425024
0.14260162
0.1422739
0.14161647
0.14070419
0.13960494
0.13838611
0.13706324
0.13568859
0.13426509
0.13280855
0.1313451
0.12989027
0.12844576
0.12702218
0.12562117
0.12424698
0.12290082
0.12158397
0.12029736
0.11904069
0.11781348
0.11661517
0.11544503
0.11430202
0.11318497
0.11209258
0.11102348
0.10997629
0.10894957
0.10794184
0.10695126
0.1059765
0.10501533
0.0068639379
0.02297158
0.0405948
0.058643366
0.076049684
0.091977001
0.10589551
0.11756962
0.12699697
0.13433297
0.13982152
0.14374047
0.14636298
0.14793584
0.14867154
0.14874946
0.14832503
0.14750752
0.14639768
0.14508081
0.14363535
0.14207246
0.14046876
0.13881715
0.13714582
0.13547564
0.13381987
0.13218918
0.13058718
0.12901967
0.12748838
0.12599528
0.12454076
0.12312491
0.12174746
0.12040744
0.11910366
0.11783485
0.11659962
0.11539643
0.11422366
0.1130796
0.11196254
0.11087076
0.10980249
0.10875589
0.10772904
0.10672023
0.10572743
0.0076463823
0.025825353
0.045726877
0.06590657
0.085030076
0.10212996
0.11667065
0.12849119
0.13769853
0.14456075
0.1494212
0.15263679
0.15453672
0.1554036
0.15547134
0.15493717
0.15394754
0.15260741
0.1510344
0.14932579
0.14748806
0.14561809
0.14369929
0.14177963
0.13987377
0.13799429
0.13615088
0.13435059
0.13259627
0.13089073
0.12923458
0.12762802
0.12607031
0.12456039
0.12309688
0.12167804
0.12030196
0.11896668
0.1176702
0.11641048
0.11518542
0.11399294
0.11283099
0.11169751
0.11059043
0.1095076
0.10844692
0.10740643
0.10638408
0.0085530341
0.029199119
0.051790006
0.074398435
0.095363699
0.11359983
0.12861561
0.14037866
0.14914721
0.15532884
0.1593809
0.16174571
0.16280787
0.16288127
0.16222448
0.16102106
0.15943463
0.15755349
0.15553156
0.15337478
0.15119485
0.14896781
0.14675726
0.14457904
0.14244429
0.14036146
0.13833659
0.13637343
0.13447304
0.13263581
0.1308608
0.12914658
0.12749118
0.12589237
0.12434776
0.12285478
0.12141078
0.12001316
0.11865933
0.11734673
0.11607284
0.1148352
0.1136314
0.11245911
0.11131597
0.11019947
0.10910736
0.10803749
0.10698769