/*--------------------------------*- C++ -*----------------------------------*\
| =========                 |                                                 |
| \\      /  F ield         | OpenFOAM: The Open Source CFD Toolbox           |
|  \\    /   O peration     | Version:  2312                                  |
|   \\  /    A nd           | Website:  www.openfoam.com                      |
|    \\/     M anipulation  |                                                 |
\*---------------------------------------------------------------------------*/
FoamFile
{
    version     2.0;
    format      ascii;
    arch        "LSB;label=32;scalar=64";
    class       volScalarField;
    location    "0.05";
    object      CO2;
}
// * * * * * * * * * * * * * * * * * * * * * * * * * * * * * * * * * * * * * //

dimensions      [0 0 0 0 0 0 0];

internalField   nonuniform List<scalar> 
3221
(
8.8659478e-05
0.0002750558
0.00047074675
0.00067578018
0.00089017477
0.0011139219
0.0013469871
0.0015893109
0.0018408107
0.0021013816
0.0023708984
0.0026492168
0.0029361749
0.0032315953
0.0035352862
0.003847043
0.0041666501
0.0044938821
0.0048285049
0.0051702773
0.0055189519
0.005874276
0.0062359926
0.0066038412
0.0069775583
0.0073568781
0.0077415341
0.0081312564
0.0085257733
0.008924813
0.0093281029
0.0097353693
0.010146338
0.010560733
0.010978278
0.011398696
0.011821706
0.012247029
0.01267438
0.013103474
0.013534022
0.013965733
0.014398308
0.014831448
0.015264847
0.015698191
0.016131162
0.016563432
0.016994665
0.017424515
0.017852622
0.018278609
8.9475071e-05
0.00027759669
0.00047510851
0.00068205705
0.00089845802
0.001124299
0.0013595412
0.0016041208
0.0018579503
0.0021209199
0.0023928995
0.0026737395
0.0029632729
0.003261317
0.0035676745
0.0038821356
0.0042044792
0.0045344743
0.0048718814
0.0052164539
0.0055679387
0.0059260778
0.0062906088
0.0066612656
0.0070377794
0.0074198798
0.0078072945
0.0081997486
0.0085969656
0.0089986692
0.0094045823
0.0098144271
0.010227925
0.010644797
0.011064764
0.011487544
0.011912855
0.012340415
0.012769937
0.013201136
0.013633721
0.014067399
0.014501874
0.014936845
0.015372006
0.015807047
0.016241651
0.016675493
0.017108242
0.017539558
0.017969089
0.018396438
9.1064194e-05
0.00028254317
0.00048358926
0.00069424591
0.00091452453
0.0011444069
0.001383847
0.001632773
0.0018910886
0.0021586749
0.0024353918
0.0027210799
0.003015562
0.0033186446
0.0036301201
0.0039497677
0.0042773554
0.0046126412
0.0049553747
0.0053052979
0.0056621468
0.0060256522
0.0063955408
0.0067715358
0.0071533576
0.0075407258
0.0079333574
0.0083309669
0.0087332691
0.0091399785
0.0095508092
0.0099654755
0.010383691
0.01080517
0.011229627
0.011656775
0.012086327
0.012517996
0.012951495
0.013386533
0.013822819
0.014260061
0.014697961
0.015136221
0.015574537
0.016012601
0.0164501
0.016886713
0.017322114
0.017755969
0.01818793
0.018617603
9.3384841e-05
0.00028976671
0.0004959712
0.00071203461
0.00093796075
0.0011737225
0.0014192638
0.0016745014
0.0019393264
0.0022136065
0.0024971877
0.0027898957
0.0030915383
0.0034019064
0.0037207762
0.0040479109
0.0043830619
0.0047259705
0.0050763694
0.0054339838
0.0057985329
0.0061697307
0.006547287
0.0069309085
0.0073203004
0.0077151657
0.0081152053
0.0085201195
0.008929609
0.0093433749
0.0097611188
0.010182543
0.01060735
0.011035246
0.011465934
0.011899121
0.012334515
0.012771824
0.013210755
0.013651016
0.014092316
0.014534362
0.014976859
0.01541951
0.015862016
0.016304073
0.016745375
0.017185609
0.017624457
0.018061591
0.018496673
0.018929318
9.6404143e-05
0.00029916638
0.00051208301
0.00073517889
0.00096844598
0.0012118445
0.0014653043
0.0017287269
0.0020019871
0.0022849349
0.0025773976
0.0028791816
0.0031900743
0.0035098459
0.0038382512
0.0041750315
0.0045199158
0.004872623
0.0052328628
0.0056003375
0.0059747432
0.006355771
0.006743108
0.007136439
0.0075354474
0.007939814
0.0083492188
0.008763343
0.0091818687
0.0096044793
0.01003086
0.010460697
0.010893681
0.011329505
0.011767861
0.012208449
0.012650969
0.013095123
0.013540615
0.013987153
0.014434445
0.014882199
0.015330125
0.015777931
0.016225324
0.016672011
0.017117692
0.017562065
0.018004825
0.018445656
0.018884234
0.019320188
0.00010009763
0.00031066765
0.00053179892
0.00076350039
0.0010057477
0.0012584837
0.0015216199
0.0017950381
0.0020785921
0.0023721095
0.0026753942
0.0029882281
0.0033103728
0.0036415721
0.0039815535
0.0043300304
0.0046867034
0.0050512623
0.0054233877
0.0058027524
0.0061890229
0.0065818607
0.0069809241
0.0073858699
0.0077963522
0.0082120244
0.0086325416
0.0090575601
0.0094867389
0.0099197394
0.010356227
0.010795871
0.011238344
0.011683326
0.012130499
0.012579551
0.013030177
0.013482073
0.013934943
0.014388493
0.014842435
0.015296481
0.015750347
0.01620375
0.016656409
0.01710804
0.01755836
0.01800708
0.018453911
0.018898555
0.019340704
0.019780011
0.00010444894
0.00032422158
0.00055503726
0.00079688452
0.0010497178
0.0013134579
0.0015879928
0.0018731794
0.0021688453
0.0024747906
0.0027907902
0.0031165953
0.0034519364
0.0037965242
0.0041500528
0.0045122006
0.004882633
0.0052610038
0.0056469573
0.0060401296
0.0064401507
0.0068466459
0.0072592379
0.0076775467
0.0081011916
0.0085297941
0.0089629778
0.0094003698
0.009841601
0.010286308
0.010734132
0.011184723
0.011637737
0.012092837
0.012549694
0.013007988
0.013467407
0.013927646
0.014388407
0.0148494
0.015310342
0.015770955
0.016230965
0.016690102
0.017148099
0.017604691
0.018059611
0.018512592
0.018963366
0.019411656
0.01985718
0.020299613
0.00010944949
0.00033980372
0.00058175867
0.00083527791
0.0011002897
0.0013766871
0.0016643294
0.0019630429
0.002272623
0.0025928362
0.0029234218
0.0032640944
0.0036145458
0.0039744471
0.004343451
0.004721194
0.0051072981
0.0055013733
0.0059030195
0.0063118281
0.0067273851
0.0071492721
0.0075770669
0.0080103465
0.0084486899
0.0088916797
0.0093389027
0.0097899516
0.010244426
0.010701933
0.011162091
0.011624525
0.012088874
0.012554786
0.013021923
0.013489955
0.013958569
0.014427458
0.01489633
0.015364902
0.015832901
0.01630006
0.016766123
0.017230839
0.017693962
0.018155246
0.018614453
0.019071339
0.019525662
0.019977175
0.020425622
0.020870714
0.00011509808
0.00035741295
0.00061196427
0.00087868579
0.0011574742
0.0014481895
0.0017506557
0.0020646622
0.0023899657
0.0027262919
0.0030733376
0.0034307728
0.0037982428
0.0041753709
0.00456176
0.0049569957
0.0053606477
0.0057722732
0.0061914184
0.0066176221
0.0070504165
0.0074893291
0.0079338862
0.0083836158
0.0088380487
0.0092967221
0.0097591809
0.010224979
0.010693681
0.011164864
0.011638118
0.012113047
0.012589272
0.013066428
0.013544168
0.014022159
0.014500087
0.014977652
0.01545457
0.01593057
0.016405394
0.016878799
0.017350547
0.017820414
0.018288179
0.018753628
0.01921655
0.019676736
0.020133975
0.020588054
0.021038751
0.021485816
0.00012140049
0.00037707043
0.00064569384
0.00092716959
0.0012213572
0.0015280772
0.0018471118
0.0021782065
0.0025210714
0.0028753835
0.0032407885
0.0036169031
0.004003317
0.0043995957
0.0048052827
0.005219902
0.005642961
0.0060739533
0.0065123624
0.0069576624
0.0074093206
0.007866803
0.0083295761
0.0087971101
0.0092688813
0.0097443754
0.01022309
0.010704537
0.011188244
0.011673755
0.012160634
0.012648464
0.013136849
0.013625416
0.014113812
0.014601708
0.015088794
0.015574781
0.0160594
0.016542402
0.017023552
0.017502632
0.017979435
0.018453768
0.018925445
0.019394289
0.019860125
0.020322783
0.02078209
0.021237873
0.021689951
0.022138115
0.00012836915
0.0003988185
0.00068302413
0.00098084466
0.0012920964
0.0016165534
0.0019539489
0.002303976
0.00266629
0.0030405098
0.0034262202
0.003822974
0.0042302945
0.0046476779
0.0050745965
0.0055105012
0.0059548244
0.0064069855
0.0068663909
0.0073324373
0.0078045192
0.0082820302
0.0087643676
0.0092509355
0.0097411487
0.010234436
0.010730245
0.011228041
0.011727315
0.012227578
0.012728369
0.013229254
0.013729825
0.014229704
0.01472854
0.015226013
0.015721826
0.01621571
0.01670742
0.017196734
0.017683449
0.018167383
0.018648367
0.019126247
0.019600881
0.020072134
0.020539876
0.02100398
0.021464321
0.02192077
0.022373191
0.022821425
0.00013602282
0.00042271976
0.00072406741
0.0010398783
0.0013699188
0.0017139093
0.0020715253
0.0024423987
0.0028261197
0.0032222383
0.003630267
0.0040496824
0.0044799283
0.0049204185
0.0053705399
0.0058296563
0.0062971122
0.0067722356
0.0072543417
0.0077427405
0.0082367398
0.0087356503
0.00923879
0.0097454892
0.010255095
0.010766975
0.011280523
0.01179516
0.012310337
0.012825538
0.013340279
0.013854113
0.014366629
0.014877452
0.015386243
0.015892695
0.016396538
0.01689753
0.017395461
0.017890147
0.018381425
0.018869159
0.019353227
0.019833524
0.020309957
0.020782443
0.021250902
0.021715261
0.022175444
0.022631374
0.023082964
0.023530109
0.00014438622
0.00044885626
0.00076897022
0.0011044883
0.0014551196
0.0018205222
0.0022003047
0.0025940272
0.003001203
0.0034213009
0.003853747
0.0042979274
0.004753191
0.0052188528
0.0056941993
0.0061784899
0.0066709617
0.007170836
0.0076773245
0.008189634
0.0087069729
0.0092285573
0.0097536166
0.0102814
0.010811182
0.011342266
0.011873991
0.012405735
0.012936912
0.013466984
0.013995452
0.014521865
0.015045817
0.015566945
0.016084933
0.016599502
0.017110417
0.017617476
0.018120515
0.018619397
0.019114015
0.019604283
0.020090139
0.020571534
0.021048434
0.021520813
0.021988652
0.022451934
0.02291064
0.023364747
0.023814226
0.024259028
0.00015348982
0.0004773288
0.00081791238
0.0011749416
0.0015480599
0.0019368541
0.0023408546
0.0027595374
0.0031923256
0.0036385915
0.0040976587
0.0045688053
0.0050512668
0.0055442427
0.0060468966
0.006558362
0.007077752
0.007604164
0.0081366873
0.00867441
0.0092164275
0.0097618496
0.010309809
0.010859466
0.011410021
0.011960712
0.012510826
0.013059699
0.01360672
0.014151332
0.014693034
0.015231381
0.015765985
0.016296509
0.016822671
0.017344236
0.017861015
0.018372861
0.018879667
0.019381357
0.019877886
0.020369237
0.02085541
0.021336424
0.021812311
0.022283111
0.022748869
0.023209632
0.023665443
0.02411634
0.024562349
0.025003486
0.00016336963
0.00050825644
0.00087110633
0.0012515536
0.0016491671
0.0020634511
0.0024938455
0.0029397279
0.0034004149
0.0038751644
0.0043631784
0.0048636057
0.0053755491
0.0058980656
0.0064301717
0.0069708564
0.0075190857
0.0080738118
0.0086339824
0.0091985504
0.0097664842
0.010336777
0.010908456
0.011480592
0.012052306
0.012622777
0.013191243
0.013757008
0.014319444
0.014877988
0.015432151
0.015981508
0.016525705
0.017064446
0.017597501
0.018124691
0.018645891
0.019161021
0.019670045
0.020172961
0.0206698
0.021160616
0.021645488
0.02212451
0.022597786
0.02306543
0.023527556
0.02398428
0.02443571
0.024881947
0.025323081
0.025759189
0.00017406695
0.00054177609
0.00092879677
0.0013346881
0.0017589341
0.0022009439
0.0026600521
0.0031355209
0.0036265411
0.004132235
0.0046516596
0.0051838116
0.0057276299
0.0062820015
0.0068457741
0.0074177633
0.0079967627
0.0085815562
0.0091709296
0.0097636836
0.010358646
0.010954685
0.011550717
0.012145721
0.012738745
0.013328912
0.013915423
0.014497561
0.015074695
0.015646275
0.016211838
0.016771
0.017323458
0.017868977
0.018407393
0.018938604
0.019462563
0.019979274
0.020488783
0.020991175
0.021486567
0.0219751
0.022456935
0.02293225
0.023401229
0.023864064
0.024320943
0.024772055
0.025217577
0.025657676
0.026092506
0.026522211
0.00018562831
0.00057804241
0.00099126069
0.0014247578
0.0018779208
0.002350049
0.0028403548
0.0033479641
0.003871919
0.0044111813
0.0049646352
0.005531091
0.0061092929
0.0066979306
0.0072956486
0.0079010589
0.0085127548
0.0091293265
0.009749377
0.010371538
0.010994486
0.011616956
0.012237755
0.012855773
0.013469991
0.014079488
0.014683443
0.015281136
0.015871951
0.016455372
0.017030985
0.017598468
0.018157589
0.018708194
0.019250207
0.019783619
0.020308478
0.020824885
0.021332986
0.021832964
0.022325032
0.022809425
0.023286399
0.023756218
0.024219155
0.02467548
0.025125464
0.025569368
0.026007441
0.026439917
0.026867016
0.02728895
0.00019810537
0.00061722782
0.0010588077
0.0015222247
0.0020067552
0.0025115716
0.0030357426
0.0035782341
0.0041379129
0.0047135476
0.0053038121
0.0059072959
0.0065225146
0.0071479206
0.0077819189
0.0084228833
0.0090691762
0.009719168
0.010371258
0.011023895
0.011675593
0.012324955
0.012970679
0.013611576
0.014246576
0.014874731
0.015495216
0.01610733
0.016710499
0.017304266
0.01788829
0.018462336
0.019026265
0.019580029
0.020123659
0.020657256
0.021180983
0.021695052
0.022199721
0.022695282
0.023182054
0.023660377
0.024130603
0.024593094
0.025048209
0.025496309
0.025937741
0.026372843
0.026801936
0.027225322
0.027643286
0.02805611
0.00021155491
0.00065952277
0.0011317812
0.0016276026
0.0021461367
0.0026864085
0.0032473181
0.0038276437
0.0044260401
0.0050410418
0.0056710747
0.0063144657
0.0069694555
0.0076342158
0.00830687
0.0089855161
0.0096682525
0.010353204
0.011038546
0.011722532
0.012403515
0.013079963
0.013750479
0.014413811
0.015068856
0.015714664
0.016350431
0.016975508
0.017589389
0.018191706
0.01878222
0.019360808
0.019927454
0.020482233
0.021025307
0.021556907
0.022077322
0.022586894
0.023086004
0.023575062
0.024054503
0.024524776
0.024986339
0.025439651
0.025885165
0.026323327
0.026754568
0.0271793
0.027597915
0.028010783
0.028418251
0.028820671
0.00022603887
0.00070513624
0.001210559
0.0017414587
0.0022968391
0.0028755533
0.0034763052
0.0040976451
0.0047379717
0.0053955443
0.0060684909
0.0067548228
0.0074524536
0.0081592238
0.0088729284
0.0095913487
0.010312285
0.011033592
0.011753206
0.012469179
0.013179701
0.013883124
0.01457797
0.015262947
0.015936951
0.016599054
0.017248514
0.017884763
0.018507401
0.019116179
0.019710992
0.020291859
0.020858908
0.021412368
0.021952547
0.022479823
0.022994632
0.023497455
0.023988805
0.024469221
0.024939261
0.025399488
0.025850466
0.026292758
0.02672691
0.027153457
0.027572908
0.027985751
0.028392446
0.028793425
0.029189091
0.029579866
0.00024162442
0.00075429644
0.0012955558
0.0018644171
0.0024597157
0.0030801057
0.0037240529
0.0043898336
0.0050755453
0.0057791149
0.0064983119
0.0072307704
0.0079740161
0.0087255006
0.0094826394
0.010242854
0.011003615
0.011762481
0.012517144
0.013265454
0.014005451
0.014735388
0.015453737
0.016159199
0.016850699
0.017527377
0.018188588
0.018833889
0.01946302
0.020075891
0.020672561
0.021253218
0.021818167
0.022367805
0.022902612
0.023423129
0.02392995
0.024423706
0.024905054
0.025374667
0.025833228
0.026281419
0.026719915
0.027149378
0.027570453
0.027983759
0.028389885
0.028789388
0.029182793
0.02957059
0.029953217
0.03033115
0.00025838416
0.00080725186
0.0013872252
0.001997163
0.0026357078
0.0033012737
0.0039920406
0.0047059627
0.0054407732
0.0061939975
0.0069629749
0.0077448895
0.0085368093
0.0093357327
0.010138641
0.010942552
0.011744577
0.012541966
0.013332159
0.014112819
0.014881858
0.015637462
0.01637809
0.017102477
0.017809622
0.018498781
0.019169453
0.019821362
0.020454431
0.021068764
0.021664617
0.022242381
0.022802558
0.023345738
0.023872589
0.024383831
0.024880227
0.025362567
0.025831656
0.026288308
0.026733333
0.027167531
0.02759169
0.028006573
0.028412922
0.028811438
0.029202785
0.02958758
0.029966413
0.030339846
0.030708287
0.031072149
0.0002763963
0.00086427246
0.0014860625
0.0021404503
0.0028258472
0.0035403805
0.0042818949
0.0050479543
0.0058358509
0.0066426265
0.0074651044
0.0082999341
0.0091436462
0.0099927165
0.010843635
0.011692975
0.012537463
0.013374035
0.01419989
0.015012525
0.015809763
0.016589762
0.01735102
0.018092355
0.018812897
0.01951207
0.02018957
0.020845334
0.021479513
0.022092439
0.022684602
0.023256621
0.023809218
0.024343201
0.024859437
0.025358838
0.025842346
0.026310915
0.026765506
0.02720707
0.027636545
0.028054851
0.028462885
0.028861513
0.029251569
0.029633838
0.030009051
0.030377863
0.030740927
0.031098991
0.031452306
0.031800491
0.00029574492
0.0009256513
0.0015926115
0.0022951025
0.0030312621
0.0037988817
0.0045954007
0.0054179097
0.0062631676
0.0071276334
0.0080075133
0.0088988246
0.0097974721
0.010699334
0.011600353
0.012496624
0.013384472
0.014260527
0.015121769
0.015965569
0.016789708
0.017592379
0.018372171
0.019128049
0.019859339
0.020565696
0.021247063
0.021903642
0.022535851
0.023144292
0.023729718
0.024293003
0.024835113
0.025357086
0.025860004
0.026344981
0.026813143
0.027265613
0.027703505
0.028127909
0.02853989
0.028940485
0.029330693
0.029711478
0.030083772
0.030448439
0.030806294
0.031157955
0.031504039
0.031846017
0.032184109
0.032513132
0.0003165203
0.00099170904
0.0017074634
0.0024620184
0.0032531938
0.0040783765
0.004934514
0.0058181233
0.0067253174
0.0076518538
0.0085932032
0.0095446398
0.010501346
0.011458527
0.012411526
0.013355931
0.01428767
0.015203083
0.016098976
0.01697265
0.017821909
0.018645045
0.019440811
0.020208399
0.020947399
0.021657757
0.022339724
0.022993812
0.023620753
0.024221451
0.024796955
0.025348414
0.025877059
0.026384171
0.026871057
0.027339039
0.02778943
0.028223522
0.028642581
0.029047835
0.029440472
0.02982163
0.03019241
0.03055386
0.030907035
0.031252849
0.031592319
0.031925845
0.03225329
0.032578652
0.032893997
0.033210472
0.00033882152
0.001062792
0.0018312612
0.0026421868
0.0034930078
0.0043806218
0.0053013789
0.0062510984
0.0072251118
0.0082183337
0.0092253625
0.010240605
0.011258421
0.012273266
0.013279841
0.014273217
0.01524894
0.016203103
0.0171324
0.018034134
0.018906212
0.019747106
0.020555825
0.021331867
0.02207516
0.022786007
0.023465024
0.024113084
0.024731269
0.025320824
0.025883114
0.026419589
0.026931754
0.027421146
0.027889305
0.028337762
0.028768015
0.029181527
0.029579714
0.029963931
0.030335482
0.030695587
0.031045461
0.031386173
0.031719008
0.032044735
0.032365131
0.032680282
0.032985576
0.033289696
0.033591571
0.033893026
0.00036275206
0.0011392748
0.0019647117
0.0028366953
0.0037522068
0.0047075495
0.0056983452
0.0067195645
0.0077655926
0.0088303355
0.009907363
0.010990081
0.012071918
0.013146518
0.014207908
0.015250648
0.016269943
0.017261706
0.0182226
0.019150024
0.020042078
0.02089752
0.02171571
0.022496538
0.023240349
0.02394787
0.024620135
0.025258429
0.025864221
0.026439122
0.026984838
0.027503134
0.027995803
0.028464641
0.028911424
0.02933789
0.029745727
0.03013656
0.030511948
0.030873355
0.031222217
0.031559769
0.031887431
0.032206012
0.032517587
0.032821589
0.033122638
0.033412442
0.033701754
0.033990014
0.034269564
0.034552626
0.00038842377
0.0012215674
0.0021085912
0.0030467419
0.0040324477
0.0050612866
0.0061279906
0.007226496
0.0083500456
0.0094913432
0.010642755
0.011796542
0.012945104
0.014081212
0.015198214
0.016290194
0.017352079
0.018379695
0.01936978
0.020319933
0.021228569
0.022094845
0.022918574
0.02370013
0.024440352
0.025140457
0.025801955
0.026426579
0.027016223
0.027572887
0.028098636
0.028595559
0.029065745
0.029511249
0.02993408
0.030336184
0.030719445
0.031085613
0.031436417
0.031773357
0.032098122
0.032411667
0.032716189
0.033010871
0.033301405
0.03358019
0.033858389
0.034133137
0.034398653
0.03466696
0.03493161
0.03519573
0.00041595784
0.0013101182
0.0022637534
0.0032736494
0.0043355614
0.0054441792
0.0065931445
0.0077751342
0.0089820152
0.010205067
0.01143526
0.012663564
0.013881257
0.015080204
0.016253092
0.01739359
0.018496449
0.019557526
0.020573753
0.021543069
0.022464338
0.023337238
0.024162144
0.024940003
0.025672227
0.026360588
0.027007122
0.027614051
0.028183715
0.028718524
0.029220914
0.029693306
0.030138082
0.03055755
0.030953959
0.031329451
0.031686114
0.032025749
0.032350375
0.032661236
0.03296089
0.033248645
0.033530392
0.033797132
0.034062983
0.034324867
0.034576721
0.034830345
0.035078996
0.035326632
0.035572754
0.035818497
0.0004454851
0.0014054188
0.0024311411
0.0035188833
0.0046635774
0.0058588203
0.0070969163
0.0083690105
0.0096653192
0.010975447
0.012288762
0.013594799
0.01488364
0.01614624
0.017374676
0.018562303
0.019703825
0.020795272
0.021833926
0.022818226
0.02374763
0.024622465
0.025443774
0.026213175
0.026932727
0.027604817
0.028232051
0.028817172
0.029362987
0.029872327
0.030348005
0.030792771
0.0312093
0.031600145
0.031967798
0.032314538
0.032642793
0.032954072
0.033251318
0.033534146
0.033808936
0.034066941
0.034323498
0.034567235
0.034806936
0.035045909
0.035278528
0.035509401
0.035737901
0.035965445
0.036192506
0.036419865
0.00047714706
0.0015080098
0.0026117992
0.0037840737
0.0050187519
0.0063080826
0.0076427279
0.0090119731
0.010404065
0.011806654
0.013207294
0.014593954
0.015955471
0.017281922
0.018564868
0.019797492
0.020974611
0.022092601
0.023149287
0.024143777
0.025076278
0.025947898
0.02676046
0.027516339
0.028218315
0.028869445
0.029472946
0.030032107
0.030550208
0.031030501
0.031476189
0.031890327
0.032275911
0.032635674
0.032972413
0.033288308
0.033586773
0.033867549
0.034137424
0.034388162
0.034635717
0.0348677
0.035095753
0.035317307
0.035533859
0.035747797
0.035958344
0.036167188
0.03637488
0.036582322
0.036790158
0.036999101
0.00051109728
0.0016184886
0.0028068912
0.0040710412
0.0054036031
0.0067951576
0.0082343503
0.0097082161
0.011202666
0.012703093
0.014195028
0.015664763
0.017099886
0.018489668
0.019825301
0.021099974
0.022308813
0.023448761
0.024518391
0.025517668
0.026447705
0.027310526
0.028108843
0.028845873
0.029525182
0.030150547
0.030725831
0.031254884
0.031741452
0.032189193
0.032601724
0.032982354
0.033334488
0.033660808
0.033964796
0.034247459
0.034516012
0.034762166
0.035002153
0.035224016
0.035441828
0.035649575
0.035849887
0.036045786
0.036238063
0.036427835
0.036615613
0.036802468
0.036989169
0.037176489
0.037365084
0.03755565
0.000547503
0.0017375186
0.0030177195
0.0043818292
0.0058209528
0.0073236016
0.0088759476
0.010462313
0.01206586
0.013669407
0.015256261
0.016810968
0.018319908
0.019771682
0.021157304
0.022470187
0.02370602
0.024862562
0.025939353
0.026937408
0.027858918
0.028706957
0.029485227
0.030197861
0.030849266
0.031443992
0.031986563
0.032481422
0.032932733
0.033344495
0.033720894
0.034065233
0.034381738
0.034672178
0.03494246
0.035187721
0.035423955
0.035638646
0.035845775
0.036040697
0.036228475
0.036409565
0.036580828
0.036751076
0.036918871
0.037084638
0.037249476
0.037414355
0.037580072
0.037747342
0.037916783
0.038089099
0.00058654712
0.0018658406
0.0032457508
0.0047187445
0.0062739777
0.0078973911
0.0095721263
0.011279252
0.012998727
0.014710471
0.016395398
0.018036289
0.019618418
0.021129917
0.022561857
0.023908161
0.02516538
0.026332351
0.027409821
0.028400061
0.029306507
0.030133418
0.03088558
0.031568098
0.032186267
0.032745457
0.033250853
0.033707557
0.034120038
0.034492457
0.034830095
0.035135254
0.035414746
0.035665961
0.035898079
0.036109262
0.036310824
0.036496676
0.036668068
0.036833565
0.036991553
0.037143377
0.037289334
0.037433149
0.037575548
0.03771724
0.037859149
0.038002155
0.038147028
0.038294427
0.038444886
0.03859916
0.0006284307
0.0020042876
0.0034926476
0.0050844059
0.0067662721
0.0085209887
0.010327995
0.012164484
0.014006717
0.015831404
0.017616944
0.019344399
0.020998123
0.022566023
0.024039551
0.025413487
0.026685562
0.027855986
0.028926962
0.029902226
0.030786631
0.031585756
0.032305548
0.032952113
0.033531655
0.034050457
0.034514268
0.034929067
0.035299433
0.035628988
0.03592606
0.036188234
0.036425239
0.036639891
0.036835066
0.037010245
0.037176027
0.037328032
0.037468522
0.037602154
0.037729872
0.037852828
0.037972087
0.038089777
0.03820706
0.038324833
0.038443979
0.038565328
0.038689615
0.038817445
0.038949145
0.03908565
0.00067337598
0.0021538026
0.0037603082
0.0054818073
0.0073019248
0.0091994229
0.011149232
0.013123964
0.01509567
0.017037566
0.018925484
0.020738901
0.0224615
0.02408131
0.025590558
0.026985272
0.028264721
0.0294308
0.030487431
0.03144002
0.032295006
0.033059434
0.033740461
0.034345187
0.034880686
0.035354391
0.035772204
0.036141695
0.036467302
0.036749435
0.037000018
0.037221682
0.037416348
0.037592072
0.037748823
0.037888527
0.038017017
0.038134564
0.038242437
0.038344454
0.038442023
0.038536269
0.03862847
0.038720202
0.038812656
0.038906789
0.039003466
0.039103477
0.039207542
0.039316272
0.039429426
0.039548469
0.00072163015
0.0023154624
0.0040509182
0.0059143951
0.0078856142
0.0099383843
0.012042172
0.014164221
0.016271855
0.018334574
0.020325677
0.022223285
0.024010761
0.025676699
0.027214569
0.028622081
0.029900438
0.031053556
0.032087334
0.033009049
0.033826886
0.034549524
0.035185353
0.035742393
0.036228369
0.03665265
0.03701979
0.037341095
0.037614129
0.037850792
0.038054433
0.038233201
0.038386415
0.038520444
0.038636969
0.038739291
0.038831167
0.038914345
0.038988574
0.039059143
0.039126836
0.039192569
0.039257771
0.039323799
0.03939178
0.039462654
0.039537257
0.039616339
0.039700613
0.039791019
0.039885698
0.039987566
0.00077347018
0.0024905076
0.0043670154
0.0063861683
0.0085227276
0.010744344
0.0130139
0.015292422
0.01754201
0.01972831
0.021822239
0.023800893
0.025647798
0.02735266
0.028910718
0.03032186
0.031589654
0.032720384
0.03372219
0.034604387
0.035377031
0.036050705
0.036634976
0.037138687
0.037569358
0.037940909
0.038251668
0.038518731
0.038741164
0.03893076
0.039088258
0.03921992
0.039329375
0.03942163
0.039497042
0.03956115
0.039616514
0.039664491
0.039706531
0.039745677
0.039783406
0.039820885
0.039859376
0.039900082
0.039944042
0.039992132
0.040045152
0.040103785
0.04016863
0.00082920873
0.0026803813
0.0047115752
0.0069018042
0.0092195093
0.011624701
0.014072383
0.016516469
0.018913401
0.021224946
0.023419912
0.025474865
0.027374114
0.029109113
0.03067748
0.032081837
0.033328577
0.034426719
0.035386889
0.036220557
0.03693968
0.037557257
0.038083813
0.038529148
0.038897496
0.039208829
0.039463889
0.039676998
0.039848127
0.03998547
0.040094619
0.040178336
0.04024272
0.040292109
0.040327626
0.040353287
0.040371768
0.040384922
0.040394469
0.040402606
0.040410891
0.04042057
0.040432815
0.040448709
0.040469204
0.040495077
0.040527092
0.04056586
0.040611902
0.0008892017
0.0028867801
0.0050881213
0.0074668223
0.0099832489
0.01258796
0.015226619
0.017845116
0.020393893
0.022830951
0.025123438
0.027248073
0.029190705
0.03094529
0.032512534
0.033898393
0.035112583
0.03616722
0.037075651
0.037851552
0.038508486
0.039063083
0.039525999
0.039901465
0.040208291
0.040458733
0.040656625
0.040810653
0.040927348
0.041010896
0.041069442
0.041106165
0.041125402
0.041131258
0.041126327
0.041113591
0.041095585
0.041074351
0.041051636
0.041029258
0.041008697
0.040991173
0.040977776
0.040969486
0.040967177
0.040971475
0.040983143
0.041002718
0.041030599
0.00095385783
0.003111722
0.0055008715
0.0080877945
0.010822521
0.013643971
0.016486846
0.019288129
0.021992043
0.024553114
0.026937513
0.029122999
0.031097892
0.032859557
0.034412581
0.035766915
0.036936096
0.037935696
0.038782001
0.039490919
0.040076405
0.040561795
0.040949616
0.041256924
0.041500788
0.041685546
0.041821563
0.041914681
0.041974252
0.042004906
0.042012078
0.042000682
0.041974406
0.0419371
0.041891681
0.041840823
0.041786885
0.04173184
0.041677391
0.041625135
0.041576432
0.041532424
0.041494108
0.041462359
0.041437939
0.041421463
0.041413538
0.041414631
0.041425017
0.0010236509
0.0033576364
0.0059549325
0.0087726215
0.011747494
0.014804228
0.017864808
0.020856492
0.02371721
0.026398553
0.028866683
0.031101537
0.033095081
0.034849162
0.036373136
0.037681625
0.038792475
0.039725032
0.04049872
0.041132022
0.041635396
0.042040695
0.042356257
0.042593762
0.042766631
0.042882477
0.042953252
0.042986331
0.042987606
0.04296395
0.042919536
0.042859652
0.042787964
0.042707947
0.042622473
0.042534043
0.04244484
0.042356715
0.042271264
0.042189913
0.042113886
0.042044222
0.041981812
0.041927427
0.041881725
0.041845255
0.041818501
0.041801847
0.041795653
0.0010991351
0.003627488
0.0064565619
0.0095308976
0.01277034
0.016082273
0.019374129
0.022562678
0.025579689
0.028374693
0.030915151
0.033184697
0.035180427
0.036909932
0.03838828
0.03963542
0.040673919
0.041527144
0.042217733
0.042758376
0.043179554
0.043505271
0.043740127
0.043901196
0.043998722
0.044045879
0.044050488
0.044021423
0.043963989
0.043885143
0.043789396
0.043681351
0.043564657
0.043442535
0.043317698
0.043192469
0.043068847
0.042948531
0.042832973
0.042723442
0.04262102
0.042526624
0.042441034
0.042364913
0.042298816
0.042243203
0.042198459
0.042164885
0.042142804
0.0011809659
0.0039249467
0.0070135259
0.0103744
0.013905777
0.017494255
0.021030822
0.024421024
0.027590861
0.030489132
0.03308645
0.035372156
0.037350391
0.039035906
0.040450409
0.041619724
0.042571413
0.043333001
0.043921873
0.044371351
0.044707515
0.044943753
0.04509247
0.04517265
0.045195462
0.045171168
0.04510872
0.045016326
0.044900285
0.044766574
0.044619822
0.044464224
0.044303251
0.044139874
0.043976599
0.043815548
0.043658524
0.043507051
0.043362422
0.043225743
0.04309795
0.042979833
0.042872052
0.042775158
0.042689604
0.042615754
0.042553898
0.042504255
0.042467091
0.0012699258
0.0042546285
0.0076355954
0.011317756
0.015171823
0.01905972
0.022853679
0.026447462
0.029762371
0.032748573
0.035382421
0.037661523
0.039599196
0.041218948
0.042550008
0.043624398
0.044474727
0.045123437
0.045613131
0.045967135
0.04620569
0.04634621
0.046408397
0.046405718
0.046351365
0.046254052
0.046123961
0.045968607
0.045794211
0.045606274
0.045409261
0.045207028
0.045002786
0.044799242
0.044598664
0.044402951
0.044213697
0.044032237
0.043859689
0.043696996
0.043544943
0.043404186
0.043275263
0.043158613
0.043054585
0.042963441
0.042885381
0.04282054
0.042769121
0.0013669608
0.0046224418
0.0083352457
0.012379375
0.016590869
0.020801944
0.024863615
0.028658269
0.03210457
0.035157227
0.0378018
0.040047198
0.041918134
0.043448363
0.044675487
0.045637733
0.04636234
0.046902463
0.047284043
0.047530572
0.047664513
0.047709843
0.047681654
0.047594701
0.047461083
0.047291038
0.047093523
0.046875789
0.046643801
0.046402639
0.046156475
0.045908817
0.045662578
0.045420177
0.045183621
0.044954568
0.044734394
0.044524233
0.044325021
0.044137531
0.0439624
0.043800142
0.043651175
0.043515826
0.04339434
0.043286874
0.043193538
0.043114385
0.043049551
0.0014732288
0.0050360998
0.0091286637
0.013582795
0.018190255
0.022747438
0.027082761
0.031068822
0.034625035
0.037715271
0.040338786
0.042519215
0.044294818
0.045710654