/*--------------------------------*- C++ -*----------------------------------*\
| =========                 |                                                 |
| \\      /  F ield         | OpenFOAM: The Open Source CFD Toolbox           |
|  \\    /   O peration     | Version:  2312                                  |
|   \\  /    A nd           | Website:  www.openfoam.com                      |
|    \\/     M anipulation  |                                                 |
\*---------------------------------------------------------------------------*/
FoamFile
{
    version     2.0;
    format      ascii;
    arch        "LSB;label=32;scalar=64";
    class       volScalarField;
    location    "0.05";
    object      f_Bilger;
}
// * * * * * * * * * * * * * * * * * * * * * * * * * * * * * * * * * * * * * //

dimensions      [0 0 0 0 0 0 0];

internalField   nonuniform List<scalar> 
3221
(
0.00025114693
0.00077900412
0.0013327168
0.0019120661
0.0025167233
0.0031462562
0.0038001344
0.0044777348
0.0051783472
0.0059011809
0.0066453702
0.0074099818
0.0081940211
0.0089964388
0.0098161376
0.010651978
0.011502787
0.012367359
0.013244464
0.014132855
0.015031267
0.015938426
0.016853049
0.01777385
0.018699542
0.019628837
0.020560458
0.021493125
0.022425566
0.02335652
0.024284736
0.025208975
0.026128008
0.027040621
0.027945615
0.028841805
0.02972802
0.030603107
0.031465929
0.032315368
0.033150323
0.033969711
0.03477247
0.035557559
0.036323957
0.037070667
0.037796715
0.038501153
0.039183064
0.039841562
0.040475808
0.041085014
0.00025420451
0.00078851459
0.0013490169
0.0019354819
0.0025475645
0.0031848132
0.0038466767
0.00453251
0.0052415804
0.005973074
0.0067261024
0.007499709
0.0082928761
0.0091045317
0.0099335559
0.010778787
0.01163903
0.012513058
0.01339962
0.014297448
0.015205258
0.016121756
0.017045639
0.017975604
0.018910344
0.019848557
0.020788946
0.021730216
0.02267108
0.02361026
0.024546493
0.025478525
0.026405115
0.027325039
0.028237084
0.029140056
0.030032775
0.030914081
0.031782829
0.032637893
0.033478169
0.034302569
0.035110028
0.035899501
0.036669966
0.037420423
0.038149897
0.038857435
0.039542109
0.040203017
0.040839302
0.041450285
0.00026014585
0.00080698672
0.0013806499
0.0019808821
0.0026073099
0.0032594484
0.0039367084
0.0046384042
0.0053637605
0.0061119192
0.006881947
0.0076728422
0.0084835419
0.009312929
0.010159839
0.011023066
0.01190137
0.012793484
0.013698114
0.01461395
0.015539668
0.016473936
0.017415413
0.018362758
0.01931463
0.020269693
0.021226616
0.02218407
0.02314074
0.02409532
0.025046519
0.025993057
0.026933673
0.027867117
0.028792158
0.029707585
0.030612202
0.031504834
0.032384325
0.033249541
0.034099367
0.034932713
0.035748509
0.036545707
0.037323287
0.038080249
0.038815619
0.039528449
0.040217817
0.040882829
0.041522645
0.042136613
0.00026882796
0.00083398072
0.001426868
0.0020471934
0.0026945378
0.0033683656
0.0040680329
0.0047927949
0.0055418142
0.0063141687
0.0071088592
0.0079248173
0.0087609131
0.0096159625
0.010488734
0.011377957
0.012282324
0.013200505
0.014131143
0.015072866
0.016024289
0.016984022
0.017950667
0.018922827
0.019899111
0.020878129
0.0218585
0.02283885
0.02381782
0.024794062
0.025766248
0.026733063
0.027693209
0.028645411
0.029588411
0.030520972
0.031441881
0.032349945
0.033243996
0.034122889
0.034985503
0.035830744
0.036657542
0.037464851
0.038251654
0.03901696
0.039759805
0.040479252
0.041174393
0.041844352
0.042488309
0.043105638
0.00028014689
0.00086917797
0.0014871304
0.0021336441
0.0028082334
0.0035102924
0.0042391023
0.0049938395
0.0057735844
0.0065773297
0.007403989
0.0082524057
0.0091213605
0.01000958
0.010915744
0.011838492
0.012776432
0.013728145
0.014692189
0.015667111
0.016651444
0.017643717
0.018642458
0.019646197
0.020653471
0.021662822
0.022672803
0.02368198
0.024688938
0.025692278
0.026690619
0.027682605
0.028666898
0.029642186
0.030607182
0.031560623
0.032501274
0.033427927
0.034339402
0.035234547
0.036112239
0.036971386
0.037810921
0.038629812
0.039427051
0.040201665
0.040952709
0.041679267
0.042380455
0.043055426
0.043703386
0.044323743
0.00029403554
0.00091237545
0.0015610952
0.0022397492
0.0029477627
0.0036844371
0.0044489563
0.0052403955
0.0060577303
0.0068998456
0.007765545
0.0086535603
0.0095625597
0.010491157
0.011437919
0.012401374
0.013380017
0.014372322
0.015376739
0.016391709
0.017415663
0.018447029
0.01948424
0.020525733
0.021569955
0.022615361
0.023660427
0.024703647
0.025743536
0.026778631
0.027807495
0.028828721
0.029840925
0.030842759
0.031832903
0.032810068
0.033773003
0.034720486
0.03565133
0.036564385
0.037458532
0.038332689
0.039185806
0.04001687
0.040824898
0.041608945
0.042368095
0.043101469
0.043808219
0.044487535
0.045138664
0.045761057
0.00031046129
0.00096347841
0.0016486068
0.0023652922
0.0031128466
0.0038904536
0.0046971749
0.0055319593
0.0063936524
0.0072810059
0.0081926882
0.0091272938
0.010083353
0.011059341
0.012053686
0.01306478
0.014090981
0.015130628
0.016182041
0.01724353
0.018313401
0.019389962
0.020471528
0.021556422
0.02264298
0.023729562
0.024814549
0.025896348
0.026973396
0.028044158
0.029107135
0.030160864
0.031203916
0.032234903
0.033252478
0.034255332
0.035242199
0.036211854
0.037163114
0.038094839
0.039005928
0.03989532
0.040761997
0.041604979
0.042423322
0.043216123
0.043982513
0.044721661
0.045432771
0.046115083
0.0467679
0.047390727
0.00032942392
0.0010224941
0.0017496853
0.0025103096
0.0033035398
0.0041284139
0.0049838436
0.005868623
0.0067814389
0.0077208819
0.008685456
0.0096735904
0.010683648
0.011713938
0.012762721
0.013828223
0.01490864
0.016002147
0.017106906
0.018221072
0.019342803
0.020470263
0.021601623
0.022735072
0.023868825
0.025001124
0.026130245
0.027254497
0.028372229
0.029481832
0.030581739
0.031670431
0.032746437
0.033808336
0.034854758
0.035884384
0.036895945
0.037888226
0.03886006
0.039810334
0.040737978
0.041641976
0.042521353
0.043375181
0.044202574
0.045002688
0.045774718
0.046517897
0.047231497
0.047914827
0.048567257
0.049188358
0.00035095386
0.0010895263
0.0018645176
0.0026750791
0.003520215
0.004398788
0.0053095281
0.0062510427
0.0072218283
0.0082202809
0.0092447084
0.010293341
0.011364344
0.012455824
0.013565846
0.014692437
0.015833597
0.016987309
0.018151547
0.019324287
0.020503507
0.021687197
0.022873368
0.024060058
0.02524534
0.026427325
0.027604169
0.028774078
0.029935309
0.031086173
0.03222504
0.03335034
0.034460566
0.035554273
0.036630082
0.037686678
0.038722806
0.039737278
0.040728965
0.041696797
0.042639761
0.0435569
0.044447309
0.04531013
0.046144557
0.046949824
0.047725209
0.048470029
0.04918364
0.049865436
0.050514869
0.051131592
0.00037511077
0.0011647716
0.0019934509
0.0028601096
0.0037635512
0.0047024288
0.0056752558
0.006680417
0.0077161812
0.0087807133
0.0098720871
0.010988297
0.012127271
0.013286881
0.014464953
0.015659281
0.016867634
0.01808777
0.019317445
0.020554416
0.021796453
0.023041351
0.024286937
0.025531078
0.026771688
0.028006735
0.029234248
0.030452324
0.031659128
0.032852894
0.034031937
0.035194646
0.03633949
0.03746502
0.038569866
0.039652734
0.040712411
0.041747756
0.042757703
0.043741252
0.04469747
0.045625486
0.046524485
0.04739371
0.04823245
0.049040043
0.049815871
0.050559353
0.051269947
0.051947149
0.052590509
0.053199773
0.00040198248
0.0012485162
0.0021369882
0.0030661358
0.0040345255
0.005040563
0.0060825049
0.0071584721
0.0082664637
0.0094043706
0.010569989
0.011761034
0.012975154
0.014209938
0.015462937
0.016731667
0.018013627
0.019306311
0.020607215
0.021913842
0.02322373
0.02453445
0.025843622
0.027148922
0.028448093
0.029738951
0.031019394
0.03228741
0.033541077
0.034778566
0.035998147
0.037198186
0.038377153
0.039533615
0.040666236
0.041773777
0.04285509
0.043909114
0.044934874
0.045931471
0.04689808
0.047833944
0.048738369
0.049610717
0.050450405
0.051256894
0.052029689
0.052768333
0.053472405
0.054141517
0.054775333
0.055373702
0.00043168436
0.001341134
0.0022957854
0.0032941144
0.0043344099
0.0054147864
0.0065331984
0.0076874553
0.0088752377
0.010094113
0.011341549
0.012614931
0.013911574
0.01522874
0.016563649
0.017913495
0.01927546
0.020646727
0.022024484
0.023405958
0.024788415
0.026169177
0.027545633
0.028915254
0.0302756
0.031624333
0.032959224
0.034278159
0.035579143
0.0368603
0.038119879
0.039356253
0.040567918
0.041753491
0.042911706
0.044041412
0.045141561
0.04621121
0.047249507
0.048255688
0.04922907
0.050169041
0.051075056
0.051946625
0.052783315
0.053584734
0.054350533
0.055080396
0.055774041
0.05643121
0.057051693
0.057635456
0.00046435892
0.0014430866
0.0024706513
0.0035452245
0.0046647713
0.005827065
0.007029705
0.0082701347
0.0095456594
0.010853464
0.012190629
0.013554151
0.014940953
0.016347906
0.017771849
0.019209594
0.020657947
0.022113728
0.023573789
0.02503503
0.026494414
0.027948987
0.029395891
0.030832378
0.032255825
0.033663741
0.035053783
0.036423752
0.037771603
0.039095443
0.040393532
0.041664286
0.042906268
0.044118186
0.045298887
0.046447347
0.047562663
0.048644048
0.049690815
0.050702371
0.051678209
0.052617895
0.053521061
0.054387396
0.055216639
0.056008569
0.056763002
0.057479782
0.058158776
0.058799874
0.059403003
0.05996825
0.00050017582
0.0015549235
0.0026625489
0.0038208709
0.0050274764
0.0062797406
0.0075748465
0.0089098069
0.010281485
0.011686615
0.013121822
0.01458364
0.01606853
0.017572913
0.019093166
0.020625651
0.022166746
0.023712858
0.025260448
0.026806049
0.028346292
0.029877922
0.03139782
0.032903017
0.03439071
0.035858274
0.037303271
0.038723448
0.040116744
0.041481291
0.042815407
0.044117595
0.045386537
0.046621082
0.047820238
0.04898316
0.050109136
0.051197578
0.052248008
0.053260043
0.054233388
0.05516782
0.056063178
0.056919354
0.057736285
0.058513941
0.059252319
0.059951437
0.060611329
0.061232038
0.061813637
0.062356344
0.00053933225
0.0016772838
0.0028725998
0.0041226896
0.0054247008
0.0067755426
0.0081719101
0.0096103102
0.011087086
0.012598438
0.014140453
0.015709121
0.017300366
0.018910061
0.020534042
0.022168162
0.023808296
0.025450381
0.027090434
0.028724585
0.0303491
0.031960409
0.033555125
0.035130067
0.036682272
0.038209005
0.039707773
0.041176311
0.042612594
0.044014829
0.045381453
0.046711116
0.048002678
0.049255187
0.05046787
0.051640114
0.05277145
0.053861539
0.054910153
0.055917161
0.056882513
0.05780623
0.058688387
0.059529103
0.060328533
0.061086855
0.061804262
0.06248096
0.063117154
0.063713053
0.064268879
0.064784982
0.00058205368
0.0018108999
0.0031020897
0.0044525587
0.0058589422
0.0073176047
0.008824669
0.010376046
0.011967465
0.013594499
0.015252597
0.016937111
0.018643316
0.020366441
0.022101708
0.023844367
0.025589723
0.027333172
0.029070241
0.030796617
0.032508184
0.034201048
0.035871566
0.037516362
0.039132347
0.040716728
0.042267003
0.043780958
0.045256669
0.046692491
0.048087046
0.049439205
0.050748072
0.052012963
0.053233386
0.05440902
0.055539692
0.056625359
0.057666088
0.058662037
0.05961344
0.060520586
0.061383814
0.062203489
0.062980001
0.06371375
0.064405138
0.065054563
0.065662411
0.066229057
0.066754875
0.067240348
0.00062859499
0.0019566014
0.0033524784
0.0048126115
0.0063330392
0.0079094881
0.009537408
0.011212008
0.01292829
0.014681089
0.0164651
0.018274905
0.020105019
0.021949928
0.023804132
0.025662184
0.027518738
0.029368589
0.031206725
0.033028362
0.034828991
0.036604403
0.038350723
0.040064426
0.041742351
0.043381708
0.044980062
0.046535327
0.048045764
0.049509958
0.050926803
0.05229547
0.053615386
0.054886206
0.056107785
0.057280155
0.058403492
0.0594781
0.06050438
0.061482817
0.062413956
0.063298384
0.064136719
0.064929593
0.065677643
0.066381499
0.067041777
0.067659072
0.068233955
0.068766964
0.069258623
0.069709547
0.00067924211
0.0021153219
0.0036254104
0.0052052544
0.0068501953
0.0085552107
0.010314958
0.012123815
0.013975931
0.015865258
0.017785584
0.019730592
0.021693907
0.023669145
0.025649963
0.02763012
0.029603533
0.031564338
0.033506942
0.035426079
0.03731685
0.039174765
0.040995764
0.042776239
0.044513037
0.046203456
0.04784522
0.049436473
0.05097576
0.052461998
0.053894444
0.055272659
0.056596477
0.057865968
0.059081402
0.060243222
0.061352008
0.062408451
0.06341333
0.064367484
0.065271796
0.06612717
0.066934521
0.067694757
0.068408768
0.069077421
0.069701547
0.070281938
0.070819341
0.07131446
0.071767962
0.072180587
0.00073431398
0.0022881062
0.0039227302
0.0056331894
0.0074140085
0.009259284
0.011162736
0.013117766
0.015117499
0.017154827
0.019222477
0.021313073
0.023419191
0.025533427
0.02764847
0.029757178
0.031852652
0.033928312
0.035977966
0.037995866
0.039976761
0.041915932
0.043809214
0.045653008
0.047444278
0.049180517
0.050859728
0.052480404
0.054041491
0.055542347
0.056982698
0.05836259
0.05968235
0.060942536
0.062143903
0.06328736
0.064373938
0.065404759
0.066381007
0.067303903
0.068174687
0.068994594
0.069764844
0.070486626
0.071161087
0.071789327
0.072372388
0.072911254
0.073406844
0.073860017
0.074271577
0.074642377
0.00079416524
0.0024761202
0.0042465002
0.0060994411
0.0080285081
0.010026757
0.012086806
0.014200881
0.016360878
0.018558446
0.020785054
0.02303207
0.025290837
0.027552772
0.029809458
0.032052744
0.034274843
0.036468425
0.038626692
0.040743453
0.042813166
0.044830976
0.046792726
0.048694955
0.050534871
0.0523103
0.05401967
0.055661957
0.057236641
0.058743642
0.060183262
0.061556132
0.062863153
0.064105449
0.065284317
0.066401188
0.067457584
0.068455089
0.069395318
0.070279893
0.07111042
0.071888473
0.072615579
0.073293207
0.073922755
0.074505551
0.075042841
0.07553579
0.07598548
0.076392908
0.076759001
0.077084716
0.00085918926
0.0026806628
0.0045990229
0.0066073897
0.0086981975
0.010863279
0.013093923
0.015380945
0.017714796
0.020085643
0.022483456
0.02489812
0.027319543
0.029737783
0.032143175
0.03452646
0.036878905
0.039192417
0.041459629
0.043673973
0.045829727
0.04792203
0.049946884
0.051901127
0.053782367
0.055588938
0.05731985
0.058974721
0.060553702
0.062057398
0.063486803
0.064843225
0.066128223
0.067343553
0.06849111
0.069572887
0.070590932
0.071547315
0.072444097
0.073283308
0.074066928
0.074796866
0.075474953
0.076102926
0.076682432
0.07721501
0.077702099
0.078145028
0.078545025
0.078903211
0.079220616
0.07949828
0.000929822
0.0029031795
0.0049828668
0.0071608108
0.0094281184
0.011775146
0.014191587
0.016666597
0.019188893
0.021746867
0.024328714
0.026922577
0.029516699
0.032099591
0.0346602
0.037188072
0.039673502
0.042107658
0.044482681
0.046791751
0.049029114
0.051190086
0.053271019
0.055269238
0.05718295
0.05901119
0.060753735
0.062411004
0.063983962
0.065474032
0.066883003
0.06821295
0.069466167
0.070645097
0.071752279
0.072790301
0.073761758
0.074669219
0.075515199
0.076302136
0.077032378
0.077708158
0.078331601
0.078904704
0.079429341
0.079907248
0.080340036
0.080729179
0.081076032
0.081381832
0.081647667
0.081874603
0.0010065464
0.0031452797
0.0054008984
0.0077639334
0.010223893
0.012769362
0.01538815
0.01806741
0.020793779
0.023553537
0.026332775
0.0291176
0.03189434
0.034649765
0.037371309
0.040047267
0.042666971
0.045220934
0.047700938
0.050100085
0.052412804
0.054634814
0.056763051
0.058795547
0.060731347
0.062570399
0.064313435
0.065961844
0.067517554
0.068982923
0.070360638
0.071653623
0.072864965
0.073997843
0.075055472
0.076041054
0.076957743
0.077808608
0.078596614
0.079324599
0.079995258
0.080611143
0.081174651
0.081688019
0.082153323
0.082572478
0.082947241
0.083279208
0.083569839
0.083820507
0.084032299
0.084205997
0.0010898979
0.0034087563
0.0058563302
0.0084214765
0.011091786
0.013853747
0.016692892
0.019593966
0.022541112
0.025518089
0.028508513
0.031496124
0.034465069
0.037400195
0.04028732
0.043113479
0.045867117
0.048538232
0.05111845
0.053601045
0.055980898
0.058254413
0.060419367
0.06247478
0.064420786
0.066258473
0.067989724
0.069617064
0.071143524
0.072572509
0.073907692
0.075152913
0.076312099
0.077389197
0.078388116
0.079312679
0.080166596
0.080953429
0.081676572
0.082339244
0.082944475
0.08349511
0.083993789
0.084442959
0.084844877
0.08520161
0.085515047
0.085786856
0.086018546
0.086211798
0.086367749
0.086485268
0.0011804699
0.0036956192
0.0063527468
0.0091387072
0.012038817
0.01503703
0.018116131
0.02125796
0.024443671
0.027654029
0.030869741
0.034071821
0.037241973
0.040362956
0.043418921
0.046395697
0.049280992
0.052064519
0.054738032
0.057295295
0.059731978
0.062045482
0.064234746
0.066300089
0.068242997
0.070065928
0.071772108
0.073365362
0.074849945
0.076230411
0.077511489
0.078697984
0.079794695
0.080806351
0.081737556
0.08259275
0.08337618
0.084091874
0.08474364
0.08533505
0.085869442
0.08634991
0.086779311
0.08716027
0.0874952
0.087786285
0.088035559
0.088244685
0.088414923
0.088548887
0.088645043
0.088707718
0.0012789304
0.0040081077
0.0068941521
0.0099215418
0.013072849
0.016328959
0.019669331
0.023072302
0.026515443
0.02997597
0.0334312
0.036859047
0.040238513
0.043550153
0.046776475
0.049902245
0.052914681
0.055803535
0.058561067
0.06118193
0.063662963
0.066002934
0.068202322
0.070263055
0.072188247
0.07398195
0.075648919
0.07719442
0.078624045
0.079943571
0.081158837
0.082275641
0.083299667
0.084236422
0.08509119
0.085869006
0.086574617
0.087212499
0.087786838
0.088301518
0.08876014
0.089166012
0.08952218
0.089831396
0.09009622
0.090318859
0.090501657
0.090646266
0.090752239
0.090824309
0.090862738
0.090868087
0.0013860115
0.0043487231
0.007485055
0.010776634
0.014202706
0.017740434
0.021365242
0.025051237
0.028771704
0.032499673
0.036208548
0.039872755
0.043468383
0.046973741
0.050369813
0.05364056
0.056773076
0.059757591
0.062587341
0.065258332
0.067769013
0.070119964
0.072313582
0.074353729
0.076245415
0.077994499
0.079607434
0.081091047
0.082452353
0.083698408
0.084836185
0.085872486
0.086813867
0.087666593
0.0884366
0.089129463
0.089750414
0.09030433
0.090795718
0.091228727
0.091607181
0.091934558
0.092214074
0.092448502
0.092640653
0.092792346
0.092906874
0.092983288
0.093026389
0.093036202
0.093014644
0.092962061
0.001502533
0.0047202818
0.0081305366
0.011711477
0.015438309
0.019283657
0.023218043
0.027210469
0.031229105
0.035242077
0.039218314
0.043128399
0.046945359
0.050645325
0.054208008
0.057616967
0.060859673
0.063927388
0.06681489
0.069520065
0.072043493
0.074388038
0.076558402
0.078560701
0.080402091
0.082090434
0.083634018
0.08504133
0.086320862
0.087480975
0.08852978
0.089475065
0.090324229
0.091084251
0.091761659
0.092362546
0.092892571
0.093356936
0.093760431
0.0941074
0.094401873
0.094647388
0.094847445
0.095004436
0.095122179
0.095200243
0.095244565
0.095254125
0.095232097
0.095179015
0.095096399
0.094985305
0.0016294152
0.0051259612
0.0088363372
0.012734538
0.016790835
0.020972311
0.025243519
0.029567303
0.033905759
0.038221313
0.042477849
0.046641804
0.050683112
0.05457594
0.058299147
0.061836456
0.065176366
0.068311852
0.071239869
0.073960806
0.076477953
0.078796927
0.080925118
0.0828712
0.084644701
0.086255651
0.08771428
0.089030793
0.090215187
0.091277121
0.092225822
0.093070018
0.0938179
0.094477091
0.095054678
0.095557198
0.095990649
0.096360505
0.096671803
0.096928955
0.097136276
0.097297012
0.097415666
0.097492431
0.097533596
0.097538761
0.097511885
0.097453136
0.09736492
0.097248459
0.097104902
0.096935241
0.0017676918
0.0055693551
0.0096089651
0.01385541
0.018272914
0.022821765
0.027459247
0.032140793
0.036821322
0.041456704
0.046005238
0.050429012
0.054695
0.058775816
0.062650088
0.066302458
0.069723265
0.072907971
0.075856455
0.078572319
0.081062143
0.083334759
0.085400616
0.087271215
0.088958653
0.090475246
0.091833236
0.093044569
0.094120732
0.09507265
0.095910611
0.096644215
0.097282363
0.09783327
0.098304506
0.098702937
0.099034854
0.099305891
0.099521409
0.099685488
0.099803346
0.099876344
0.099911272
0.099908359
0.099871983
0.099802629
0.099703579
0.099576078
0.099421765
0.099241907
0.099037559
0.098809603
0.0019185274
0.0060545446
0.010455828
0.015085006
0.019898855
0.024849316
0.02988482
0.034951905
0.039997073
0.044968751
0.049819193
0.054506102
0.058993841
0.06325413
0.067266223
0.071016638
0.074498502
0.077710668
0.080656811
0.08334446
0.085784057
0.087988108
0.089970448
0.091745639
0.093328488
0.094733677
0.095975477
0.097067559
0.098022851
0.098853471
0.099570689
0.10018487
0.10070558
0.1011415
0.10150059
0.10178994
0.10201612
0.10218462
0.10230172
0.10236959
0.10239527
0.10238084
0.10233105
0.10224685
0.10213173
0.10198754
0.10181651
0.10162018
0.10139997
0.10115706
0.1008924
0.10060673
0.0020832396
0.0065861837
0.011385392
0.016435781
0.021684918
0.027074472
0.03254209
0.038023685
0.043455979
0.048779094
0.053938917
0.058888977
0.063591666
0.068018753
0.072151241
0.075978678
0.079498078
0.082712751
0.085631063
0.088265194
0.09063001
0.092742101
0.094618973
0.096278421
0.097738051
0.099014932
0.10012534
0.10108461
0.101907
0.10260574
0.10319296
0.1036797
0.1040761
0.10439109
0.1046331
0.1048091
0.10492623
0.1049887
0.10500458
0.10497642
0.10490839
0.10480422
0.10466939
0.1045035
0.10430971
0.10409055
0.10384786
0.10358309
0.10329752
0.10299222
0.10266804
0.10232552
0.0022633247
0.0071696055
0.012407382
0.017922015
0.023649649
0.029519278
0.035455445
0.041381441
0.047222758
0.052910442
0.058383936
0.06359313
0.068499443
0.07307598
0.077306884
0.081186075
0.084715763
0.08790485
0.090767302
0.093320655
0.095584727
0.097580543
0.0993295
0.10085273
0.10217066
0.10330271
0.10426708
0.10508065
0.10575891
0.10631598
0.10676485
0.107117
0.10738316
0.10757201
0.10769301
0.10775191
0.10775644
0.10771256
0.10762603
0.10749925
0.10733677
0.10714152
0.10692327
0.10667528
0.10640286
0.10610918
0.10579549
0.10546304
0.10511296
0.10474623
0.10436365
0.10396542
0.0024604904
0.0078109522
0.013533019
0.019560155
0.02581427
0.032208711
0.038652127
0.045052931
0.051323918
0.05738648
0.063173896
0.06863338
0.073726806
0.07843027
0.082732699
0.086633996
0.090143008
0.093275386
0.096051604
0.098495223
0.10063146
0.10248607
0.10408446
0.10545114
0.10660929
0.10758059
0.10838503
0.10904088
0.10956467
0.10997122
0.11027444
0.11048566
0.11061682
0.11067476
0.11067085
0.11061254
0.11050214
0.11034775
0.11016018
0.10993387
0.10967702
0.10939314
0.10908693
0.10875789
0.10840865
0.10804154
0.10765791
0.10725888
0.1068454
0.10641841
0.1059789
0.10552638
0.0026766947
0.0085173382
0.014775328
0.021369232
0.02820316
0.035171126
0.042162577
0.049068562
0.055787785
0.062231748
0.068328335
0.074023586
0.079281755
0.084083935
0.088425823
0.092315144
0.09576887
0.098810572
0.10146809
0.10377162
0.10575213
0.10744029
0.10886558
0.11005578
0.11103672
0.1118322
0.11246374
0.11295087
0.11331098
0.11355906
0.11371061
0.11377509
0.11376687
0.11369216
0.11356101
0.11338301
0.11315651
0.11289301
0.11259977
0.11227562
0.11192508
0.11155226
0.11116048
0.11075101
0.11032574
0.10988645
0.10943422
0.10896997
0.10849443
0.10800846
0.10751396
0.10700886
0.0029141949
0.009297055
0.016149517
0.023371389
0.030844441
0.0384388
0.046020838
0.053461588
0.060644507
0.067471481
0.073866417
0.079776336
0.085170303
0.090036862
0.094380816
0.098219641
0.10157997
0.10449442
0.10699901
0.10913102
0.11092746
0.11242397
0.11365405
0.11464859
0.11543578
0.11604139
0.11648817
0.11679672
0.11698531
0.11706756
0.11706185
0.11697725
0.11682738
0.11661638
0.11635709
0.1160555
0.11571383
0.11534009
0.11494417
0.11452217
0.11407829
0.11361729
0.11314171
0.1126531
0.11215311
0.11164328
0.11112408
0.11059625
0.11006016
0.1095162
0.1089695
0.10841394
0.0031756084
0.01015983
0.017673458
0.025592529
0.033770684
0.042048564
0.050264999
0.058268328
0.06592604
0.07313142
0.079806641
0.085902587
0.091396155
0.096286303
0.10058947
0.10433492
0.10756045
0.11030882
0.11262483
0.11455323
0.11613717
0.11741724
0.11843075
0.11921143
0.1197894
0.12019244
0.12044374
0.1205651
0.12057432
0.12048756
0.12032146
0.12008364
0.11978757
0.1194385
0.1190522
0.11862841
0.11817041
0.11768472
0.11719066
0.11667134
0.1161346
0.11558686
0.1150293
0.11446327
0.11389024
0.1133119
0.11272759
0.11213813
0.11154336
0.11094109
0.11034682
0.10974353
0.0034639888
0.011117159
0.019368302
0.02806314
0.037019786
0.04604255
0.054937704
0.063528385
0.071666123
0.079237603
0.086166514
0.092411292
0.097960415
0.10282661
0.10704066
0.11064565
0.11369202
0.11623354
0.11832435
0.12001681
0.12136015
0.12239973
0.12317641
0.12372637
0.12408085
0.12427019
0.12431659
0.12424365
0.12407042
0.123809
0.12347563
0.12308528
0.1226435
0.12215251
0.12164243
0.12109783
0.12052362
0.11993251
0.11933189
0.1187174
0.11809219
0.11746008
0.1168227
0.11618121
0.11553691
0.11489277
0.1142453
0.11359646
0.112946
0.0037829224
0.012182735
0.021259269
0.030819334
0.040636036
0.050469086
0.060086733
0.069284895
0.077900234
0.085816127
0.092962159
0.099309033
0.10486125
0.10964896
0.11372012
0.11713365
0.1199539
0.12224641
0.12407489
0.12549929
0.12657463
0.12735082
0.1278718
0.12817599
0.12829365
0.12825937
0.12809627
0.1278227
0.12745804
0.12702203
0.12651845
0.12597652
0.12539125
0.12476137
0.12412084
0.12345465
0.12276906
0.12207297
0.1213711
0.12066316
0.11995093
0.11923675
0.11852195
0.1178072
0.1170931
0.11638704
0.11567799
0.11497216
0.11426819
0.0041366514
0.013373006
0.023376677
0.033904162
0.044671448
0.055383767
0.065765685
0.075584819
0.084665566
0.092892846
0.10020793
0.10659966
0.11209356
0.11674114
0.12061036
0.12377787
0.12632297
0.12832338
0.12985244
0.13097739
0.13175843
0.13224983
0.1324979
0.13254113
0.13241512
0.13214947
0.13176574
0.13128994
0.13072986
0.13012122
0.12945208
0.12875171
0.12801632
0.12724968
0.12648871
0.125702
0.1249052
0.12410596
0.12330657
0.12250779
0.12171086
0.12091721
0.12012767
0.11934225
0.11855829
0.11779707
0.11702653
0.11626652
0.11551144
0.0045302316
0.014707919
0.025757288
0.037369319
0.049187409
0.060850755
0.072034803
0.082479309
0.092001002
0.1004931
0.1079161
0.11428386
0.11964857
0.12408721
0.12769049
0.13055435
0.13277377
0.13443872
0.13563188
0.13642727
0.13688916
0.13707626
0.13703571
0.13681035
0.1364271
0.13592423
0.13531555
0.13463838
0.13388718
0.13309504
0.13225346
0.13140737
0.13052462
0.12962836
0.12873466
0.12783341
0.12693056
0.12603124
0.12513779
0.12425122
0.12337242
0.12250218
0.12164093
0.12078862
0.11994504
0.11911653
0.11828743
0.11748127
0.11667786
0.004969739
0.016211909
0.028446102
0.041277329
0.054256752
0.066944387
0.078962018
0.090024221
0.099947146
0.10864151
0.11609636
0.12235869
0.12751343
0.13166727
0.13493609
0.13743627
0.1392787
0.1405652
0.14138718
0.14182486
0.14194434
0.14181106
0.14147121
0.14096143
0.14031586
0.13957497
0.13874716
0.13785516
0.13690354
0.1359442
0.13493727
0.13392913
0.13290783
0.13188359
0.13086558
0.12985182
0.12884523
0.12784902
0.126865
0.12589398
0.12493647
0.12399278
0.12306293
0.1221467
0.12124401
0.12035644
0.1194782
0.11861642
0.11775909
0.0054625394
0.017915249
0.031498749
0.045704406
0.059966398
0.073751219
0.086624338
0.09828081
0.10854651
0.11736173
0.12475544
0.13081697
0.13567075
0.13945715
0.1423191
0.14439396
0.14580815
0.14667432
0.14709162
0.14714387
0.14690641
0.14643338
0.14578292
0.14498372
0.14408251
0.14309196
0.1420254
0.14093872
0.13979486
0.13864838
0.13748526
0.13632478
0.13516649
0.13401621
0.13287944
0.13175667
0.13064957
0.12955999
0.12848905
0.12743714
0.12640434
0.12539049
0.12439524
0.12341807
0.12245852
0.12151646
0.12058914
0.11967813
0.11877816
0.0060176494
0.019855915
0.034984758
0.050744216
0.066420755
0.081372717
0.095109797
0.10731688
0.11784392
0.12667627
0.13389645
0.13964669
0.14409806
0.14742812
0.1498078
0.15139507
0.1523308
0.15273665
0.15271759
0.15236682
0.15174669
0.1509233
0.14995804
0.14887831
0.147691
0.14646345
0.14517227
0.14386605
0.14254017
0.1412175
0.13989787
0.13859101
0.13729929
0.13602644
0.13477577
0.13354812
0.13234435
0.13116527
0.13001126
0.12888222
0.12777772
0.12669718
0.12563982
0.1246048
0.1235912
0.12259813
0.12162369
0.12066743
0.11972642
0.0066462242
0.022082218
0.038992049
0.056512912
0.073746244
0.089928965
0.10451852
0.11720493
0.12788293
0.1366027
0.14351617
0.14882961
0.1527672
0.15554661
0.15736677
0.1584047
0.1588139
0.15872265
0.15824374
0.15746051
0.15644823
0.15528062
0.15398043
0.15260481
0.1511615
0.14966951
0.14815865
0.1466472
0.14513913
0.14364705
0.14217425
0.14072636
0.13930576
0.13791473
0.13655502
0.13522704
0.13393085
0.13266643
0.13143341
0.13023112
0.12905866
0.12791498
0.12679891
0.12570921
0.1246446
0.12360367
0.12258466
0.1215863
0.12060642
0.0073622322
0.024656585
0.043633223
0.063155984
0.082097506
0.099559874
0.11495898
0.12801633
0.13869996
0.14714873
0.15360131
0.15833876
0.16164329
0.16377396
0.16495698
0.16538567
0.16522538
0.16460476
0.16363403
0.16240702
0.1610104
0.15946404
0.15785007
0.15616677
0.15444675
0.15271459
0.15098683
0.14927678
0.14759023
0.14593482
0.14431382
0.14273046
0.14118619
0.139682
0.13821834
0.13679484
0.13541082
0.13406542
0.1327576
0.13148609
0.13024949
0.12904631
0.12787498
0.12673388
0.12562134
0.1245356
0.12347476
0.12243712
0.12142072
0.0081834139
0.027661147
0.049054521
0.070857865
0.091660915
0.11042201
0.12654305
0.13981661
0.15032029
0.15830899
0.16412578
0.1681362
0.17068339
0.17206637
0.172536
0.17230149
0.17153199
0.17034458
0.16886704
0.16720633
0.16537931
0.16348981
0.16152702
0.15954449
0.15756121
0.15559337
0.15365368
0.15175167
0.14989225
0.14807991
0.14631665
0.14460381
0.1429416
0.14132972
0.13976743
0.1382535
0.13678642
0.1353646
0.13398629
0.13264967
0.13135283
0.13009383
0.1288707
0.12768148
0.12652416
0.12539659
0.12429669
0.12322249
0.12217195
0.009132694
0.031206165
0.055448847
0.079850965
0.1026551
0.12268588
0.13938129
0.15266021
0.1627537
0.17006191
0.17504888
0.17817218
0.17983591
0.18037468
0.18006231
0.17910981
0.17769327
0.17591642
0.17394342
0.17179241
0.16958377
0.1673001
0.16501175
0.16273964
0.16049904
0.15830184
0.15615688
0.1540702
0.15204476
0.15008245
0.14818356
0.14634768
0.14457363
0.14285986
0.14120449
0.13960538
0.1380602
0.13656661
0.13512223
0.13372465
0.13237149
0.13106035
0.12978891
0.12855486
0.12735587
0.12618942
0.1250532
0.12394506
0.1228628
0.010240364
0.035443123
0.063072783
0.090424535
0.11533236
0.13653138
0.15357601
0.16658401
0.17598961
0.18236676
0.18631381
0.1883848
0.18904104
0.18864984
0.18748505
0.18576166
0.18368221
0.18132054
0.17878599