/*--------------------------------*- C++ -*----------------------------------*\
| =========                 |                                                 |
| \\      /  F ield         | OpenFOAM: The Open Source CFD Toolbox           |
|  \\    /   O peration     | Version:  2312                                  |
|   \\  /    A nd           | Website:  www.openfoam.com                      |
|    \\/     M anipulation  |                                                 |
\*---------------------------------------------------------------------------*/
FoamFile
{
    version     2.0;
    format      ascii;
    arch        "LSB;label=32;scalar=64";
    class       volScalarField;
    location    "0.05";
    object      H2O;
}
// * * * * * * * * * * * * * * * * * * * * * * * * * * * * * * * * * * * * * //

dimensions      [0 0 0 0 0 0 0];

internalField   nonuniform List<scalar> 
3221
(
7.2584735e-05
0.00022518577
0.00038539623
0.00055325529
0.00072877826
0.00091195809
0.0011027665
0.0013011549
0.0015070555
0.0017203826
0.0019410337
0.0021688905
0.0024038206
0.0026456787
0.0028943077
0.0031495403
0.0034111998
0.0036791017
0.0039530545
0.0042328606
0.0045183174
0.0048092181
0.0051053523
0.0054065068
0.0057124656
0.0060230114
0.0063379259
0.0066569881
0.0069799756
0.0073066659
0.0076368358
0.0079702612
0.0083067175
0.0086459792
0.0089878198
0.0093320119
0.009678327
0.010026535
0.010376403
0.010727699
0.011080185
0.011433622
0.011787768
0.012142376
0.012497196
0.012851971
0.01320644
0.013560336
0.013913383
0.014265297
0.014615785
0.014964537
7.3252453e-05
0.00022726597
0.00038896716
0.00055839411
0.00073555968
0.00092045372
0.0011130444
0.0013132796
0.0015210875
0.0017363785
0.0019590458
0.002188967
0.0024260055
0.0026700115
0.0029208238
0.0031782703
0.0034421702
0.0037123342
0.0039885665
0.0042706649
0.0045584225
0.0048516278
0.0051500661
0.0054535196
0.0057617681
0.0060745903
0.0063917634
0.006713062
0.0070382601
0.0073671313
0.0076994488
0.0080349851
0.0083735123
0.0087148019
0.0090586247
0.0094047509
0.0097529497
0.010102989
0.010454636
0.010807654
0.011161807
0.011516856
0.011872557
0.012228663
0.012584926
0.012941091
0.013296897
0.013652079
0.014006367
0.014359482
0.014711136
0.015061002
7.4553454e-05
0.00023131561
0.00039591027
0.00056837302
0.00074871319
0.00093691585
0.0011329434
0.0013367369
0.0015482176
0.0017672882
0.0019938339
0.0022277242
0.0024688141
0.0027169452
0.0029719474
0.0032336401
0.0035018333
0.0037763288
0.0040569217
0.0043434007
0.0046355498
0.0049331485
0.005235973
0.0055437968
0.005856391
0.0061735259
0.0064949699
0.0068204893
0.0071498506
0.00748282
0.0078191635
0.0081586471
0.0085010367
0.008846098
0.0091935968
0.0095432989
0.0098949695
0.010248373
0.010603275
0.010959437
0.01131662
0.011674586
0.012033092
0.012391891
0.012750737
0.013109376
0.013467552
0.013825003
0.014181463
0.014536656
0.014890299
0.015242068
7.6453348e-05
0.00023722946
0.00040604726
0.00058293648
0.00076790021
0.00096091631
0.0011619388
0.0013708995
0.0015877094
0.0018122602
0.0020444256
0.0022840631
0.0025310152
0.0027851108
0.0030461668
0.0033139891
0.0035883742
0.0038691105
0.004155979
0.0044487548
0.0047472079
0.0050511043
0.0053602063
0.0056742739
0.0059930655
0.0063163383
0.0066438472
0.0069753469
0.0073105924
0.0076493389
0.0079913421
0.0083363583
0.0086841444
0.0090344585
0.0093870592
0.0097417061
0.010098159
0.01045618
0.010815529
0.011175967
0.011537256
0.011899154
0.012261423
0.012623817
0.012986093
0.013348001
0.013709292
0.014069707
0.014428988
0.014786866
0.015143063
0.015497266
7.8925224e-05
0.00024492488
0.00041923786
0.00060188449
0.00079285821
0.00099212643
0.0011996318
0.0014152935
0.0016390092
0.0018706561
0.0021100927
0.0023571607
0.0026116858
0.00287348
0.0031423425
0.0034180616
0.0037004153
0.0039891736
0.0042840988
0.0045849471
0.0048914697
0.0052034138
0.0055205232
0.0058425399
0.0061692045
0.0065002559
0.006835432
0.0071744719
0.0075171152
0.0078631027
0.0082121766
0.0085640808
0.0089185612
0.0092753657
0.0096342446
0.0099949502
0.010357237
0.010720862
0.011085582
0.011451159
0.011817353
0.012183925
0.012550638
0.012917253
0.01328353
0.013649228
0.014014104
0.014377909
0.014740392
0.015101297
0.015460356
0.015817268
8.1949047e-05
0.00025434087
0.0004353791
0.00062507105
0.00082339677
0.0010303095
0.0012457369
0.0014695819
0.001701725
0.0019420252
0.0021903217
0.002446436
0.0027101731
0.002981323
0.0032596629
0.0035449578
0.0038369628
0.004135424
0.0044400798
0.0047506624
0.0050668986
0.0053885114
0.0057152212
0.0060467467
0.006382805
0.0067231122
0.0070673859
0.0074153448
0.0077667097
0.0081212035
0.008478552
0.0088384844
0.0092007336
0.0095650361
0.0099311326
0.010298768
0.010667691
0.011037655
0.011408415
0.011779733
0.012151371
0.012523094
0.01289467
0.013265868
0.013636456
0.014006202
0.014374875
0.014742238
0.015108054
0.01547208
0.015834065
0.016193721
8.5511428e-05
0.00026543736
0.00045440412
0.00065240235
0.00085939475
0.0010753164
0.0013000757
0.0015335555
0.0017756146
0.0020260893
0.0022847954
0.0025515292
0.00282607
0.003108181
0.0033976117
0.0036940989
0.0039973687
0.0043071376
0.0046231143
0.004945001
0.0052724947
0.0056052888
0.0059430742
0.00628554
0.0066323743
0.0069832674
0.0073379111
0.0076960001
0.0080572322
0.0084213097
0.0087879398
0.0091568348
0.0095277131
0.0099002992
0.010274324
0.010649526
0.011025648
0.011402441
0.011779662
0.012157073
0.012534443
0.012911542
0.013288148
0.01366404
0.014038998
0.014412805
0.014785244
0.015156097
0.015525141
0.015892152
0.016256898
0.016619115
8.9605337e-05
0.00027819431
0.00047628071
0.00068383468
0.00090079747
0.0011270817
0.0013625719
0.001607126
0.0018605765
0.0021227322
0.0023933797
0.0026722854
0.0029591968
0.0032538449
0.0035559451
0.0038652
0.0041813
0.004503926
0.0048327501
0.0051674382
0.0055076511
0.0058530462
0.006203278
0.0065580002
0.0069168682
0.00727954
0.0076456775
0.0080149473
0.0083870214
0.0087615787
0.0091383056
0.0095168965
0.0098970548
0.010278493
0.010660934
0.011044108
0.011427757
0.011811633
0.012195495
0.01257911
0.012962256
0.013344716
0.013726278
0.014106737
0.014485891
0.014863541
0.015239489
0.015613537
0.015985487
0.016355137
0.016722277
0.01708667
9.4229784e-05
0.00029261084
0.00050100977
0.00071937233
0.00094761397
0.00118562
0.0014332464
0.0016903208
0.0019566439
0.0022319912
0.0025161145
0.0028087435
0.003109588
0.0034183394
0.0037346728
0.0040582488
0.0043887152
0.0047257093
0.0050688598
0.005417789
0.005772114
0.0061314479
0.0064954029
0.0068635925
0.0072356328
0.0076111447
0.0079897556
0.0083711004
0.0087548228
0.0091405761
0.0095280249
0.0099168454
0.010306726
0.01069737
0.011088491
0.011479818
0.011871094
0.012262072
0.01265252
0.013042217
0.013430952
0.013818524
0.014204741
0.014589416
0.014972371
0.01535343
0.01573242
0.01610917
0.016483508
0.016855258
0.017224241
0.017590249
9.9389511e-05
0.00030870425
0.00052862387
0.00075906559
0.00099991443
0.0012510234
0.0015122142
0.0017832785
0.002063979
0.0023540512
0.0026532051
0.0029611268
0.0032774804
0.0036019103
0.0039340427
0.0042734878
0.0046198426
0.0049726921
0.0053316138
0.005696177
0.0060659456
0.0064404824
0.0068193507
0.0072021167
0.0075883516
0.0079776344
0.0083695538
0.0087637103
0.0091597169
0.0095572005
0.0099558039
0.010355186
0.010755023
0.011155008
0.011554854
0.01195429
0.012353063
0.012750936
0.01314769
0.013543119
0.013937033
0.014329251
0.014719605
0.015107938
0.015494096
0.015877934
0.01625931
0.016638083
0.017014114
0.01738726
0.017757372
0.01812428
0.0001050947
0.0003265092
0.00055918585
0.0008030089
0.0010578279
0.0013234581
0.0015996807
0.0018862449
0.0021828682
0.0024892387
0.0028050164
0.0031298352
0.0034633049
0.0038050131
0.0041545276
0.0045113988
0.0048751623
0.0052453427
0.0056214538
0.006003002
0.0063894912
0.0067804253
0.0071753107
0.0075736595
0.0079749928
0.008378843
0.0087847571
0.0091922988
0.0096010497
0.010010611
0.010420604
0.010830674
0.011240487
0.011649733
0.012058127
0.012465403
0.012871321
0.013275659
0.013678218
0.014078815
0.014477284
0.014873477
0.015267254
0.015658491
0.016047069
0.016432879
0.016815816
0.017195774
0.017572651
0.017946342
0.018316735
0.0186837
0.00011136068
0.00034607695
0.00059278762
0.00085133924
0.0011215405
0.0014031625
0.0016959395
0.0019995703
0.0023137193
0.0026380182
0.0029720677
0.0033154394
0.0036676779
0.0040283034
0.0043968138
0.0047726883
0.0051553904
0.0055443697
0.0059390658
0.0063389135
0.0067433465
0.0071518001
0.0075637161
0.0079785463
0.0083957561
0.008814828
0.0092352653
0.0096565941
0.010078365
0.010500155
0.010921569
0.01134224
0.011761833
0.012180039
0.012596582
0.01301121
0.013423701
0.01383386
0.014241511
0.014646506
0.015048711
0.015448015
0.015844317
0.016237532
0.016627584
0.017014403
0.017397927
0.017778093
0.018154841
0.018528107
0.01889782
0.019263894
0.00011820773
0.00036747467
0.00062954915
0.00090423487
0.0011912936
0.0014904455
0.0018013701
0.0021237072
0.0024570585
0.002800989
0.0031550288
0.0035186754
0.0038913956
0.0042726289
0.0046617909
0.0050582753
0.0054614577
0.0058707004
0.006285358
0.0067047813
0.0071283222
0.0075553387
0.0079852002
0.0084172918
0.0088510194
0.0092858133
0.0097211322
0.010156466
0.010591336
0.011025301
0.011457953
0.011888923
0.012317878
0.012744521
0.013168593
0.013589866
0.014008148
0.014423273
0.014835106
0.015243537
0.015648476
0.016049854
0.01644762
0.016841734
0.017232168
0.0176189
0.018001916
0.018381201
0.018756739
0.019128513
0.019496497
0.019860653
0.00012566077
0.00039078489
0.00066961767
0.00096191433
0.0012673831
0.0015856854
0.001916437
0.002259209
0.0026135289
0.0029788828
0.0033547172
0.0037404407
0.0041354277
0.0045390228
0.0049505411
0.0053692733
0.0057944933
0.0062254622
0.0066614343
0.0071016632
0.0075454081
0.0079919404
0.0084405497
0.0088905497
0.0093412838
0.0097921296
0.010242503
0.010691861
0.011139702
0.011585571
0.012029058
0.012469798
0.012907473
0.013341809
0.013772573
0.014199573
0.014622656
0.0150417
0.015456617
0.015867346
0.016273851
0.016676115
0.01707414
0.017467942
0.017857547
0.018242987
0.018624299
0.019001522
0.01937469
0.019743835
0.020108979
0.020470134
0.00013374928
0.00041610508
0.00071316709
0.0010246359
0.0013501586
0.0016893292
0.0020416894
0.0024067294
0.0027838898
0.003172563
0.0035720958
0.0039817912
0.0044009148
0.0048286944
0.005264325
0.0057069788
0.0061558093
0.0066099587
0.0070685654
0.0075307723
0.0079957347
0.0084626283
0.008930657
0.0093990599
0.0098671173
0.010334156
0.010799555
0.011262742
0.011723203
0.012180478
0.012634166
0.01308392
0.013529449
0.013970512
0.014406919
0.014838525
0.015265227
0.01568696
0.016103693
0.016515426
0.016922183
0.01732401
0.017720971
0.018113142
0.018500609
0.018883465
0.019261804
0.019635719
0.020005301
0.020370631
0.020731784
0.021088822
0.00014250708
0.00044354732
0.00076039775
0.0010926974
0.0014400239
0.0018018934
0.0021777613
0.0025670234
0.0029690173
0.0033830244
0.0038082728
0.004243941
0.0046891602
0.0051430194
0.0056045751
0.0060728576
0.0065468793
0.0070256446
0.0075081594
0.0079934419
0.0084805325
0.008968504
0.0094564704
0.0099435953
0.010429099
0.010912263
0.011392434
0.011869026
0.01234152
0.012809467
0.013272489
0.013730271
0.014182563
0.014629174
0.015069971
0.015504869
0.015933829
0.016356856
0.016773986
0.01718529
0.017590863
0.017990821
0.018385295
0.018774431
0.019158381
0.019537299
0.019911342
0.020280664
0.020645408
0.021005714
0.021361705
0.021713501
0.00015197226
0.00047323824
0.00081153641
0.0011664367
0.0015374372
0.0019239645
0.0023253735
0.0027409487
0.003169906
0.0036113953
0.0040645032
0.0045282556
0.0050016244
0.0054835369
0.0059728834
0.0064685274
0.0069693175
0.0074740993
0.0079817293
0.0084910872
0.0090010893
0.0095107001
0.010018943
0.010524908
0.011027763
0.011526753
0.012021206
0.012510532
0.012994226
0.013471868
0.013943118
0.014407711
0.014865458
0.015316234
0.015759975
0.016196675
0.016626372
0.01704915
0.017465128
0.017874456
0.018277307
0.018673876
0.01906437
0.019449007
0.019828009
0.020201599
0.020569997
0.020933417
0.021292063
0.021646128
0.02199579
0.022341223
0.00016218712
0.00050531899
0.00086683659
0.001246232
0.0016429128
0.0020562016
0.0024853358
0.0029294688
0.0033876729
0.0038589399
0.0043421843
0.0048362512
0.0053399253
0.0058519398
0.0063709886
0.0068957405
0.0074248548
0.0079569974
0.0084908577
0.0090251655
0.0095587056
0.010090332
0.010618981
0.011143678
0.011663547
0.012177812
0.012685797
0.01318693
0.013680738
0.01416685
0.014644986
0.015114952
0.015576636
0.016029998
0.016475063
0.016911914
0.017340684
0.017761548
0.018174716
0.018580428
0.018978944
0.019370542
0.019755513
0.02013415
0.020506749
0.020873604
0.021235
0.021591214
0.021942509
0.022289132
0.022631315
0.02296929
0.00017319815
0.00053994549
0.00092657928
0.0013325039
0.0017570232
0.002199339
0.0026585508
0.0031336582
0.0036235601
0.0041270566
0.004642859
0.0051695975
0.0057058319
0.0062500654
0.0068007614
0.007356363
0.0079153133
0.0084760768
0.0090371604
0.0095971341
0.010154648
0.010708451
0.011257396
0.01180046
0.01233674
0.012865457
0.013385954
0.013897699
0.014400278
0.01489339
0.015376839
0.015850524
0.016314431
0.016768624
0.017213234
0.01764845
0.01807451
0.018491692
0.018900308
0.019300696
0.01969321
0.020078219
0.020456096
0.020827218
0.021191957
0.021550677
0.02190373
0.022251454
0.022594171
0.022932182
0.023265773
0.02359523
0.00018505603
0.00057728884
0.00099107398
0.0014257169
0.001880402
0.0023541902
0.0028460205
0.003354706
0.0038789358
0.0044172846
0.0049682201
0.005530114
0.0061012583
0.0066798848
0.0072641885
0.0078523529
0.0084425774
0.0090331045
0.009622246
0.010208407
0.010790106
0.011365991
0.011934856
0.012495641
0.013047441
0.0135895
0.014121207
0.014642098
0.015151846
0.015650248
0.016137216
0.016612766
0.017077005
0.017530117
0.017972357
0.018404034
0.018825503
0.01923716
0.019639423
0.020032736
0.020417554
0.020794337
0.021163549
0.02152565
0.021881087
0.022230296
0.022573697
0.022911688
0.023244646
0.023572924
0.023896852
0.024216776
0.00019781579
0.00061753586
0.0010606601
0.0015263819
0.0020137476
0.0025216554
0.0030488494
0.0035939181
0.0041553043
0.0047313105
0.0053201108
0.0059197681
0.0065282569
0.0071434906
0.0077633535
0.0083857345
0.0090085625
0.0096298401
0.010247676
0.01086031
0.01146614
0.012063733
0.012651838
0.013229394
0.013795519
0.014349509
0.014890837
0.015419139
0.015934204
0.016435956
0.016924444
0.017399823
0.017862341
0.018312325
0.018750167
0.01917631
0.01959124
0.019995474
0.020389549
0.020774017
0.021149437
0.021516366
0.021875359
0.022226957
0.022571687
0.022910057
0.02324255
0.023569619
0.023891696
0.024209182
0.024522435
0.024831846
0.00021153684
0.00066089
0.0011357091
0.0016350598
0.0021578308
0.0027027237
0.0032682485
0.0038527303
0.0044543132
0.0050709713
0.0057005263
0.0063406729
0.0069890107
0.0076430823
0.0083004162
0.0089585714
0.0096151817
0.010267997
0.010914921
0.01155404
0.012183647
0.012802252
0.013408598
0.014001648
0.014580581
0.015144789
0.015693862
0.016227574
0.016745863
0.017248812
0.017736632
0.018209642
0.018668253
0.019112951
0.019544279
0.019962828
0.020369223
0.02076411
0.02114815
0.021522007
0.021886345
0.022241819
0.022589074
0.022928735
0.023261409
0.023587671
0.023908063
0.024223092
0.024533239
0.024838965
0.025140604
0.025438495
0.00022628322
0.00070757226
0.0012166263
0.0017523678
0.0023134963
0.0028984784
0.0035055497
0.0041327158
0.0047777599
0.0054382599
0.0061116153
0.006795083
0.0074858227
0.0081809491
0.0088775883
0.0095729357
0.010264311
0.010949205
0.011625325
0.012290622
0.012943314
0.013581892
0.014205128
0.014812052
0.015401953
0.01597436
0.016529023
0.017065892
0.017585088
0.018086886
0.018571684
0.019039991
0.019492398
0.019929565
0.020352202
0.020761058
0.021156901
0.021540515
0.021912684
0.022274189
0.022625796
0.02296826
0.023302314
0.023628667
0.023948002
0.024260962
0.024568146
0.02487009
0.025167326
0.02546047
0.025749726
0.026034782
0.00024212377
0.00075782258
0.001303857
0.0018789803
0.0024816676
0.003110111
0.0037622141
0.004435595
0.0051276003
0.0058353308
0.0065556807
0.0072853895
0.0080211042
0.0087594508
0.0094971072
0.010230876
0.01095775
0.011674968
0.012380059
0.013070871
0.013745587
0.014402726
0.015041135
0.015659965
0.016258667
0.016836954
0.017394784
0.017932319
0.018449903
0.018948028
0.019427311
0.019888468
0.020332289
0.020759623
0.021171358
0.021568405
0.021951684
0.022322118
0.022680616
0.023028072
0.023365357
0.02369332
0.02401278
0.024324525
0.024629319
0.024927869
0.025220842
0.025508744
0.02579208
0.026072054
0.026348847
0.026618215
0.00025913239
0.00081190347
0.0013978853
0.0020156328
0.0026633612
0.003338931
0.0040398433
0.0047632464
0.0055059582
0.0062645054
0.0070351799
0.0078141127
0.0085973597
0.0093809955
0.010161207
0.010934383
0.01169719
0.01244663
0.01318009
0.013895359
0.01459064
0.015264534
0.015916021
0.016544438
0.017149452
0.017731015
0.018289335
0.018824832
0.019338103
0.019829889
0.020301049
0.020752524
0.021185321
0.021600488
0.021999098
0.022382231
0.022750962
0.02310635
0.02344943
0.023781207
0.024102656
0.024414706
0.024718261
0.025014177
0.025303317
0.025586433
0.025864354
0.026137408
0.026405485
0.026671856
0.026930026
0.027189121
0.0002773902
0.00087009845
0.0014992374
0.0021631351
0.0028596948
0.0035863766
0.0043401923
0.0051177193
0.0059151355
0.0067282775
0.0075527231
0.0083838936
0.0092171701
0.010048015
0.010872089
0.011685358
0.012484173
0.013265338
0.014026145
0.014764387
0.01547835
0.016166782
0.016828873
0.017464212
0.018072739
0.018654704
0.019210608
0.01974117
0.020247273
0.020729936
0.021190278
0.021629485
0.022048791
0.022449451
0.022832729
0.023199877
0.023552121
0.023890659
0.024216652
0.024531207
0.024835392
0.025130207
0.025416646
0.025695584
0.025968073
0.026234742
0.026497048
0.02675506
0.027005001
0.027253981
0.027501124
0.027747923
0.00029698192
0.0009327143
0.0016084922
0.0023223775
0.0030718987
0.0038540293
0.0046651851
0.0055012484
0.0063576224
0.007229318
0.008111071
0.0089974825
0.0098831733
0.010762938
0.011631889
0.012485572
0.013320059
0.014132007
0.014918683
0.015677956
0.016408273
0.017108616
0.017778461
0.018417718
0.01902667
0.01960591
0.020156288
0.020678854
0.02117481
0.021645476
0.022092249
0.022516574
0.022919918
0.023303751
0.023669529
0.024018672
0.024352565
0.024672536
0.024979864
0.025275745
0.025561355
0.025837705
0.026105959
0.026366779
0.026621863
0.026870746
0.027117212
0.027354472
0.027591329
0.027827326
0.028056191
0.028287931
0.00031799912
0.0010000865
0.0017262851
0.0024943408
0.0033013295
0.0041436308
0.005016932
0.0059162687
0.0068361089
0.0077704792
0.00871313
0.0096577253
0.010598043
0.011528164
0.012442644
0.013336638
0.014205994
0.015047295
0.015857869
0.016635751
0.017379643
0.018088855
0.018763235
0.019403088
0.020009101
0.020582271
0.021123833
0.021635208
0.022117944
0.02257368
0.023004106
0.023410933
0.02379587
0.0241606
0.024506768
0.024835967
0.025149739
0.025449518
0.025736718
0.026012568
0.02627845
0.026535147
0.026784457
0.02702571
0.027263568
0.027491806
0.027719566
0.027944499
0.028161875
0.028381536
0.028598202
0.028814435
0.00034054103
0.0010725823
0.001853315
0.002680108
0.003549486
0.0044571016
0.0053977494
0.006365434
0.0073534968
0.0083547987
0.0093619471
0.010367549
0.011364463
0.01234603
0.013306263
0.014239979
0.01514288
0.016011575
0.016843551
0.017637121
0.018391356
0.019105992
0.019781335
0.020418161
0.021017627
0.021581182
0.022110494
0.022607381
0.02307376
0.023511603
0.023922906
0.024309649
0.024673783
0.025017198
0.025341734
0.025649146
0.025941143
0.026219199
0.026484968
0.026739467
0.026984791
0.027220374
0.027451037
0.027669415
0.027887065
0.028101467
0.028307657
0.028515297
0.028718865
0.028921603
0.029123101
0.029324289
0.00036471473
0.001150604
0.0019903539
0.0028808789
0.0038180298
0.0047965647
0.005810183
0.0068516353
0.0079129118
0.0089855016
0.010060701
0.011129943
0.012185106
0.013218785
0.014224494
0.015196794
0.016131348
0.017024907
0.017875243
0.018681081
0.019441976
0.020158196
0.020830594
0.021460496
0.022049587
0.022599821
0.023113332
0.023592365
0.02403922
0.024456211
0.024845645
0.025209771
0.025550779
0.025870761
0.026171755
0.026455628
0.026724368
0.026979209
0.027222562
0.027454111
0.027679078
0.027890305
0.028100346
0.028299891
0.028496133
0.028691778
0.028882221
0.029071235
0.029258305
0.029444593
0.029630486
0.029816623
0.0003906361
0.0012345943
0.002138257
0.0030979879
0.004108808
0.0051643718
0.0062570341
0.0073780231
0.0085177165
0.0096660034
0.010812695
0.011947942
0.013062604
0.014148557
0.015198894
0.016208033
0.01717173
0.018087018
0.018952117
0.019766298
0.020529729
0.021243316
0.021908553
0.022527384
0.023102086
0.02363516
0.024129242
0.024587022
0.025011187
0.025404398
0.025769279
0.02610833
0.026424004
0.026718539
0.026994225
0.027252845
0.027497195
0.027727064
0.027948009
0.028153286
0.028355957
0.028545879
0.028732584
0.028913969
0.029091258
0.029266407
0.02943878
0.029609759
0.029779795
0.029949626
0.030119779
0.030290839
0.00041843085
0.0013250424
0.0022979771
0.0033329256
0.0044238823
0.0055631358
0.0067413902
0.0079480311
0.0091715242
0.010399911
0.011621345
0.012824604
0.013999526
0.015137329
0.0162308
0.017274363
0.018264029
0.019197295
0.020072991
0.02089109
0.021652504
0.022358887
0.023012463
0.023615863
0.024172007
0.024683988
0.025154967
0.025588099
0.025986448
0.026353009
0.026690744
0.027002363
0.027290652
0.027557808
0.02780668
0.028038094
0.028257956
0.02845948
0.028655955
0.028837592
0.029015913
0.029185993
0.029349987
0.029510368
0.029667784
0.029823148
0.029976881
0.030129857
0.030282707
0.030436065
0.030590466
0.030746481
0.00044823589
0.0014224912
0.0024705804
0.0035873651
0.0047655629
0.0059957683
0.0072666602
0.0085654034
0.0098782133
0.011191023
0.012490166
0.013762992
0.014998347
0.016186902
0.017321299
0.018396144
0.01940791
0.020354761
0.02123632
0.022053419
0.022807851
0.023502133
0.024139296
0.024722723
0.025256023
0.02574292
0.026187117
0.026592254
0.026961739
0.027298845
0.027606999
0.027888906
0.028148027
0.028385808
0.028607085
0.028807878
0.02900128
0.029177046
0.029346621
0.029506202
0.029659934
0.02980819
0.029948402
0.030087783
0.030225155
0.030360867
0.030495818
0.030630803
0.030766475
0.030903417
0.031042137
0.03118321
0.00048020097
0.0015275473
0.0026572676
0.0038631946
0.0051364504
0.0064655247
0.0078366157
0.0092342247
0.010641944
0.012043333
0.013422768
0.014766151
0.016061427
0.017298877
0.018471194
0.019573401
0.020602675
0.021558064
0.022440179
0.02325088
0.023992979
0.024669964
0.025285753
0.025844524
0.026350614
0.026808417
0.027222181
0.02759608
0.027933775
0.028238672
0.028515093
0.028764923
0.028993741
0.029199408
0.029389442
0.029562335
0.029727352
0.029879508
0.030019825
0.030155316
0.030284659
0.030408956
0.03052845
0.03064619
0.03076277
0.030878773
0.030994952
0.03111203
0.031230636
0.031351311
0.03147449
0.031600793
0.00051449069
0.0016408926
0.0028593999
0.0041625584
0.0055394875
0.0069760586
0.0084554385
0.0099589558
0.011467176
0.012961031
0.014422837
0.015837089
0.017190978
0.018474605
0.019680969
0.020805799
0.021847235
0.02280545
0.023682249
0.02448069
0.025204744
0.025858981
0.026448268
0.026977605
0.027452071
0.02787681
0.028256528
0.02859612
0.028899336
0.029169139
0.029412349
0.029626989
0.029821023
0.029996756
0.030156544
0.030299962
0.030435687
0.030560131
0.03067515
0.030784553
0.030889114
0.030989777
0.031087413
0.031183766
0.031279784
0.031376204
0.031473748
0.031573095
0.031674848
0.031779501
0.031887322
0.031999078
0.00055128699
0.0017632992
0.0030785313
0.0044879074
0.0059780216
0.0075314866
0.0091277785
0.010744474
0.012358692
0.013948506
0.015494127
0.016978756
0.018389032
0.019715157
0.020950765
0.022092605
0.023140078
0.024094737
0.024959791
0.025739668
0.026439638
0.027065468
0.027623019
0.028118103
0.028556511
0.028944329
0.029286389
0.029588888
0.02985546
0.03008644
0.030291589
0.030473063
0.030632435
0.030776299
0.030904629
0.031019004
0.031124198
0.031220432
0.031308747
0.031392267
0.031472146
0.031549305
0.031624788
0.031699889
0.03177558
0.031852646
0.031931794
0.032013673
0.03209887
0.032187886
0.032280524
0.032377984
0.00059079226
0.0018956487
0.0033164511
0.0048420633
0.006455883
0.0081364679
0.0098588201
0.011596123
0.013321625
0.015010354
0.016640453
0.018194008
0.019657399
0.021021288
0.022280328
0.023432646
0.024479226
0.025423273
0.026269618
0.027024218
0.027693774
0.028285392
0.028805939
0.029261983
0.029659847
0.030007202
0.030307776
0.030570826
0.030794356
0.030988111
0.03115483
0.031301185
0.031426621
0.031536349
0.031631746
0.031715517
0.031790735
0.031858832
0.031919603
0.031977377
0.032032796
0.032086611
0.032139992
0.032194048
0.032249704
0.032307728
0.032368805
0.032433549
0.032502543
0.032576557
0.032654071
0.032737469
0.00063323323
0.0020389567
0.0035752371
0.0052282998
0.0069774821
0.0087963003
0.010654366
0.012519771
0.014361489
0.016151394
0.017865675
0.019485582
0.020997627
0.022393383
0.02366895
0.02482424
0.025862172
0.02678789
0.027608061
0.028330307
0.028962864
0.029514395
0.029992733
0.030405117
0.030757703
0.031061888
0.031316304
0.031534947
0.031717051
0.031872271
0.032001213
0.032109003
0.032198613
0.032274142
0.032335881
0.032388365
0.032433691
0.03247297
0.032507388
0.032539436
0.032570325
0.032601008
0.032632521
0.032665846
0.032701836
0.032741207
0.032784614
0.032832616
0.032885704
0.00067886589
0.0021944046
0.0038573252
0.0056504464
0.0075479312
0.0095170403
0.011520936
0.013521888
0.015484235
0.017376677
0.019173676
0.020856048
0.022410947
0.023831375
0.025115383
0.026265118
0.027285813
0.028184852
0.028970935
0.029653451
0.030242191
0.030747796
0.031178883
0.031543474
0.031845038
0.032099923
0.032308739
0.03248321
0.032623312
0.032735753
0.032825112
0.03289365
0.032946361
0.032986795
0.033015873
0.033036881
0.033052011
0.03306278
0.033070597
0.033077258
0.033084041
0.033091965
0.03310199
0.033115002
0.033131781
0.033152963
0.033179174
0.033210913
0.033248607
0.00072798161
0.0023633815
0.0041656002
0.0061130218
0.0081731981
0.010305652
0.012465899
0.01460964
0.016696301
0.018691499
0.020568338
0.022307758
0.023898173
0.025334637
0.026617726
0.027752316
0.028746363
0.029609785
0.03035351
0.030988732
0.031526559
0.031980602
0.032359588
0.032666979
0.032918174
0.033123209
0.033285222
0.033411323
0.03350686
0.03357526
0.033623191
0.033653256
0.033669005
0.033673799
0.033669762
0.033659335
0.033644594
0.03362721
0.033608614
0.033590293
0.03357346
0.033559113
0.033548145
0.033541358
0.033539468
0.033542986
0.033552539
0.033568565
0.033591391
0.00078091502
0.0025475394
0.0045035151
0.0066214062
0.0088603026
0.011170199
0.013497636
0.015791022
0.018004693
0.020101418
0.022053505
0.023842743
0.025459571
0.02690183
0.028173278
0.029282058
0.030239257
0.031057621
0.031750483
0.032330868
0.0328102
0.033207585
0.03352509
0.033776681
0.03397633
0.03412759
0.034238946
0.034315181
0.034363951
0.034389047
0.034394919
0.034385589
0.034364077
0.034333535
0.034296351
0.034254714
0.034210555
0.03416549
0.034120913
0.034078132
0.034038259
0.03400223
0.033970861
0.033944868
0.033924876
0.033911388
0.033904899
0.033905794
0.033914297
0.00083805395
0.0027488674
0.0048752509
0.007182068
0.0096175701
0.012120091
0.014625762
0.017075027
0.019417071
0.021612263
0.023632899
0.025462555
0.027094652
0.028530702
0.029778367
0.030849615
0.031759058
0.032522535
0.033155946
0.033674425
0.034086533
0.034418348
0.034676695
0.034871139
0.035012665
0.035107507
0.03516545
0.035192532
0.035193575
0.035174208
0.035137846
0.035088821
0.03503013
0.034964621
0.034894644
0.034822247
0.034749217
0.03467707
0.034607112
0.034540511
0.034478268
0.034421235
0.03437014
0.034325616
0.0342882
0.034258342
0.034236439
0.034222804
0.034217733
0.00089985225
0.0029697925
0.0052859305
0.007802862
0.010454965
0.013166415
0.015861429
0.018471866
0.020941866
0.023230111
0.025309962
0.02716802
0.028801906
0.030217837
0.031428147
0.03244917
0.03329938
0.033997907
0.034563287
0.035005906
0.035350722
0.035617383
0.035809657
0.035941523
0.036021367
0.036059974
0.036063747
0.036039952
0.035992931
0.03592838
0.035849993
0.035761538
0.035666001
0.035566021
0.035463818
0.035361295
0.035260086
0.035161584
0.035066979
0.034977306
0.034893454
0.034816173
0.034746102
0.034683781
0.034629668
0.034584138
0.034547507
0.034520021
0.034501943
0.00096684637
0.0032133194
0.005741912
0.0084934301
0.011384537
0.014322393
0.017217749
0.019993277
0.022588395
0.024961184
0.027087586
0.028958873
0.030578437
0.031958353
0.033116394
0.034073702
0.034852841
0.035476347
0.035958451
0.036326435
0.036601649
0.036795056
0.036916809
0.036982451
0.037001127
0.036981238
0.036930112
0.03685447
0.036759468
0.03665
0.036529856
0.03640247
0.036270682
0.036136926
0.036003255
0.035871404
0.035742849
0.03561884
0.035500434
0.035388535
0.035283913
0.035187211
0.035098972
0.035019646
0.034949603
0.034889143
0.034838502
0.03479786
0.034767434
0.0010396771
0.0034832269
0.0062511948
0.0092657472
0.012421038
0.015604025
0.018710106
0.021652305
0.024366191
0.026810969
0.028967277
0.030833158
0.032419513
0.03374559
0.034835317
0.035714911
0.036411068
0.036942161
0.037343069
0.037632889
0.037828192
0.037943235
0.037994147
0.037991953
0.037947455
0.037867786
0.037761281
0.037634094
0.037491318
0.037337455
0.037176163
0.037010596
0.036843385
0.036676745
0.036512534
0.036352305
0.036197365
0.036048805
0.035907542
0.035774346
0.035649862
0.035534625
0.035429077
0.035333577
0.03524841
0.035173791
0.035109884
0.0350568
0.035014703
0.0011191188
0.0037843525
0.0068239924
0.010134885
0.013582799
0.017030369
0.020355623
0.023462273
0.026283729
0.028782913
0.030948001
0.032786289
0.034318007
0.035570793
0.036575428
0.037363211
0.03795644
0.038398634
0.03871103
0.038912861
0.039022518
0.039059629
0.039036551
0.038965363
0.038855971
0.038716757
0.038555053
0.038376797
0.03818687
0.037989433
0.0377879
0.037585145
0.037383551
0.0371851
0.036991433
0.03680391
0.036623655
0.036451598
0.036288505
0.036135009
0.03599163
0.035858791
0.035736833
0.035626024
0.035526564
0.035438583
0.03536217
0.035297368
0.035244289
0.0012061195
0.0041230106
0.0074735567
0.011120115