/*--------------------------------*- C++ -*----------------------------------*\
| =========                 |                                                 |
| \\      /  F ield         | OpenFOAM: The Open Source CFD Toolbox           |
|  \\    /   O peration     | Version:  2312                                  |
|   \\  /    A nd           | Website:  www.openfoam.com                      |
|    \\/     M anipulation  |                                                 |
\*---------------------------------------------------------------------------*/
FoamFile
{
    version     2.0;
    format      ascii;
    arch        "LSB;label=32;scalar=64";
    class       volScalarField;
    location    "0.05";
    object      k;
}
// * * * * * * * * * * * * * * * * * * * * * * * * * * * * * * * * * * * * * //

dimensions      [0 2 -2 0 0 0 0];

internalField   nonuniform List<scalar> 
3221
(
10.910758
10.74266
10.584774
10.436896
10.298772
10.170131
10.050693
9.9401712
9.8382747
9.7447074
9.6591715
9.5813678
9.5109976
9.4477635
9.3913702
9.3415256
9.2979413
9.2603332
9.2284221
9.2019336
9.1805984
9.1641526
9.1523373
9.1448988
9.1415887
9.1421517
9.1463188
9.153956
9.1647758
9.1785542
9.1950714
9.2141128
9.2354685
9.2589335
9.2843079
9.3113971
9.3400117
9.3699682
9.4010883
9.4332001
9.4661372
9.4997398
9.533854
9.5683325
9.6030344
9.637825
9.6725764
9.7071667
9.7414802
9.7754068
9.8088412
9.841682
10.910857
10.743223
10.585884
10.438588
10.301067
10.173048
10.05425
9.9443854
9.8431629
9.7502871
9.6654606
9.5883851
9.5187621
9.4562948
9.4006881
9.35165
9.3088918
9.272129
9.2410815
9.2154738
9.1950353
9.1795003
9.168608
9.1621024
9.1597326
9.161223
9.1663539
9.1749357
9.1866953
9.2014053
9.2188429
9.23879
9.2610336
9.2853654
9.3115824
9.3394873
9.3688878
9.3995979
9.431437
9.464231
9.497812
9.5320182
9.5666948
9.6016933
9.6368721
9.6720961
9.7072373
9.7421742
9.7767923
9.8109836
9.844645
9.877667
10.911213
10.744388
10.587942
10.441613
10.305126
10.178198
10.060542
9.9518687
9.8518828
9.7602884
9.6767878
9.6010828
9.5328755
9.4718692
9.4177687
9.3702816
9.3291182
9.2939924
9.2646219
9.2407283
9.2220375
9.2082796
9.1991889
9.1945043
9.1939687
9.1972746
9.2042808
9.2146995
9.2282839
9.2447995
9.2640163
9.2857094
9.3096589
9.3356502
9.3634742
9.3929275
9.4238129
9.455939
9.4891211
9.523181
9.5579474
9.5932559
9.6289491
9.6648769
9.7008963
9.7368719
9.7726752
9.8081851
9.8432879
9.8778764
9.9118485
9.9450943
10.911804
10.746229
10.591109
10.446188
10.311195
10.185845
10.069847
9.962907
9.8647279
9.7750114
9.6934585
9.6197703
9.5536484
9.4947955
9.4429154
9.3977142
9.3589001
9.3261838
9.2992792
9.2779032
9.2617758
9.2506205
9.2441643
9.2421379
9.2442407
9.2502516
9.2599382
9.2730145
9.289231
9.3083426
9.3301094
9.354296
9.3806728
9.4090159
9.4391072
9.4707351
9.5036946
9.5377878
9.5728238
9.6086191
9.644998
9.6817924
9.7188424
9.7559958
9.7931086
9.8300447
9.8666762
9.9028829
9.9385526
9.9735802
10.007866
10.041301
10.912623
10.748749
10.595405
10.452349
10.319318
10.196032
10.0822
9.9775283
9.881717
9.7944661
9.7154755
9.6444448
9.5810742
9.5250645
9.4761174
9.4339358
9.3982237
9.3686871
9.3450333
9.3269719
9.3142143
9.3064742
9.303468
9.3048916
9.3104719
9.319994
9.3331434
9.3496521
9.3692564
9.3916973
9.4167207
9.4440782
9.4735272
9.5048317
9.5377623
9.5720973
9.6076221
9.6441306
9.6814248
9.7193152
9.7576213
9.7961714
9.8348028
9.8733621
9.9117046
9.9496951
9.9872069
10.024122
10.060332
10.095734
10.130233
10.163726
10.91367
10.751961
10.600866
10.460156
10.32958
10.208865
10.097727
9.9958724
9.9030025
9.8188171
9.7430152
9.6752948
9.6153541
9.562891
9.5176031
9.4791882
9.4473441
9.4217687
9.4021602
9.3882174
9.3796395
9.3761267
9.3773625
9.3830405
9.3929405
9.4067219
9.4240951
9.444774
9.4684772
9.4949277
9.5238545
9.5549925
9.5880836
9.6228774
9.6591313
9.6966114
9.7350929
9.7743605
9.8142087
9.854442
9.8948754
9.9353343
9.9756542
10.015682
10.055273
10.094295
10.132624
10.170147
10.206759
10.242366
10.276877
10.310195
10.91495
10.755889
10.607541
10.469688
10.342092
10.22449
10.116604
10.018147
9.9288224
9.8483319
9.7763743
9.7126464
9.6568436
9.6086596
9.5677863
9.5339139
9.5067309
9.4859239
9.4711781
9.4621773
9.4586041
9.4601205
9.4664048
9.4772093
9.4921701
9.5109725
9.5333042
9.5588568
9.5873268
9.6184157
9.6518321
9.6872915
9.7245179
9.7632444
9.8032139
9.8441794
9.8859054
9.9281673
9.9707528
10.013461
10.056104
10.098505
10.1405
10.181938
10.222678
10.26259
10.301559
10.339476
10.376246
10.411782
10.446002
10.478819
10.916473
10.760567
10.615492
10.481041
10.356986
10.243077
10.139045
10.044608
9.9594765
9.8833539
9.8159402
9.756931
9.7060184
9.6628902
9.6272304
9.5987187
9.5770306
9.5618372
9.5528059
9.5496005
9.5518529
9.5592429
9.5714738
9.5881612
9.6089612
9.6335311
9.6615314
9.6926267
9.7264868
9.7627885
9.8012167
9.841465
9.8832378
9.9262503
9.9702301
10.014917
10.060066
10.105444
10.150832
10.196027
10.240839
10.285093
10.328628
10.371296
10.412964
10.45351
10.492826
10.530815
10.567391
10.602479
10.63601
10.667908
10.918251
10.766036
10.624793
10.494326
10.374417
10.264826
10.165297
10.075555
9.995316
9.9242892
9.8621752
9.8086683
9.7634557
9.7262177
9.6966273
9.6743499
9.6590434
9.6503584
9.6479379
9.6513758
9.6603709
9.674555
9.693526
9.7169064
9.7443189
9.7753874
9.8097394
9.8470076
9.8868317
9.92886
9.972751
10.018175
10.064815
10.112368
10.160547
10.209081
10.257713
10.306206
10.354339
10.401906
10.448721
10.494613
10.539427
10.583024
10.625281
10.666087
10.705347
10.742977
10.778907
10.813075
10.845428
10.875906
10.920301
10.772345
10.635531
10.50967
10.394555
10.28996
10.195636
10.111321
10.036738
9.971599
9.9156077
9.8684552
9.8298224
9.7993789
9.7767826
9.7616798
9.7537058
9.7524835
9.7575556
9.7686611
9.7853381
9.8071685
9.8337368
9.8646253
9.8994163
9.9376942
9.9790479
10.023074
10.069377
10.117576
10.167299
10.218193
10.26992
10.322159
10.374611
10.426993
10.479045
10.530526
10.581214
10.63091
10.679432
10.726618
10.772326
10.816429
10.858818
10.899398
10.938091
10.974832
11.009567
11.042254
11.072859
11.101338
10.922639
10.779549
10.647802
10.527214
10.417593
10.318722
10.230368
10.152276
10.08418
10.025795
9.9768263
9.9369599
9.9058674
9.8832035
9.8686057
9.8616943
9.8620768
9.8692498
9.8829699
9.9026986
9.9279901
9.9583865
9.9934239
10.032636
10.075558
10.121728
10.170691
10.222002
10.27523
10.329958
10.385789
10.442342
10.499262
10.556212
10.612882
10.668985
10.724258
10.778461
10.831382
10.882827
10.932629
10.980639
11.026731
11.070797
11.112748
11.15251
11.190027
11.225253
11.258159
11.288725
11.316938
11.342776
10.925284
10.787709
10.66171
10.547113
10.443737
10.351381
10.269824
10.198824
10.138122
10.087439
10.046478
10.014919
9.992418
9.9786101
9.9731049
9.975466
9.9852439
10.002083
10.025441
10.054825
10.089727
10.129633
10.17402
10.222364
10.274145
10.328848
10.38597
10.445022
10.505533
10.567053
10.629154
10.691437
10.753527
10.815078
10.875774
10.935328
10.99348
11.050002
11.104691
11.157372
11.207894
11.25613
11.301977
11.345351
11.386188
11.424441
11.460078
11.493082
11.523449
11.551185
11.576303
11.598804
10.928259
10.796892
10.67737
10.569532
10.473211
10.388223
10.314361
10.251398
10.199083
10.15714
10.125268
10.103135
10.090378
10.086603
10.091328
10.104172
10.124663
10.152247
10.186382
10.22651
10.272054
10.322429
10.377043
10.435306
10.496635
10.560456
10.626213
10.69337
10.761417
10.829871
10.89828
10.966224
11.033319
11.099213
11.163593
11.226178
11.286722
11.345012
11.400866
11.454132
11.504686
11.55243
11.597288
11.63921
11.67816
11.714123
11.747099
11.777102
11.804156
11.828298
11.849569
11.867996
10.931585
10.807165
10.694902
10.594647
10.506253
10.429554
10.364363
10.310466
10.267622
10.235555
10.213958
10.20248
10.200732
10.208181
10.224541
10.249212
10.281629
10.321203
10.367313
10.419318
10.476558
10.538364
10.604067
10.672998
10.744503
10.817947
10.892718
10.968233
11.043943
11.119336
11.193941
11.267325
11.339102
11.408923
11.476486
11.541527
11.603822
11.663183
11.719458
11.772529
11.822305
11.868723
11.911747
11.951359
11.987565
12.020383
12.04985
12.076014
12.098934
12.118677
12.135316
12.148906
10.935285
10.818602
10.714431
10.622642
10.543112
10.475699
10.420238
10.376529
10.34434
10.323395
10.313371
10.313896
10.324412
10.344694
10.374056
10.411912
10.457622
10.510503
10.569837
10.634884
10.704884
10.779071
10.856684
10.936969
11.019198
11.102666
11.186708
11.270695
11.354045
11.436224
11.516747
11.595182
11.671147
11.744311
11.814391
11.881154
11.944406
12.003999
12.059819
12.11179
12.159864
12.204023
12.244272
12.28064
12.313171
12.341929
12.366988
12.388434
12.406364
12.420878
12.432081
12.44006
10.939384
10.831278
10.736089
10.653712
10.584054
10.527002
10.482418
10.45012
10.429882
10.421422
10.424369
10.438272
10.462813
10.497337
10.541215
10.593755
10.654208
10.721778
10.795628
10.874897
10.958709
11.046188
11.136468
11.228706
11.32209
11.415853
11.509273
11.601684
11.692478
11.781109
11.867091
11.950003
12.029484
12.105231
12.176997
12.244588
12.307859
12.366707
12.421071
12.470925
12.516273
12.557149
12.59361
12.625731
12.653607
12.677344
12.697062
12.712887
12.724953
12.733397
12.738362
12.739952
10.943906
10.845272
10.760011
10.688057
10.629352
10.583824
10.551362
10.531805
10.524933
10.530392
10.547856
10.576948
10.617031
10.667456
10.727486
10.796306
10.873032
10.956723
11.046403
11.141068
11.239708
11.341322
11.444931
11.549596
11.654426
11.758588
11.861316
11.961914
12.059762
12.154313
12.245098
12.331723
12.413862
12.491256
12.563711
12.631087
12.693297
12.7503
12.802095
12.848717
12.890233
12.926734
12.958332
12.98516
13.007362
13.025095
13.038522
13.047812
13.053144
13.054677
13.052626
13.047095
10.948876
10.86066
10.786336
10.725882
10.679294
10.646542
10.627553
10.622189
10.630138
10.651219
10.685028
10.730966
10.788376
10.856488
10.934424
11.021212
11.1158
11.21708
11.323902
11.4351
11.549513
11.666002
11.783471
11.900881
12.017267
12.13174
12.2435
12.351836
12.456131
12.555859
12.650586
12.739962
12.823716
12.901652
12.973642
13.039617
13.099562
13.153509
13.201529
13.243728
13.28024
13.311221
13.336847
13.357307
13.372801
13.383538
13.389728
13.391575
13.389335
13.383174
13.373287
13.359882
10.95432
10.877523
10.815204
10.767401
10.734173
10.71555
10.711501
10.721789
10.746399
10.78494
10.836878
10.901575
10.978244
11.065958
11.163658
11.270179
11.384266
11.504604
11.629849
11.758646
11.889668
12.021631
12.153318
12.283598
12.411438
12.535908
12.656191
12.771583
12.881491
12.985434
13.083032
13.174002
13.258149
13.335359
13.405588
13.468851
13.52522
13.574812
13.617778
13.654304
13.684598
13.708887
13.727412
13.740426
13.74818
13.75094
13.748977
13.742547
13.731849
13.717179
13.698765
13.676816
10.960262
10.89594
10.846755
10.812827
10.794296
10.791261
10.803596
10.831477
10.874582
10.932475
11.004572
11.090102
11.188109
11.297463
11.416882
11.54496
11.680197
11.82104
11.965915
12.113266
12.261582
12.409432
12.555484
12.698525
12.837471
12.971372
13.099418
13.220936
13.335388
13.442358
13.54155
13.632772
13.715926
13.790997
13.858042
13.917179
13.968577
14.012447
14.049032
14.078602
14.101445
14.117862
14.12816
14.132666
14.131669
14.125565
14.114507
14.098898
14.079005
14.055114
14.027492
13.996374
10.966727
10.915988
10.88113
10.862378
10.859972
10.873934
10.904653
10.951944
11.015514
11.094885
11.189348
11.297952
11.419522
11.552671
11.695839
11.847327
12.005349
12.168074
12.333674
12.500369
12.666466
12.830388
12.9907
13.146126
13.295556
13.438047
13.572828
13.69929
13.816976
13.925572
14.024888
14.114848
14.195473
14.266868
14.329208
14.382725
14.427698
14.464439
14.493291
14.514612
14.528777
14.53616
14.537122
14.532153
14.521436
14.505441
14.484498
14.458956
14.42914
14.395362
14.357917
14.317064
10.973737
10.937743
10.918467
10.91627
10.931343
10.964307
11.015191
11.083902
11.170135
11.273302
11.39252
11.526606
11.6741
11.833296
12.002292
12.179043
12.361424
12.547292
12.734543
12.921166
13.105283
13.285187
13.459363
13.626499
13.785492
13.935445
14.075661
14.205631
14.325016
14.433631
14.531424
14.61846
14.694899
14.760986
14.817026
14.863379
14.90044
14.928634
14.948403
14.960198
14.964485
14.961728
14.952378
14.936796
14.915463
14.888794
14.857179
14.820996
14.780602
14.73634
14.688527
14.637444
10.981316
10.961277
10.958901
10.974539
11.009047
11.062738
11.13579
11.228151
11.339441
11.46892
11.61547
11.777607
11.95351
12.14108
12.337999
12.541815
12.750019
12.960123
13.16973
13.376598
13.57868
13.774163
13.961483
14.139333
14.306657
14.46265
14.606731
14.738532
14.857868
14.964716
15.05919
15.141519
15.212025
15.271103
15.319207
15.35683
15.384493
15.402735
15.412101
15.413123
15.406479
15.392446
15.371683
15.344668
15.311881
15.273778
15.230791
15.183331
15.131784
15.076516
15.017866
14.956131
10.989488
10.986659
11.002381
11.037714
11.093302
11.169664
11.267095
11.385531
11.524483
11.682996
11.859644
12.052553
12.259453
12.47776
12.704668
12.937252
13.172574
13.407777
13.640168
13.867284
14.086936
14.297245
14.496641
14.68387
14.857981
15.018304
15.164427
15.29616
15.413513
15.516656
15.605896
15.681649
15.744415
15.794755
15.833276
15.860614
15.877418
15.884345
15.882053
15.871247
15.852364
15.826114
15.793077
15.7538
15.708806
15.658591
15.60362
15.544333
15.48114
15.414425
15.344549
15.271818
10.998285
11.013784
11.049333
11.105899
11.184397
11.285564
11.409773
11.556924
11.726362
11.916843
12.126537
12.353073
12.593628
12.845034
13.103912
13.366805
13.630309
13.891185
14.146451
14.393454
14.629907
14.853911
15.063951
15.258889
15.437933
15.600608
15.746715
15.876292
15.989575
16.08696
16.168972
16.236231
16.289428
16.3293
16.356615
16.372154
16.376696
16.371081
16.355948
16.332016
16.30003
16.260659
16.214539
16.162268
16.104411
16.041497
15.974021
15.902448
15.827203
15.74869
15.667274
15.583275
11.00762
11.042992
11.099774
11.179246
11.282652
11.410928
11.564519
11.743249
11.946228
12.171822
12.417677
12.680803
12.957697
13.244503
13.537186
13.831702
14.124153
14.410924
14.688771
14.954897
15.206975
15.443152
15.662042
15.862688
16.044526
16.207332
16.351171
16.476348
16.583363
16.672864
16.745613
16.802449
16.844265
16.871978
16.886518
16.888816
16.879906
16.860386
16.831241
16.793294
16.747313
16.694024
16.634113
16.56822
16.496945
16.420845
16.340441
16.256215
16.168603
16.078017
15.984835
15.889387
11.017598
11.07421
11.153738
11.25793
11.388382
11.546252
11.732049
11.945461
12.185269
12.449322
12.7346
13.037344
13.353236
13.677622
14.005727
14.332878
14.654679
14.967156
15.266859
15.550909
15.817013
16.063452
16.289045
16.493097
16.675336
16.835848
16.97501
17.093437
17.191919
17.27138
17.332833
17.377348
17.406023
17.41996
17.420235
17.408144
17.384245
17.349793
17.305707
17.252873
17.192123
17.124234
17.049935
16.9699
16.884759
16.795089
16.701431
16.604274
16.504066
16.401228
16.296139
16.189128
11.028227
11.10742
11.211294
11.342115
11.501892
11.692038
11.913093
12.164537
12.444694
12.750739
13.078813
13.424218
13.781677
14.145621
14.510472
14.870899
15.222022
15.559563
15.87993
16.180251
16.458363
16.712775
16.942603
17.147491
17.327528
17.483165
17.61514
17.724406
17.812072
17.879352
17.927522
17.957887
17.971749
17.9704
17.955265
17.927117
17.887328
17.836986
17.777106
17.708639
17.632469
17.549419
17.460252
17.365669
17.26632
17.1628
17.055654
16.945386
16.832448
16.717257
16.600195
16.481587
11.039488
11.142641
11.272496
11.431941
11.623476
11.848783
12.108393
12.401469
12.725715
13.077442
13.451746
13.842805
14.244229
14.649431
15.051978
15.44588
15.825819
16.187284
16.526641
16.841129
17.128829
17.388582
17.619895
17.82283
17.997905
18.145987
18.268212
18.365901
18.440498
18.493519
18.526507
18.540997
18.538528
18.52069
18.488459
18.443401
18.386759
18.3197
18.24331
18.158595
18.066486
17.967838
17.863442
17.754017
17.640223
17.522672
17.40191
17.27844
17.152719
17.025157
16.89613
16.765959
11.05137
11.179862
11.337366
11.527523
11.753406
12.016978
12.31869
12.657241
13.029516
13.430724
13.85469
14.294265
14.741796
15.189592
15.630335
16.057411
16.465137
16.848872
17.205058
17.531178
17.82568
18.087846
18.317667
18.515704
18.682959
18.820766
18.930686
19.01443
19.073786
19.110575
19.126604
19.123685
19.103639
19.067629
19.017458
18.954558
18.88026
18.795803
18.70233
18.600891
18.492453
18.377894
18.258023
18.133574
18.005209
17.873543
17.739126
17.602453
17.463975
17.324097
17.183183
17.041548
11.063856
11.219049
11.405894
11.628943
11.89193
12.197095
12.544705
12.932802
13.357203
13.811742
14.288717
14.779447
15.274878
15.766151
16.245075
16.704479
17.138416
17.54225
17.912646
18.247477
18.54568
18.807096
19.03229
19.22239
19.37894
19.503773
19.5989
19.66643
19.7085
19.727227
19.724736
19.70316
19.663825
19.608826
19.539808
19.458296
19.3657
19.263315
19.152332
19.033832
18.908803
18.778145
18.64267
18.503121
18.36016
18.214394
18.066367
17.916568
17.765436
17.613366
17.460709
17.307768
11.076919
11.260139
11.478032
11.736243
12.03926
12.389573
12.787116
13.229026
13.709747
14.221431
14.754578
15.298775
15.843456
16.378566
16.89509
17.3854
17.843427
18.264703
18.646279
18.986566
19.28513
19.542471
19.759816
19.938925
20.081923
20.191168
20.269136
20.318334
20.341238
20.34029
20.318089
20.276067
20.216676
20.141809
20.053214
19.952494
19.841121
19.720435
19.591656
19.455893
19.314143
19.167314
19.01622
18.861598
18.704107
18.544341
18.382833
18.220059
18.056445
17.892371
17.728172
17.564137
11.090526
11.303042
11.553689
11.849419
12.195564
12.5948
13.046521
13.546649
14.087897
14.660397
15.252578
15.852121
16.446871
17.025595
17.578543
18.097766
18.577249
19.012875
19.402257
19.744499
20.03992
20.289786
20.496059
20.661179
20.787886
20.879075
20.937691
20.966631
20.968704
20.946988
20.903167
20.840008
20.759714
20.664291
20.555572
20.43522
20.304753
20.165541
20.018828
19.865731
19.707252
19.544293
19.377666
19.208095
19.036227
18.862641
18.687854
18.512326
18.336464
18.16063
17.985143
17.810272
11.104628
11.347629
11.632723
11.968412
12.360949
12.813084
13.323389
13.886191
14.492066
15.128777
15.782429
16.43866
17.083697
17.705198
18.292799
18.83841
19.336267
19.7828
20.176361
20.516898
20.805607
21.044611
21.236667
21.384935
21.492783
21.56365
21.600941
21.607928
21.588099
21.543694
21.477605
21.392497
21.290662
21.17419
21.044981
20.904744
20.755026
20.597214
20.432562
20.262186
20.087082
19.908141
19.726161
19.541852
19.355841
19.168689
18.980892
18.792889
18.605069
18.417772
18.231294
18.045888
11.119166
11.393736
11.71494
12.093101
12.535444
13.04461
13.617983
14.247838
14.922183
15.626068
16.343069
17.056701
17.751608
18.414437
19.034376
19.603395
20.116192
20.569941
20.963909
21.299034
21.577499
21.802359
21.977216
22.105971
22.192627
22.241151
22.255407
22.239332
22.195849
22.127981
22.038907
21.931271
21.807463
21.669644
21.519761
21.359556
21.190583
21.014234
20.831763
20.64428
20.45276
20.258079
20.061015
19.862256
19.662408
19.462008
19.261527
19.061384
18.861944
18.663524
18.466395
18.270789
11.134066
11.441156
11.800084
12.223289
12.718972
13.289384
13.930252
14.631287
15.377489
16.150907
16.932454
17.70352
18.447245
19.149402
19.798921
20.388035
20.912113
21.369267
21.759849
22.085919
22.350746
22.558376
22.713292
22.820141
22.883558
22.907998
22.898058
22.85746
22.789304
22.697415
22.584834
22.45431
22.308306
22.149031
21.978462
21.798359
21.610269
21.415576
21.215524
21.011209
20.803579
20.593486
20.381685
20.168835
19.955519
19.742244
19.529458
19.317554
19.106873
18.897709
18.6903
18.484858
11.14924
11.489639
11.887835
12.358691
12.911309
13.547139
14.259681
15.03553
15.856289
16.700812
17.547326
18.375172
19.1661
19.905165
20.581214
21.186937
21.718567
22.175342
22.558856
22.872412
23.120443
23.308039
23.440576
23.523451
23.561915
23.560957
23.525827
23.459325
23.366138
23.24978
23.113409
22.959852
22.791628
22.610964
22.419857
22.220072
22.013135
21.80041
21.58312
21.362344
21.138993
20.913893
20.687767
20.461248
20.234885
20.009159
19.784489
19.561241
19.339734
19.12024
18.902942
18.688052
11.164585
11.538887
11.977801
12.498911
13.112021
13.817211
14.605074
15.458567
16.355625
17.27187
18.182953
19.066309
19.902426
20.675765
21.375216
21.994085
22.529648
22.982442
23.355449
23.653323
23.881734
24.046844
24.154932
24.212123
24.224282
24.19734
24.135288
24.042758
23.924167
23.783143
23.622925
23.446396
23.256111
23.054295
22.842946
22.623828
22.398429
22.168091
21.934005
21.697214
21.458607
21.21897
20.978993
20.739276
20.500335
20.262621
20.026523
19.792378
19.560481
11.179982
11.588551
12.069509
12.643415
13.320379
14.098343
14.964255
15.897025
16.870872
17.858371
18.832846
19.770016
20.649188
21.454239
22.174152
22.802959
23.339136
23.784685
24.144117
24.423539
24.629914
24.770502
24.852478
24.882659
24.867935
24.813628
24.724386
24.605597
24.461508
24.295858
24.111953
23.912703
23.700687
23.478107
23.24695
23.008958
22.76559
22.518148
22.267786
22.015507
21.762169
21.50852
21.255213
21.002812
20.751799
20.502593
20.255552
20.010981
19.769142
11.195295
11.638234
12.162402
12.791478
13.535213
14.388409
15.333643
16.345651
17.39524
18.452386
19.48847
20.477681
21.398045
22.232703
22.970645
23.606687
24.140653
24.576178
24.91945
25.17813
25.360525
25.475013
25.529661
25.532063
25.489925
25.40736
25.291065
25.146019
24.976581
24.786571
24.579338
24.357797
24.124527
23.881702
23.631287
23.374992
23.114233
22.850275
22.584225
22.317045
22.049556
21.782465
21.516388
21.251853
20.989302
20.729127
20.471649
20.217145
19.965842
11.21037
11.687486
12.255816
12.942111
13.754695
14.684005
15.70767
16.796652
17.919159
19.043294
20.138969
21.178899
22.139418
23.002499
23.756902
24.398235
24.927836
25.35117
25.676269
25.91246
26.069449
26.156741
26.183256
26.158008
26.087144
25.976785
25.833556
25.66252
25.468119
25.254221
25.024187
24.780935
24.527024
24.264598
23.99558
23.721631
23.444139
23.164318
22.883227
22.601782
22.320762
22.040836
21.76258
21.486482
21.212954
20.942351
20.674958
20.411028
20.150752
11.22504
11.735799
12.348955
13.093922
13.976007
14.979854
16.077972
17.238845
18.429553
19.617284
20.7709
21.861454
22.862621
23.75442
24.52495
25.170624
25.694523
26.104204
26.409753
26.622288
26.752978
26.812476
26.810783
26.757552
26.657912
26.520171
26.350436
26.153927
25.935147
25.698004
25.445865
25.18162
24.907791
24.626503
24.339618
24.048747
23.755241
23.460262
23.16482
22.869783
22.575887
22.28376
21.993937
21.706871
21.422938
21.142457
20.865685
20.592843
20.324093
11.239112
11.782603
12.440831
13.244895
14.194812
15.267943
16.432267
17.656543
18.908981
20.156814
21.368006
22.511388
23.556108
24.479012
25.266924
25.91717
26.434944
26.83027
27.115548
27.303848
27.407881
27.439437
27.410303
27.328218
27.200798
27.036213
26.840621
26.619356
26.37698
26.117397
25.843967
25.559557
25.26664
24.967306
24.663361
24.356358
24.047604
23.738214
23.429146
23.121217
22.815122
22.511447
22.210687
21.913257
21.6195
21.329701
21.044088
20.76285
20.486127
11.252371
11.827244
12.53016
13.392004
14.404435
15.536271
16.752798
18.028127
19.334634
20.640067
21.911042
23.113226
24.207832
25.166967
25.975398
26.631729
27.143902
27.524927
27.789862
27.953924
28.031452
28.035639
27.979349
27.86887
27.714544
27.523925
27.303355
27.058244
26.793189
26.512101
26.218314
25.914659
25.603559
25.287061
24.966913
24.644612
24.321416
23.99839
23.676442
23.356342
23.03874
22.724181
22.413121
22.105939
21.802945
21.504389
21.210472
20.921354
20.637151
11.264554
11.86894
12.615161
13.53055
14.594562
15.767014
17.02755
18.351207
19.709269
21.069242
22.396592
23.655082
24.805751
25.809613
26.643735
27.308945
27.816938
28.184421
28.429544
28.569884
28.62145
28.599716
28.516005
28.378607
28.198311
27.982685
27.738181
27.470281
27.183604
26.88205
26.568924
26.247017
25.918697
25.585964
25.25051
24.913775
24.576966
24.2411
23.907034
23.575493
23.247083
22.922308
22.601589
22.285267
21.973619
21.666866
21.36518
21.068694
20.777499
11.275319
11.906702
12.69318
13.653001
14.749161
15.958482
17.260571
18.629735
20.036547
21.448038
22.828649
24.140701
25.34442
26.399494
27.266458
27.944461
28.450455
28.805764
29.032119
29.149714
29.176429
29.130046
29.019589
28.856672
28.651602
28.412165
28.144929
27.855421
27.548274
27.227376
26.895994
26.556878
26.212343
25.864338
25.5145
25.164213
24.814635
24.466732
24.121317
23.779068
23.44055
23.106228
22.776485
22.451631
22.13191
21.817514
21.508586
21.205234
20.907528
11.284141
11.939154
12.760003
13.746958
14.871231
16.115023
17.455922
18.867596
20.320177
21.780184
23.211081
24.573913
25.8278
26.93087
27.83957
28.535094
29.041813
29.386762
29.595799
29.692018
29.695494
29.6255
29.489755
29.302724
29.074249
28.812347
28.523688
28.213842
27.887451
27.548384
27.199875
26.844627
26.484908
26.122611
25.759324
25.396377
25.034877
24.675745
24.319748
23.967521
23.619589
23.276381
22.938245
22.605457
22.278235
21.956738
21.641086
21.331362
21.027614
11.290094
11.964192
12.808565
13.814032
14.965113
16.240903
17.617594
19.068586
20.563838
22.069375
23.547677
24.95854
26.259874
27.408519
28.360844
29.078924
29.589352
29.926023
30.119511
30.195908
30.178394
30.085421
29.926442
29.716784
29.466393
29.183466
28.874772
28.54592
28.201557
27.845533
27.48105
27.110768
26.736904
26.361305
25.985506
25.610788
25.238211
24.868651
24.502832
24.141349
23.784688
23.433244
23.087332
22.747199
22.413034
22.084969
21.763097
21.447482
21.138148
11.291316
11.978308
12.833856
13.858702
15.035252
16.340297
17.74945
19.236381
20.771136
22.319245
23.842142
25.298334
26.644469
27.836065
28.82805
29.575284
30.092371
30.422954
30.602812
30.661213
30.624782
30.510108
30.329802
30.099163
29.828433
29.525988
29.198694
28.852201
28.491161
28.11941
27.740114
27.355898
26.968931
26.581014
26.193635
25.808027
25.425206
25.046007
24.671113
24.301081
23.936363
23.577318
23.224233
22.877328
22.536767
22.202648
21.875048
21.554007
21.239532
11.283783
11.973671
12.841302
13.885874
15.086137
16.417244
17.855191
19.37452
20.945578
22.53335
24.098091
25.596956
26.985312
28.217328
29.246439
30.025102
30.551098
30.87763
31.045857
31.088231
31.034795
30.900147
30.700347
30.450439
30.160992
29.840567
29.49613
29.133374
28.756958
28.370705
27.977756
27.580697
27.181657
26.782393
26.38435
25.988718
25.596471
25.208405
24.825165
24.447275
24.075152
23.709125
23.349453
22.996331
22.649903
22.310229
21.977374
21.651359
21.33217
11.269869
11.956344
12.836576
13.900669
15.122193
16.475585
17.938318
19.486385
21.09056
22.715153
24.319045
25.857966
27.286006
28.555968
29.619999
30.429933
30.966379
31.290757
31.449323
31.477638
31.409074
31.256346
31.038868
30.771415
30.464882
30.128018
29.767892
29.39024
28.999738
28.600197
28.194735
27.785905
27.375803
26.966143
26.558332
26.15352
25.752643
25.356461
24.965585
24.580505
24.20161
23.8292
23.463507
23.104702
11.251471
11.931541
12.82549
13.908249
15.147643
16.518888
18.002105
19.5752
21.209369
22.86802
24.508424
26.084798
27.549987
28.855492
29.95214
30.791492
31.339624
31.663542
31.814281
31.830514
31.748591
31.579747
31.346372
31.063075
30.741068
30.389285
30.014898
29.623696
29.22037
28.808726
28.391864
27.972312
27.552129
27.132999
26.716289
26.303116
25.89438
25.490808
25.092981
24.701359
24.316301
23.938084
23.566914
23.202939
11.230146
11.904461
12.814078
13.913627
15.166343
16.550372
18.049577
19.644023
21.305167
22.995215
24.669523
26.280716
27.780583
29.119235
30.245936
31.111549
31.672675
31.997559
32.142188
32.148235
32.054564
31.871597
31.624033
31.326545
30.990632
30.625409
30.238152
29.834705
29.419779
28.997183
28.570001
28.140738
27.711427
27.283718
26.858949
26.438204
26.022352
25.61209
25.20797
24.810426
24.419793
24.036322
23.660198
23.291546
11.207545
11.880944
12.808601
13.921405
15.181601
16.572835
18.08349
19.695742
21.380999
23.099873
24.805468
26.448873
27.980973
29.350272
30.504482
31.393044
31.967758
32.294741
32.434743
32.432432
32.328424
32.133261
31.873149
31.563055
31.214742
30.8375
30.438711
30.024276
29.598932
29.16649
28.730027
28.292027
27.854501
27.419072
26.987051
26.55949
26.137235
25.720953
25.311172
24.908301
24.512653
24.124457
23.743878
23.371022
11.185876
11.868141
12.815214
13.935382
15.195983
16.588597
18.106326
19.733078
21.439782
23.184941
24.919238
26.592282
28.15405
29.551587
30.730815
31.639641
32.22742
32.557218
32.693839
32.684851
32.571799
32.366187
32.0951
31.773905
31.414625
31.026719
30.617675
30.193453
29.758818
29.317589
28.872837
28.427033
27.982166
27.539838
27.101334
26.667683
26.239704
25.818042
25.403203
24.995572
24.595443
24.203027
23.818469
23.441858
11.168619
11.874876
12.839444
13.958062
15.211129
16.599458
18.120289
19.758599
21.484258
23.253215
25.013623
26.71364
28.302607
29.726005
30.927682
31.854475
32.45424
32.787231
32.921514
32.907206
32.786451
32.571919
32.291325
31.960439
31.591539
31.19425
30.77616
30.343291
29.900437
29.451428
28.999333
28.546612
28.095237
27.646791
27.202538
26.763486
26.33043
25.903997
25.484671
25.072821
24.668718
24.27256
23.884474
23.504536
11.161625
11.911656
12.88479
13.990071
15.227623
16.606698
18.127283
19.774656
21.51695
23.307389
25.091129
26.815421
28.429326
29.876026
31.097642
32.040332
32.65074
32.987055
33.119832
33.101323
32.974129
32.752036
32.463283
32.124018
31.746758
31.341286
30.91529
30.474849
30.02479
29.568955
29.110412
28.651614
28.194521
27.740698
27.291392
26.847591
26.410073
25.979446
25.556177
25.140616
24.733023
24.333575
23.94239
23.559528
11.175298
11.988421
12.950721
14.029671
15.24499
16.611145
18.129065
19.783355
21.540269
23.349861
25.153963
26.900018
28.53656
30.003913
31.243106
32.199721
32.81935
33.158933
33.290842
33.269056
33.136562
32.908119
32.612436
32.265998
31.881549
31.469015
31.036179
30.589177
30.132867
29.671104
29.206959
28.742879
28.280813
27.822313
27.368611
26.920679
26.47928
26.045005
25.618305
25.199517
24.788886
24.386578
23.992698
23.607293
11.231195
12.106902
13.030458
14.072757
15.261901
16.613192
18.127087
19.786702
21.556352
23.38259
25.204271
26.969607
28.626403
30.111745
31.366269
32.334924
32.962374
33.305034
33.436543
33.412235
33.275439
33.041724
32.740222
32.387718
31.997158
31.578604
31.139924
30.687307
30.22564
29.758793
29.289841