/*--------------------------------*- C++ -*----------------------------------*\
| =========                 |                                                 |
| \\      /  F ield         | OpenFOAM: The Open Source CFD Toolbox           |
|  \\    /   O peration     | Version:  2312                                  |
|   \\  /    A nd           | Website:  www.openfoam.com                      |
|    \\/     M anipulation  |                                                 |
\*---------------------------------------------------------------------------*/
FoamFile
{
    version     2.0;
    format      ascii;
    arch        "LSB;label=32;scalar=64";
    class       volScalarField;
    location    "0.05";
    object      nut;
}
// * * * * * * * * * * * * * * * * * * * * * * * * * * * * * * * * * * * * * //

dimensions      [0 2 -1 0 0 0 0];

internalField   nonuniform List<scalar> 
3221
(
0.024429757
0.024401582
0.024383274
0.024374522
0.024374908
0.024383953
0.024401133
0.024425891
0.024457644
0.024495795
0.024539743
0.024588891
0.024642654
0.02470047
0.024761802
0.024826153
0.02489306
0.024962105
0.025032919
0.025105175
0.025178597
0.025252956
0.025328066
0.025403785
0.025480011
0.025556646
0.025633568
0.025711052
0.02578895
0.025867299
0.02594615
0.026025564
0.026105612
0.026186367
0.026267904
0.026350298
0.02643362
0.026517934
0.026603301
0.026689772
0.026777391
0.026866195
0.026956211
0.027047457
0.027139943
0.027233674
0.027328645
0.027424843
0.027522252
0.027620846
0.027720596
0.027821462
0.024429695
0.024401646
0.024383491
0.02437487
0.024375348
0.02438444
0.024401618
0.024426323
0.024457972
0.024495968
0.024539709
0.024588602
0.024642065
0.024699539
0.024760494
0.024824435
0.024890909
0.024959504
0.025029855
0.025101646
0.025174606
0.025248513
0.02532319
0.025398503
0.025474355
0.025550605
0.025627285
0.025704527
0.025782238
0.025860457
0.025939238
0.026018646
0.026098752
0.026179628
0.026261349
0.026343989
0.026427615
0.02651229
0.02659807
0.026685003
0.026773129
0.02686248
0.026953077
0.027044935
0.02713806
0.027232451
0.027328097
0.027424985
0.027523093
0.027622395
0.027722859
0.02782443
0.024429762
0.024401874
0.024383848
0.024375308
0.024375807
0.024384851
0.024401902
0.024426394
0.024457741
0.024495346
0.02453861
0.024586943
0.024639769
0.024696538
0.024756732
0.024819867
0.024885501
0.024953234
0.025022716
0.025093643
0.025165759
0.025238856
0.025312769
0.025387376
0.025462593
0.02553822
0.025614532
0.025691416
0.025768878
0.025846965
0.025925731
0.026005245
0.026085577
0.026166798
0.026248981
0.026332193
0.026416498
0.02650195
0.026588599
0.026676484
0.026765636
0.026856077
0.026947819
0.027040868
0.027135219
0.027230863
0.02732778
0.027425948
0.027525337
0.027625914
0.027727638
0.027830445
0.024429945
0.024402378
0.024384573
0.024376153
0.02437667
0.024385621
0.024402464
0.024426626
0.024457517
0.02449454
0.0245371
0.024584613
0.024636518
0.024692277
0.024751387
0.024813383
0.024877841
0.024944378
0.025012662
0.025082413
0.025153392
0.025225411
0.025298324
0.025372027
0.025446359
0.025521398
0.025597209
0.025673724
0.025750978
0.025829024
0.025907922
0.02598774
0.026068546
0.02615041
0.026233395
0.026317563
0.026402966
0.026489647
0.026577644
0.026666983
0.026757679
0.026849742
0.02694317
0.027037953
0.027134074
0.027231508
0.027330226
0.027430192
0.027531366
0.027633704
0.027737154
0.027841642
0.024430239
0.024403173
0.024385711
0.02437748
0.024378032
0.024386865
0.024403432
0.024427158
0.024457452
0.02449372
0.024535373
0.024581836
0.02463256
0.024687026
0.024744752
0.024805298
0.024868271
0.02493333
0.025000173
0.025068536
0.025138192
0.025208981
0.025280779
0.025353444
0.025426941
0.025501421
0.025576778
0.025653041
0.025730258
0.025808483
0.025887781
0.025968217
0.026049853
0.026132751
0.026216966
0.026302542
0.026389519
0.026477924
0.026567775
0.02665908
0.026751838
0.026846036
0.026941656
0.02703867
0.027137043
0.027236734
0.027337698
0.027439886
0.027543244
0.027647715
0.027753239
0.027859729
0.024430643
0.024404269
0.024387294
0.024379342
0.024379972
0.02438868
0.024404922
0.024428124
0.0244577
0.024493061
0.024533629
0.024578845
0.024628178
0.024681132
0.024737252
0.02479613
0.024857404
0.024920763
0.024985947
0.025052742
0.025120989
0.02519053
0.025261187
0.025332882
0.025405793
0.025479794
0.025554912
0.025631188
0.025708677
0.025787437
0.025867528
0.025949011
0.026031937
0.026116354
0.0262023
0.026289801
0.026378875
0.026469527
0.026561751
0.026655534
0.026750848
0.026847661
0.026945931
0.027045608
0.027146638
0.027248963
0.02735252
0.027457243
0.027563066
0.027669921
0.027777735
0.027886412
0.024431156
0.024405674
0.02438934
0.024381779
0.024382548
0.024391147
0.024407037
0.024429651
0.02445841
0.02449274
0.024532079
0.024575889
0.024623666
0.024674944
0.024729304
0.024786373
0.024845831
0.024907408
0.024970884
0.025036088
0.025102893
0.025171156
0.025240813
0.025311953
0.025384433
0.025458276
0.025533522
0.025610223
0.025688436
0.025768216
0.025849617
0.025932685
0.026017456
0.026103955
0.026192198
0.026282184
0.026373905
0.026467337
0.026562447
0.026659191
0.026757518
0.026857366
0.02695867
0.027061359
0.027165356
0.027270584
0.027376962
0.027484413
0.027592854
0.027702207
0.02781239
0.027923298
0.024431778
0.024407391
0.024391863
0.024384813
0.024385798
0.024394324
0.024409856
0.024431841
0.024459715
0.024492923
0.024530928
0.024573223
0.024619338
0.024668846
0.02472137
0.024776585
0.024834216
0.024894044
0.024955894
0.025019641
0.025085123
0.025152347
0.025221414
0.025292222
0.025364704
0.025438868
0.025514763
0.025592447
0.025671973
0.025753386
0.025836723
0.02592201
0.026009257
0.026098461
0.026189605
0.026282658
0.026377576
0.026474303
0.026572773
0.026672911
0.026774636
0.026877859
0.026982488
0.027088429
0.027195585
0.027303861
0.027413161
0.027523392
0.027634463
0.027746287
0.027858774
0.027971812
0.02443251
0.024409421
0.024394867
0.024388456
0.024389746
0.024398246
0.024413437
0.024434778
0.024461731
0.024493767
0.024530384
0.024571114
0.024615531
0.024663259
0.024713971
0.024767398
0.02482332
0.024881571
0.024942028
0.0250045
0.025069115
0.025135871
0.025204706
0.025275642
0.025348709
0.025423826
0.025501043
0.025580407
0.02566196
0.025745727
0.025831719
0.02591993
0.026010337
0.026102898
0.026197558
0.026294247
0.026392883
0.026493371
0.02659561
0.026699492
0.026804905
0.026911732
0.027019857
0.027129163
0.027239537
0.027350866
0.027463042
0.027575963
0.027689529
0.027803649
0.027918229
0.028033154
0.02443335
0.024411763
0.02439835
0.024392709
0.024394398
0.024402937
0.024417819
0.024438531
0.024464563
0.024495425
0.02453066
0.024569848
0.024612622
0.024658661
0.024707705
0.024759544
0.024814023
0.024871035
0.024930333
0.024992231
0.025056582
0.025123382
0.025192661
0.02526445
0.02533878
0.025415656
0.025495008
0.025576876
0.025661277
0.025748206
0.025837636
0.02592952
0.026023788
0.026120356
0.026219121
0.026319969
0.026422775
0.026527407
0.026633725
0.026741588
0.026850855
0.026961383
0.027073035
0.027185675
0.027299174
0.027413411
0.027528267
0.027643635
0.027759414
0.027875509
0.02799183
0.028108262
0.024434295
0.02441441
0.024402303
0.024397563
0.024399752
0.024408402
0.024423032
0.024443159
0.024468315
0.024498059
0.024531989
0.02456975
0.024611039
0.024655607
0.024703265
0.024753872
0.02480735
0.024863421
0.024922535
0.024984457
0.02504923
0.025116893
0.025187488
0.025261045
0.025337587
0.025417115
0.025499525
0.025584817
0.025672966
0.025763921
0.025857602
0.02595391
0.026052723
0.026153902
0.026257295
0.026362741
0.02647007
0.026579109
0.026689686
0.026801628
0.026914768
0.027028942
0.027143994
0.027259778
0.027376156
0.027492997
0.027610184
0.027727608
0.027845171
0.027962782
0.028080358
0.028197791
0.02443534
0.024417351
0.02440671
0.024403
0.024405793
0.024414642
0.024429099
0.024448724
0.0244731
0.024501851
0.024534644
0.024571197
0.024611289
0.024654752
0.024701473
0.024751335
0.024804284
0.024860588
0.024920127
0.024982949
0.025049109
0.025118657
0.025191628
0.025268036
0.025347874
0.025431106
0.025517606
0.025607321
0.025700165
0.025796025
0.02589476
0.025996206
0.026100182
0.026206492
0.026314931
0.026425289
0.026537355
0.02665092
0.026765779
0.026881735
0.0269986
0.027116197
0.027234359
0.027352933
0.027471779
0.027590769
0.027709789
0.027828735
0.027947518
0.028066059
0.028184285
0.028302098
0.024436481
0.024420572
0.024411548
0.024408996
0.024412502
0.024421654
0.024436047
0.024455296
0.024479055
0.024507023
0.02453895
0.024574648
0.024613982
0.024656874
0.024703165
0.024753065
0.02480666
0.024863927
0.024924943
0.024989784
0.02505851
0.02513116
0.025207744
0.025288237
0.025372578
0.025460668
0.025552365
0.025647535
0.025746023
0.025847639
0.025952171
0.026059384
0.026169034
0.026280865
0.026394623
0.026510051
0.026626901
0.026744934
0.026863922
0.026983649
0.027103916
0.027224538
0.02734535
0.027466198
0.027586949
0.027707483
0.027827698
0.027947503
0.028066823
0.028185596
0.028303763
0.028421246
0.024437709
0.024424053
0.024416791
0.02441552
0.024419858
0.024429437
0.024443911
0.024462971
0.024486353
0.024513849
0.024545313
0.024580659
0.024619854
0.024662683
0.024709668
0.024760702
0.024815874
0.024875297
0.02493907
0.025007272
0.025079947
0.025157098
0.025238685
0.025324617
0.025414758
0.025508929
0.025606935
0.025708577
0.025813606
0.025921749
0.026032711
0.026146188
0.026261869
0.026379445
0.026498614
0.026619082
0.026740573
0.026862825
0.026985596
0.027108665
0.027231829
0.02735491
0.027477746
0.027600198
0.027722147
0.027843488
0.027964138
0.028084027
0.0282031
0.028321315
0.028438635
0.028555002
0.024439017
0.024427772
0.024422406
0.024422542
0.024427841
0.024438
0.024452751
0.024471877
0.02449522
0.024522683
0.024554233
0.024589912
0.024629487
0.024673706
0.02472238
0.024775684
0.024833777
0.024896793
0.024964832
0.025037947
0.025116136
0.025199337
0.025287428
0.025380226
0.025477495
0.025578948
0.025684362
0.025793424
0.02590579
0.026021094
0.026138963
0.026259021
0.026380899
0.026504241
0.026628706
0.026753977
0.026879757
0.027005778
0.027131795
0.027257591
0.027382974
0.02750778
0.027631867
0.027755115
0.027877427
0.027998725
0.028118949
0.028238057
0.028356018
0.028472817
0.028588443
0.028702859
0.024440392
0.024431704
0.024428361
0.02443003
0.024436439
0.024447369
0.024462655
0.024482195
0.024505956
0.024533972
0.024566279
0.024602941
0.024644546
0.024691085
0.024742779
0.024799842
0.024862451
0.024930738
0.025004767
0.025084532
0.025169947
0.02526085
0.025357007
0.025458117
0.02556382
0.025673712
0.025787521
0.025904818
0.026025151
0.026148065
0.02627311
0.02639985
0.026527866
0.026656766
0.02678619
0.026915805
0.027045313
0.027174451
0.027302987
0.027430721
0.027557485
0.027683138
0.027807568
0.027930686
0.028052424
0.028172738
0.028291599
0.028408994
0.028524926
0.028639404
0.028752459
0.028864052
0.024441823
0.02443582
0.024434621
0.024437959
0.024445654
0.024457599
0.024473757
0.024494168
0.024518947
0.024548138
0.024582104
0.02462134
0.024665976
0.024716322
0.024772663
0.024835235
0.024904208
0.024979664
0.025061595
0.025149888
0.025244338
0.025344644
0.025450426
0.025561239
0.025676587
0.025795953
0.025918992
0.026045145
0.026173862
0.026304602
0.026436851
0.026570123
0.026703971
0.026837983
0.026971793
0.027105074
0.027237543
0.027368957
0.02749911
0.027627837
0.027755001
0.027880501
0.02800426
0.02812623
0.028246381
0.028364706
0.028481213
0.028595923
0.028708882
0.028820103
0.02892973
0.029037687
0.024443298
0.024440093
0.024441155
0.024446312
0.024455509
0.024468779
0.024486246
0.024508119
0.024534471
0.024565968
0.024603051
0.024646007
0.02469525
0.024751161
0.024814053
0.024884147
0.024961558
0.025046274
0.025138159
0.025236952
0.025342279
0.025453665
0.025570556
0.025692335
0.025818343
0.025948067
0.026080957
0.026216349
0.026353603
0.026492114
0.026631321
0.026770713
0.026909828
0.027048261
0.027185658
0.027321717
0.027456187
0.027588864
0.027719583
0.027848223
0.027974696
0.028098945
0.028220941
0.028340682
0.028458181
0.028573476
0.028686618
0.028797646
0.028906722
0.029013831
0.029119033
0.029222438
0.024444801
0.024444495
0.024447937
0.024455089
0.024466053
0.024481044
0.024500379
0.024524185
0.024553426
0.024588544
0.024629997
0.024678334
0.024734055
0.024797575
0.024869191
0.024949059
0.025037179
0.025133387
0.025237365
0.025348651
0.025466658
0.025590705
0.025720037
0.025853859
0.025991368
0.026132051
0.026275126
0.02641984
0.026565486
0.026711418
0.026857053
0.027001877
0.027145442
0.027287368
0.02742734
0.027565099
0.027700446
0.027833227
0.027963338
0.028090711
0.028215316
0.028337152
0.028456243
0.02857264
0.028686401
0.028797614
0.028906404
0.029012866
0.029116998
0.029219019
0.029319019
0.029417085
0.024446319
0.024449
0.02445495
0.024464307
0.024477374
0.024494587
0.02451616
0.02454334
0.024576637
0.0246167
0.024664245
0.024719926
0.024784294
0.024857749
0.024940514
0.025032611
0.025133859
0.025243876
0.025362099
0.025487813
0.025620183
0.025758291
0.025901166
0.02604782
0.026197477
0.026349385
0.026502646
0.026656436
0.026810009
0.026962705
0.027113949
0.027263253
0.027410209
0.02755449
0.027695836
0.027834057
0.027969017
0.028100634
0.028228871
0.028353728
0.02847524
0.028593466
0.028708488
0.028820431
0.028929366
0.029035594
0.029138938
0.029239752
0.029338137
0.029434251
0.029528237
0.029620205
0.024447838
0.024453587
0.024462191
0.02447401
0.0244896
0.024509292
0.024534598
0.02456617
0.024604873
0.02465163
0.024707296
0.024772597
0.024848077
0.02493406
0.025030615
0.025137554
0.025254432
0.025380579
0.025515129
0.025657068
0.025805277
0.025958587
0.026115816
0.026275833
0.026437891
0.026600947
0.026764042
0.026926318
0.027087027
0.027245529
0.02740129
0.027553878
0.027702954
0.027848265
0.027989633
0.028126948
0.02826016
0.028389266
0.028514308
0.028635362
0.028752539
0.028865961
0.028975739
0.029082259
0.029185318
0.02928531
0.02938237
0.029476704
0.029568489
0.029657909
0.029745139
0.029830314
0.024449346
0.024458243
0.02446967
0.024484272
0.024502516
0.024526157
0.024556066
0.024593354
0.024639201
0.024694714
0.024760853
0.02483836
0.024927704
0.02502904
0.025142196
0.025266677
0.025401695
0.025546216
0.025699016
0.025858743
0.026023979
0.026193293
0.026365288
0.026538982
0.026713254
0.026886987
0.027059193
0.027229022
0.027395761
0.027558828
0.027717767
0.02787223
0.028021975
0.028166845
0.028306765
0.028441721
0.028571759
0.028696968
0.028817475
0.028933436
0.02904505
0.029152534
0.029256107
0.029355836
0.029452053
0.029544991
0.029634867
0.029721905
0.029806323
0.029888333
0.029968137
0.030045896
0.024450833
0.024462962
0.024477422
0.024494803
0.024517069
0.024545382
0.024581133
0.024625818
0.024680859
0.02474752
0.024826812
0.024919415
0.025025626
0.02514533
0.025278001
0.025422737
0.02557832
0.025743286
0.025916006
0.02609477
0.026277856
0.026463589
0.026650567
0.026837661
0.027023552
0.027207097
0.027387328
0.027563448
0.027734822
0.027900966
0.028061531
0.028216289
0.028365114
0.02850797
0.028644896
0.028775992
0.028901407
0.02902133
0.029135979
0.029245567
0.029350616
0.029450913
0.029547007
0.029639138
0.029727586
0.029812623
0.029894515
0.029973518
0.030049881
0.030123846
0.030195639
0.030265442
0.024452297
0.024467756
0.024485108
0.024506466
0.024533326
0.024567405
0.02461057
0.024664638
0.024731257
0.024811799
0.024907245
0.025018114
0.02514441
0.025285618
0.025440741
0.025608365
0.025786758
0.025973969
0.026167937
0.026366588
0.026567922
0.026770088
0.026971826
0.027171608
0.027368109
0.027560222
0.027747052
0.027927905
0.028102268
0.028269792
0.028430269
0.028583612
0.028729837
0.028869043
0.029001398
0.029127123
0.029246479
0.029359758
0.029467293
0.02956953
0.029666461
0.029758622
0.029846356
0.029929983
0.030009825
0.030086196
0.030159396
0.030229714
0.030297428
0.0303628
0.030426084
0.030487473
0.024453767
0.024472277
0.024493493
0.024519238
0.024551585
0.024592835
0.024645275
0.024711041
0.024791971
0.024889468
0.025004381
0.025136927
0.025286675
0.025452569
0.02563301
0.025825973
0.026029139
0.026240033
0.026456152
0.026675074
0.026894544
0.027112961
0.027328596
0.027539902
0.027745603
0.027944688
0.028136391
0.028320168
0.028495671
0.028662719
0.028821275
0.028971416
0.029113317
0.029247222
0.029373437
0.029492311
0.029604218
0.029709684
0.029808911
0.029902289
0.029990307
0.030073371
0.030151875
0.030226197
0.0302967
0.030363734
0.030427633
0.030488715
0.030547275
0.030603603
0.03065796
0.030710562
0.024455017
0.0244772
0.024502497
0.024533276
0.024572295
0.024622385
0.024686276
0.024766405
0.024864737
0.024982599
0.025120562
0.025278383
0.025455025
0.025648736
0.025857191
0.026077658
0.026307182
0.026542747
0.026781427
0.027020496
0.027257827
0.027491518
0.027719731
0.02794098
0.028154107
0.028358259
0.028552856
0.028737549
0.028912193
0.029076808
0.029231547
0.02937667
0.029512521
0.0296395
0.029758049
0.029868657
0.029972045
0.030068202
0.030157868
0.030241551
0.03031972
0.030392837
0.030461345
0.030525665
0.030586201
0.030643332
0.030697422
0.030748813
0.030797816
0.030844731
0.03088984
0.030933376
0.024456257
0.024482327
0.024512135
0.024548877
0.024595982
0.024656874
0.024734731
0.024832252
0.024951432
0.025093378
0.025258204
0.025445012
0.025651972
0.025876478
0.026115357
0.026365103
0.026622098
0.026882804
0.027143912
0.027402671
0.027656893
0.0279044
0.028143441
0.028372676
0.028591143
0.028798207
0.028993525
0.029176987
0.029348683
0.029508855
0.029657869
0.029796176
0.029924296
0.030042789
0.030152218
0.030253589
0.03034668
0.030432549
0.030511748
0.030584832
0.030652337
0.030714774
0.030772631
0.030826367
0.030876416
0.030923186
0.030967063
0.031008403
0.031047532
0.031084771
0.031120402
0.031154666
0.024457505
0.024487634
0.024522591
0.024566401
0.024623259
0.024697224
0.024791921
0.024910234
0.025054051
0.025224072
0.025419734
0.025639264
0.025879842
0.026137853
0.026409177
0.026689489
0.026974518
0.027260262
0.027543184
0.027820706
0.028090211
0.028349615
0.028597344
0.028832292
0.029053759
0.029261393
0.029455129
0.029635136
0.02980176
0.029955487
0.030096901
0.030226656
0.030345445
0.030454003
0.030553364
0.030643522
0.030725565
0.030800189
0.030868045
0.030929753
0.030985902
0.03103705
0.031083719
0.031126401
0.031165555
0.031201611
0.031234966
0.031265997
0.03129504
0.031322416
0.031348419
0.031373295
0.024458735
0.024493231
0.024534091
0.024586271
0.024654818
0.024744464
0.024859242
0.025002112
0.02517467
0.02537697
0.025607519
0.025863426
0.026140681
0.026434522
0.026739815
0.027051409
0.027364428
0.027674483
0.027978363
0.028272908
0.028555607
0.028824581
0.029078533
0.029316666
0.029538613
0.029744353
0.029934144
0.030108452
0.030267905
0.030413237
0.03054526
0.030664824
0.030772856
0.030870451
0.030957772
0.031036048
0.031106075
0.031168615
0.03122439
0.031274074
0.031318305
0.031357674
0.03139274
0.031424012
0.031451967
0.031477058
0.031499691
0.031520244
0.03153907
0.031556487
0.031572793
0.031588234
0.02445996
0.024499235
0.024546896
0.024608966
0.02469143
0.024799713
0.024938189
0.025109731
0.0253154
0.025554321
0.025823782
0.026119517
0.026436145
0.026767648
0.027107847
0.027450804
0.027791125
0.028124641
0.028447608
0.028756927
0.029050311
0.029326195
0.029583648
0.029822263
0.030042062
0.030243398
0.030426879
0.03059329
0.030743544
0.030878632
0.030999591
0.031107544
0.031203736
0.031288431
0.031363052
0.031428523
0.031485722
0.03153548
0.031578571
0.031615719
0.031647596
0.031674823
0.031697979
0.031717596
0.03173416
0.031748133
0.03175993
0.031769933
0.031778492
0.03178593
0.031792541
0.03179857
0.024461209
0.024505779
0.024561305
0.024635019
0.024733936
0.024864175
0.025030334
0.025234976
0.025478327
0.025758251
0.026070498
0.026409185
0.026767395
0.027137793
0.027513177
0.027886909
0.028253598
0.028608708
0.028948394
0.02926981
0.029571027
0.029850907
0.030108971
0.030345268
0.030560257
0.030754698
0.030929567
0.031085977
0.031225128
0.031348259
0.03145672
0.031551993
0.031634385
0.031705556
0.031766583
0.031818481
0.031862198
0.031898619
0.031928565
0.031952795
0.031972006
0.031986845
0.031997901
0.032005721
0.0320108
0.032013599
0.032014535
0.032013989
0.032012312
0.032009821
0.032006805
0.032003506
0.024462522
0.024513021
0.024577647
0.02466501
0.024783241
0.024939116
0.025137289
0.025379722
0.025665438
0.02599066
0.026349283
0.026733578
0.027134981
0.027544833
0.027954977
0.028358491
0.028749785
0.029124015
0.029477592
0.029808073
0.030114016
0.030394812
0.030650512
0.030881676
0.031089233
0.031274372
0.031438446
0.031582895
0.031709198
0.031818886
0.031913883
0.031994415
0.032062449
0.032119237
0.032165946
0.032203663
0.032233395
0.032256069
0.032272542
0.0322836
0.032289957
0.032292273
0.032291148
0.03228713
0.032280719
0.032272369
0.032262498
0.032251483
0.032239667
0.032227361
0.032214847
0.03220236
0.024463949
0.024521138
0.024596286
0.024699564
0.024840297
0.025025844
0.025260671
0.025545764
0.025878516
0.026253107
0.026661263
0.027093226
0.027538736
0.02798787
0.028431779
0.028863492
0.029276852
0.029667249
0.030031522
0.030367779
0.030675185
0.030953747
0.031204111
0.031427386
0.031624998
0.031798568
0.031949831
0.032080544
0.032192455
0.032287893
0.032367196
0.03243253
0.032485384
0.032527105
0.032558938
0.032582025
0.032597417
0.032606075
0.032608882
0.032606637
0.032600066
0.032589832
0.032576538
0.032560732
0.032542907
0.032523515
0.032502964
0.032481623
0.032459828
0.032437879
0.032416047
0.03239456
0.024465551
0.024530327
0.024617608
0.024739334
0.024906088
0.025125673
0.025402034
0.025734726
0.026119028
0.026546664
0.027006924
0.027487904
0.027977669
0.028465166
0.028941525
0.029398894
0.029831286
0.030234522
0.03060604
0.030944635
0.031250184
0.031523386
0.031765527
0.031978292
0.032163611
0.032323538
0.032460182
0.032575594
0.032672343
0.032751296
0.032814493
0.032863841
0.032900878
0.032927027
0.032943589
0.032951752
0.032952597
0.032947105
0.032936173
0.032920609
0.032901139
0.032878425
0.032853065
0.0328256
0.032796516
0.032766254
0.032735213
0.03270375
0.03267219
0.03264082
0.032609898
0.03257964
0.024467401
0.0245408
0.024642017
0.024784995
0.024981606
0.025239875
0.025562794
0.02594794
0.026387962
0.02687175
0.027385954
0.027916499
0.028449869
0.028974653
0.029480971
0.029960944
0.030408958
0.030821456
0.031196632
0.031534091
0.03183451
0.032099336
0.032330528
0.03253036
0.03270126
0.032845697
0.032966155
0.033065432
0.033145053
0.033206894
0.033253315
0.033286098
0.033306869
0.033317111
0.033318171
0.033311266
0.033297491
0.033277839
0.03325321
0.033224415
0.033192172
0.033157133
0.033119889
0.033080969
0.033040846
0.032999949
0.032958662
0.032917332
0.032876268
0.032835744
0.032795996
0.032757231
0.024469578
0.024552781
0.024669928
0.024837224
0.025067814
0.025369618
0.025744116
0.026186289
0.026685645
0.027227932
0.027797072
0.028376883
0.028952911
0.029512747
0.030046054
0.030545216
0.031005211
0.03142328
0.031798518
0.032131444
0.032423603
0.032677232
0.032894979
0.033079704
0.033234325
0.033361676
0.033465024
0.033546637
0.033608106
0.033652372
0.033681485
0.033697316
0.033701554
0.033695722
0.033681198
0.033659217
0.033630876
0.033597166
0.033558986
0.033517143
0.033472336
0.033425206
0.033376331
0.033326222
0.033275339
0.033224093
0.033172854
0.033121952
0.033071686
0.033022312
0.032974037
0.032927057
0.024472176
0.024566499
0.024701752
0.024896682
0.025165609
0.025515873
0.02594676
0.026450001
0.027011505
0.027613702
0.028237835
0.028866045
0.029482911
0.030074983
0.030631958
0.031146697
0.031614959
0.032034942
0.032406764
0.032731942
0.033012945
0.033252821
0.033454913
0.033622653
0.033759439
0.033868543
0.033953918
0.034016289
0.034059396
0.034085619
0.034097103
0.034095782
0.034083389
0.034061469
0.034031417
0.033994479
0.03395174
0.033904178
0.033852686
0.033798058
0.033740972
0.033682054
0.033621859
0.033560884
0.033499568
0.033438304
0.033377444
0.033317304
0.033258168
0.033200287
0.033143797
0.033088918
0.024475291
0.02458218
0.024737885
0.024963982
0.025275744
0.025679279
0.026170876
0.026738377
0.027363786
0.028026218
0.02870449
0.029379726
0.03003482
0.030656006
0.031233197
0.031759901
0.032232815
0.032651233
0.033016396
0.033330893
0.033598152
0.033822046
0.034006599
0.034155794
0.034273507
0.034364053
0.034429348
0.034472549
0.03449689
0.034504819
0.034498545
0.034480044
0.034451081
0.0344132
0.034367804
0.034316141
0.03425927
0.034198157
0.034133675
0.034066594
0.033997579
0.033927231
0.033856083
0.033784609
0.033713228
0.033642314
0.033572198
0.033503177
0.033435525
0.024479027
0.024600038
0.024778689
0.025039651
0.025398736
0.025859953
0.026415711
0.027049452
0.027739205
0.028461
0.029192221
0.029912029
0.030602497
0.031249652
0.031843727
0.032378995
0.03285322
0.033266907
0.033622515
0.033923761
0.034175059
0.034381108
0.0345466
0.034676014
0.034774302
0.034844653
0.034889672
0.034913444
0.034918853
0.034908438
0.034884458
0.03484891
0.03480358
0.034749996
0.034689554
0.034623491
0.034552845
0.034478558
0.034401475
0.03432234
0.0342418
0.034160428
0.034078734
0.033997168
0.033916123
0.033835955
0.033756972
0.033679452
0.033603636
0.024483486
0.024620262
0.02482447
0.025124067
0.025534717
0.026057215
0.026679217
0.027379547
0.028132553
0.028912124
0.029693895
0.030455642
0.031178764
0.031849066
0.032457098
0.032997959
0.033470589
0.033876815
0.034220405
0.034506256
0.034739791
0.034926532
0.035071825
0.035180777
0.035259138
0.03530815
0.035333088
0.035337333
0.035323845
0.035295222
0.035253753
0.035201439
0.035140067
0.035071145
0.034996055
0.03491601
0.03483202
0.034745
0.034655763
0.034565026
0.03447341
0.03438146
0.034289661
0.034198437
0.034108156
0.034019154
0.033931715
0.033846095
0.033762509
0.024488768
0.024643004
0.024875446
0.025217366
0.025683204
0.026269186
0.026957512
0.027722702
0.028536344
0.029370994
0.030200518
0.031001851
0.03175552
0.03244687
0.033066632
0.033610753
0.034079458
0.034476027
0.034805633
0.035074416
0.035288826
0.035455202
0.035579488
0.035668301
0.035724949
0.035753188
0.035758032
0.035742874
0.035710717
0.035664189
0.035605586
0.035536912
0.035459935
0.035376143
0.035286886
0.035193343
0.035096504
0.034997248
0.034896355
0.034794507
0.034692298
0.034590247
0.034488809
0.034388384
0.034289317
0.034191918
0.034096446
0.03400314
0.03391219
0.024494959
0.02466836
0.024931697
0.025319287
0.025842747
0.026492211
0.027244144
0.028069922
0.028940315
0.029826324
0.03070108
0.031540605
0.032323912
0.033035375
0.033665632
0.034211496
0.034674635
0.035059948
0.035374143
0.035624674
0.035819045
0.035964418
0.036067635
0.036135779
0.036170478
0.036178247
0.036163257
0.03612902
0.036078584
0.036014595
0.035939352
0.035854832
0.035762778
0.035664661
0.035561787
0.035455297
0.035346154
0.035235203
0.035123185
0.03501075
0.034898461
0.034786807
0.034676218
0.034567066
0.034459672
0.03435432
0.034251251
0.034150682
0.03405278
0.024502123
0.024696339
0.024993084
0.025428923
0.026010397
0.026720026
0.027529118
0.02840878
0.029330179
0.030263899
0.031182497
0.03206067
0.03287459
0.033606853
0.034247618
0.034794655
0.035251336
0.035624423
0.035922327
0.036153906
0.036327761
0.036451842
0.03653483
0.03658086
0.036594604
0.036582213
0.036547813
0.036494991
0.03642682
0.036345944
0.036254648
0.03615489
0.03604837
0.035936537
0.035820652
0.035701813
0.035580954
0.03545888
0.035336298
0.035213822
0.035091983
0.034971243
0.034852002
0.034734606
0.034619353
0.034506503
0.034396275
0.034288865
0.034184425
0.024510286
0.024726825
0.025059109
0.025544291
0.026180854
0.026942563
0.027797558
0.028721354
0.029687381
0.030666314
0.031629629
0.032549901
0.033398032
0.03415385
0.034806576
0.035355226
0.035805315
0.036165823
0.036447082
0.036659477
0.036812755
0.036915973
0.036978715
0.03700279
0.036996245
0.036964242
0.036911042
0.036840273
0.036755026
0.03665794
0.036551273
0.036436955
0.036316645
0.036191757
0.036063509
0.035932956
0.035800995
0.035668397
0.03553583
0.035403875
0.03527303
0.035143728
0.035016341
0.034891191
0.034768551
0.034648657
0.034531708
0.03441788
0.034307309
0.024519412
0.024759504
0.025128671
0.025661622
0.026345162
0.027144216
0.028039054
0.029004679
0.030012951
0.031034181
0.032039062
0.032998977
0.033884968
0.034669555
0.035337211
0.035888894
0.036332965
0.036681106
0.036945854
0.03713925
0.03727217
0.037355882
0.037397447
0.037400924
0.037374696
0.037323795
0.037252533
0.037164576
0.037063019
0.036950484
0.036829199
0.036701058
0.036567678
0.036430434
0.036290502
0.036148894
0.036006468
0.035863959
0.035721999
0.035581134
0.035441833
0.035304497
0.035169474
0.035037059
0.034907503
0.034781018
0.034657784
0.034537957
0.034421657
0.024529347
0.024793744
0.025199624
0.025774126
0.026488646
0.027322922
0.028256054
0.029261116
0.030308962
0.031369519
0.032412921
0.033409796
0.034330939
0.035148202
0.035835186
0.03639217
0.036831394
0.037167866
0.037416648
0.037591601
0.037704903
0.037770053
0.037790605
0.037774592
0.037729526
0.037660578
0.037572119
0.037467831
0.037350807
0.037223647
0.037088547
0.036947361
0.036801666
0.036652793
0.036501878
0.036349888
0.036197644
0.036045845
0.035895089
0.035745887
0.035598679
0.035453838
0.035311684
0.035172491
0.035036485
0.034903857
0.034774768
0.034649354
0.034527722
0.024539709
0.024828363
0.025267986
0.025869856
0.026613324
0.027481964
0.028451411
0.029493261
0.030577747
0.031674561
0.032753454
0.033784512
0.034738136
0.035585406
0.03629732
0.036862487
0.037298468
0.03762433
0.037858017
0.038015393
0.038110306
0.038157388
0.03815799
0.038123497
0.038060573
0.037974546
0.037869841
0.037750152
0.037618562
0.037477648
0.037329571
0.037176148
0.037018912
0.036859153
0.036697964
0.036536273
0.036374863
0.036214398
0.036055441
0.035898473
0.035743903
0.035592078
0.035443295
0.035297802
0.035155806
0.035017475
0.034882951
0.034752355
0.034625777
0.024549639
0.024861217
0.025326469
0.025949721
0.026722787
0.027624676
0.028628121
0.02970378
0.030821721
0.031951608
0.033062942
0.034125375
0.035108881
0.035983958
0.03672174
0.037298235
0.037732801
0.038049345
0.038269069
0.038409855
0.038488289
0.038517173
0.038499576
0.038447633
0.038367923
0.038265864
0.038145927
0.038011814
0.037866598
0.03771283
0.037552638
0.037387799
0.037219806