/*--------------------------------*- C++ -*----------------------------------*\
| =========                 |                                                 |
| \\      /  F ield         | OpenFOAM: The Open Source CFD Toolbox           |
|  \\    /   O peration     | Version:  2312                                  |
|   \\  /    A nd           | Website:  www.openfoam.com                      |
|    \\/     M anipulation  |                                                 |
\*---------------------------------------------------------------------------*/
FoamFile
{
    version     2.0;
    format      ascii;
    arch        "LSB;label=32;scalar=64";
    class       volScalarField;
    location    "0.05";
    object      O2;
}
// * * * * * * * * * * * * * * * * * * * * * * * * * * * * * * * * * * * * * //

dimensions      [0 0 0 0 0 0 0];

internalField   nonuniform List<scalar> 
3221
(
0.2298132
0.22942051
0.22900835
0.22857669
0.22812559
0.22765516
0.22716556
0.22665704
0.22612987
0.22558438
0.22502097
0.22444005
0.22384209
0.22322759
0.22259708
0.22195112
0.22129029
0.22061521
0.21992649
0.21922478
0.21851072
0.21778498
0.21704823
0.21630114
0.21554439
0.21477867
0.21400466
0.21322304
0.21243452
0.21163976
0.21083946
0.21003431
0.20922498
0.20841216
0.20759652
0.20677875
0.20595951
0.2051395
0.20431937
0.20349981
0.20268148
0.20186507
0.20105126
0.20024071
0.19943412
0.19863217
0.19783555
0.19704496
0.19626111
0.19548471
0.19471649
0.19395722
0.22981131
0.22941464
0.22899827
0.2285622
0.22810648
0.22763123
0.22713664
0.22662295
0.22609045
0.2255395
0.22497048
0.22438383
0.22378003
0.2231596
0.22252307
0.22187103
0.22120407
0.2205228
0.21982787
0.21911992
0.21839963
0.21766766
0.21692469
0.21617142
0.21540854
0.21463673
0.2138567
0.21306915
0.21227477
0.21147426
0.21066831
0.20985763
0.20904289
0.2082248
0.20740403
0.20658127
0.2057572
0.20493251
0.20410787
0.20328396
0.20246146
0.20164105
0.20082339
0.20000918
0.1991991
0.19839382
0.19759404
0.19680044
0.19601373
0.19523461
0.1944638
0.19370209
0.22980764
0.22940321
0.22897868
0.22853406
0.22806941
0.22758487
0.22708064
0.22655699
0.22601424
0.22545274
0.22487293
0.22427527
0.22366025
0.22302843
0.22238036
0.22171665
0.22103791
0.22034481
0.21963799
0.21891813
0.21818593
0.21744208
0.21668729
0.21592227
0.21514774
0.21436441
0.21357301
0.21277425
0.21196885
0.21115753
0.210341
0.20951998
0.20869517
0.20786728
0.207037
0.20620504
0.20537208
0.20453882
0.20370594
0.20287412
0.20204405
0.2012164
0.20039185
0.19957109
0.19875478
0.19794361
0.19713826
0.19633941
0.19554776
0.19476399
0.19398882
0.19322303
0.22980227
0.22938651
0.22895007
0.22849297
0.22801531
0.22751724
0.226999
0.22646088
0.22590322
0.22532644
0.22473099
0.22411737
0.22348611
0.2228378
0.22217305
0.22149248
0.22079677
0.2200866
0.21936266
0.21862568
0.21787639
0.21711551
0.2163438
0.21556199
0.21477086
0.21397113
0.21316358
0.21234894
0.21152798
0.21070143
0.20987004
0.20903455
0.20819567
0.20735415
0.20651069
0.20566602
0.20482083
0.20397583
0.20313171
0.20228916
0.20144886
0.2006115
0.19977774
0.19894827
0.19812375
0.19730485
0.19649225
0.19568661
0.19488861
0.19409893
0.19331825
0.19254736
0.22979528
0.22936476
0.22891281
0.22843947
0.22794488
0.22742922
0.22689278
0.22633587
0.2257589
0.22516231
0.2245466
0.22391233
0.22326008
0.22259048
0.22190419
0.2212019
0.22048433
0.21975221
0.2190063
0.21824736
0.21747618
0.21669354
0.21590024
0.21509707
0.21428484
0.21346434
0.21263637
0.21180173
0.21096121
0.21011558
0.20926564
0.20841213
0.20755583
0.20669748
0.20583783
0.2049776
0.20411752
0.2032583
0.20240065
0.20154524
0.20069277
0.19984392
0.19899934
0.19815971
0.19732569
0.19649792
0.19567706
0.19486376
0.19405867
0.19326245
0.19247576
0.19169935
0.22978672
0.22933812
0.22886715
0.22837392
0.2278586
0.22732141
0.2267627
0.22618283
0.22558225
0.22496148
0.22432107
0.22366164
0.22298383
0.22228834
0.2215759
0.22084726
0.2201032
0.21934453
0.21857206
0.21778664
0.21698911
0.21618033
0.21536114
0.21453242
0.21369502
0.21284981
0.21199763
0.21113933
0.21027576
0.20940774
0.20853609
0.20766161
0.20678511
0.20590735
0.20502911
0.20415113
0.20327416
0.2023989
0.20152607
0.20065635
0.19979044
0.19892899
0.19807266
0.19722209
0.19637793
0.1955408
0.19471133
0.19389014
0.19307785
0.19227507
0.19148245
0.19070069
0.22977662
0.22930667
0.22881326
0.22829654
0.22775674
0.22719415
0.22660917
0.22600223
0.22537385
0.22472462
0.22405516
0.22336617
0.22265836
0.22193252
0.22118945
0.22042999
0.219655
0.21886537
0.21806201
0.21724583
0.21641776
0.21557874
0.2147297
0.21387158
0.21300532
0.21213185
0.21125209
0.21036694
0.20947732
0.20858409
0.20768812
0.20679027
0.20589136
0.2049922
0.20409358
0.20319627
0.20230101
0.20140853
0.20051954
0.19963472
0.19875474
0.19788024
0.19701186
0.19615022
0.19529592
0.19444957
0.19361174
0.19278302
0.19196398
0.19115521
0.19035728
0.18957085
0.229765
0.22927045
0.22875118
0.2282074
0.22763939
0.22704754
0.22643231
0.22579421
0.22513386
0.22445191
0.2237491
0.22302618
0.222284
0.22152342
0.22074534
0.21995071
0.21914048
0.21831564
0.21747721
0.21662619
0.21576362
0.21489053
0.21400794
0.21311691
0.21221844
0.21131355
0.21040324
0.20948849
0.20857026
0.2076495
0.20672713
0.20580403
0.20488107
0.20395909
0.2030389
0.20212128
0.20120699
0.20029674
0.19939123
0.19849113
0.19759709
0.19670972
0.19582962
0.19495737
0.19409355
0.19323868
0.19239332
0.19155799
0.19073321
0.18991951
0.18911741
0.1883275
0.22975184
0.22922944
0.22868087
0.22810642
0.22750645
0.22688145
0.22623195
0.22555858
0.22486204
0.22414311
0.2234026
0.22264142
0.22186049
0.2210608
0.22024337
0.21940926
0.21855956
0.21769538
0.21681783
0.21592807
0.21502722
0.21411646
0.21319691
0.21226972
0.21133603
0.21039692
0.2094535
0.20850681
0.20755791
0.20660779
0.20565742
0.20470775
0.20375967
0.20281403
0.20187168
0.20093339
0.19999991
0.19907195
0.19815019
0.19723526
0.19632777
0.1954283
0.1945374
0.1936556
0.1927834
0.1919213
0.19106976
0.19022925
0.18940022
0.18858313
0.18777843
0.18698664
0.22973712
0.22918357
0.2286022
0.2279934
0.22735764
0.2266955
0.22600764
0.2252948
0.2245578
0.22379752
0.22301494
0.22221106
0.22138696
0.22054377
0.21968265
0.21880479
0.21791143
0.21700382
0.21608323
0.21515094
0.21420824
0.21325641
0.21229672
0.21133045
0.21035883
0.20938308
0.20840438
0.20742388
0.20644269
0.20546188
0.20448248
0.20350545
0.20253174
0.20156221
0.20059769
0.19963897
0.19868677
0.19774177
0.19680461
0.19587589
0.19495616
0.19404594
0.19314572
0.19225596
0.19137708
0.1905095
0.18965362
0.18880981
0.18797847
0.18715994
0.18635462
0.18556294
0.22972081
0.2291327
0.22851493
0.22786799
0.2271925
0.22648913
0.22575869
0.22500204
0.22422016
0.22341407
0.2225849
0.22173381
0.22086205
0.21997089
0.21906167
0.21813577
0.21719457
0.21623951
0.21527202
0.21429356
0.21330556
0.21230948
0.21130674
0.21029874
0.20928685
0.2082724
0.20725669
0.20624094
0.20522635
0.20421405
0.20320511
0.20220053
0.20120126
0.20020818
0.1992221
0.19824379
0.19727393
0.19631316
0.19536206
0.19442117
0.19349096
0.19257188
0.19166434
0.19076869
0.1898853
0.18901447
0.18815651
0.18731171
0.18648035
0.18566271
0.18485907
0.18406978
0.22970285
0.22907665
0.22841874
0.22772975
0.2270104
0.22626155
0.22548412
0.22467917
0.22384782
0.22299128
0.22211084
0.22120788
0.22028381
0.21934012
0.21837833
0.21740003
0.21640681
0.2154003
0.21438214
0.21335397
0.21231743
0.21127414
0.21022569
0.20917364
0.20811949
0.20706471
0.20601069
0.20495876
0.20391018
0.20286613
0.20182771
0.20079595
0.1997718
0.19875612
0.1977497
0.19675324
0.19576738
0.19479268
0.19382966
0.19287876
0.19194036
0.19101482
0.19010242
0.18920345
0.18831812
0.18744666
0.18658927
0.18574611
0.18491737
0.18410323
0.18330385
0.18251948
0.22968318
0.22901521
0.22831325
0.22757807
0.22681057
0.22601175
0.22518273
0.22432474
0.22343911
0.22252726
0.22159069
0.22063099
0.21964982
0.21864889
0.21762996
0.21659485
0.2155454
0.21448347
0.21341094
0.21232967
0.21124151
0.21014829
0.20905177
0.20795369
0.20685571
0.2057594
0.20466628
0.20357775
0.20249513
0.20141965
0.20035243
0.19929448
0.19824674
0.19721003
0.19618506
0.19517249
0.19417287
0.19318666
0.19221427
0.19125604
0.19031222
0.18938306
0.18846872
0.18756935
0.18668506
0.18581594
0.18496205
0.18412347
0.18330024
0.18249243
0.18170011
0.18092338
0.22966171
0.2289481
0.22819797
0.22741225
0.22659204
0.22573851
0.22485302
0.223937
0.22299202
0.22201975
0.22102193
0.22000043
0.21895716
0.21789411
0.21681333
0.21571693
0.21460701
0.21348573
0.21235522
0.21121761
0.21007498
0.20892938
0.2077828
0.20663712
0.20549416
0.20435564
0.20322315
0.20209817
0.20098208
0.1998761
0.19878136
0.19769884
0.19662942
0.19557384
0.19453276
0.1935067
0.1924961
0.19150131
0.19052261
0.18956018
0.18861416
0.18768464
0.18677164
0.18587516
0.18499517
0.18413162
0.18328445
0.18245358
0.18163895
0.18084049
0.18005816
0.17929193
0.22963834
0.22887499
0.22807232
0.22723146
0.22635368
0.22544043
0.22449328
0.22351393
0.22250422
0.2214661
0.22040163
0.21931299
0.21820239
0.21707218
0.21592473
0.21476247
0.21358785
0.21240334
0.21121137
0.21001437
0.20881468
0.2076146
0.20641633
0.20522193
0.20403338
0.2028525
0.20168097
0.20052032
0.19937193
0.19823703
0.1971167
0.19601186
0.1949233
0.19385165
0.19279744
0.19176106
0.1907428
0.18974287
0.18876136
0.18779831
0.18685368
0.1859274
0.18501932
0.1841293
0.18325713
0.18240262
0.18156555
0.18074571
0.17994289
0.1791569
0.17838757
0.17763477
0.22961296
0.22879553
0.22793566
0.22703472
0.22609422
0.22511586
0.2241015
0.22305315
0.22197297
0.22086326
0.21972643
0.21856502
0.21738164
0.21617903
0.21495994
0.21372721
0.21248366
0.21123212
0.20997538
0.20871619
0.20745719
0.20620093
0.20494982
0.20370611
0.20247192
0.20124914
0.20003953
0.19884464
0.19766582
0.19650425
0.19536093
0.19423666
0.19313211
0.19204777
0.19098398
0.18994098
0.18891887
0.18791766
0.18693726
0.18597752
0.18503821
0.18411906
0.18321975
0.18233995
0.1814793
0.18063743
0.17981397
0.17900856
0.17822085
0.17745051
0.17669724
0.17596078
0.22958545
0.22870929
0.22778726
0.22682096
0.22581219
0.22476295
0.22367543
0.22255201
0.22139523
0.22020778
0.21899252
0.21775241
0.21649055
0.21521011
0.21391432
0.21260645
0.21128979
0.20996758
0.208643
0.20731914
0.20599898
0.2046853
0.20338075
0.20208774
0.20080849
0.19954497
0.19829895
0.19707194
0.19586525
0.19467994
0.19351688
0.19237673
0.19125996
0.19016686
0.18909758
0.18805214
0.18703041
0.18603219
0.18505716
0.18410496
0.18317514
0.18226724
0.18138073
0.18051508
0.17966976
0.17884423
0.17803795
0.17725041
0.1764811
0.17572958
0.1749954
0.17427817
0.22955566
0.22861581
0.22762628
0.22658894
0.22550592
0.22437958
0.22321251
0.22200749
0.22076753
0.2194958
0.21819567
0.21687063
0.21552431
0.21416043
0.21278277
0.21139513
0.21000129
0.20860497
0.20720978
0.2058192
0.2044365
0.20306475
0.20170679
0.20036516
0.19904216
0.19773977
0.19645973
0.19520349
0.1939722
0.19276679
0.19158792
0.19043603
0.18931137
0.18821399
0.18714378
0.1861005
0.18508377
0.18409312
0.18312802
0.18218782
0.18127188
0.18037948
0.17950991
0.17866243
0.17783631
0.17703083
0.1762453
0.17547904
0.17473141
0.17400181
0.17328968
0.1725945
0.22952344
0.22851457
0.22745179
0.2263373
0.22517359
0.22396344
0.22270989
0.22141625
0.22008604
0.21872303
0.21733119
0.21591464
0.21447765
0.21302458
0.21155985
0.21008786
0.20861296
0.20713939
0.20567124
0.20421236
0.20276635
0.20133654
0.19992591
0.1985371
0.19717243
0.19583385
0.19452298
0.19324112
0.19198925
0.19076805
0.18957793
0.18841906
0.18729138
0.18619467
0.18512851
0.18409236
0.18308555
0.18210734
0.18115691
0.18023336
0.17933578
0.17846325
0.17761481
0.17678952
0.17598646
0.17520472
0.17444345
0.17370182
0.17297903
0.17227437
0.17158715
0.1709167
0.22948861
0.22840501
0.22726278
0.22606451
0.22481313
0.2235119
0.22216441
0.22077455
0.21934651
0.21788475
0.21639395
0.21487899
0.21334489
0.21179677
0.21023978
0.208679
0.20711943
0.20556589
0.20402292
0.2024948
0.20098542
0.1994983
0.19803655
0.19660284
0.19519941
0.19382813
0.19249042
0.19118735
0.18991962
0.18868762
0.18749142
0.18633085
0.18520553
0.18411485
0.18305808
0.18203433
0.18104262
0.18008189
0.17915102
0.17824886
0.17737421
0.17652592
0.17570279
0.17490368
0.17412746
0.17337307
0.17263947
0.17192568
0.17123079
0.17055393
0.16989432
0.16925116
0.22945099
0.22828648
0.22705811
0.2257689
0.22442228
0.22302208
0.22157254
0.22007828
0.21854427
0.21697577
0.21537835
0.21375776
0.21211993
0.21047084
0.20881649
0.20716274
0.20551529
0.20387955
0.20226057
0.20066299
0.19909097
0.19754817
0.19603773
0.19456227
0.19312391
0.19172427
0.19036453
0.18904541
0.18776725
0.18653006
0.18533352
0.18417704
0.18305984
0.18198093
0.18093917
0.17993332
0.17896205
0.17802397
0.17711764
0.17624161
0.17539445
0.17457472
0.17378102
0.17301198
0.17226629
0.1715427
0.17084002
0.17015713
0.16949299
0.16884662
0.16821717
0.16760373
0.22941038
0.2281583
0.22683654
0.22544859
0.22399849
0.22249076
0.22093041
0.21932292
0.21767417
0.21599043
0.2142783
0.21254458
0.21079625
0.20904032
0.20728372
0.20553318
0.20379515
0.20207565
0.20038021
0.19871381
0.19708079
0.19548488
0.19392915
0.19241607
0.19094749
0.18952472
0.18814855
0.18681927
0.18553678
0.18430061
0.18310995
0.18196378
0.18086083
0.17979968
0.17877878
0.17779649
0.17685109
0.17594086
0.17506404
0.17421889
0.17340369
0.17261676
0.17185647
0.17112126
0.1704096
0.16972009
0.16905139
0.16840225
0.16777152
0.16715809
0.16656112
0.1659798
0.22936654
0.22801971
0.22659667
0.22510153
0.22353899
0.22191441
0.22023373
0.21850345
0.21673057
0.21492256
0.21308723
0.21123265
0.20936702
0.20749849
0.20563506
0.20378441
0.20195375
0.20014973
0.19837829
0.19664468
0.19495333
0.19330791
0.19171131
0.1901657
0.18867257
0.18723276
0.18584655
0.18451371
0.18323357
0.18200513
0.18082703
0.17969771
0.17861542
0.17757824
0.17658418
0.17563116
0.17471711
0.17383992
0.17299752
0.17218787
0.17140898
0.17065894
0.16993588
0.16923804
0.16856372
0.16791135
0.16727945
0.16666671
0.16607183
0.16549343
0.16493088
0.16438459
0.22931924
0.22786986
0.22633699
0.22472541
0.22304068
0.22128912
0.21947778
0.2176144
0.21570734
0.21376548
0.21179811
0.20981476
0.20782504
0.20583841
0.20386405
0.20191062
0.19998611
0.19809773
0.19625179
0.19445367
0.19270777
0.19101754
0.18938555
0.18781353
0.18630242
0.18485248
0.18346336
0.18213419
0.18086365
0.1796501
0.17849158
0.17738596
0.17633091
0.17532403
0.17436283
0.17344483
0.17256753
0.17172848
0.17092528
0.17015561
0.16941721
0.16870793
0.1680257
0.16736857
0.16673466
0.16612224
0.16552969
0.16495572
0.16439909
0.16385728
0.1633297
0.1628242
0.2292682
0.22770783
0.22605581
0.22431774
0.22250016
0.22061056
0.21865733
0.21664973
0.21459774
0.21251195
0.21040338
0.20828328
0.20616285
0.20405305
0.20196427
0.19990621
0.1978876
0.19591613
0.19399836
0.19213963
0.19034413
0.18861495
0.18695414
0.18536281
0.18384121
0.18238885
0.18100463
0.17968692
0.17843368
0.17724255
0.17611091
0.17503599
0.17401489
0.17304468
0.17212237
0.17124504
0.17040979
0.16961383
0.16885443
0.16812899
0.16743502
0.16677014
0.1661321
0.16551878
0.16492807
0.16435816
0.1638071
0.16327392
0.16275853
0.16225451
0.16177377
0.16129911
0.22921312
0.22753259
0.22575128
0.22387571
0.22191362
0.21987392
0.21776664
0.21560284
0.21339448
0.21115418
0.20889502
0.20663021
0.20437279
0.20213528
0.19992942
0.19776588
0.19565408
0.19360204
0.19161637
0.18970221
0.18786334
0.18610225
0.18442029
0.18281773
0.18129396
0.17984762
0.17847671
0.17717875
0.17595089
0.17478998
0.17369269
0.17265559
0.17167518
0.17074796
0.16987047
0.16903933
0.16825127
0.16750313
0.16679189
0.16611469
0.16546881
0.1648517
0.1642609
0.16369424
0.16314923
0.16262428
0.16211623
0.16162461
0.16115621
0.16069732
0.16024943
0.1598098
0.2291537
0.22734304
0.22542132
0.2233962
0.22127685
0.21907389
0.21679935
0.21446649
0.21208962
0.20968381
0.20726453
0.20484724
0.20244701
0.20007806
0.19775345
0.19548479
0.19328201
0.1911533
0.18910508
0.18714204
0.1852673
0.18348254
0.18178813
0.18018335
0.17866654
0.1772353
0.17588664
0.17461712
0.17342299
0.17230029
0.17124494
0.17025279
0.16931974
0.16844173
0.16761482
0.1668352
0.16609921
0.16540336
0.16474436
0.16411911
0.16352466
0.1629584
0.16241754
0.16190025
0.16140288
0.16092583
0.16046162
0.16002254
0.15959184
0.15917032
0.1587687
0.15836913
0.22908957
0.22713792
0.22506364
0.22287575
0.22058516
0.21820457
0.21574845
0.21323273
0.21067456
0.20809188
0.20550294
0.20292576
0.2003776
0.19787445
0.19543065
0.1930586
0.19076855
0.18856858
0.18646462
0.18446067
0.1825589
0.18075986
0.17906275
0.17746562
0.1759656
0.17455912
0.17324207
0.17200998
0.17085815
0.16978174
0.16877588
0.16783575
0.1669566
0.16613385
0.16536307
0.16464003
0.16396069
0.16332131
0.16271827
0.16214839
0.1616083
0.16109578
0.16060684
0.16014211
0.15969245
0.159269
0.15885417
0.15845236
0.15807124
0.1576932
0.15732728
0.15696872
0.22902035
0.22691585
0.22467568
0.2223105
0.21983331
0.21725941
0.2146062
0.21189287
0.20913997
0.20636881
0.20360085
0.20085692
0.19815664
0.19551775
0.19295578
0.19048366
0.18811167
0.18584746
0.18369617
0.18166074
0.17974204
0.17793925
0.17625013
0.17467131
0.17319854
0.17182694
0.1705512
0.16936573
0.16826483
0.16724278
0.16629392
0.16541272
0.16459382
0.16383212
0.16312272
0.16246101
0.16184256
0.1612635
0.16071973
0.16020843
0.1597249
0.15926938
0.15883228
0.15842664
0.15803049
0.15764838
0.15728824
0.15693285
0.15659147
0.15625807
0.15593311
0.15561473
0.22894561
0.22667529
0.22425457
0.2216961
0.21901546
0.2162311
0.21336403
0.2104374
0.20747578
0.20450445
0.20154845
0.19863174
0.19577631
0.19300164
0.19032415
0.18775703
0.18531022
0.18299052
0.18080193
0.17874587
0.17682163
0.1750267
0.17335715
0.17180799
0.17037345
0.16904722
0.16782268
0.16669312
0.1656518
0.1646921
0.16380755
0.16299195
0.16223937
0.16154421
0.16090109
0.16030512
0.15975134
0.15923624
0.15875432
0.15830519
0.15787839
0.15748632
0.15710511
0.15675124
0.15641095
0.15607929
0.15576372
0.15545722
0.15516035
0.15487075
0.15458748
0.15430924
0.22886487
0.22641452
0.2237971
0.22102767
0.21812502
0.21511147
0.21201247
0.20885589
0.20567112
0.20248799
0.19933558
0.19624111
0.193229
0.1903202
0.18753175
0.18487666
0.18236404
0.17999944
0.17778516
0.17572078
0.17380359
0.17202911
0.17039149
0.16888395
0.16749902
0.16622889
0.1650656
0.16400121
0.163028
0.16213843
0.16132527
0.16058168
0.15990111
0.15927759
0.15870522
0.1581792
0.15769306
0.1572459
0.15682642
0.15644609
0.15608009
0.15574597
0.15542569
0.15512278
0.15483425
0.15455622
0.15428929
0.15403066
0.1537792
0.15353333
0.15329189
0.1530537
0.22877762
0.22613159
0.22329961
0.2202997
0.2171546
0.21389142
0.210541
0.20713695
0.2037143
0.20030807
0.19695175
0.19367595
0.19050738
0.18746812
0.18457537
0.18184142
0.17927404
0.17687694
0.17465024
0.17259122
0.17069481
0.16895428
0.16736164
0.16590813
0.1645845
0.16338135
0.16228932
0.16129927
0.16040247
0.15959058
0.15885554
0.15818999
0.15758665
0.15703958
0.15654176
0.15609014
0.15567257
0.15530015
0.15494742
0.15463116
0.15432997
0.15405173
0.15379135
0.15354453
0.1533094
0.15308375
0.15286642
0.1526555
0.1524496
0.15224733
0.15204756
0.15184916
0.22868326
0.22582431
0.22275798
0.21950594
0.21609583
0.21256068
0.20893796
0.20526811
0.20159274
0.19795271
0.19438622
0.19092726
0.18760451
0.18444074
0.18145266
0.17865125
0.17604226
0.17362691
0.17140266
0.16936399
0.16750316
0.16581087
0.1642768
0.1628901
0.16163965
0.16051437
0.15950349
0.15859668
0.15778431
0.15705732
0.15640664
0.15582483
0.15530326
0.15483738
0.1544164
0.15404611
0.15370144
0.15339923
0.15311783
0.15286344
0.15262764
0.15240911
0.15221016
0.15201953
0.15183809
0.15166448
0.15149683
0.15133344
0.15117289
0.1510139
0.15085541
0.15069635
0.22858114
0.22549021
0.22216749
0.21863925
0.2149392
0.21110774
0.20719038
0.20323572
0.19929295
0.19540937
0.19162806
0.18798622
0.18451401
0.1812342
0.17816232
0.17530723
0.1726719
0.17025443
0.16804903
0.16604696
0.16423745
0.16260836
0.16114689
0.15983999
0.15867463
0.157638
0.15671797
0.15590291
0.15518254
0.15454739
0.15398657
0.15349415
0.15305745
0.15267872
0.15234197
0.15204821
0.15178038
0.15154553
0.15133934
0.15115062
0.15097985
0.15082427
0.15068235
0.1505488
0.15042195
0.15030024
0.15018202
0.15006575
0.14995009
0.14983385
0.14971605
0.14959572
0.22847051
0.22512642
0.22152274
0.21769143
0.21367389
0.20951959
0.20528384
0.20102487
0.19680051
0.19266497
0.18866625
0.1848443
0.18123009
0.17784556
0.17470414
0.17181162
0.16916741
0.16676578
0.16459712
0.16264906
0.16090741
0.15935702
0.15798244
0.15676841
0.15569998
0.15476252
0.15394273
0.15322743
0.15260595
0.15206957
0.15160263
0.15120647
0.15086362
0.15056859
0.1503148
0.15010092
0.14991184
0.1497513
0.14961435
0.14949448
0.14938928
0.14929612
0.14921271
0.14913565
0.14906281
0.14899248
0.14892314
0.14885336
0.14878191
0.14870769
0.14862981
0.1485474
0.22835053
0.22472967
0.22081746
0.21665306
0.21228748
0.20778148
0.20320224
0.19861925
0.19409997
0.18970589
0.18548968
0.18149336
0.17774777
0.17427296
0.17107911
0.168168
0.16553455
0.16316851
0.16105589
0.15918025
0.15752373
0.15606787
0.15479456
0.15368638
0.15272656
0.15189835
0.15118795
0.15057961
0.15006266
0.1496334
0.14927023
0.14896727
0.14871856
0.14851148
0.14834307
0.14820919
0.14810082
0.14801575
0.14794984
0.14789845
0.14785856
0.14782744
0.14780265
0.14778153
0.14776199
0.14774227
0.147721
0.14769687
0.14766874
0.14763564
0.14759673
0.1475513
0.22822023
0.22429615
0.22004436
0.21551315
0.21076568
0.20587668
0.20092762
0.19600102
0.19117487
0.18651807
0.18208735
0.17792582
0.17406298
0.17051566
0.16728958
0.16438134
0.16178048
0.1594715
0.15743548
0.15565158
0.15409795
0.15275264
0.15159488
0.15060524
0.14976555
0.14905581
0.14846406
0.14796884
0.14756961
0.14724533
0.14698732
0.14678198
0.14662718
0.14651248
0.14643179
0.14638037
0.146352
0.14634266
0.14634825
0.14636498
0.14638989
0.14642018
0.14645351
0.14648758
0.14652042
0.14655027
0.14657608
0.14659656
0.14661071
0.14661767
0.14661656
0.14660706
0.22807852
0.22382142
0.21919489
0.21425888
0.20909193
0.20378607
0.19843986
0.19315063
0.18800766
0.18308695
0.17844836
0.17413475
0.17017271
0.16657431
0.16333937
0.16045816
0.15791388
0.15568502
0.1537473
0.15207513
0.15064256
0.14942377
0.14839546
0.14753643
0.14682857
0.14624466
0.14578203
0.14541038
0.1451267
0.14491104
0.1447586
0.14465684
0.1445992
0.14457788
0.14458544
0.14461739
0.14466885
0.14473494
0.14481185
0.14489616
0.14498499
0.14507578
0.1451663
0.14525455
0.14533871
0.14541683
0.14548855
0.14555242
0.14560763
0.22792412
0.22330024
0.21825893
0.21287515
0.20724696
0.2014878
0.19571639
0.19004669
0.18457961
0.17939756
0.17456211
0.17011407
0.16607521
0.16245104
0.15923398
0.15640667
0.15394501
0.15182082
0.15000398
0.14846404
0.14717094
0.14609431
0.14520873
0.14449113
0.14392837
0.14348346
0.14315001
0.14290297
0.14273792
0.14263841
0.14259543
0.14259825
0.14263916
0.14271212
0.1428077
0.14292352
0.14305424
0.14319511
0.14334256
0.14349346
0.14364512
0.14379521
0.14394171
0.14408289
0.14421723
0.1443419
0.14445832
0.14456418
0.14465904
0.22775552
0.22272634
0.21722437
0.21134401
0.20520823
0.1989567
0.1927318
0.18666565
0.18087072
0.17543455
0.1704184
0.16585872
0.16177019
0.15814977
0.15498079
0.15223697
0.14988593
0.14789219
0.14621946
0.1448324
0.14369742
0.14277788
0.14204762
0.14149164
0.14107439
0.14077125
0.14057168
0.14045707
0.14041612
0.14043454
0.14050323
0.14061084
0.14075192
0.14091964
0.14110175
0.14130112
0.14151047
0.14172508
0.14194188
0.14215804
0.14237114
0.14257906
0.14278004
0.14297264
0.14315621
0.14332494
0.14348509
0.14363132
0.14376434
0.22757098
0.22209221
0.21607663
0.20964404
0.20294913
0.19616369
0.18945734
0.18298156
0.17685962
0.17118221
0.16600759
0.16136493
0.15725921
0.15367655
0.15058942
0.14796128
0.14575061
0.14391405
0.14240893
0.14119507
0.1402374
0.13948849
0.13893382
0.13853873
0.13827221
0.13811914
0.13806129
0.13808157
0.13816765
0.1383052
0.13848826
0.13869935
0.13894051
0.13920082
0.13947233
0.13975348
0.14003948
0.14032627
0.14061085
0.14089065
0.1411635
0.14142756
0.14168126
0.14192336
0.1421528
0.14236721
0.14256932
0.14275305
0.14292261
0.2273684
0.2213887
0.21479793
0.20774935
0.20043812
0.19307497
0.18586031
0.17896559
0.17252336
0.16662452
0.16132083
0.15663063
0.15254608
0.14903996
0.146072
0.14359418
0.14155504
0.13990302
0.13858887
0.13756724
0.13680774
0.13624898
0.13586823
0.13564006
0.13553712
0.13553901
0.13562643
0.13578343
0.13600038
0.13625536
0.13655147
0.13687035
0.13720942
0.13756127
0.13791962
0.13828128
0.13864243
0.13899961
0.1393501
0.13969164
0.14002233
0.14034059
0.14064511
0.14093483
0.1412088
0.14146588
0.14170667
0.14192899
0.14213506
0.22714529
0.22060452
0.21336637
0.20562848
0.19763753
0.18965092
0.18190319
0.17458552
0.16783717
0.16174527
0.15635046
0.151656
0.1476375
0.14425163
0.1414436
0.13915281
0.13731738
0.1358774
0.13477717
0.13397894
0.13342106
0.13305617
0.13286422
0.13281378
0.13287919
0.13303839
0.13327695
0.13356909
0.13391564
0.13429392
0.1347006
0.13512455
0.13556057
0.13600264
0.13644555
0.1368858
0.13732012
0.13774559
0.13815985
0.13856097
0.13894736
0.13931772
0.13967099
0.14000634
0.14032305
0.1406205
0.14089873
0.14115698
0.14139596
0.22689862
0.21972562
0.21175468
0.20324274
0.19450193
0.18584473
0.17754245
0.1698049
0.16277421
0.1565282
0.15109063
0.14644427
0.14254376
0.13932682
0.13672256
0.13465709
0.13305794
0.1318571
0.13100514
0.13043218
0.13008594
0.12993176
0.12993747
0.13006918
0.13030905
0.13062666
0.1310144
0.13144913
0.13192277
0.13242135
0.1329382
0.13346497
0.13399608
0.13452633
0.13505133
0.1355678
0.13607292
0.13656429
0.13703993
0.13749828
0.13793805
0.13835824
0.13875807
0.13913693
0.13949437
0.13983006
0.14014402
0.14043604
0.14070639
0.22662469
0.21873416
0.20992842
0.20054415
0.19097604
0.18160037
0.17272773
0.1645839
0.15730753
0.15095955
0.1455394
0.14100311
0.13727976
0.1342851
0.13193087
0.13012979
0.12879914
0.12787678
0.12727481
0.12694015
0.12682605
0.12689023
0.12709881
0.12741906
0.12783002
0.12831465
0.12885127
0.12942476
0.13002516
0.13064157
0.13126674
0.13189377
0.13251743
0.13313328
0.13373761
0.13432756
0.1349008
0.13545541
0.13598982
0.13650284
0.13699353
0.13746117
0.13790525
0.13832541
0.13872145
0.1390933
0.13944107
0.13976486
0.14006488
0.2263189
0.2176072
0.20784355
0.19747248
0.18699173
0.17685179
0.16740366
0.15888242
0.15141369
0.14503141
0.13970167
0.13534687
0.13186617
0.12915091
0.12709436
0.12559649
0.12457964
0.12393694
0.12360531
0.123529
0.12365543
0.12394515
0.12435732
0.12487089
0.12546077
0.12610639
0.12679095
0.12750084
0.12822604
0.12895741
0.12968815
0.13041239
0.13112557
0.13182395
0.13250451
0.13316491
0.13380332
0.13441828
0.13500868
0.13557368
0.13611268
0.13662527
0.13711121
0.13757039
0.13800285
0.13840873
0.13878834
0.13914197
0.13946989
0.2259755
0.21631462
0.20544289
0.19395109
0.18246639
0.17152445
0.16151234
0.15266303
0.14507587
0.13874476
0.13359187
0.12949877
0.12633089
0.12395394
0.12224272
0.12110129
0.12040013
0.12006399
0.12002299
0.12021391
0.12059136
0.12110389
0.1217308
0.12243759
0.12320253
0.12400764
0.12483786
0.12568107
0.12652801
0.1273709
0.12820374
0.12902165
0.12982085
0.13059831
0.1313517
0.13207926
0.13277966
0.13345192
0.13409536
0.13470952
0.13529414
0.13584911
0.13637447
0.13687033
0.13733696
0.13777477
0.1381842
0.13856575
0.13891978
0.22558711
0.21481611
0.20265099
0.18988316
0.17730264
0.16553639
0.15499607
0.14589487
0.13828793
0.13211294
0.12723639
0.12349227
0.12070982
0.11872949
0.11742736
0.11664547
0.11629357
0.11628623
0.11654481
0.11701648
0.11763904
0.11839019
0.11922685
0.12012402
0.12106156
0.12202319
0.12299561
0.12396824
0.12493297
0.12588329
0.1268142
0.12772179
0.12860309
0.12945586
0.13027843
0.13106963
0.13182866
0.13255502
0.13324845
0.13390887
0.13453635
0.13513108
0.13569336
0.13622354
0.1367221
0.13718969
0.13762695
0.13803452
0.13841288
0.22514411
0.21305636
0.19936752
0.18514809
0.17138751
0.15880067
0.14780228
0.13855942
0.13105977
0.12516552
0.12067579
0.11737195
0.11504684
0.1135392
0.11265075
0.11226936
0.11229144
0.1126227
0.11319677
0.11394075
0.11482788
0.11580861
0.11685261
0.11793679
0.11904301
0.12015686
0.12126691
0.12236424
0.12344207
0.12449516
0.1255196
0.12651246
0.12747165
0.12839567
0.12928355
0.1301347
0.13094887
0.13172602
0.1324663
0.13317001
0.13383754
0.13446939
0.13506609
0.13562824
0.13615646
0.13665172
0.13711483
0.13754652
0.13794744
0.22463351
0.21095757
0.19545894
0.17959705
0.16459297
0.15123072
0.13989166
0.13065866
0.12342355
0.11795194
0.11396628
0.1111935
0.10941807
0.10838822
0.10796185
0.10800887
0.10841675
0.10910386
0.10998236
0.11102093
0.11216102
0.11336816
0.11461512
0.11588131
0.11715083
0.11841142
0.11965359
0.12087013
0.12205571
0.1232064
0.12431941
0.12539281
0.12642538
0.12741639
0.12836554
0.12927285
0.13013856
0.13096311
0.13174706
0.13249106
0.13319583
0.13386213
0.13449077
0.13508253
0.13563817
0.13615899
0.13664598
0.13709994
0.13752168
0.22403711
0.20840869
0.19074776
0.17304857
0.15677987
0.14275067
0.13125071
0.12222521
0.11543995
0.11054415
0.10717989
0.10505327
0.10383291
0.10333654
0.10340325
0.10389226
0.10470431
0.1057334
0.10694141
0.10825985
0.10964841
0.1110764
0.11252006
0.11396166
0.11538786
0.11678865
0.11815656
0.11948616
0.1207736
0.12201629
0.12321256
0.12436151
0.12546274
0.12651632
0.12752259
0.12848215
0.12939576
0.13026429
0.1310887
0.13186999
0.13260917
0.1333073
0.13396541
0.13458448
0.22332826
0.20524752
0.18499734
0.1652865
0.14780906
0.13331385
0.12190908
0.11333293
0.10720278
0.10303688
0.10044116
0.098967554
0.098365194
0.098436312
0.099009638
0.099959862
0.10115841
0.10255764
0.10407651
0.10566854
0.1072983
0.10893931
0.11057163
0.11218066
0.11375578
0.11528932
0.11677588
0.11821181
0.11959478
0.12092352
0.1221975
0.12341678
0.12458183
0.12569344
0.1267526
0.12776047
0.1287183
0.12962738
0.13048905
0.13130463
0.13207545
0.1328028
0.13348795
0.1341321
0.22246502
0.20123108
0.17789387
0.15606552
0.13756586
0.12293141
0.11195969
0.1041049
0.098839883
0.095594202
0.093777516
0.093027124
0.093081128
0.093729454
0.094829007
0.096216496
0.097833131
0.09957891
0.1013999
0.10325595