/*--------------------------------*- C++ -*----------------------------------*\
| =========                 |                                                 |
| \\      /  F ield         | OpenFOAM: The Open Source CFD Toolbox           |
|  \\    /   O peration     | Version:  2312                                  |
|   \\  /    A nd           | Website:  www.openfoam.com                      |
|    \\/     M anipulation  |                                                 |
\*---------------------------------------------------------------------------*/
FoamFile
{
    version     2.0;
    format      ascii;
    arch        "LSB;label=32;scalar=64";
    class       volScalarField;
    location    "0.05";
    object      omega;
}
// * * * * * * * * * * * * * * * * * * * * * * * * * * * * * * * * * * * * * //

dimensions      [0 0 -1 0 0 0 0];

internalField   nonuniform List<scalar> 
3221
(
446.61755
440.2444
434.09979
428.18876
422.51531
417.08293
411.8945
406.95225
402.25767
397.81143
393.61338
389.66246
385.95671
382.49328
379.26844
376.27762
373.51541
370.97565
368.65146
366.53533
364.61914
362.89425
361.3516
359.98174
358.7749
357.72111
356.81021
356.03195
355.37607
354.83233
354.39059
354.04085
353.7733
353.57839
353.44684
353.3697
353.33836
353.34458
353.38053
353.43877
353.5123
353.59453
353.67931
353.7609
353.83399
353.89367
353.93546
353.95523
353.94925
353.9141
353.8467
353.74424
446.62272
440.26633
434.14144
428.25204
422.60186
417.19427
412.0321
407.11757
402.45213
398.03641
393.87022
389.95242
386.28103
382.85309
379.66481
376.71149
373.98761
371.48691
369.20235
367.12628
365.25042
363.56597
362.0637
360.73396
359.56682
358.5521
357.67947
356.93851
356.31877
355.80985
355.40145
355.08342
354.84585
354.67904
354.57365
354.52062
354.51129
354.53738
354.59103
354.66479
354.75166
354.84506
354.93887
355.02741
355.10541
355.16804
355.21088
355.22989
355.22143
355.18222
355.1093
354.9998
446.63606
440.30995
434.21948
428.36846
422.76039
417.3984
412.28518
407.42276
402.81246
398.45481
394.34947
390.49519
386.88981
383.53023
380.41243
377.5315
374.88168
372.45643
370.24846
368.24978
366.45179
364.84536
363.42088
362.16835
361.07746
360.13766
359.33824
358.66842
358.11741
357.67448
357.32902
357.07063
356.88914
356.77465
356.71763
356.70889
356.73968
356.80163
356.88684
356.98786
357.09771
357.20988
357.3183
357.4174
357.50204
357.56752
357.60955
357.62429
357.60826
357.55836
357.47179
357.34586
446.65692
440.3763
434.33644
428.5413
422.9944
417.69879
412.65696
407.87077
403.34135
399.06899
395.05315
391.29232
387.78404
384.52491
381.51056
378.73571
376.19422
373.87919
371.78286
369.89676
368.2118
366.71833
365.4062
364.26486
363.28343
362.45082
361.75577
361.18697
360.73314
360.38306
360.12573
359.95035
359.84641
359.80377
359.81264
359.86368
359.948
360.05718
360.18331
360.31895
360.45719
360.59163
360.71637
360.82598
360.91553
360.98055
361.017
361.02127
360.99017
360.92087
360.81084
360.65766
446.68507
440.46522
434.49235
428.77071
423.30398
418.09522
413.14683
408.46047
404.03705
399.87662
395.97831
392.34029
388.95973
385.8328
382.95463
380.31939
377.92027
375.74953
373.79875
372.05889
370.52045
369.17297
368.00559
367.00701
366.16563
365.46959
364.90693
364.46564
364.1338
363.89962
363.75155
363.67835
363.66912
363.71339
363.80115
363.92289
364.06962
364.23288
364.4048
364.57804
364.74583
364.90196
365.04077
365.15709
365.24631
365.30426
365.32727
365.31209
365.25588
365.15618
365.01086
364.81784
446.72054
440.57705
434.68809
429.05818
423.69122
418.59032
413.75782
409.19525
404.90326
400.88158
397.12898
393.64318
390.42085
387.45755
384.74779
382.28499
380.06158
378.06902
376.29793
374.73812
373.3786
372.2084
371.21623
370.38978
369.71649
369.18359
368.77823
368.48756
368.29889
368.19975
368.17798
368.22184
368.32002
368.46174
368.63678
368.83548
369.04883
369.26843
369.4865
369.69592
369.89015
370.0633
370.21005
370.32562
370.40582
370.44693
370.44572
370.39941
370.30565
370.16244
369.96813
369.72111
446.76355
440.71265
434.92529
429.40626
424.15961
419.18855
414.49538
410.08146
405.94717
402.09188
398.5139
395.21038
392.17734
389.40958
386.90075
384.64336
382.62882
380.8475
379.28886
377.94152
376.79339
375.83178
375.04357
374.41636
373.93666
373.5906
373.36425
373.24379
373.21567
373.26665
373.38394
373.55528
373.76898
374.01399
374.27993
374.55712
374.83662
375.11018
375.37027
375.61009
375.8235
376.00504
376.14987
376.25376
376.31304
376.32456
376.28568
376.19419
376.04832
375.84665
375.58809
375.27156
446.8145
440.8733
435.20627
429.81839
424.71385
419.89593
415.36684
411.12776
407.17876
403.51876
400.14549
397.0554
394.24368
391.70419
389.42949
387.41089
385.63852
384.10141
382.78757
381.68415
380.77759
380.05372
379.49791
379.09525
378.83198
378.6934
378.66435
378.72996
378.87571
379.08757
379.35216
379.65671
379.98925
380.33854
380.69418
381.0466
381.38706
381.70764
382.00122
382.26148
382.48284
382.66042
382.79004
382.86813
382.8917
382.85831
382.766
382.61326
382.39899
382.12244
381.78314
381.38067
446.8739
441.06067
435.53396
430.2989
425.35977
420.71984
416.38122
412.34483
408.61033
405.17611
402.03917
399.1951
396.63802
394.36061
392.35407
390.60825
389.11166
387.85165
386.81448
385.98555
385.3495
384.89038
384.59191
384.43757
384.41086
384.4971
384.67993
384.94335
385.27189
385.6508
386.0661
386.5047
386.95442
387.40403
387.84329
388.26289
388.65452
389.01075
389.3251
389.5919
389.80631
389.96424
390.06229
390.09771
390.06834
389.97256
389.80922
389.57759
389.27735
388.90848
388.47122
387.96582
446.94243
441.27679
435.9119
430.85291
426.10419
421.66891
417.549
413.74503
410.25616
407.08006
404.21284
401.649
399.38136
397.40109
395.69773
394.25928
393.07232
392.12214
391.39291
390.86791
390.52965
390.3602
390.34133
390.45478
390.68244
391.0068
391.41184
391.8803
392.39581
392.94294
393.50732
394.07567
394.63585
395.17684
395.68875
396.16283
396.59139
396.96778
397.2863
397.54219
397.73154
397.85119
397.89874
397.87238
397.77091
397.59365
397.34035
397.01117
396.6066
396.12744
395.57468
394.94929
447.02083
441.52404
436.34413
431.48631
426.95488
422.75289
418.88197
415.34223
412.13217
409.24856
406.6864
404.43879
402.49693
400.85013
399.48589
398.38997
397.54656
396.93853
396.54754
396.35437
396.33914
396.48162
396.76144
397.1584
397.65264
398.22489
398.85804
399.5339
400.23539
400.94667
401.65319
402.34177
403.00056
403.61902
404.18796
404.6994
405.14656
405.5238
405.82649
406.05096
406.19442
406.25486
406.23097
406.12206
405.92801
405.64914
405.2862
404.84029
404.3128
403.70535
403.01973
402.25763
447.10998
441.80507
436.83522
432.2056
427.92043
423.9825
420.39305
417.15158
414.25571
411.7011
409.48132
407.58773
406.00953
404.73375
403.74535
403.0274
402.56126
402.32686
402.30296
402.46749
402.79785
403.27129
403.86513
404.55713
405.32571
406.15017
407.01193
407.89203
408.77298
409.6388
410.47511
411.26913
412.00965
412.68698
413.2929
413.82055
414.26435
414.61992
414.88392
415.054
415.12869
415.10726
414.98965
414.77641
414.46855
414.06751
413.57508
412.99335
412.3246
411.57132
410.73609
409.82134
447.21083
442.1228
437.39013
433.01791
429.01015
425.36933
422.09615
419.18928
416.64527
414.45833
412.62024
411.12023
409.94499
409.07874
408.50342
408.19882
408.14294
408.31228
408.68227
409.22764
409.9228
410.74224
411.66092
412.65456
413.69998
414.77527
415.86024
416.93558
417.98367
418.9888
419.93713
420.8167
421.61735
422.33059
422.94953
423.46875
423.88417
424.19291
424.39319
424.48416
424.46582
424.33886
424.1046
423.76486
423.3219
422.77831
422.13694
421.40086
420.57329
419.65756
418.65701
417.57479
447.32444
442.4804
438.01422
433.93083
430.23397
426.92567
424.00592
421.47238
419.32018
417.54174
416.1266
415.06131
414.3295
413.91202
413.78708
413.9306
414.31663
414.91777
415.70568
416.65152
417.72648
418.90223
420.15131
421.44755
422.7663
424.08473
425.38154
426.63709
427.83417
428.9578
429.9952
430.93568
431.77055
432.49292
433.09761
433.58096
433.94065
434.17558
434.28569
434.27181
434.13553
433.87909
433.50525
433.01716
432.41834
431.71254
430.90368
429.99581
428.99305
427.89954
426.71935
425.45632
447.45192
442.88124
438.71315
434.95237
431.60229
428.66435
426.13764
424.01852
422.30036
420.97332
420.02414
419.43609
419.18909
419.25982
419.62206
420.24722
421.10478
422.16291
423.38908
424.75064
426.21539
427.75218
429.33128
430.92482
432.50711
434.05484
435.54547
436.96
438.28214
439.49819
440.59694
441.56947
442.40898
443.11062
443.67125
444.08926
444.36436
444.49743
444.49029
444.34558
444.06658
443.65712
443.12142
442.46402
441.68966
440.80324
439.80974
438.71412
437.52136
436.23636
434.86388
433.40838
447.59445
443.32882
439.49281
436.09083
433.12585
430.59858
428.50695
426.84569
425.60598
424.77516
424.33651
424.26929
424.54884
425.14686
426.03195
427.17025
428.52605
430.06258
431.74278
433.52999
435.38865
437.28489
439.18701
441.06585
442.89509
444.65143
446.31171
447.85815
449.2761
450.55375
451.682
452.65422
453.46596
454.11474
454.59981
454.92187
455.08288
455.08581
454.93452
454.6335
454.18779
453.60281
452.88425
452.03799
451.06999
449.98623
448.79266
447.49515
446.09944
444.61111
443.03557
441.3778
447.75325
443.82678
440.35924
437.35472
434.81561
432.74174
431.12961
429.97194
429.25715
428.96908
429.08678
429.58456
430.43222
431.59561
433.03728
434.7173
436.59416
438.62573
440.77016
442.98678
445.2368
447.48397
449.69507
451.84024
453.89311
455.83074
457.63031
459.27616
460.75592
462.06032
463.18295
464.1199
464.8695
465.432
465.80927
466.00452
466.0221
465.86722
465.54578
465.06419
464.4292
463.64783
462.72717
461.6744
460.49659
459.20077
457.79377
456.28226
454.67268
452.97122
451.18381
449.31594
447.92959
444.37883
441.31859
438.75257
436.68254
435.10719
434.02132
433.4151
433.27356
433.57622
434.29688
435.40384
436.86038
438.62542
440.65451
442.90092
445.31677
447.85424
450.46663
453.1094
455.7409
458.32306
460.82185
463.20747
465.45461
467.53926
469.44212
471.15011
472.6538
473.94705
475.02661
475.89176
476.54394
476.98638
477.22376
477.26199
477.10783
476.76878
476.2528
475.56815
474.72329
473.72672
472.58689
471.31214
469.91062
468.39025
466.75868
465.02326
463.19104
461.26875
459.26275
457.17891
448.12474
444.98867
442.37694
440.29285
438.73743
437.70805
437.19737
437.19245
437.6741
438.61647
439.98699
441.74679
443.85136
446.2516
448.8951
451.7276
454.69442
457.7419
460.81865
463.87662
466.87195
469.76553
472.52336
475.11664
477.52154
479.71391
481.67956
483.40879
484.89575
486.13795
487.13579
487.89208
488.41163
488.70083
488.76733
488.61972
488.26725
487.71965
486.98687
486.07898
485.00601
483.77787
482.40423
480.8945
479.25776
477.50274
475.63776
473.67078
471.60935
469.46063
467.23134
464.92766
448.33997
445.65995
443.54026
441.98378
440.99075
440.55695
440.67243
441.3204
442.4764
444.10805
446.17509
448.63005
451.41931
454.48456
457.76451
461.19677
464.71959
468.27358
471.80304
475.25716
478.59071
481.76458
484.74591
487.50819
490.02701
492.28368
494.26831
495.97539
497.40332
498.55377
499.43114
500.04203
500.39479
500.49908
500.36552
500.0054
499.43039
498.65233
497.6831
496.53442
495.21778
493.74433
492.12486
490.36971
488.48874
486.49135
484.38648
482.18254
479.88749
477.50881
475.05348
472.52792
448.57653
446.39619
444.81422
443.83318
443.45239
443.66579
444.46022
445.81405
447.69644
450.06701
452.87626
456.06654
459.57366
463.32892
467.26133
471.29993
475.37594
479.4246
483.38669
487.20959
490.8479
494.26373
497.42654
500.31245
502.89774
505.17174
507.12923
508.76951
510.09571
511.11402
511.83313
512.26356
512.4173
512.30725
511.94698
511.35036
510.53136
509.50382
508.28136
506.87721
505.30415
503.57445
501.69981
499.69135
497.55962
495.31457
492.9656
490.52146
487.99043
485.38019
482.69792
479.95017
448.83561
447.20068
446.20411
445.84824
446.13146
447.04547
448.5731
450.68689
453.3481
456.50669
460.10208
464.06469
468.31829
472.78265
477.37643
482.01996
486.63776
491.16049
495.52649
499.68266
503.58489
507.19804
510.49557
513.45222
516.05438
518.297
520.18036
521.70919
522.89171
523.73892
524.26389
524.48116
524.40628
524.05535
523.44471
522.59069
521.50937
520.21643
518.72702
517.0557
515.21638
513.22221
511.0857
508.81861
506.43203
503.93632
501.34118
498.65564
495.88816
493.04656
490.13814
487.16949
449.1183
448.07643
447.71468
448.03541
449.03602
450.70549
453.02185
455.95037
459.44271
463.43714
467.85993
472.62775
477.6508
482.83636
488.09235
493.33063
498.46975
503.43701
508.16976
512.61605
516.73469
520.49489
523.8719
526.84667
529.41438
531.57636
533.33904
534.71295
535.71169
536.35118
536.6489
536.62333
536.29345
535.67839
534.79711
533.66815
532.30949
530.73843
528.97145
527.02425
524.9116
522.64749
520.24499
517.7164
515.07313
512.32586
509.48448
506.5582
503.55554
500.48442
497.35214
494.16529
449.42559
449.02601
449.34993
450.40008
452.17277
454.65379
457.81527
461.61355
465.98854
470.86452
476.15237
481.75304
487.56177
493.47262
499.38279
505.19633
510.82708
516.20056
521.25501
525.94152
530.22349
534.07538
537.47348
540.41227
542.89396
544.92682
546.52387
547.70167
548.47931
548.87761
548.91836
548.62379
548.01616
547.11736
545.9487
544.53072
542.88306
541.02437
538.97226
536.7433
534.35306
531.81609
529.14592
526.35514
523.45544
520.45765
517.37177
514.20707
510.97208
507.67469
504.3222
500.92106
449.7583
450.05147
451.11299
452.94634
455.54683
458.89641
462.95987
467.6826
472.9903
478.79058
484.97649
491.43131
498.03416
504.66552
511.21236
517.57216
523.65576
529.38898
534.71311
539.58441
543.97305
547.85277
551.2157
554.06475
556.41007
558.26739
559.65653
560.6002
561.12295
561.25032
561.00823
560.42242
559.51811
558.3197
556.85057
555.13297
553.18793
551.03518
548.69326
546.17947
543.50994
540.69957
537.7622
534.71061
531.5566
528.31107
524.98403
521.58473
518.1216
514.60247
511.03446
507.42396
450.11705
451.15422
453.00585
455.67684
459.16151
463.43714
468.45945
474.16043
480.44861
487.21199
494.32321
501.64611
509.04278
516.38034
523.53662
530.40429
536.89345
542.93263
548.46858
553.46494
557.89387
561.74243
565.0142
567.72127
569.88228
571.52069
572.66323
573.33866
573.57679
573.40766
572.861
571.96576
570.74978
569.23965
567.46052
565.43606
563.18835
560.73808
558.10448
555.30534
552.35711
549.27495
546.07283
542.7636
539.35907
535.87008
532.30661
528.67779
524.99187
521.2565
517.47871
513.66481
450.5022
452.33485
455.02921
458.59248
463.01797
468.27722
474.31479
481.04621
488.35949
496.11979
504.17678
512.37325
520.55399
528.57354
536.30234
543.63064
550.47047
556.75577
562.44136
567.49611
571.90129
575.66017
578.78653
581.30212
583.23434
584.61443
585.47591
585.85339
585.78161
585.2948
584.42612
583.20733
581.66858
579.83829
577.74306
575.40759
572.85493
570.10645
567.18178
564.09901
560.87478
557.52433
554.06165
550.49953
546.84969
543.12286
539.32885
535.47659
531.57415
527.62906
523.64809
519.63734
450.91381
453.59303
457.18228
461.69215
467.11494
473.41505
480.52319
488.33491
496.71383
505.49884
514.51415
523.58046
532.52554
541.19292
549.44809
557.18185
564.31117
570.77818
576.54665
581.59025
585.91099
589.5239
592.45373
594.73215
596.3954
597.48234
598.03303
598.08755
597.68523
596.864
595.66007
594.10764
592.23877
590.08334
587.66901
585.02143
582.16432
579.11936
575.90645
572.54381
569.04809
565.43451
561.71694
557.90803
554.01932
550.06133
546.0436
541.97492
537.86313
533.71546
529.53849
525.33809
451.35156
454.92735
459.46255
464.97253
471.44845
478.84581
487.07814
496.01684
505.49681
515.32716
525.30453
535.22704
544.90657
554.17802
562.90508
570.98247
578.33546
584.91731
590.69363
595.66313
599.84118
603.25532
605.94168
607.94193
609.30094
610.06494
610.28009
609.99152
609.24263
608.07467
606.5264
604.63405
602.43119
599.94878
597.21542
594.25738
591.09865
587.76112
584.26476
580.62775
576.86665
572.9965
569.031
564.98252
560.86231
556.68073
552.44701
548.16962
543.8562
539.51369
535.1484
530.76594
451.81473
456.33515
461.86556
468.42776
476.01155
484.56116
493.96892
504.07712
514.68735
525.57545
536.50895
547.26375
557.63789
567.46083
576.59816
584.9523
592.46023
599.07867
604.79805
609.63323
613.61409
616.78121
619.18217
620.86849
621.89337
622.30989
622.16984
621.52289
620.41599
618.89317
616.99537
614.76036
612.22282
609.41466
606.36505
603.1005
599.64512
596.02082
592.24749
588.34313
584.32408
580.20511
575.9996
571.71968
567.37625
562.97934
558.53793
554.06012
549.55328
545.02405
540.47845
535.92185
452.30208
457.81236
464.38471
472.04928
480.79406
490.54893
501.1801
512.49514
524.25744
536.20652
548.07994
559.63284
570.65241
580.96659
590.4471
599.0079
606.59233
613.17869
618.77858
623.42312
627.15713
630.03434
632.1136
633.45592
634.12229
634.17214
633.6623
632.64636
631.17435
629.29257
627.04363
624.4664
621.59656
618.46655
615.10574
611.54069
607.79548
603.89183
599.84944
595.68599
591.41748
587.05837
582.62167
578.11916
573.56141
568.95802
564.31765
559.64809
554.95636
550.24881
545.53116
540.80851
452.81184
459.3534
467.01103
475.82558
485.7823
496.79277
508.69111
521.24395
534.17155
547.17467
559.96125
572.26814
583.8757
594.61484
604.36789
613.058
620.64558
627.13546
632.55774
636.96054
640.40378
642.95417
644.68144
645.65553
645.94463
645.61387
644.7245
643.33348
641.49332
639.25213
636.65362
633.73771
630.54061
627.09489
623.42994
619.5722
615.54551
611.3713
607.06889
602.65562
598.14706
593.55727
588.89885
584.18316
579.4204
574.61975
569.7895
564.93709
560.06922
555.19193
550.31062
545.43011
453.3416
460.95095
469.73306
479.74203
490.95884
503.27172
516.47563
530.28946
544.38579
558.42521
572.08761
585.09538
597.2268
608.32051
618.27095
627.01234
634.53711
640.87085
646.06308
650.17923
653.29418
655.48722
656.8384
657.42593
657.3245
656.60426
655.33026
653.56221
651.3546
648.75674
645.81336
642.56497
639.04784
635.29451
631.33422
627.19307
622.89453
618.45961
613.90721
609.25421
604.5157
599.70524
594.83501
589.91594
584.95779
579.96934
574.95848
569.93229
564.89715
559.85875
554.82221
549.79206
453.88831
462.59591
472.5367
483.7807
496.30229
509.95982
524.50089
539.58962
554.84709
569.89373
584.38457
598.03249
610.61904
621.99525
632.06067
640.78633
648.1875
654.31163
659.22807
663.01954
665.7755
667.58726
668.54447
668.73286
668.23292
667.11911
665.45966
663.31647
660.74538
657.79669
654.51582
650.9433
647.1153
643.06414
638.8187
634.40464
629.84494
625.16007
620.36842
615.48637
610.52846
605.50775
600.43595
595.32352
590.1798
585.01313
579.83102
574.64019
569.44665
564.25579
559.07241
553.90079
454.44818
464.27728
475.40508
487.92026
501.78698
516.82547
532.72671
549.09322
565.49207
581.50542
596.76828
610.98997
623.96098
635.53608
645.64958
654.29831
661.52191
667.3903
671.9927
675.42881
677.80213
679.21526
679.76669
679.54893
678.64747
677.14046
675.09867
672.58555
669.65799
666.36707
662.75821
658.8718
654.74371
650.40586
645.88663
641.21118
636.40178
631.47834
626.45871
621.35871
616.19228
610.97197
605.70901
600.41338
595.09397
589.75872
584.41472
579.06833
573.72522
568.39047
563.06857
557.76352
455.01666
465.98209
478.31856
492.13588
507.38258
523.83065
541.10432
558.73845
576.24574
593.17421
609.14523
623.87121
637.14648
648.85189
658.95245
667.47065
674.47091
680.04571
684.30387
687.36156
689.33566
690.33928
690.47898
689.85324
688.55191
686.65609
684.23851
681.36369
678.0895
674.46704
670.54153
666.35306
661.93702
657.32472
652.54396
647.61931
642.57228
637.42211
632.18608
626.87948
621.5156
616.10648
610.66283
605.19417
599.70895
594.21468
588.71807
583.2251
577.74114
572.27093
566.81867
561.38808
455.58843
467.69542
481.25474
496.39911
513.0537
530.92987
549.57462
568.45101
587.01983
604.80163
621.41187
636.567
650.07488
661.85124
671.88699
680.2306
686.97121
692.22356
696.11566
698.77955
700.34475
700.93418
700.66169
699.63101
697.93562
695.65902
692.87516
689.64976
686.04088
682.09939
677.87016
673.39275
668.70192
663.82822
658.79882
653.63767
648.36546
643.00069
637.56005
632.05832
626.50812
620.92095
615.30706
609.67547
604.03421
598.39037
592.75027
587.11956
581.50328
575.90588
570.33123
564.7828
456.15741
469.40046
484.18854
500.67777
518.75907
538.0685
558.06593
578.14157
597.71061
616.27547
633.45326
648.96141
662.64511
674.4442
684.37491
692.51113
698.96619
703.8767
707.3894
709.65165
710.80497
710.98137
710.30131
708.87309
706.79322
704.14685
701.00915
697.44647
693.51664
689.27018
684.75135
679.99903
675.04736
669.92592
664.66121
659.27657
653.79179
648.22472
642.59138
636.90589
631.18043
625.42593
619.65211
613.86756
608.07985
602.2957
596.52106
590.76122
585.02092
456.71677
471.07859
487.09232
504.93574
524.45047
545.18053
566.49071
587.7023
608.19596
627.46815
645.13232
660.93864
674.755
686.54331
696.34287
704.25158
710.40635
714.96533
718.09371
719.95376
720.69849
720.4684
719.38998
717.57553
715.1239
712.12155
708.64483
704.75995
700.52438
695.98811
691.19472
686.18225
680.98418
675.62906
670.14265
664.54761
658.86295
653.10584
647.2916
641.43373
635.54393
629.63261
623.70899
617.78122
611.85644
605.94102
600.04053
594.15994
588.30365
457.259
472.70961
489.93601
509.13247
530.07098
552.18523
574.74111
597.00224
618.33135
638.22311
656.31234
672.37725
686.30191
698.06451
707.72332
715.39838
721.24973
725.45716
728.20442
729.66855
730.01375
729.38858
727.92507
725.73904
722.93103
719.5891
715.78984
711.59923
707.07423
702.26421
697.21196
691.95458
686.52478
680.95017
675.25575
669.46344
663.59152
657.6565
651.673
645.65394
639.61052
633.55265
627.4891
621.4276
615.37485
609.33694
603.31901
597.32579
591.36132
457.77601
474.27197
492.68729
513.22216
535.55216
558.98211
582.68249
605.88077
627.94163
648.37077
666.84184
683.14951
697.1833
708.92813
718.45544
725.90564
731.46221
735.32747
737.70442
738.78521
738.74513
737.74056
735.90873
733.36848
730.222
726.55859
722.45463
717.97585
713.17861
708.11146
702.8163
697.32944
691.68271
685.90288
680.0141
674.03745
667.99073
661.8897
655.74836
649.57902
643.39242
637.198
631.00409
624.81802
618.64615
612.49419
606.36696
600.26892
594.20379
458.25918
475.74299
495.31144
517.15206
540.80965
565.44372
590.14414
614.13938
636.81244
657.71711
676.55275
693.12093
707.29746
719.06009
728.48624
735.73586
741.01783
744.55913
746.58354
747.29914
746.89255
745.52788
743.34742
740.47252
737.00745
733.0419
728.6522
723.90356
718.85159
713.54416
708.02237
702.3215
696.47249
690.50154
684.43182
678.28363
672.07426
665.81884
659.53074
653.22173
646.90207
640.58077
634.26575
627.96395
621.68142
615.42352
609.19482
602.99947
596.84094
458.69953
477.09919
497.77093
520.85945
545.73608
571.40451
596.90496
621.51713
644.69365
666.03492
685.25641
702.14964
716.54453
728.39346
737.77172
744.86065
749.89906
753.14257
754.83829
755.21158
754.46104
752.7586
750.25129
747.06329
743.30078
739.0535
734.39745
729.39754
724.10877
718.57802
712.84562
706.94607
700.90935
694.76106
688.52351
682.21627
675.8561
669.45753
663.03339
656.59493
650.15197
643.71308
637.28583
630.87681
624.49175
618.1357
611.81299
605.5275
599.2825
459.08768
478.31631
500.02415
524.26604
550.18964
576.64413
602.67159
627.69072
651.27447
673.05342
692.73787
710.08592
724.82811
736.87058
746.27844
753.26144
758.09702
761.07565
762.47152
762.52926
761.4603
759.44465
756.63389
753.1559
749.11776
744.60946
739.70698
734.47458
728.96668
723.22943
717.30233
711.21912
705.00893
698.6967
692.30405
685.84984
679.35029
672.81943
666.26956
659.71147
653.15455
646.60701
640.07604
633.56792
627.0881
620.64135
614.23176
607.86296
601.53804
459.4137
479.36906
502.02259
527.26793
553.97502
580.86093
607.27975
632.69817
656.69215
678.90441
699.04021
716.84288
732.05769
744.44605
753.98522
760.93024
765.61156
768.36344
769.49213
769.2639
767.90404
765.60141
762.5121
758.76752
754.47601
749.72775
744.59853
739.15226
733.44277
727.51551
721.40923
715.15696
708.78707
702.32389
695.78839
689.19882
682.57087
675.91812
669.25241
662.58407
655.92214
649.27446
642.6479
636.04844
629.48127
622.9509
616.46123
610.01564
603.61704
459.66648
480.23011
503.70512
529.71734
556.81067
584.06936
610.86273
636.67205
661.07664
683.72226
704.30704
722.56355
738.23847
751.0909
760.88507
767.87016
772.4512
775.01795
775.91448
775.43156
773.80993
771.24715
767.90485
763.91751
759.39471
754.42723
749.09083
743.44898
737.55499
731.45373
725.18328
718.77603
712.2597
705.65802
698.99143
692.2776
685.53176
678.76705
671.99491
665.22529
658.46685
651.72713
645.01271
638.32928
631.68181
625.07458
618.51127
611.99507
605.52873
459.83191
480.86754
504.98692
531.38904
558.78893
586.38542
613.5345
639.72566
664.54132
687.62385
708.66057
727.37216
743.49988
756.79536
766.98694
774.09575
778.63288
781.05742
781.75778
781.0525
779.19853
776.40273
772.83304
768.62636
763.89416
758.72787
753.20327
747.38354
741.32156
735.06171
728.64149
722.09275
715.44264
708.71437
701.92788
695.10037
688.24662
681.37941
674.50979
667.64738
660.80052
653.97646
647.1815
640.42111
633.70002
627.02231
620.39148
613.81055
607.28208
459.88842
481.23921
505.73828
532.33838
560.01318
587.9129
615.39471
641.95823
667.18658
690.71248
712.20757
731.37774
747.95531
761.68717
772.31753
779.6327
784.18117
786.50561
787.04582
786.15002
784.09289
781.09111
777.31876
772.91582
767.99552
762.65013
756.95559
750.97496
744.76077
738.35703
731.80078
725.12338
718.35152
711.50796
704.6122
697.68102
690.72883
683.76807
676.80946
669.8623
662.93467
656.03356
649.165
642.33427
635.54588
628.80375
622.11119
615.47106
608.88578
459.79624
481.28075
505.8763
532.66955
560.58064
588.74385
616.53219
643.45873
669.10306
693.08121
715.04329
734.67699
751.70319
765.86249
776.8954
784.51669
789.12742
791.3913
791.80553
790.75013
788.51817
785.33637
781.38541
776.80836
771.72037
766.21468
760.36762
754.2422
747.89079
741.35709
734.67779
727.88388
721.00164
714.05346
707.05847
700.03309
692.99142
685.94555
678.90596
671.88167
664.8805
657.90919
650.9736
644.07877
637.22906
630.42821
623.67939
616.9853
610.34823
459.47241
480.84544
505.52519
532.48535
560.58293
588.96208
617.02818
644.30911
670.37453
694.81552
717.25429
737.35684
754.83115
769.41054
780.83132
788.7976
793.50903
795.74658
796.0666
794.88089
792.50066
789.16382
785.05699
780.32681
775.09043
769.44222
763.45903
757.20403
750.72949
744.07894
737.28882
730.38982
723.4079
716.36515
709.28039
702.16973
695.04698
687.92398
680.81095
673.71669
666.64877
659.61376
652.61731
645.66428
638.75886
631.90468
625.10475
618.36164
611.67752
458.97457
480.07084
504.8061
531.88772
560.10601
588.64562
616.95902
644.5869
671.08009
695.99543
718.92046
739.49651
757.41785
772.41015
784.20816
792.52626
797.36543
799.60634
799.86073
798.57132
796.06791
792.59917
788.35775
783.49402
778.12728
772.35318
766.24921
759.87882
753.29434
746.53921
739.64971
732.65631
725.58476
718.45686
711.29119
704.10361
696.90768
689.71504
682.53567
675.37815
668.2499
661.15728
654.10577
647.10009
458.35192
479.0773
503.83933
530.97576
559.2312
587.8688
616.39853
644.36732
671.29598
696.697
720.11651
741.16871
759.53412
774.93148
787.09388
795.74929
800.73765
803.00694
803.22041
801.85158
799.24768
795.66824
791.31182
786.3326
780.85218
774.96756
768.75703
762.28444
755.60227
748.75397
741.77576
734.69795
727.54612
720.34188
713.1036
705.84693
698.58524
691.32996
684.09089
676.87645
669.69387
662.54936
655.44826
648.39513
457.64724
477.98393
502.7486
529.84465
558.03574
586.70405
615.41987
643.72488
671.09676
696.99338
720.9128
742.44031
761.24486
777.03746
789.54673
798.50856
803.66727
805.98496
806.17888
804.75175
802.06764
798.39657
793.94291
788.86468
783.28582
777.30479
771.00079
764.43815
757.66961
750.73873
743.68169
736.52876
729.30536
722.03299
714.72984
707.4114
700.09086
692.77951
685.48697
678.22152
670.99025
663.79921
656.65363
649.55794
456.90541
476.92281
501.65718
528.58334
556.59304
585.22321
614.09688
642.73431
670.55609
696.95512
721.37549
743.37371
762.6095
778.7838
791.62101
800.85641
806.1965
808.57744
808.769
807.30154
804.55493
800.80911
796.27409
791.11167
785.44816
779.38358
772.99805
766.35651
759.51203
752.50832
745.38161
738.16215
730.87529
723.54241
716.1816
708.80821
701.43529
694.07398
686.7338
679.42288
672.14817
664.91563
657.73036
650.59669
456.18335
476.05329
500.68503
527.27096
554.97227
583.49825
612.5047
641.47103
669.74684
696.64976
721.56702
744.02714
763.68096
780.22161
793.36687
802.85027
808.3677
810.82034
811.0227
809.52975
806.73581
802.9299
798.32753
793.09411
787.35835
781.2218
774.76562
768.05537
761.14449
754.07691
746.88897
739.61092
732.2681
724.88181
717.47004
710.04804
702.62875
695.22321
687.84081
680.48958
673.17637
665.90702
658.68654
651.51918
455.56651
475.56429
499.93624
525.97133
553.23749
581.60122
610.71967
640.01098
668.74033
696.1422
721.54569
744.45265
764.50816
781.39725
794.82785
804.53713
810.22023
812.74797
812.97059
811.464
808.63536
804.78191
800.12435
794.83157
789.03458
782.83648
776.31946
769.54974
762.58119
755.45798
748.21657
740.88728
733.49542
726.06228
718.60576
711.14105
703.681
696.23655
688.817
681.43027
674.08315
666.78138
659.52988
652.33282
455.19524
475.65776
499.47655
524.72643
551.44619
579.60353
608.81875
638.42892
667.60513
695.49498
721.3646
744.69708
765.13628
782.35063
796.04244
805.95676
811.79
814.39244
814.64154
813.13037
810.27727
806.38682
801.68454
796.34254
790.49405
784.2437
777.67469
770.85389
763.83561
756.66429
749.37654
742.00275
734.56827
727.09435
719.59886
712.09691
704.6013
697.12289
689.67089
682.25318
674.87642
667.54632
660.26771
653.0447
455.32394
476.48637
499.30169
523.55051
549.64794
577.57488
606.87729
636.79706
666.40742
694.76538
721.07096
744.80409
765.60419
783.11648
797.04502
807.14327
813.10948
815.78342
816.06237
814.55319
811.68372
807.76496
803.0268
797.64436
791.75296
785.45863
778.84554
771.98125
764.92047
757.70791
750.38037
742.9683
735.4971
727.98801
720.45888
712.92478
705.39844
697.89067
690.41062
682.96609
675.5637
668.20907
660.90699
653.6615
456.45563
478.01306
499.3098
522.43106
547.8848
575.58085
604.96766
635.18453
665.20803
694.00262
720.70904
744.81228
765.94547
783.72513
797.86538
808.12615
814.20774
816.94788
817.25774
815.75494
812.87523
808.93519
804.16858
798.75326
792.82643
786.49545
779.8454
772.94446
765.84774
758.60023