/*--------------------------------*- C++ -*----------------------------------*\
| =========                 |                                                 |
| \\      /  F ield         | OpenFOAM: The Open Source CFD Toolbox           |
|  \\    /   O peration     | Version:  2312                                  |
|   \\  /    A nd           | Website:  www.openfoam.com                      |
|    \\/     M anipulation  |                                                 |
\*---------------------------------------------------------------------------*/
FoamFile
{
    version     2.0;
    format      ascii;
    arch        "LSB;label=32;scalar=64";
    class       volScalarField;
    location    "0.05";
    object      p;
}
// * * * * * * * * * * * * * * * * * * * * * * * * * * * * * * * * * * * * * //

dimensions      [1 -1 -2 0 0 0 0];

internalField   nonuniform List<scalar> 
3221
(
100000.67
100000.64
100000.63
100000.65
100000.67
100000.7
100000.73
100000.75
100000.77
100000.79
100000.81
100000.83
100000.84
100000.85
100000.85
100000.86
100000.86
100000.86
100000.86
100000.85
100000.85
100000.84
100000.84
100000.83
100000.82
100000.81
100000.8
100000.79
100000.78
100000.77
100000.76
100000.75
100000.74
100000.73
100000.72
100000.72
100000.71
100000.71
100000.7
100000.7
100000.7
100000.7
100000.7
100000.7
100000.7
100000.7
100000.7
100000.71
100000.71
100000.72
100000.73
100000.74
100000.68
100000.61
100000.55
100000.51
100000.49
100000.48
100000.47
100000.47
100000.47
100000.48
100000.48
100000.48
100000.49
100000.49
100000.49
100000.5
100000.5
100000.5
100000.5
100000.5
100000.5
100000.5
100000.5
100000.5
100000.5
100000.5
100000.49
100000.49
100000.49
100000.49
100000.48
100000.48
100000.48
100000.48
100000.48
100000.48
100000.47
100000.47
100000.47
100000.48
100000.48
100000.48
100000.48
100000.48
100000.49
100000.49
100000.49
100000.5
100000.5
100000.51
100000.52
100000.52
100000.71
100000.64
100000.58
100000.54
100000.51
100000.48
100000.47
100000.46
100000.45
100000.45
100000.44
100000.44
100000.44
100000.44
100000.44
100000.44
100000.44
100000.44
100000.45
100000.45
100000.45
100000.45
100000.45
100000.45
100000.45
100000.45
100000.45
100000.45
100000.45
100000.45
100000.45
100000.45
100000.45
100000.45
100000.45
100000.45
100000.45
100000.46
100000.46
100000.46
100000.46
100000.47
100000.47
100000.48
100000.48
100000.49
100000.49
100000.5
100000.5
100000.51
100000.52
100000.53
100000.7
100000.65
100000.59
100000.54
100000.51
100000.48
100000.46
100000.45
100000.43
100000.43
100000.42
100000.42
100000.41
100000.41
100000.41
100000.41
100000.41
100000.41
100000.42
100000.42
100000.42
100000.42
100000.42
100000.43
100000.43
100000.43
100000.43
100000.44
100000.44
100000.44
100000.44
100000.45
100000.45
100000.45
100000.46
100000.46
100000.46
100000.47
100000.47
100000.48
100000.48
100000.49
100000.49
100000.5
100000.5
100000.51
100000.52
100000.53
100000.53
100000.54
100000.55
100000.56
100000.67
100000.62
100000.57
100000.52
100000.49
100000.46
100000.44
100000.42
100000.4
100000.39
100000.38
100000.38
100000.38
100000.37
100000.37
100000.37
100000.38
100000.38
100000.38
100000.38
100000.39
100000.39
100000.4
100000.4
100000.4
100000.41
100000.41
100000.42
100000.42
100000.43
100000.43
100000.44
100000.44
100000.45
100000.46
100000.46
100000.47
100000.47
100000.48
100000.49
100000.49
100000.5
100000.51
100000.52
100000.52
100000.53
100000.54
100000.55
100000.56
100000.57
100000.58
100000.59
100000.62
100000.58
100000.53
100000.49
100000.45
100000.42
100000.4
100000.38
100000.36
100000.35
100000.34
100000.34
100000.33
100000.33
100000.33
100000.33
100000.34
100000.34
100000.34
100000.35
100000.36
100000.36
100000.37
100000.37
100000.38
100000.39
100000.4
100000.4
100000.41
100000.42
100000.43
100000.43
100000.44
100000.45
100000.46
100000.47
100000.47
100000.48
100000.49
100000.5
100000.51
100000.52
100000.53
100000.53
100000.54
100000.55
100000.56
100000.57
100000.58
100000.6
100000.61
100000.62
100000.57
100000.52
100000.48
100000.44
100000.4
100000.38
100000.35
100000.33
100000.32
100000.31
100000.3
100000.29
100000.29
100000.29
100000.29
100000.29
100000.3
100000.3
100000.31
100000.32
100000.32
100000.33
100000.34
100000.35
100000.36
100000.37
100000.38
100000.39
100000.4
100000.41
100000.42
100000.43
100000.44
100000.45
100000.46
100000.47
100000.48
100000.49
100000.5
100000.51
100000.52
100000.53
100000.54
100000.56
100000.57
100000.58
100000.59
100000.6
100000.61
100000.63
100000.64
100000.65
100000.5
100000.46
100000.42
100000.38
100000.35
100000.32
100000.3
100000.28
100000.26
100000.25
100000.24
100000.24
100000.24
100000.24
100000.24
100000.25
100000.25
100000.26
100000.27
100000.28
100000.29
100000.3
100000.32
100000.33
100000.34
100000.35
100000.37
100000.38
100000.39
100000.4
100000.42
100000.43
100000.44
100000.46
100000.47
100000.48
100000.49
100000.5
100000.52
100000.53
100000.54
100000.55
100000.57
100000.58
100000.59
100000.6
100000.62
100000.63
100000.64
100000.66
100000.67
100000.68
100000.43
100000.39
100000.35
100000.31
100000.28
100000.25
100000.23
100000.21
100000.2
100000.19
100000.19
100000.18
100000.19
100000.19
100000.19
100000.2
100000.21
100000.22
100000.23
100000.25
100000.26
100000.28
100000.29
100000.31
100000.32
100000.34
100000.35
100000.37
100000.39
100000.4
100000.42
100000.43
100000.45
100000.46
100000.48
100000.49
100000.51
100000.52
100000.53
100000.55
100000.56
100000.58
100000.59
100000.6
100000.62
100000.63
100000.65
100000.66
100000.68
100000.69
100000.71
100000.72
100000.36
100000.32
100000.27
100000.24
100000.21
100000.18
100000.16
100000.15
100000.13
100000.13
100000.12
100000.12
100000.13
100000.13
100000.14
100000.15
100000.17
100000.18
100000.2
100000.21
100000.23
100000.25
100000.27
100000.29
100000.31
100000.33
100000.34
100000.36
100000.38
100000.4
100000.42
100000.44
100000.45
100000.47
100000.49
100000.51
100000.52
100000.54
100000.55
100000.57
100000.59
100000.6
100000.62
100000.63
100000.65
100000.66
100000.68
100000.7
100000.71
100000.73
100000.74
100000.76
100000.28
100000.24
100000.19
100000.16
100000.13
100000.1
100000.08
100000.07
100000.06
100000.06
100000.06
100000.06
100000.07
100000.08
100000.09
100000.1
100000.12
100000.14
100000.16
100000.18
100000.2
100000.22
100000.25
100000.27
100000.29
100000.31
100000.34
100000.36
100000.38
100000.4
100000.42
100000.44
100000.46
100000.48
100000.5
100000.52
100000.54
100000.56
100000.58
100000.59
100000.61
100000.63
100000.65
100000.66
100000.68
100000.7
100000.71
100000.73
100000.75
100000.76
100000.78
100000.8
100000.19
100000.15
100000.1
100000.07
100000.04
100000.02
99999.999
99999.987
99999.981
99999.98
99999.983
99999.99
100000
100000.02
100000.03
100000.05
100000.07
100000.1
100000.12
100000.15
100000.17
100000.2
100000.23
100000.25
100000.28
100000.31
100000.33
100000.36
100000.38
100000.41
100000.43
100000.45
100000.48
100000.5
100000.52
100000.54
100000.56
100000.58
100000.6
100000.62
100000.64
100000.66
100000.68
100000.7
100000.72
100000.73
100000.75
100000.77
100000.79
100000.8
100000.82
100000.84
100000.1
100000.05
100000.01
99999.972
99999.943
99999.922
99999.907
99999.898
99999.895
99999.897
99999.905
99999.916
99999.932
99999.952
99999.974
99999.999
100000.03
100000.05
100000.08
100000.11
100000.14
100000.18
100000.21
100000.24
100000.27
100000.3
100000.33
100000.36
100000.39
100000.41
100000.44
100000.47
100000.49
100000.52
100000.54
100000.56
100000.59
100000.61
100000.63
100000.65
100000.67
100000.69
100000.71
100000.73
100000.75
100000.77
100000.79
100000.81
100000.83
100000.85
100000.86
100000.88
99999.998
99999.951
99999.904
99999.868
99999.84
99999.82
99999.807
99999.801
99999.802
99999.809
99999.821
99999.838
99999.86
99999.885
99999.913
99999.943
99999.976
100000.01
100000.05
100000.08
100000.12
100000.15
100000.19
100000.23
100000.26
100000.3
100000.33
100000.36
100000.39
100000.42
100000.45
100000.48
100000.51
100000.54
100000.56
100000.59
100000.61
100000.64
100000.66
100000.68
100000.71
100000.73
100000.75
100000.77
100000.79
100000.81
100000.83
100000.85
100000.87
100000.89
100000.91
100000.93
99999.891
99999.842
99999.793
99999.756
99999.729
99999.71
99999.7
99999.698
99999.703
99999.715
99999.732
99999.756
99999.783
99999.815
99999.849
99999.887
99999.926
99999.967
100000.01
100000.05
100000.09
100000.13
100000.17
100000.22
100000.26
100000.29
100000.33
100000.37
100000.4
100000.44
100000.47
100000.5
100000.53
100000.56
100000.59
100000.62
100000.64
100000.67
100000.69
100000.72
100000.74
100000.77
100000.79
100000.81
100000.83
100000.85
100000.87
100000.89
100000.91
100000.93
100000.95
100000.97
99999.776
99999.723
99999.672
99999.634
99999.608
99999.592
99999.585
99999.586
99999.597
99999.614
99999.638
99999.668
99999.703
99999.742
99999.784
99999.829
99999.875
99999.923
99999.971
100000.02
100000.07
100000.12
100000.16
100000.21
100000.25
100000.29
100000.34
100000.38
100000.42
100000.45
100000.49
100000.52
100000.56
100000.59
100000.62
100000.65
100000.68
100000.7
100000.73
100000.76
100000.78
100000.8
100000.83
100000.85
100000.87
100000.9
100000.92
100000.94
100000.96
100000.98
100001
100001.02
99999.652
99999.596
99999.542
99999.503
99999.478
99999.464
99999.46
99999.467
99999.483
99999.508
99999.539
99999.577
99999.62
99999.667
99999.717
99999.77
99999.824
99999.88
99999.935
99999.99
100000.05
100000.1
100000.15
100000.2
100000.25
100000.3
100000.34
100000.39
100000.43
100000.47
100000.51
100000.55
100000.58
100000.62
100000.65
100000.68
100000.71
100000.74
100000.77
100000.79
100000.82
100000.85
100000.87
100000.89
100000.92
100000.94
100000.96
100000.98
100001.01
100001.03
100001.05
100001.07
99999.519
99999.458
99999.4
99999.361
99999.337
99999.326
99999.327
99999.339
99999.362
99999.394
99999.434
99999.481
99999.533
99999.589
99999.649
99999.71
99999.773
99999.837
99999.9
99999.963
100000.02
100000.08
100000.14
100000.2
100000.25
100000.31
100000.36
100000.4
100000.45
100000.49
100000.53
100000.57
100000.61
100000.65
100000.68
100000.71
100000.75
100000.78
100000.81
100000.83
100000.86
100000.89
100000.91
100000.94
100000.96
100000.99
100001.01
100001.03
100001.05
100001.07
100001.09
100001.12
99999.374
99999.308
99999.247
99999.208
99999.185
99999.177
99999.183
99999.203
99999.233
99999.274
99999.324
99999.38
99999.443
99999.509
99999.579
99999.65
99999.722
99999.795
99999.867
99999.937
100000.01
100000.07
100000.14
100000.2
100000.26
100000.32
100000.37
100000.42
100000.47
100000.52
100000.56
100000.6
100000.64
100000.68
100000.72
100000.75
100000.78
100000.82
100000.85
100000.88
100000.9
100000.93
100000.96
100000.98
100001.01
100001.03
100001.05
100001.08
100001.1
100001.12
100001.14
100001.16
99999.217
99999.145
99999.081
99999.041
99999.02
99999.017
99999.029
99999.056
99999.096
99999.148
99999.208
99999.276
99999.349
99999.427
99999.508
99999.59
99999.672
99999.754
99999.834
99999.913
99999.99
100000.06
100000.13
100000.2
100000.27
100000.33
100000.39
100000.44
100000.49
100000.54
100000.59
100000.63
100000.68
100000.72
100000.75
100000.79
100000.82
100000.86
100000.89
100000.92
100000.95
100000.98
100001
100001.03
100001.05
100001.08
100001.1
100001.12
100001.15
100001.17
100001.19
100001.21
99999.047
99998.969
99998.901
99998.86
99998.842
99998.844
99998.864
99998.9
99998.951
99999.014
99999.086
99999.167
99999.253
99999.343
99999.436
99999.529
99999.622
99999.714
99999.804
99999.892
99999.976
100000.06
100000.13
100000.21
100000.28
100000.34
100000.41
100000.46
100000.52
100000.57
100000.62
100000.67
100000.71
100000.75
100000.79
100000.83
100000.87
100000.9
100000.93
100000.96
100000.99
100001.02
100001.05
100001.08
100001.1
100001.13
100001.15
100001.17
100001.19
100001.22
100001.24
100001.26
99998.861
99998.776
99998.704
99998.664
99998.65
99998.658
99998.687
99998.734
99998.797
99998.873
99998.959
99999.054
99999.154
99999.258
99999.363
99999.469
99999.574
99999.677
99999.777
99999.873
99999.965
100000.05
100000.14
100000.22
100000.29
100000.36
100000.43
100000.49
100000.55
100000.6
100000.66
100000.7
100000.75
100000.79
100000.83
100000.87
100000.91
100000.94
100000.98
100001.01
100001.04
100001.07
100001.1
100001.12
100001.15
100001.17
100001.2
100001.22
100001.24
100001.26
100001.29
100001.31
99998.659
99998.567
99998.491
99998.451
99998.441
99998.457
99998.496
99998.556
99998.633
99998.724
99998.827
99998.937
99999.053
99999.171
99999.291
99999.41
99999.527
99999.641
99999.751
99999.857
99999.958
100000.05
100000.14
100000.23
100000.31
100000.38
100000.45
100000.52
100000.58
100000.64
100000.69
100000.74
100000.79
100000.84
100000.88
100000.92
100000.95
100000.99
100001.02
100001.06
100001.09
100001.11
100001.14
100001.17
100001.2
100001.22
100001.24
100001.27
100001.29
100001.31
100001.33
100001.35
99998.439
99998.338
99998.258
99998.22
99998.216
99998.241
99998.293
99998.367
99998.461
99998.569
99998.689
99998.817
99998.949
99999.084
99999.219
99999.353
99999.483
99999.609
99999.729
99999.844
99999.954
100000.06
100000.15
100000.24
100000.33
100000.41
100000.48
100000.55
100000.62
100000.68
100000.73
100000.78
100000.83
100000.88
100000.92
100000.96
100001
100001.04
100001.07
100001.1
100001.13
100001.16
100001.19
100001.22
100001.24
100001.27
100001.29
100001.31
100001.34
100001.36
100001.38
100001.4
99998.198
99998.088
99998.004
99997.968
99997.972
99998.009
99998.075
99998.167
99998.279
99998.407
99998.546
99998.693
99998.845
99998.997
99999.149
99999.297
99999.441
99999.579
99999.711
99999.836
99999.954
100000.06
100000.17
100000.26
100000.35
100000.44
100000.52
100000.59
100000.65
100000.72
100000.77
100000.83
100000.88
100000.92
100000.97
100001.01
100001.05
100001.08
100001.12
100001.15
100001.18
100001.21
100001.24
100001.26
100001.29
100001.31
100001.34
100001.36
100001.38
100001.4
100001.42
100001.44
99997.934
99997.814
99997.727
99997.695
99997.708
99997.759
99997.842
99997.954
99998.088
99998.238
99998.399
99998.567
99998.739
99998.911
99999.08
99999.244
99999.402
99999.553
99999.697
99999.832
99999.958
100000.08
100000.19
100000.29
100000.38
100000.47
100000.55
100000.63
100000.7
100000.76
100000.82
100000.87
100000.92
100000.97
100001.02
100001.06
100001.1
100001.13
100001.17
100001.2
100001.23
100001.26
100001.28
100001.31
100001.34
100001.36
100001.38
100001.41
100001.43
100001.45
100001.47
100001.49
99997.645
99997.515
99997.424
99997.398
99997.422
99997.49
99997.594
99997.729
99997.887
99998.062
99998.248
99998.439
99998.633
99998.825
99999.013
99999.194
99999.368
99999.532
99999.687
99999.832
99999.968
100000.09
100000.21
100000.32
100000.42
100000.51
100000.59
100000.67
100000.74
100000.8
100000.87
100000.92
100000.97
100001.02
100001.06
100001.11
100001.14
100001.18
100001.21
100001.25
100001.28
100001.3
100001.33
100001.36
100001.38
100001.41
100001.43
100001.45
100001.47
100001.49
100001.51
100001.53
99997.328
99997.187
99997.094
99997.075
99997.114
99997.202
99997.33
99997.491
99997.677
99997.88
99998.093
99998.31
99998.528
99998.742
99998.95
99999.149
99999.338
99999.516
99999.683
99999.839
99999.983
100000.12
100000.24
100000.35
100000.45
100000.55
100000.63
100000.71
100000.79
100000.85
100000.91
100000.97
100001.02
100001.07
100001.11
100001.15
100001.19
100001.23
100001.26
100001.29
100001.32
100001.35
100001.38
100001.4
100001.43
100001.45
100001.48
100001.5
100001.52
100001.54
100001.56
100001.58
99996.98
99996.827
99996.733
99996.724
99996.781
99996.893
99997.05
99997.241
99997.458
99997.692
99997.935
99998.181
99998.425
99998.662
99998.891
99999.109
99999.314
99999.507
99999.685
99999.851
100000
100000.14
100000.27
100000.39
100000.5
100000.59
100000.68
100000.76
100000.84
100000.9
100000.96
100001.02
100001.07
100001.12
100001.16
100001.21
100001.24
100001.28
100001.31
100001.34
100001.37
100001.4
100001.42
100001.45
100001.47
100001.5
100001.52
100001.54
100001.56
100001.58
100001.6
100001.62
99996.598
99996.432
99996.339
99996.343
99996.422
99996.562
99996.752
99996.979
99997.232
99997.5
99997.776
99998.052
99998.324
99998.587
99998.838
99999.075
99999.297
99999.504
99999.695
99999.87
100000.03
100000.18
100000.31
100000.43
100000.54
100000.64
100000.73
100000.81
100000.89
100000.96
100001.02
100001.07
100001.13
100001.17
100001.22
100001.26
100001.29
100001.33
100001.36
100001.39
100001.42
100001.45
100001.47
100001.49
100001.52
100001.54
100001.56
100001.58
100001.6
100001.62
100001.64
100001.66
99996.179
99995.999
99995.908
99995.929
99996.035
99996.209
99996.437
99996.704
99996.997
99997.304
99997.616
99997.926
99998.228
99998.517
99998.791
99999.049
99999.288
99999.509
99999.712
99999.898
100000.07
100000.22
100000.36
100000.48
100000.59
100000.7
100000.79
100000.87
100000.94
100001.01
100001.07
100001.13
100001.18
100001.23
100001.27
100001.31
100001.34
100001.38
100001.41
100001.44
100001.46
100001.49
100001.52
100001.54
100001.56
100001.58
100001.6
100001.62
100001.64
100001.66
100001.68
100001.7
99995.716
99995.523
99995.436
99995.479
99995.618
99995.833
99996.105
99996.418
99996.756
99997.106
99997.458
99997.804
99998.137
99998.455
99998.754
99999.032
99999.288
99999.524
99999.738
99999.933
100000.11
100000.27
100000.41
100000.54
100000.65
100000.75
100000.85
100000.93
100001
100001.07
100001.13
100001.18
100001.23
100001.28
100001.32
100001.36
100001.39
100001.43
100001.46
100001.48
100001.51
100001.54
100001.56
100001.58
100001.6
100001.62
100001.64
100001.66
100001.68
100001.7
100001.72
100001.73
99995.207
99994.999
99994.921
99994.991
99995.17
99995.432
99995.756
99996.122
99996.51
99996.907
99997.303
99997.687
99998.055
99998.402
99998.726
99999.025
99999.299
99999.548
99999.774
99999.977
100000.16
100000.32
100000.47
100000.6
100000.71
100000.82
100000.91
100000.99
100001.06
100001.13
100001.19
100001.24
100001.29
100001.33
100001.37
100001.41
100001.44
100001.47
100001.5
100001.53
100001.56
100001.58
100001.6
100001.62
100001.64
100001.66
100001.68
100001.7
100001.72
100001.74
100001.75
100001.77
99994.644
99994.421
99994.356
99994.461
99994.688
99995.007
99995.391
99995.816
99996.261
99996.71
99997.152
99997.578
99997.982
99998.36
99998.71
99999.03
99999.321
99999.584
99999.82
100000.03
100000.22
100000.39
100000.53
100000.66
100000.78
100000.88
100000.97
100001.05
100001.12
100001.19
100001.25
100001.3
100001.34
100001.39
100001.42
100001.46
100001.49
100001.52
100001.55
100001.58
100001.6
100001.62
100001.64
100001.67
100001.68
100001.7
100001.72
100001.74
100001.76
100001.77
100001.79
100001.8
99994.022
99993.784
99993.738
99993.886
99994.172
99994.557
99995.01
99995.502
99996.01
99996.517
99997.01
99997.48
99997.922
99998.332
99998.708
99999.049
99999.357
99999.632
99999.877
100000.09
100000.29
100000.46
100000.6
100000.74
100000.85
100000.95
100001.04
100001.12
100001.19
100001.25
100001.31
100001.36
100001.4
100001.44
100001.48
100001.51
100001.54
100001.57
100001.6
100001.62
100001.64
100001.66
100001.68
100001.7
100001.72
100001.74
100001.76
100001.78
100001.79
100001.81
100001.82
100001.84
99993.333
99993.081
99993.06
99993.264
99993.62
99994.084
99994.616
99995.183
99995.761
99996.33
99996.878
99997.396
99997.877
99998.32
99998.722
99999.083
99999.407
99999.693
99999.946
100000.17
100000.36
100000.53
100000.68
100000.81
100000.93
100001.02
100001.11
100001.19
100001.25
100001.31
100001.37
100001.41
100001.46
100001.49
100001.53
100001.56
100001.59
100001.62
100001.64
100001.66
100001.68
100001.7
100001.72
100001.74
100001.76
100001.78
100001.79
100001.81
100001.82
100001.84
100001.85
100001.87
99992.567
99992.302
99992.318
99992.589
99993.031
99993.586
99994.209
99994.862
99995.518
99996.155
99996.762
99997.328
99997.851
99998.326
99998.753
99999.135
99999.472
99999.769
100000.03
100000.25
100000.45
100000.62
100000.77
100000.89
100001
100001.1
100001.18
100001.26
100001.32
100001.38
100001.43
100001.47
100001.51
100001.55
100001.58
100001.61
100001.63
100001.66
100001.68
100001.7
100001.72
100001.74
100001.76
100001.78
100001.8
100001.81
100001.83
100001.84
100001.86
100001.87
100001.88
100001.9
99991.715
99991.438
99991.504
99991.86
99992.404
99993.067
99993.794
99994.543
99995.284
99995.995
99996.664
99997.282
99997.846
99998.353
99998.806
99999.205
99999.554
99999.858
100000.12
100000.35
100000.54
100000.71
100000.86
100000.98
100001.09
100001.18
100001.26
100001.33
100001.39
100001.44
100001.49
100001.53
100001.56
100001.6
100001.63
100001.66
100001.68
100001.7
100001.73
100001.74
100001.76
100001.78
100001.8
100001.81
100001.83
100001.85
100001.86
100001.87
100001.89
99990.764
99990.479
99990.611
99991.073
99991.74
99992.529
99993.375
99994.231
99995.065
99995.856
99996.59
99997.262
99997.867
99998.405
99998.88
99999.295
99999.654
99999.963
100000.23
100000.45
100000.65
100000.81
100000.95
100001.07
100001.17
100001.26
100001.34
100001.4
100001.46
100001.51
100001.55
100001.59
100001.62
100001.65
100001.68
100001.7
100001.72
100001.75
100001.77
100001.78
100001.8
100001.82
100001.83
100001.85
100001.86
100001.88
100001.89
100001.9
100001.92
99989.698
99989.41
99989.632
99990.225
99991.04
99991.975
99992.957
99993.933
99994.869
99995.745
99996.547
99997.271
99997.916
99998.484
99998.979
99999.406
99999.771
100000.08
100000.35
100000.57
100000.76
100000.92
100001.05
100001.17
100001.26
100001.34
100001.41
100001.47
100001.52
100001.57
100001.61
100001.64
100001.67
100001.7
100001.73
100001.75
100001.77
100001.79
100001.81
100001.82
100001.84
100001.85
100001.87
100001.88
100001.89
100001.91
100001.92
100001.93
100001.94
99988.502
99988.216
99988.559
99989.313
99990.305
99991.411
99992.548
99993.657
99994.704
99995.668
99996.54
99997.317
99998
99998.593
99999.104
99999.539
99999.908
100000.22
100000.48
100000.7
100000.88
100001.03
100001.16
100001.26
100001.35
100001.43
100001.49
100001.55
100001.59
100001.63
100001.67
100001.7
100001.72
100001.75
100001.77
100001.79
100001.81
100001.83
100001.84
100001.86
100001.87
100001.89
100001.9
100001.91
100001.92
100001.94
100001.95
100001.96
100001.97
99987.154
99986.879
99987.383
99988.337
99989.541
99990.846
99992.157
99993.414
99994.58
99995.637
99996.578
99997.404
99998.12
99998.735
99999.256
99999.696
100000.06
100000.37
100000.62
100000.83
100001
100001.15
100001.26
100001.36
100001.44
100001.51
100001.57
100001.62
100001.66
100001.69
100001.72
100001.75
100001.77
100001.8
100001.82
100001.83
100001.85
100001.86
100001.88
100001.89
100001.9
100001.92
100001.93
100001.94
100001.95
100001.96
100001.97
100001.98
100002
99985.63
99985.378
99986.098
99987.297
99988.754
99990.289
99991.798
99993.217
99994.509
99995.661
99996.669
99997.539
99998.282
99998.911
99999.437
99999.875
100000.24
100000.53
100000.77
100000.97
100001.13
100001.27
100001.38
100001.46
100001.54
100001.59
100001.65
100001.69
100001.72
100001.75
100001.78
100001.8
100001.82
100001.84
100001.86
100001.87
100001.89
100001.9
100001.91
100001.92
100001.94
100001.95
100001.96
100001.97
100001.98
100001.99
100002
100002.01
100002.02
99983.904
99983.687
99984.695
99986.193
99987.953
99989.754
99991.487
99993.082
99994.506
99995.751
99996.821
99997.729
99998.49
99999.124
99999.648
100000.08
100000.43
100000.71
100000.94
100001.12
100001.27
100001.39
100001.49
100001.56
100001.63
100001.68
100001.72
100001.76
100001.79
100001.81
100001.83
100001.85
100001.87
100001.89
100001.9
100001.91
100001.92
100001.93
100001.95
100001.96
100001.97
100001.98
100001.98
100001.99
100002
100002.01
100002.02
100002.03
100002.04
99981.944
99981.777
99983.169
99985.032
99987.153
99989.261
99991.241
99993.024
99994.583
99995.918
99997.042
99997.977
99998.746
99999.375
99999.887
100000.3
100000.63
100000.9
100001.11
100001.27
100001.41
100001.51
100001.6
100001.67
100001.72
100001.76
100001.8
100001.83
100001.85
100001.87
100001.89
100001.9
100001.92
100001.93
100001.94
100001.95
100001.96
100001.97
100001.98
100001.98
100001.99
100002
100002.01
100002.02
100002.03
100002.04
100002.04
100002.05
100002.06
99979.715
99979.61
99981.518
99983.822
99986.371
99988.828
99991.079
99993.058
99994.75
99996.167
99997.336
99998.288
99999.052
99999.665
100000.16
100000.55
100000.85
100001.09
100001.28
100001.43
100001.55
100001.64
100001.71
100001.76
100001.81
100001.84
100001.87
100001.89
100001.91
100001.92
100001.94
100001.95
100001.96
100001.97
100001.98
100001.98
100001.99
100002
100002.01
100002.01
100002.02
100002.03
100002.03
100002.04
100002.05
100002.06
100002.06
100002.07
100002.08
99977.181
99977.144
99979.741
99982.576
99985.63
99988.478
99991.02
99993.199
99995.018
99996.505
99997.705
99998.659
99999.407
99999.992
100000.45
100000.81
100001.09
100001.3
100001.47
100001.59
100001.69
100001.76
100001.82
100001.86
100001.89
100001.92
100001.94
100001.95
100001.97
100001.98
100001.99
100001.99
100002
100002.01
100002.01
100002.02
100002.02
100002.03
100002.03
100002.04
100002.04
100002.05
100002.06
100002.06
100002.07
100002.08
100002.08
100002.09
100002.1
99974.304
99974.329
99977.847
99981.313
99984.955
99988.235
99991.083
99993.46
99995.394
99996.934
99998.149
99999.092
99999.809
100000.35
100000.77
100001.09
100001.33
100001.51
100001.65
100001.75
100001.83
100001.88
100001.93
100001.96
100001.98
100001.99
100002.01
100002.02
100002.02
100002.03
100002.03
100002.03
100002.04
100002.04
100002.04
100002.05
100002.05
100002.05
100002.06
100002.06
100002.07
100002.07
100002.08
100002.08
100002.09
100002.09
100002.1
100002.11
100002.11
99971.047
99971.105
99975.849
99980.058
99984.377
99988.127
99991.291
99993.857
99995.886
99997.458
99998.667
99999.581
100000.25
100000.74
100001.11
100001.38
100001.58
100001.72
100001.84
100001.91
100001.96
100002
100002.03
100002.05
100002.06
100002.07
100002.07
100002.07
100002.07
100002.07
100002.07
100002.07
100002.07
100002.07
100002.07
100002.07
100002.08
100002.08
100002.08
100002.08
100002.09
100002.09
100002.1
100002.1
100002.11
100002.11
100002.12
100002.12
100002.13
99967.38
99967.402
99973.77
99978.843
99983.935
99988.187
99991.665
99994.399
99996.497
99998.074
99999.255
100000.12
100000.73
100001.16
100001.46
100001.68
100001.83
100001.94
100002.02
100002.07
100002.1
100002.12
100002.13
100002.14
100002.14
100002.14
100002.13
100002.13
100002.12
100002.12
100002.11
100002.11
100002.11
100002.1
100002.1
100002.1
100002.1
100002.1
100002.1
100002.1
100002.11
100002.11
100002.11
100002.12
100002.12
100002.13
100002.13
100002.14
100002.14
99963.286
99963.139
99971.647
99977.713
99983.674
99988.448
99992.226
99995.098
99997.23
99998.779
99999.908
100000.71
100001.24
100001.59
100001.82
100001.98
100002.09
100002.15
100002.19
100002.22
100002.23
100002.23
100002.23
100002.22
100002.21
100002.2
100002.19
100002.18
100002.17
100002.16
100002.15
100002.14
100002.14
100002.13
100002.13
100002.13
100002.12
100002.12
100002.12
100002.12
100002.12
100002.13
100002.13
100002.13
99958.757
99958.217
99969.527
99976.726
99983.647
99988.947
99992.992
99995.958
99998.08
99999.564
100000.62
100001.34
100001.78
100002.04
100002.19
100002.28
100002.33
100002.36
100002.37
100002.37
100002.36
100002.34
100002.32
100002.3
100002.28
100002.26
100002.24
100002.23
100002.21
100002.2
100002.19
100002.18
100002.17
100002.16
100002.15
100002.15
100002.14
100002.14
100002.14
100002.14
100002.14
100002.14
100002.14
100002.15
99953.77
99952.521
99967.483
99975.964
99983.916
99989.719
99993.977
99996.978
99999.04
100000.41
100001.37
100002
100002.33
100002.48
100002.55
100002.57
100002.57
100002.56
100002.54
100002.51
100002.48
100002.44
100002.41
100002.38
100002.35
100002.32
100002.29
100002.27
100002.25
100002.23
100002.22
100002.2
100002.19
100002.18
100002.18
100002.17
100002.16
100002.16
100002.16
100002.16
100002.16
100002.16
100002.16
100002.16
99948.293
99945.95
99965.619
99975.532
99984.547
99990.795
99995.185
99998.152
100000.1
100001.32
100002.15
100002.68
100002.87
100002.92
100002.9
100002.85
100002.8
100002.75
100002.7
100002.64
100002.59
100002.54
100002.49
100002.45
100002.41
100002.37
100002.34
100002.31
100002.29
100002.26
100002.25
100002.23
100002.22
100002.2
100002.2
100002.19
100002.18
100002.18
100002.17
100002.17
100002.17
100002.17
100002.17
100002.17
99942.597
99938.519
99964.08
99975.559
99985.607
99992.195
99996.615
99999.464
100001.23
100002.26
100002.94
100003.36
100003.42
100003.35
100003.23
100003.12
100003.03
100002.94
100002.85
100002.77
100002.69
100002.62
100002.56
100002.51
100002.46
100002.42
100002.38
100002.35
100002.32
100002.29
100002.27
100002.25
100002.24
100002.22
100002.21
100002.2
100002.2
100002.19
100002.19
100002.18
100002.18
100002.18
100002.18
100002.18
99937.829
99930.383
99963.011
99976.185
99987.149
99993.928
99998.248
100000.89
100002.41
100003.22
100003.73
100004.03
100003.96
100003.74
100003.54
100003.39
100003.24
100003.11
100002.99
100002.88
100002.79
100002.7
100002.63
100002.57
100002.51
100002.46
100002.42
100002.38
100002.35
100002.32
100002.3
100002.27
100002.26
100002.24
100002.23
100002.22
100002.21
100002.2
100002.2
100002.19
100002.19
100002.19
100002.19
100002.19
99933.3
99921.187
99962.522
99977.57
99989.214
99995.975
100000.05
100002.39
100003.62
100004.16
100004.5
100004.7
100004.45
100004.11
100003.85
100003.63
100003.44
100003.26
100003.12
100002.99
100002.87
100002.78
100002.69
100002.62
100002.55
100002.5
100002.45
100002.41
100002.37
100002.34
100002.32
100002.29
100002.27
100002.26
100002.24
100002.23
100002.22
100002.21
100002.21
100002.2
100002.2
100002.2
100002.2
100002.2
99913.024
99909.212
99962.976
99979.964
99991.84
99998.288
100001.97
100003.94
100004.81
100005.04
100005.29
100005.35
100004.88
100004.44
100004.14
100003.86
100003.61
100003.41
100003.23
100003.08
100002.95
100002.84
100002.75
100002.66
100002.59
100002.53
100002.48
100002.44
100002.4
100002.36
100002.33
100002.31
100002.29
100002.27
100002.26
100002.24
100002.23
100002.22
100002.22
100002.21
100002.21
100002.21
100002.21
100002.21
99837.16
99895.902
99965.793
99983.727
99995.089
100000.84
100003.95
100005.48
100005.94
100005.87
100006.07
100005.96
100005.24
100004.76
100004.39
100004.06
100003.77
100003.53
100003.33
100003.16
100003.02
100002.9
100002.79
100002.7
100002.63
100002.56
100002.51
100002.46
100002.42
100002.38