/*--------------------------------*- C++ -*----------------------------------*\
| =========                 |                                                 |
| \\      /  F ield         | OpenFOAM: The Open Source CFD Toolbox           |
|  \\    /   O peration     | Version:  2312                                  |
|   \\  /    A nd           | Website:  www.openfoam.com                      |
|    \\/     M anipulation  |                                                 |
\*---------------------------------------------------------------------------*/
FoamFile
{
    version     2.0;
    format      ascii;
    arch        "LSB;label=32;scalar=64";
    class       surfaceScalarField;
    location    "0.05";
    object      phi;
}
// * * * * * * * * * * * * * * * * * * * * * * * * * * * * * * * * * * * * * //

dimensions      [1 0 -1 0 0 0 0];

oriented        oriented;

internalField   nonuniform List<scalar> 
6325
(
4.4877427e-07
-1.4603107e-09
4.4598427e-07
-3.6758256e-09
4.426382e-07
-5.2339493e-09
4.3890609e-07
-6.3323088e-09
4.3488123e-07
-7.1527617e-09
4.3062447e-07
-7.8024514e-09
4.2618072e-07
-8.3525943e-09
4.2158688e-07
-8.8567178e-09
4.1687583e-07
-9.3579582e-09
4.1207798e-07
-9.8920413e-09
4.0722203e-07
-1.0488548e-08
4.0233513e-07
-1.1171611e-08
3.9744295e-07
-1.1960396e-08
3.9256964e-07
-1.2869627e-08
3.8773774e-07
-1.3910254e-08
3.8296806e-07
-1.5090099e-08
3.7827968e-07
-1.6414296e-08
3.7368978e-07
-1.7885698e-08
3.6921361e-07
-1.9505221e-08
3.6486448e-07
-2.1272117e-08
3.606537e-07
-2.3184211e-08
3.5659063e-07
-2.52381e-08
3.5268272e-07
-2.7429331e-08
3.4893555e-07
-2.975256e-08
3.453529e-07
-3.22017e-08
3.4193687e-07
-3.4770054e-08
3.3868796e-07
-3.7450428e-08
3.3560524e-07
-4.0235245e-08
3.3268637e-07
-4.3116637e-08
3.2992781e-07
-4.6086542e-08
3.2732487e-07
-4.9136774e-08
3.2487189e-07
-5.2259091e-08
3.2256235e-07
-5.5445256e-08
3.2038895e-07
-5.8687089e-08
3.183438e-07
-6.1976512e-08
3.1641845e-07
-6.5305586e-08
3.1460407e-07
-6.8666548e-08
3.128915e-07
-7.2051834e-08
3.1127136e-07
-7.5454101e-08
3.0973413e-07
-7.8866248e-08
3.0827027e-07
-8.2281426e-08
3.0687024e-07
-8.5693049e-08
3.0552459e-07
-8.90948e-08
3.0422404e-07
-9.2480637e-08
3.0295949e-07
-9.5844789e-08
3.0172211e-07
-9.918176e-08
3.0050337e-07
-1.0248633e-07
2.9929506e-07
-1.0575353e-07
2.9808932e-07
-1.0897867e-07
2.9687871e-07
-1.1215732e-07
2.956561e-07
-1.152853e-07
-1.1835871e-07
4.3742722e-07
-5.3561132e-10
4.3523552e-07
-1.3993139e-09
4.3222173e-07
-2.0736891e-09
4.2867674e-07
-2.5767267e-09
4.247572e-07
-2.9561778e-09
4.2055953e-07
-3.2589971e-09
4.1614993e-07
-3.5262818e-09
4.1157824e-07
-3.7952679e-09
4.068852e-07
-4.1001184e-09
4.0210627e-07
-4.4714045e-09
3.9727342e-07
-4.9353536e-09
3.9241585e-07
-5.513523e-09
3.875614e-07
-6.2239126e-09
3.8273499e-07
-7.0785058e-09
3.7795966e-07
-8.0865923e-09
3.7325646e-07
-9.2542339e-09
3.6864434e-07
-1.0584714e-08
3.6414016e-07
-1.2079021e-08
3.5975867e-07
-1.3736208e-08
3.5551252e-07
-1.5553686e-08
3.5141227e-07
-1.7527463e-08
3.474665e-07
-1.9652364e-08
3.4368179e-07
-2.1922224e-08
3.4006287e-07
-2.4330056e-08
3.3661266e-07
-2.6868214e-08
3.3333242e-07
-2.9528532e-08
3.3022181e-07
-3.2302452e-08
3.2727909e-07
-3.5181138e-08
3.2450114e-07
-3.8155571e-08
3.218837e-07
-4.1216644e-08
3.194214e-07
-4.4355237e-08
3.1710795e-07
-4.7562286e-08
3.1493622e-07
-5.0828833e-08
3.1289844e-07
-5.4146085e-08
3.1098621e-07
-5.7505444e-08
3.0919071e-07
-6.0898547e-08
3.0750274e-07
-6.4317293e-08
3.0591287e-07
-6.7753858e-08
3.0441148e-07
-7.1200719e-08
3.0298888e-07
-7.465066e-08
3.016354e-07
-7.8096782e-08
3.0034143e-07
-8.1532502e-08
2.9909749e-07
-8.495156e-08
2.9789429e-07
-8.8348012e-08
2.967228e-07
-9.1716229e-08
2.9557426e-07
-9.5050888e-08
2.9444024e-07
-9.8346966e-08
2.9331267e-07
-1.0159973e-07
2.9218383e-07
-1.0480473e-07
2.9104642e-07
-1.0795778e-07
2.8989353e-07
-1.1105498e-07
-1.1409271e-07
4.258665e-07
1.5141882e-10
4.2412866e-07
4.1699738e-10
4.2156e-07
6.3180764e-10
4.1837015e-07
8.1059344e-10
4.1471617e-07
9.5805546e-10
4.1071257e-07
1.0697351e-09
4.0644492e-07
1.1334232e-09
4.0197965e-07
1.1309534e-09
3.9737048e-07
1.0407662e-09
3.926626e-07
8.4070297e-10
3.8789537e-07
5.1024543e-10
3.8310024e-07
3.5557352e-11
3.7831392e-07
-6.0682397e-10
3.735611e-07
-1.4170422e-09
3.6886709e-07
-2.4051683e-09
3.642543e-07
-3.5746267e-09
3.5974254e-07
-4.9263106e-09
3.5534912e-07
-6.4589295e-09
3.5108887e-07
-8.1693243e-09
3.4697425e-07
-1.0052754e-08
3.4301541e-07
-1.2103156e-08
3.3922025e-07
-1.431337e-08
3.3559458e-07
-1.6675344e-08
3.3214218e-07
-1.9180315e-08
3.2886497e-07
-2.1818973e-08
3.2576312e-07
-2.4581612e-08
3.2283519e-07
-2.7458267e-08
3.200783e-07
-3.0438818e-08
3.1748824e-07
-3.3513096e-08
3.1505964e-07
-3.6670969e-08
3.127861e-07
-3.990242e-08
3.1066035e-07
-4.3197608e-08
3.0867436e-07
-4.6546919e-08
3.068195e-07
-4.9941007e-08
3.0508662e-07
-5.3370833e-08
3.0346622e-07
-5.6827685e-08
3.0194852e-07
-6.0303201e-08
3.0052356e-07
-6.3789386e-08
2.9918132e-07
-6.7278611e-08
2.9791177e-07
-7.0763627e-08
2.9670497e-07
-7.4237558e-08
2.9555111e-07
-7.7693904e-08
2.9444062e-07
-8.1126527e-08
2.9336414e-07
-8.452965e-08
2.9231265e-07
-8.7897844e-08
2.9127744e-07
-9.1226014e-08
2.902502e-07
-9.4509391e-08
2.8922299e-07
-9.7743515e-08
2.8818829e-07
-1.0092422e-07
2.8713901e-07
-1.0404762e-07
2.8606851e-07
-1.0711012e-07
-1.1010841e-07
4.1452933e-07
6.9432466e-10
4.1308417e-07
1.9336352e-09
4.1086211e-07
2.9799125e-09
4.0800733e-07
3.8480475e-09
4.0464798e-07
4.5586311e-09
4.0089193e-07
5.1274776e-09
3.9682855e-07
5.5608195e-09
3.925322e-07
5.8554611e-09
3.8806548e-07
6.001507e-09
3.8348185e-07
5.9858387e-09
3.7882742e-07
5.7951285e-09
3.7414591e-07
5.4177717e-09
3.6946748e-07
4.8437659e-09
3.6482687e-07
4.0681194e-09
3.6025173e-07
3.087704e-09
3.5576641e-07
1.9021535e-09
3.513921e-07
5.135491e-10
3.4714687e-07
-1.0739401e-09
3.4304592e-07
-2.85448e-09
3.3910163e-07
-4.8207745e-09
3.3532376e-07
-6.9643445e-09
3.3171956e-07
-9.2757636e-09
3.2829396e-07
-1.1744862e-08
3.2504971e-07
-1.4360913e-08
3.2198753e-07
-1.7112806e-08
3.1910635e-07
-1.9989199e-08
3.1640342e-07
-2.297865e-08
3.1387452e-07
-2.6069723e-08
3.1151412e-07
-2.9251092e-08
3.0931557e-07
-3.2511621e-08
3.0727121e-07
-3.5840434e-08
3.0537261e-07
-3.922697e-08
3.0361063e-07
-4.2661025e-08
3.0197563e-07
-4.6132786e-08
3.0045757e-07
-4.9632856e-08
2.9904612e-07
-5.315227e-08
2.9773081e-07
-5.6682506e-08
2.9650108e-07
-6.0215486e-08
2.953464e-07
-6.3743582e-08
2.9425635e-07
-6.7259605e-08
2.9322067e-07
-7.0756798e-08
2.9222936e-07
-7.4228827e-08
2.9127269e-07
-7.7669766e-08
2.9034128e-07
-8.1074082e-08
2.894261e-07
-8.443662e-08
2.8851855e-07
-8.7752581e-08
2.8761045e-07
-9.1017512e-08
2.8669404e-07
-9.422728e-08
2.8576206e-07
-9.7378058e-08
2.848077e-07
-1.0046631e-07
2.8382461e-07
-1.0348876e-07
-1.0644248e-07
4.0344322e-07
1.1507627e-09
4.0219587e-07
3.2450803e-09
4.0023275e-07
5.0575429e-09
3.9765636e-07
6.5911835e-09
3.9456826e-07
7.8674647e-09
3.910628e-07
8.9093327e-09
3.8722498e-07
9.7323953e-09
3.831302e-07
1.0342995e-08
3.78845e-07
1.0740057e-08
3.7442795e-07
1.0918272e-08
3.699308e-07
1.0871049e-08
3.6539935e-07
1.0592561e-08
3.6087301e-07
1.0079033e-08
3.5638728e-07
9.3292331e-09
3.5197296e-07
8.3445275e-09
3.4765661e-07
7.1285999e-09
3.4346089e-07
5.6872295e-09
3.3940484e-07
4.0280003e-09
3.3550404e-07
2.159991e-09
3.3177086e-07
9.3504999e-11
3.2821463e-07
-2.1601706e-09
3.2484188e-07
-4.5890219e-09
3.2165658e-07
-7.1804926e-09
3.1866028e-07
-9.9216861e-09
3.1585242e-07
-1.2799534e-08
3.1323052e-07
-1.5800945e-08
3.1079037e-07
-1.8912929e-08
3.0852626e-07
-2.2122701e-08
3.064312e-07
-2.5417774e-08
3.0449709e-07
-2.8786034e-08
3.0271493e-07
-3.2215797e-08
3.0107497e-07
-3.5695848e-08
2.995669e-07
-3.9215477e-08
2.9817999e-07
-4.2764497e-08
2.9690321e-07
-4.6333257e-08
2.9572539e-07
-4.9912647e-08
2.946353e-07
-5.3494095e-08
2.9362176e-07
-5.7069558e-08
2.9267374e-07
-6.0631515e-08
2.9178042e-07
-6.4172947e-08
2.9093127e-07
-6.7687322e-08
2.9011608e-07
-7.1168572e-08
2.8932505e-07
-7.4611077e-08
2.8854877e-07
-7.8009636e-08
2.8777831e-07
-8.1359446e-08
2.870052e-07
-8.4656084e-08
2.8622146e-07
-8.7895475e-08
2.854196e-07
-9.1073875e-08
2.8459265e-07
-9.4187849e-08
2.8373416e-07
-9.7234247e-08
2.8283816e-07
-1.0021019e-07
-1.0311313e-07
3.9262636e-07
1.5520321e-09
3.9151386e-07
4.4141267e-09
3.8974107e-07
6.9329292e-09
3.873849e-07
9.0976331e-09
3.8452742e-07
1.0924398e-08
3.8125051e-07
1.2436397e-08
3.7763257e-07
1.3652697e-08
3.737468e-07
1.4584808e-08
3.6966041e-07
1.5237586e-08
3.6543441e-07
1.5611842e-08
3.6112365e-07
1.5706994e-08
3.5677704e-07
1.5523013e-08
3.5243791e-07
1.5061575e-08
3.4814427e-07
1.4326576e-08
3.4392919e-07
1.3324168e-08
3.39821e-07
1.2062581e-08
3.3584358e-07
1.0551859e-08
3.3201662e-07
8.803573e-09
3.2835592e-07
6.8305264e-09
3.2487358e-07
4.6464796e-09
3.2157834e-07
2.2658987e-09
3.1847583e-07
-2.962787e-10
3.1556883e-07
-3.0248536e-09
3.1285758e-07
-5.9045555e-09
3.1034002e-07
-8.9202097e-09
3.0801212e-07
-1.2056872e-08
3.0586804e-07
-1.5299943e-08
3.0390048e-07
-1.8635271e-08
3.0210085e-07
-2.2049224e-08
3.0045953e-07
-2.5528754e-08
2.9896609e-07
-2.9061431e-08
2.9760942e-07
-3.2635475e-08
2.9637799e-07
-3.623977e-08
2.9525995e-07
-3.9863866e-08
2.942433e-07
-4.3497979e-08
2.9331602e-07
-4.7132977e-08
2.9246616e-07
-5.0760363e-08
2.9168197e-07
-5.4372255e-08
2.9095195e-07
-5.796136e-08
2.9026495e-07
-6.152095e-08
2.8961021e-07
-6.5044827e-08
2.8897744e-07
-6.8527301e-08
2.8835679e-07
-7.1963153e-08
2.8773895e-07
-7.5347606e-08
2.8711513e-07
-7.8676299e-08
2.8647708e-07
-8.1945251e-08
2.8581713e-07
-8.515084e-08
2.8512814e-07
-8.828977e-08
2.8440351e-07
-9.1359049e-08
2.836372e-07
-9.4355962e-08
2.8282373e-07
-9.7278059e-08
-1.0012319e-07
3.8208364e-07
1.916528e-09
3.8106405e-07
5.4827453e-09
3.7942987e-07
8.6577753e-09
3.7724328e-07
1.1417924e-08
3.745738e-07
1.377195e-08
3.7149401e-07
1.5739924e-08
3.680765e-07
1.7340959e-08
3.6439158e-07
1.8588825e-08
3.6050575e-07
1.9492111e-08
3.5648079e-07
2.0056276e-08
3.523732e-07
2.0285889e-08
3.4823396e-07
2.0186306e-08
3.4410847e-07
1.9764628e-08
3.4003665e-07
1.9030087e-08
3.3605307e-07
1.7994011e-08
3.3218717e-07
1.6669606e-08
3.2846345e-07
1.5071649e-08
3.2490181e-07
1.3216168e-08
3.2151777e-07
1.1120129e-08
3.1832284e-07
8.8011449e-09
3.1532479e-07
6.2772125e-09
3.1252803e-07
3.5664725e-09
3.0993391e-07
6.8699702e-10
3.0754107e-07
-2.3433964e-09
3.0534578e-07
-5.5073006e-09
3.0334222e-07
-8.787844e-09
3.0152281e-07
-1.2168795e-08
2.9987849e-07
-1.5634644e-08
2.9839901e-07
-1.9170659e-08
2.9707315e-07
-2.2762923e-08
2.9588899e-07
-2.6398359e-08
2.9483407e-07
-3.006473e-08
2.9389563e-07
-3.3750638e-08
2.9306073e-07
-3.7445504e-08
2.9231644e-07
-4.1139547e-08
2.9164996e-07
-4.4823752e-08
2.9104869e-07
-4.8489838e-08
2.9050039e-07
-5.2130219e-08
2.899932e-07
-5.5737965e-08
2.8951573e-07
-5.9306759e-08
2.8905712e-07
-6.2830863e-08
2.8860704e-07
-6.6305066e-08
2.8815577e-07
-6.9724656e-08
2.8769417e-07
-7.3085374e-08
2.8721371e-07
-7.6383377e-08
2.8670648e-07
-7.9615208e-08
2.8616518e-07
-8.2777758e-08
2.8558312e-07
-8.5868234e-08
2.8495418e-07
-8.8884138e-08
2.8427284e-07
-9.1823229e-08
2.8353412e-07
-9.4683513e-08
-9.746327e-08
3.718138e-07
2.2561048e-09
3.7085795e-07
6.4803023e-09
3.6932329e-07
1.0271404e-08
3.6726445e-07
1.3594213e-08
3.6474377e-07
1.6449688e-08
3.6182809e-07
1.885339e-08
3.5858605e-07
2.082272e-08
3.5508566e-07
2.2372024e-08
3.5139257e-07
2.3512234e-08
3.475687e-07
2.4252437e-08
3.4367132e-07
2.4601722e-08
3.3975251e-07
2.4570523e-08
3.3585882e-07
2.4171332e-08
3.3203114e-07
2.3418876e-08
3.2830474e-07
2.2329958e-08
3.2470938e-07
2.092313e-08
3.2126954e-07
1.9218302e-08
3.1800464e-07
1.7236364e-08
3.1492942e-07
1.4998824e-08
3.1205424e-07
1.252749e-08
3.0938546e-07
9.84418e-09
3.0692586e-07
6.9704708e-09
3.0467501e-07
3.9274876e-09
3.0262966e-07
7.3572288e-10
3.0078409e-07
-2.5851074e-09
2.9913054e-07
-6.01618e-09
2.9765948e-07
-9.5396479e-09
2.9636e-07
-1.3138695e-08
2.9522007e-07
-1.6797572e-08
2.9422684e-07
-2.0501605e-08
2.9336688e-07
-2.4237193e-08
2.9262639e-07
-2.7991785e-08
2.9199142e-07
-3.1753852e-08
2.9144803e-07
-3.551284e-08
2.9098243e-07
-3.925913e-08
2.9058111e-07
-4.2983983e-08
2.9023099e-07
-4.6679485e-08
2.8991941e-07
-5.0338491e-08
2.896343e-07
-5.3954572e-08
2.8936417e-07
-5.7521958e-08
2.8909817e-07
-6.1035482e-08
2.8882611e-07
-6.4490531e-08
2.8853847e-07
-6.7882995e-08
2.8822644e-07
-7.120922e-08
2.8788188e-07
-7.4465964e-08
2.8749731e-07
-7.7650358e-08
2.8706593e-07
-8.0759865e-08
2.8658158e-07
-8.3792248e-08
2.8603873e-07
-8.6745538e-08
2.8543243e-07
-8.9618005e-08
2.8475833e-07
-9.2408134e-08
-9.5114653e-08
3.6181266e-07
2.5791677e-09
3.6089904e-07
7.4286302e-09
3.5943362e-07
1.1804566e-08
3.5746817e-07
1.566147e-08
3.5506196e-07
1.899273e-08
3.522792e-07
2.1808974e-08
3.4918661e-07
2.4125154e-08
3.4585115e-07
2.5955393e-08
3.4233807e-07
2.7312267e-08
3.3870943e-07
2.8207991e-08
3.3502293e-07
2.8655877e-08
3.3133116e-07
2.8671352e-08
3.2768111e-07
2.827238e-08
3.2411391e-07
2.7479409e-08
3.2066473e-07
2.6315026e-08
3.1736292e-07
2.4803486e-08
3.1423218e-07
2.2970206e-08
3.1129079e-07
2.0841297e-08
3.0855203e-07
1.8443144e-08
3.0602455e-07
1.5802033e-08
3.0371277e-07
1.2943832e-08
3.0161739e-07
9.8937341e-09
2.9973577e-07
6.676039e-09
2.9806241e-07
3.3139796e-09
2.9658935e-07
-1.7041003e-10
2.9530663e-07
-3.7563872e-09
2.9420262e-07
-7.4245605e-09
2.9326444e-07
-1.1156914e-08
2.924782e-07
-1.4936812e-08
2.918294e-07
-1.8748975e-08
2.9130312e-07
-2.2579447e-08
2.9088424e-07
-2.641554e-08
2.9055773e-07
-3.0245771e-08
2.9030871e-07
-3.4059797e-08
2.9012267e-07
-3.7848337e-08
2.8998556e-07
-4.1603099e-08
2.898839e-07
-4.5316701e-08
2.8980482e-07
-4.8982596e-08
2.8973617e-07
-5.2594999e-08
2.8966651e-07
-5.6148815e-08
2.8958516e-07
-5.9639572e-08
2.8948223e-07
-6.3063357e-08
2.8934855e-07
-6.6416758e-08
2.8917577e-07
-6.9696809e-08
2.8895624e-07
-7.2900938e-08
2.8868307e-07
-7.6026924e-08
2.8835005e-07
-7.9072852e-08
2.8795167e-07
-8.203708e-08
2.8748305e-07
-8.4918199e-08
2.8693991e-07
-8.7715011e-08
2.8631859e-07
-9.0426499e-08
-9.3051848e-08
3.5207479e-07
2.8921441e-09
3.5118665e-07
8.3448856e-09
3.497662e-07
1.3282156e-08
3.4786565e-07
1.7649048e-08
3.4554426e-07
2.143181e-08
3.4286622e-07
2.4636214e-08
3.3989832e-07
2.7274649e-08
3.3670778e-07
2.9360836e-08
3.3336026e-07
3.0908862e-08
3.2991827e-07
3.193402e-08
3.2643989e-07
3.2453917e-08
3.2297794e-07
3.2489152e-08
3.1957934e-07
3.2063437e-08
3.1628481e-07
3.1203285e-08
3.1312879e-07
2.9937449e-08
3.1013946e-07
2.8296276e-08
3.0733899e-07
2.6311067e-08
3.0474384e-07
2.4013499e-08
3.0236516e-07
2.1435121e-08
3.0020926e-07
1.860693e-08
2.9827808e-07
1.5559023e-08
2.9656969e-07
1.2320321e-08
2.9507884e-07
8.9183502e-09
2.9379742e-07
5.3790743e-09
2.9271493e-07
1.7267884e-09
2.9181901e-07
-2.0159471e-09
2.9109575e-07
-5.8283318e-09
2.9053019e-07
-9.6913161e-09
2.9010658e-07
-1.3587564e-08
2.8980873e-07
-1.7501396e-08
2.8962028e-07
-2.1418707e-08
2.8952492e-07
-2.5326885e-08
2.8950659e-07
-2.9214709e-08
2.8954964e-07
-3.3072249e-08
2.8963899e-07
-3.6890763e-08
2.8976021e-07
-4.066259e-08
2.8989959e-07
-4.4381055e-08
2.9004424e-07
-4.8040368e-08
2.901821e-07
-5.1635531e-08
2.9030196e-07
-5.5162255e-08
2.903935e-07
-5.8616876e-08
2.9044724e-07
-6.1996282e-08
2.9045457e-07
-6.5297843e-08
2.9040768e-07
-6.8519352e-08
2.9029961e-07
-7.1658969e-08
2.9012411e-07
-7.4715167e-08
2.8987572e-07
-7.7686692e-08
2.8954964e-07
-8.0572522e-08
2.8914174e-07
-8.3371834e-08
2.886485e-07
-8.6083969e-08
2.8806697e-07
-8.8708414e-08
-9.124481e-08
3.4259415e-07
3.2002564e-09
3.4171784e-07
9.2431918e-09
3.4032228e-07
1.4724985e-08
3.3846261e-07
1.9581972e-08
3.3620054e-07
2.3793748e-08
3.3360236e-07
2.736158e-08
3.3073671e-07
3.0295575e-08
3.2767237e-07
3.2609331e-08
3.2447629e-07
3.4318745e-08
3.2121188e-07
3.5442548e-08
3.1793775e-07
3.6003054e-08
3.1470676e-07
3.6026495e-08
3.1156539e-07
3.554282e-08
3.0855345e-07
3.4585107e-08
3.0570396e-07
3.3188758e-08
3.0304327e-07
3.1390667e-08
3.0059131e-07
2.9228414e-08
2.98362e-07
2.6739574e-08
2.9636368e-07
2.3961124e-08
2.9459969e-07
2.0928959e-08
2.9306889e-07
1.7677522e-08
2.9176626e-07
1.4239501e-08
2.9068349e-07
1.0645618e-08
2.8980949e-07
6.9244862e-09
2.8913099e-07
3.1025258e-09
2.8863298e-07
-7.960614e-10
2.882992e-07
-4.7492746e-09
2.8811251e-07
-8.7372618e-09
2.8805529e-07
-1.2742234e-08
2.8810973e-07
-1.6748361e-08
2.8825811e-07
-2.0741648e-08
2.8848302e-07
-2.4709807e-08
2.8876757e-07
-2.8642119e-08
2.890955e-07
-3.2529298e-08
2.8945132e-07
-3.6363351e-08
2.8982043e-07
-4.0137449e-08
2.9018912e-07
-4.38458e-08
2.9054465e-07
-4.7483531e-08
2.9087525e-07
-5.1046573e-08
2.9117014e-07
-5.4531565e-08
2.914195e-07
-5.7935757e-08
2.9161447e-07
-6.1256924e-08
2.9174711e-07
-6.4493293e-08
2.9181036e-07
-6.7643475e-08
2.9179798e-07
-7.0706405e-08
2.9170457e-07
-7.3681287e-08
2.9152544e-07
-7.656755e-08
2.9125662e-07
-7.9364809e-08
2.908948e-07
-8.2072829e-08
2.9043725e-07
-8.4691496e-08
2.8988185e-07
-8.7220793e-08
-8.9660809e-08
3.3336448e-07
3.5079519e-09
3.3248845e-07
1.0135611e-08
3.3110074e-07
1.615091e-08
3.2926143e-07
2.1481872e-08
3.2703671e-07
2.6101937e-08
3.2449685e-07
3.0008396e-08
3.2171385e-07
3.3209648e-08
3.187593e-07
3.5719789e-08
3.1570223e-07
3.7557204e-08
3.1260747e-07
3.8744769e-08
3.0953429e-07
3.9310238e-08
3.0653549e-07
3.928621e-08
3.0365679e-07
3.8709582e-08
3.0093658e-07
3.7620657e-08
2.9840585e-07
3.6062093e-08
2.9608844e-07
3.4077845e-08
2.9400133e-07
3.1712201e-08
2.9215518e-07
2.9008965e-08
2.9055485e-07
2.6010772e-08
2.8920007e-07
2.2758559e-08
2.8808605e-07
1.9291154e-08
2.8720421e-07
1.5644973e-08
2.8654276e-07
1.1853826e-08
2.8608734e-07
7.9488031e-09
2.8582165e-07
3.9582298e-09
2.8572791e-07
-9.2308023e-11
2.8578737e-07
-4.1798927e-09
2.8598076e-07
-8.2841705e-09
2.862886e-07
-1.2387205e-08
2.8669157e-07
-1.647332e-08
2.8717073e-07
-2.0528927e-08
2.8770774e-07
-2.4542347e-08
2.8828505e-07
-2.850363e-08
2.8888602e-07
-3.2404379e-08
2.89495e-07
-3.6237576e-08
2.900974e-07
-3.9997425e-08
2.9067973e-07
-4.3679196e-08
2.9122963e-07
-4.7279084e-08
2.9173584e-07
-5.0794087e-08
2.9218818e-07
-5.4221879e-08
2.9257753e-07
-5.7560716e-08
2.9289582e-07
-6.0809335e-08
2.931359e-07
-6.3966876e-08
2.9329159e-07
-6.7032812e-08
2.9335754e-07
-7.0006879e-08
2.9332921e-07
-7.2889032e-08
2.9320284e-07
-7.5679392e-08
2.9297534e-07
-7.837821e-08
2.9264426e-07
-8.0985833e-08
2.9220774e-07
-8.350268e-08
2.9166448e-07
-8.5929214e-08
-8.8265952e-08
3.2437942e-07
3.8191541e-09
3.2349362e-07
1.1032732e-08
3.2209897e-07
1.7575544e-08
3.2026234e-07
2.3367599e-08
3.1805616e-07
2.8376705e-08
3.1555627e-07
3.2596853e-08
3.1283947e-07
3.6035552e-08
3.0998118e-07
3.8708326e-08
3.0705331e-07
4.0637048e-08
3.041225e-07
4.1849775e-08
3.0124881e-07
4.2380737e-08
2.9848484e-07
4.2269889e-08
2.958752e-07
4.1562002e-08
2.9345634e-07
4.0305437e-08
2.912566e-07
3.8550817e-08
2.8929658e-07
3.634974e-08
2.8758961e-07
3.375366e-08
2.8614238e-07
3.0812928e-08
2.8495558e-07
2.7576036e-08
2.8402471e-07
2.4089034e-08
2.8334082e-07
2.0395097e-08
2.8289129e-07
1.6534246e-08
2.826605e-07
1.2543174e-08
2.8263057e-07
8.4551822e-09
2.8278198e-07
4.3001906e-09
2.8309409e-07
1.0482667e-10
2.8354567e-07
-4.1074386e-09
2.8411534e-07
-8.3161154e-09
2.847819e-07
-1.2503486e-08
2.8552465e-07
-1.6654381e-08
2.8632364e-07
-2.0755954e-08
2.8715982e-07
-2.4797445e-08
2.8801524e-07
-2.8769959e-08
2.8887309e-07
-3.2666246e-08
2.8971781e-07
-3.6480492e-08
2.9053509e-07
-4.0208132e-08
2.9131191e-07
-4.3845668e-08
2.9203649e-07
-4.7390511e-08
2.9269828e-07
-5.0840837e-08
2.9328792e-07
-5.4195455e-08
2.9379717e-07
-5.74537e-08
2.9421886e-07
-6.0615324e-08
2.9454683e-07
-6.368042e-08
2.9477586e-07
-6.6649342e-08
2.9490158e-07
-6.9522645e-08
2.9492045e-07
-7.2301031e-08
2.9482965e-07
-7.4985305e-08
2.9462704e-07
-7.757634e-08
2.9431108e-07
-8.0075047e-08
2.9388079e-07
-8.2482348e-08
2.9333572e-07
-8.4799163e-08
-8.7026404e-08
3.1563267e-07
4.1374143e-09
3.1472814e-07
1.1944039e-08
3.1331359e-07
1.9012707e-08
3.1146432e-07
2.5255637e-08
3.0926067e-07
3.0635565e-08
3.0678555e-07
3.5144026e-08
3.0412177e-07
3.8788697e-08
3.0134956e-07
4.1587753e-08
2.9854431e-07
4.3567868e-08
2.9577479e-07
4.4763635e-08
2.9310189e-07
4.521708e-08
2.9057777e-07
4.4976764e-08
2.8824551e-07
4.4096458e-08
2.8613901e-07
4.2633563e-08
2.8428329e-07
4.064747e-08
2.8269501e-07
3.8198071e-08
2.8138307e-07
3.5344447e-08
2.8034944e-07
3.2143792e-08
2.7958999e-07
2.8650589e-08
2.7909543e-07
2.4915991e-08
2.7885213e-07
2.0987399e-08
2.7884302e-07
1.6908207e-08
2.7904839e-07
1.2717684e-08
2.7944663e-07
8.4509728e-09
2.8001489e-07
4.1391805e-09
2.8072969e-07
-1.9045511e-10
2.8156738e-07
-4.5143494e-09
2.825046e-07
-8.8123125e-09
2.8351861e-07
-1.3067261e-08
2.8458757e-07
-1.7264928e-08
2.8569075e-07
-2.1393572e-08
2.8680869e-07
-2.5443686e-08
2.8792328e-07
-2.9407726e-08
2.8901787e-07
-3.3279847e-08
2.9007723e-07
-3.7055664e-08
2.9108762e-07
-4.0732031e-08
2.920367e-07
-4.4306838e-08
2.9291354e-07
-4.7778838e-08
2.937085e-07
-5.1147483e-08
2.9441321e-07
-5.4412791e-08
2.9502047e-07
-5.7575224e-08
2.9552419e-07
-6.0635587e-08
2.9591929e-07
-6.3594939e-08
2.9620162e-07
-6.6454521e-08
2.9636788e-07
-6.9215694e-08
2.9641557e-07
-7.1879893e-08
2.9634288e-07
-7.4448583e-08
2.9614863e-07
-7.6923227e-08
2.9583224e-07
-7.9305263e-08
2.9539361e-07
-8.1596085e-08
2.9483312e-07
-8.3797023e-08
-8.5909349e-08
3.0711798e-07
4.4660094e-09
3.0618664e-07
1.2878142e-08
3.0474069e-07
2.0474719e-08
3.0286557e-07
2.7160352e-08
3.006511e-07
3.2893367e-08
2.9818863e-07
3.7663867e-08
2.9556813e-07
4.1481024e-08
2.9287544e-07
4.436719e-08
2.9018992e-07
4.635549e-08
2.8758266e-07
4.7488718e-08
2.8511526e-07
4.7818304e-08
2.8283908e-07
4.7402906e-08
2.807951e-07
4.6306616e-08
2.7901402e-07
4.4596979e-08
2.7751678e-07
4.2343064e-08
2.7631525e-07
3.9613723e-08
2.7541315e-07
3.6476108e-08
2.74807e-07
3.29945e-08
2.7448722e-07
2.9229426e-08
2.7443913e-07
2.5237038e-08
2.74644e-07
2.1068722e-08
2.7508e-07
1.6770899e-08
2.7572312e-07
1.2384989e-08
2.7654792e-07
7.9474979e-09
2.7752824e-07
3.4902088e-09
2.7863781e-07
-9.5955062e-10
2.7985074e-07
-5.3785955e-09
2.8114192e-07
-9.7475274e-09
2.8248732e-07
-1.4050362e-08
2.8386427e-07
-1.8274161e-08
2.8525157e-07
-2.2408672e-08
2.8662964e-07
-2.6445983e-08
2.8798058e-07
-3.0380195e-08
2.8928817e-07
-3.4207123e-08
2.9053783e-07
-3.7924016e-08
2.9171664e-07
-4.1529317e-08
2.9281322e-07
-4.502244e-08
2.9381767e-07
-4.8403577e-08
2.947215e-07
-5.1673532e-08
2.9551748e-07
-5.4833578e-08
2.9619963e-07
-5.7885333e-08
2.9676302e-07
-6.083066e-08
2.9720377e-07
-6.3671578e-08
2.9751888e-07
-6.6410196e-08
2.9770618e-07
-6.9048657e-08
2.9776424e-07
-7.1589089e-08
2.9769229e-07
-7.4033577e-08
2.9749016e-07
-7.6384131e-08
2.9715818e-07
-7.864267e-08
2.9669714e-07
-8.0811006e-08
2.9610825e-07
-8.2890838e-08
-8.4883741e-08
2.9882923e-07
4.8080057e-09
2.9786369e-07
1.3842926e-08
2.9637614e-07
2.1972574e-08
2.9446387e-07
2.9094147e-08
2.9222774e-07
3.5162362e-08
2.897689e-07
4.0167155e-08
2.871855e-07
4.412082e-08
2.8456966e-07
4.7051766e-08
2.8200505e-07
4.900156e-08
2.7956508e-07
5.0023194e-08
2.7731175e-07
5.0179405e-08
2.7529513e-07
4.9540671e-08
2.7355339e-07
4.8182893e-08
2.7211321e-07
4.6184998e-08
2.7099055e-07
4.3626682e-08
2.7019168e-07
4.0586418e-08
2.6971428e-07
3.7139832e-08
2.6954873e-07
3.3358443e-08
2.6967932e-07
2.9308769e-08
2.7008553e-07
2.5051727e-08
2.7074317e-07
2.0642313e-08
2.7162542e-07
1.6129495e-08
2.7270384e-07
1.1556289e-08
2.7394918e-07
6.9599682e-09
2.753321e-07
2.3723819e-09
2.7682375e-07
-2.1796596e-09
2.7839625e-07
-6.6739493e-09
2.8002305e-07
-1.1092424e-08
2.8167919e-07
-1.5420696e-08
2.8334151e-07
-1.9647601e-08
2.8498873e-07
-2.376477e-08
2.8660152e-07
-2.776622e-08
2.8816251e-07
-3.164798e-08
2.8965624e-07
-3.5407754e-08
2.910691e-07
-3.9044613e-08
2.9238926e-07
-4.2558731e-08
2.9360654e-07
-4.5951146e-08
2.947123e-07
-4.9223563e-08
2.9569934e-07
-5.2378179e-08
2.9656177e-07
-5.5417539e-08
2.972949e-07
-5.8344418e-08
2.9789512e-07
-6.1161717e-08
2.9835978e-07
-6.3872388e-08
2.986871e-07
-6.6479368e-08
2.9887608e-07
-6.8985531e-08
2.9892639e-07
-7.1393649e-08
2.9883829e-07
-7.3706369e-08
2.986126e-07
-7.5926191e-08
2.9825055e-07
-7.8055456e-08
2.9775382e-07
-8.009634e-08
2.9712438e-07
-8.2050847e-08
-8.3920811e-08
2.9076042e-07
5.1663054e-09
2.8975386e-07
1.4845661e-08
2.8821568e-07
2.3516058e-08
2.8625678e-07
3.1067542e-08
2.8399068e-07
3.7452215e-08
2.8152961e-07
4.2661414e-08
2.7898081e-07
4.671255e-08
2.7644326e-07
4.9642353e-08
2.7400508e-07
5.1503218e-08
2.7174179e-07
5.2360678e-08
2.697153e-07
5.2290975e-08
2.6797366e-07
5.1378357e-08
2.6655136e-07
4.9712191e-08
2.6547009e-07
4.7384099e-08
2.6473986e-07
4.4485358e-08
2.6436038e-07
4.1104687e-08
2.6432247e-07
3.732649e-08
2.6460963e-07
3.3229563e-08
2.6519949e-07
2.8886207e-08
2.6606525e-07
2.4361715e-08
2.6717697e-07
1.9714159e-08
2.6850275e-07
1.4994422e-08
2.7000977e-07
1.0246427e-08
2.7166511e-07
5.5074992e-09
2.7343646e-07
8.0884327e-10
2.7529273e-07
-3.8239292e-09
2.7720442e-07
-8.3702249e-09
2.7914394e-07
-1.2813894e-08
2.8108582e-07
-1.7142662e-08
2.8300683e-07
-2.1347589e-08
2.8488604e-07
-2.5422572e-08
2.8670475e-07
-2.9363873e-08
2.8844651e-07
-3.3169708e-08
2.9009695e-07
-3.6839869e-08
2.9164372e-07
-4.0375398e-08
2.9307634e-07
-4.3778304e-08
2.9438606e-07
-4.705132e-08
2.9556568e-07
-5.0197698e-08
2.9660949e-07
-5.3221035e-08
2.9751302e-07
-5.6125139e-08
2.9827299e-07
-5.8913907e-08
2.9888717e-07
-6.1591239e-08
2.9935419e-07
-6.4160964e-08
2.9967353e-07
-6.6626786e-08
2.9984536e-07
-6.8992247e-08
2.9987043e-07
-7.1260693e-08
2.9975006e-07
-7.3435264e-08
2.9948598e-07
-7.5518881e-08
2.9908034e-07
-7.7514241e-08
2.985356e-07
-7.9423818e-08
2.9785451e-07
-8.1249863e-08
-8.2994404e-08
2.8290565e-07
5.5436817e-09
2.8185181e-07
1.5893069e-08
2.8025504e-07
2.5113817e-08
2.7824182e-07
3.30892e-08
2.7593994e-07
3.9769971e-08
2.7347401e-07
4.5150808e-08
2.709612e-07
4.9256671e-08
2.685077e-07
5.2135341e-08
2.6620603e-07
5.3852842e-08
2.6413339e-07
5.4489975e-08
2.6235089e-07
5.4138987e-08
2.6090357e-07
5.2900075e-08
2.5982116e-07
5.0877844e-08
2.5911925e-07
4.8177961e-08
2.5880082e-07
4.490421e-08
2.5885802e-07
4.1156082e-08
2.5927397e-07
3.7026933e-08
2.600246e-07
3.260269e-08
2.6108037e-07
2.7961053e-08
2.6240789e-07
2.3171111e-08
2.6397136e-07
1.8293297e-08
2.6573383e-07
1.3379616e-08
2.6765826e-07
8.4740613e-09
2.6970833e-07
3.6131831e-09
2.7184919e-07
-1.1732595e-09
2.7404791e-07
-5.8615955e-09
2.7627384e-07
-1.0433521e-08
2.7849885e-07
-1.4875398e-08
2.8069747e-07
-1.9177579e-08
2.8284687e-07
-2.3333789e-08
2.8492688e-07
-2.7340542e-08
2.869199e-07
-3.1196633e-08
2.8881072e-07
-3.490268e-08
2.9058642e-07
-3.8460721e-08
2.9223619e-07
-4.1873875e-08
2.9375115e-07
-4.514605e-08
2.9512416e-07
-4.8281698e-08
2.9634967e-07
-5.1285615e-08
2.9742352e-07
-5.4162773e-08
2.983428e-07
-5.6918196e-08
2.991057e-07
-5.9556846e-08
2.9971138e-07
-6.2083553e-08
3.0015983e-07
-6.4502946e-08
3.0045175e-07
-6.6819421e-08
3.0058845e-07
-6.9037101e-08
3.0057179e-07
-7.1159828e-08
3.0040404e-07
-7.3191154e-08
3.0008786e-07
-7.5134341e-08
2.9962623e-07
-7.6992371e-08
2.9902235e-07
-7.8767941e-08
2.9827966e-07
-8.0463488e-08
-8.2081181e-08
2.752592e-07
5.9428074e-09
2.7415223e-07
1.6991379e-08
2.7248998e-07
2.6773394e-08
2.7041652e-07
3.5165916e-08
2.6807567e-07
4.2119974e-08
2.6560563e-07
4.7635993e-08
2.6313423e-07
5.174945e-08
2.6077505e-07
5.4522415e-08
2.5862473e-07
5.6037837e-08
2.5676145e-07
5.6394925e-08
2.5524448e-07
5.5704738e-08
2.5411466e-07
5.4085783e-08
2.5339569e-07
5.1659765e-08
2.5309575e-07
4.8547732e-08
2.5320963e-07
4.4866813e-08
2.5372089e-07
4.0727642e-08
2.546041e-07
3.6232497e-08
2.5582701e-07
3.1474078e-08
2.5735252e-07
2.6534869e-08
2.5914049e-07
2.1486956e-08
2.611493e-07
1.6392222e-08
2.6333712e-07
1.1302825e-08
2.6566303e-07
6.2618598e-09
2.6808779e-07
1.3041627e-09
2.7057448e-07
-3.5428237e-09
2.7308888e-07
-8.2581528e-09
2.755998e-07
-1.2826503e-08
2.7807911e-07
-1.7237344e-08
2.8050187e-07
-2.1484155e-08
2.8284619e-07
-2.5563721e-08
2.8509314e-07
-2.9475493e-08
2.8722658e-07
-3.3221031e-08
2.8923295e-07
-3.6803517e-08
2.9110108e-07
-4.0227345e-08
2.9282195e-07
-4.3497764e-08
2.943885e-07
-4.6620598e-08
2.9579538e-07
-4.9601999e-08
2.9703877e-07
-5.2448263e-08
2.981162e-07
-5.5165676e-08
2.9902637e-07
-5.7760397e-08
2.9976897e-07
-6.0238373e-08
3.0034456e-07
-6.2605267e-08
3.0075446e-07
-6.4866418e-08
3.0100058e-07
-6.7026815e-08
3.0108536e-07
-6.9091068e-08
3.0101167e-07
-7.1063421e-08
3.0078273e-07
-7.2947749e-08
3.0040203e-07
-7.4747576e-08
2.9987331e-07
-7.6466087e-08
2.9920046e-07
-7.8106122e-08
2.9838755e-07
-7.9670239e-08
-8.1160714e-08
2.6781543e-07
6.3662812e-09
2.6664993e-07
1.8146365e-08
2.6491632e-07
2.8501237e-08
2.6277855e-07
3.7302572e-08
2.6039824e-07
4.4503755e-08
2.5792838e-07
5.0113957e-08
2.5550805e-07
5.4182749e-08
2.5325818e-07
5.6790355e-08
2.5127896e-07
5.8040498e-08
2.4964851e-07
5.8054359e-08
2.4842294e-07
5.6964908e-08
2.4763747e-07
5.4911484e-08
2.4730821e-07
5.2034784e-08
2.4743455e-07
4.8472503e-08
2.4800179e-07
4.4355781e-08
2.4898389e-07
3.9806545e-08
2.5034609e-07
3.4935702e-08
2.5204746e-07
2.9842094e-08
2.5404311e-07
2.4612106e-08
2.5628614e-07
1.9319781e-08
2.5872932e-07
1.4027332e-08
2.6132634e-07
8.78593e-09
2.6403291e-07
3.6366749e-09
2.6680746e-07
-1.3883353e-09
2.6961163e-07
-6.264891e-09
2.7241062e-07
-1.0975577e-08
2.7517328e-07
-1.5508741e-08
2.7787217e-07
-1.9857527e-08
2.8048344e-07
-2.4018994e-08
2.8298664e-07
-2.7993336e-08
2.8536455e-07
-3.1783192e-08
2.8760292e-07
-3.539306e-08
2.8969016e-07
-3.8828793e-08
2.9161713e-07
-4.2097182e-08
2.9337684e-07
-4.520561e-08
2.9496419e-07
-4.8161777e-08
2.9637577e-07
-5.0973476e-08
2.9760959e-07
-5.3648417e-08
2.986649e-07
-5.6194102e-08
2.9954202e-07
-5.8617722e-08
3.0024216e-07
-6.0926094e-08
3.0076728e-07
-6.3125606e-08
3.0111996e-07
-6.5222192e-08
3.0130328e-07
-6.7221327e-08
3.0132076e-07
-6.9128007e-08
3.011762e-07