/*--------------------------------*- C++ -*----------------------------------*\
| =========                 |                                                 |
| \\      /  F ield         | OpenFOAM: The Open Source CFD Toolbox           |
|  \\    /   O peration     | Version:  2312                                  |
|   \\  /    A nd           | Website:  www.openfoam.com                      |
|    \\/     M anipulation  |                                                 |
\*---------------------------------------------------------------------------*/
FoamFile
{
    version     2.0;
    format      ascii;
    arch        "LSB;label=32;scalar=64";
    class       volScalarField;
    location    "0.05";
    object      Qdot;
}
// * * * * * * * * * * * * * * * * * * * * * * * * * * * * * * * * * * * * * //

dimensions      [1 -1 -3 0 0 0 0];

internalField   nonuniform List<scalar> 
3221
(
1.3378168e-05
5.2064838e-05
0.00011261681
0.00020602115
0.0003480894
0.00056278072
0.00088413884
0.0013630907
0.0020727806
0.0031212108
0.0046636202
0.006921853
0.010218816
0.015010341
0.021947877
0.031951741
0.046317963
0.06685542
0.096077292
0.13745875
0.19575204
0.27744824
0.39131477
0.54912922
0.76659363
1.0644851
1.4700604
2.0188602
2.7567908
3.7427256
5.0515368
6.7776819
9.0393633
11.983261
15.789909
20.679656
26.91922
34.828722
44.789164
57.250164
72.737815
91.862378
115.32566
143.92765
178.57215
220.27103
270.1466
329.43182
399.46772
481.69756
577.65697
688.95947
1.3576805e-05
5.291553e-05
0.00011479223
0.00021063677
0.00035679167
0.00057830726
0.00091037155
0.0014077903
0.0021456985
0.0032403983
0.0048526915
0.0072216761
0.010685575
0.015733664
0.023058198
0.033642508
0.048869597
0.070678618
0.10176236
0.14584967
0.20805045
0.29533925
0.41715519
0.58617944
0.81932687
1.138985
1.5745485
2.1643209
2.9578003
4.0184495
5.4269597
7.2850971
9.7201455
12.889962
16.988714
22.253218
28.969854
37.482034
48.198061
61.599231
78.248024
98.796133
123.99198
154.68753
191.84395
236.53574
289.95291
353.40093
428.29783
516.16822
618.63234
737.37935
1.3943541e-05
5.4612077e-05
0.00011911501
0.00021923793
0.00037320952
0.00060796855
0.00096338129
0.0014965198
0.0022937134
0.0034807085
0.0052382352
0.0078308333
0.011642418
0.017218714
0.025343855
0.03713249
0.054152897
0.078614535
0.11359044
0.16334713
0.2337408
0.33278189
0.47131059
0.66392138
0.93009752
1.2956289
1.7943997
2.4705554
3.3811449
4.599271
6.2178381
8.353906
11.153725
14.798475
19.510656
25.56121
33.277196
43.050038
55.344113
70.705596
89.771238
113.27689
142.06544
177.09365
219.4379
270.29787
330.99817
402.98737
487.83379
587.21783
702.91869
836.7827
1.4512708e-05
5.7158173e-05
0.00012549325
0.00023265183
0.00039938503
0.00065500757
0.001045268
0.0016349714
0.0025245125
0.0038580678
0.0058471254
0.0088011344
0.013172445
0.019607505
0.029036488
0.042792518
0.062758764
0.09159219
0.13300818
0.19217335
0.27619381
0.39482047
0.56126886
0.79335278
1.1148695
1.557345
2.1622095
2.9834174
4.0906726
5.573221
7.5443336
10.146525
13.557548
17.997114
23.734439
31.096476
40.476772
52.344871
67.255978
85.860804
108.91517
137.28915
171.97531
214.09571
264.9071
325.80402
398.31915
484.12064
585.00575
702.89042
839.7924
997.79291
1.5171327e-05
6.0422519e-05
0.00013379704
0.00025091748
0.00043425907
0.00072004605
0.0011591818
0.0018319609
0.0028549312
0.0044025529
0.0067327812
0.010223167
0.015429085
0.023153923
0.034558089
0.051309259
0.075783927
0.11134143
0.16270197
0.23644877
0.3416811
0.49087956
0.70102462
0.99501315
1.4034732
1.9669948
2.7388966
3.7886105
5.2057079
7.1047195
9.6307275
12.965875
17.336681
23.022334
30.363738
39.773357
51.745688
66.868139
85.832131
109.44409
138.63595
174.47491
218.17173
271.08741
334.73747
410.79355
501.08162
607.5765
732.39209
877.76682
1046.0417
1239.6126
1.6016404e-05
6.4625042e-05
0.00014475682
0.00027441766
0.00048116524
0.00080634856
0.0013134446
0.0020999467
0.0033093695
0.00516057
0.0079767987
0.012240495
0.018661031
0.028278358
0.04259907
0.063811356
0.095035523
0.14072485
0.20715149
0.30309452
0.44074116
0.63683128
0.91419564
1.3036628
1.8464705
2.5972949
3.6279034
5.0316387
6.9287192
9.4725011
12.856731
17.323812
23.174127
30.776311
40.578457
53.119995
69.044223
89.110964
114.20926
145.36955
183.77495
230.77109
287.87412
356.77608
439.34735
537.63544
653.85972
790.40157
949.78951
1134.6787
1347.8221
1592.0097
1.7021128e-05
6.961798e-05
0.00015850576
0.00030418598
0.00054056381
0.00091868158
0.0015170866
0.0024587889
0.0039266342
0.0062018065
0.0097089498
0.015080615
0.023259538
0.035638081
0.054259321
0.08209202
0.12341884
0.18436938
0.27362846
0.40339506
0.5906524
0.85880502
1.2398021
1.7768381
2.5276991
3.568932
5.0009219
6.9539502
9.5953697
13.137975
17.849547
24.06367
32.191632
42.73544
56.301685
73.615995
95.537832
123.07517
157.3986
199.8544
251.97592
315.49277
392.33713
484.64662
594.76312
725.22702
878.76636
1058.2805
1266.8181
1507.5483
1783.723
2098.5991
1.8278007e-05
7.5880892e-05
0.00017500271
0.00034143001
0.00061657515
0.0010646466
0.0017857441
0.0029371458
0.0047613183
0.007632275
0.012117629
0.019080082
0.029813899
0.046252445
0.071253089
0.10900094
0.16558004
0.24974185
0.37394665
0.55577748
0.81977463
1.199843
1.7423094
2.50982
3.5861614
5.0821568
7.142815
9.9557751
13.761171
18.862973
25.641764
34.568894
46.221833
61.300581
80.644689
105.25058
136.28866
175.11968
223.30966
282.64283
355.13182
443.02445
548.80642
675.19935
825.15356
1001.8351
1208.6068
1449.0026
1726.6958
2045.4601
2409.1194
2821.451
1.9690559e-05
8.29686e-05
0.00019517351
0.00038774902
0.00071259765
0.0012520721
0.002136729
0.0035766233
0.0058963671
0.0096069011
0.015493187
0.02476146
0.039251358
0.06172213
0.096308048
0.14910089
0.2290239
0.34898704
0.527463
0.7906221
1.1750819
1.7315083
2.5291833
3.661747
5.2542477
7.4717141
10.529329
14.704387
20.349972
27.91042
37.938408
51.113427
68.261421
90.375047
118.63411
154.42553
199.36218
255.29978
324.35111
408.8968
511.5918
635.36701
783.42525
959.23119
1166.4946
1409.1472
1691.3116
2017.2643
2391.391
2818.1353
3301.9345
3847.0992
2.1269411e-05
9.1623356e-05
0.00021963675
0.0004447752
0.00083356746
0.0014942183
0.0026014542
0.0044357685
0.0074507167
0.012354814
0.020268723
0.032928771
0.053011334
0.084590221
0.13379771
0.20978746
0.32603208
0.50214609
0.76633494
1.1586753
1.735365
2.5742422
3.7817038
5.5013364
7.9244219
11.302432
15.961775
22.320671
30.908181
42.385159
57.56681
77.446452
103.21984
136.30933
178.38716
231.39689
297.57207
379.45123
479.88837
602.05792
749.45367
925.88091
1135.4413
1382.5105
1671.7077
2007.8582
2395.9477
2841.0704
3348.37
3922.9736
4569.9142
5293.9825
2.3128791e-05
0.00010146091
0.00024874142
0.0005155127
0.00098829906
0.0018090159
0.0032166688
0.0056026785
0.0095989835
0.016229692
0.027121492
0.044842681
0.073392378
0.11893518
0.19085375
0.30324089
0.4770137
0.74278352
1.1447564
1.7458958
2.6346371
3.933423
5.8094153
8.4875876
12.266426
17.536369
24.801013
34.700916
48.039663
65.81176
89.231664
119.76311
159.14776
209.4321
272.99135
352.54945
451.19372
572.38344
719.95131
898.09727
1111.3739
1364.6636
1663.1469
2012.2627
2417.6599
2885.1424
3420.606
4029.9702
4719.1037
5493.7453
6359.4127
7321.2277
2.5129475e-05
0.00011327792
0.00028430866
0.00060381912
0.0011846947
0.0022217787
0.0040439768
0.0072011099
0.012609557
0.021767887
0.037104814
0.062499008
0.1040959
0.17145406
0.27927782
0.4498429
0.71642912
1.1279911
1.7554593
2.70005
4.1039443
6.1637603
9.1471697
13.412882
19.434189
27.825929
39.374754
55.072019
76.14864
104.11086
140.77575
188.30499
249.23552
326.50557
423.47449
543.93527
692.11859
872.6875
1090.7224
1351.6956
1661.4367
2026.0874
2452.048
2945.9157
3514.4153
4164.3245
4902.3933
5735.2601
6669.3648
7710.8595
8865.5077
10138.487
2.7380197e-05
0.00012702686
0.00032722604
0.00071342045
0.0014379814
0.0027671242
0.0051649217
0.009423749
0.01688934
0.029809144
0.051887175
0.089136085
0.15119945
0.25327049
0.41894598
0.68427381
1.1034197
1.7564158
2.759512
4.2787005
6.546888
9.8852555
14.729116
21.658343
31.432318
45.028829
63.686197
88.947259
122.70377
167.23942
225.26937
299.97444
395.02784
514.61268
663.42893
846.68861
1070.0987
1339.8315
1662.4831
2045.02
2494.7159
3019.0789
3625.7722
4322.5273
5117.0549
6016.9514
7029.6052
8162.1023
9421.1328
10812.899
12343.014
14016.289
2.9988344e-05
0.00014309275
0.00037943949
0.00085226417
0.0017669602
0.0034963296
0.0067037023
0.012555774
0.023068745
0.04168311
0.074171252
0.1300692
0.22485224
0.38322801
0.64391886
1.0665229
1.7410903
2.8010979
4.4406862
6.9368128
10.677045
16.193402
24.202346
35.650606
51.766028
74.112076
104.64403
145.76446
200.37524
271.92335
364.43743
482.5528
631.52244
817.21279
1046.0834
1325.15
1661.9326
2064.3886
2540.8338
3099.853
3750.2024
4500.707
5360.1544
6337.1888
7440.2046
8677.2445
10055.901
11583.221
13265.623
15108.806
17117.667
19296.08
3.2930718e-05
0.00016184821
0.00044355528
0.0010280536
0.0021982398
0.0044826564
0.0088476174
0.017036898
0.032137399
0.059527975
0.10840205
0.19419475
0.34231902
0.59380104
1.0135405
1.7021043
2.8120756
4.5701142
7.3057432
11.487914
17.769797
27.042029
40.493709
59.679756
86.592432
123.73389
174.18598
241.67311
330.61398
446.15839
594.20567
781.40227
1015.1172
1303.3956
1654.8904
2078.7758
2584.6436
3182.3881
3882.0811
4693.8427
5627.7108
6693.5131
7900.7437
9258.4475
10775.114
12458.578
14315.939
16353.477
18576.596
20989.758
23596.424
26398.848
3.6194067e-05
0.00018431533
0.00052272936
0.0012525287
0.0027692881
0.005833668
0.011877378
0.023556984
0.045691555
0.086858321
0.16201622
0.29668362
0.533471
0.94192758
1.6329989
2.7795735
4.6447489
7.6194825
12.270972
19.402662
30.125955
45.942521
68.834904
101.36167
146.75222
208.99539
292.91517
404.22723
549.57139
736.5153
973.52698
1269.9156
1635.7423
2081.703
2618.9901
3259.1365
4013.8494
4894.8401
5913.6551
7081.5148
8409.1629
9906.7302
11583.616
13448.385
15508.685
17771.18
20241.498
22924.194
25822.73
28939.454
32275.582
35831.027
3.9852698e-05
0.00021073179
0.0006207624
0.0015438645
0.0035378675
0.0077138957
0.016231414
0.033211876
0.066326428
0.12954484
0.2476992
0.46387249
0.85096986
1.5292278
2.691842
4.6411594
7.8378959
12.96557
21.011505
33.364523
51.927538
79.241191
118.61259
174.24094
251.33093
356.18386
496.2564
680.17988
917.73575
1219.784
1598.1466
2065.4496
2634.9329
3320.2336
4135.1573
5093.4434
6208.5371
7493.3756
8960.1942
10620.359
12484.23
14561.045
16858.85
19384.437
22143.322
25139.734
28376.629
31855.714
35577.482
39541.254
43745.211
48186.292
4.394758e-05
0.00024287802
0.0007435545
0.0019241184
0.0045825945
0.010366754
0.022593412
0.04777415
0.098367068
0.1975802
0.387502
0.74234786
1.3893173
2.5401512
4.5370979
7.9171027
13.497751
22.487281
36.618896
58.306804
90.817613
138.44739
206.69119
302.39005
433.84003
610.84859
844.7261
1148.2095
1535.3168
2021.1362
2621.5629
3352.9945
4232.0049
5275.0114
6497.9524
7915.9896
9543.2457
11392.586
13475.448
15801.718
18379.659
21215.879
24315.339
27681.391
31315.842
35219.041
39389.965
43826.33
48524.685
53480.539
58688.439
64141.971
4.8736763e-05
0.00028055247
0.00089880426
0.0024280643
0.006024927
0.014176114
0.032059889
0.070169133
0.14913452
0.30831549
0.62049478
1.2160592
2.3211307
4.3151305
7.8138535
13.78381
23.691956
39.691802
64.842031
103.34787
160.80922
244.45413
363.33309
528.44933
752.80345
1051.3346
1440.753
1939.2718
2566.2461
3341.7439
4286.0735
5419.297
6760.7577
8328.6459
10139.623
12208.519
14548.104
17168.947
20079.347
23285.338
26790.749
30597.315
34704.828
39111.306
43813.178
48805.479
54082.012
59635.571
65458.08
71540.775
77874.345
84449.07
5.399388e-05
0.00032649826
0.001097482
0.0031021607
0.0080462262
0.019737506
0.046413841
0.10531356
0.23129704
0.49247207
1.0172445
2.0390908
3.9672059
7.4924365
13.738211
24.463969
42.323996
71.176673
116.42932
185.39282
287.61106
435.1245
642.62737
927.48468
1309.5858
1811.0244
2455.6274
3268.3562
4274.6217
5499.5599
6967.3186
8700.3973
10719.079
13040.976
15680.71
18649.718
21956.193
25605.133
29598.489
33935.391
38612.42
43623.925
48962.35
54618.565
60582.153
66841.737
73385.217
80200.024
87273.309
94592.115
102143.55
109915.29
6.0027092e-05
0.00038280344
0.0013526046
0.0040184645
0.010924292
0.028007399
0.068620132
0.16164624
0.36720069
0.80554175
1.7076768
3.4994451
6.9337258
13.286695
24.632199
44.201412
76.823016
129.42209
211.53702
335.79682
518.2912
778.76585
1140.588
1630.4504
2277.803
3114.0492
4171.5706
5482.6466
7078.3566
8987.5446
11235.916
13845.317
16833.225
20212.462
23991.121
28172.681
32756.281
37737.118
43106.929
48854.522
54966.332
61426.949
68219.656
75326.852
82730.523
90412.534
98354.939
106540.15
114951.21
123571.88
132386.43
141381.06
6.6914741e-05
0.00045153011
0.0016862627
0.0052814027
0.015094453
0.040552093
0.10370496
0.25394319
0.59708444
1.3497756
2.9356106
6.1449112
12.38421
24.040787
44.979261
81.168789
141.4116
238.10993
387.97721
612.57978
938.59426
1397.689
2025.9801
2863.0612
3950.6631
5331.077
7045.4648
9132.2039
11625.4
14553.676
17939.293
21797.658
26137.17
30959.417
36259.626
42027.333
48247.188
54899.834
61962.816
69411.459
77219.702
85360.778
93807.976
102535.08
111516.88
120729.33
130149.8
139757.13
149532.09
159457.39
169514.94
179688.5
7.468537e-05
0.00053637656
0.0021261829
0.0070503366
0.021250888
0.059965999
0.16035647
0.40864067
0.99494298
2.317399
5.1671335
11.035008
22.584691
44.328513
83.516652
151.20522
263.41037
442.19632
716.50514
1122.5301
1703.4732
2508.605
3591.6432
5008.5543
6815.0115
9063.76
11802.127
15069.903
18897.744
23306.191
28305.304
33894.873
40065.119
46797.757
54067.317
61842.591
70088.115
78765.597
87835.234
97256.899
106991.05
116999.7
127247.01
137699.72
148327.46
159102.78
170001.09
181000.07
192081.16
203232.34
214432.19
225640.78
8.3860263e-05
0.00064277697
0.002716694
0.0095691199
0.030515215
0.090666994
0.25394926
0.67405869
1.6997325
4.0769753
9.3094191
20.251472
42.006405
83.170016
157.39199
285.12663
495.33415
826.80852
1328.785
2060.5408
3089.8417
4490.2757
6337.6768
8706.036
11663.381
15268.029
19565.573
24586.845
30346.933
36845.226
44066.348
51981.79
60552.019
69728.845
79457.855
89680.763
100337.55
111368.35
122714.97
134322.17
146138.63
158117.67
170217.54
182401.71
194639.02
206903.02
219171.98
231424.65
243644.43
255847.1
268017.06
279933.14
9.4292263e-05
0.00077697283
0.0035170865
0.013219636
0.044750523
0.1403285
0.41227335
1.1404936
2.9779138
7.3489483
17.158472
37.943561
79.571983
158.49689
300.41257
542.95206
937.88933
1552.2333
2467.6848
3778.1719
5585.5255
7993.6864
11102.125
14999.358
19757.271
25426.85
32035.656
39587.105
48061.424
57417.952
67598.41
78530.731
90133.076
102317.75
114994.75
128074.89
141472.31
155106.31
168903.06
182796.33
196728.12
210648.63
224516.47
238298.05
251968.66
265508.57
278909
292148.85
305190.11
318156.72
330711.94
343273.62
0.00010630539
0.00094822169
0.0046225997
0.018613727
0.067103686
0.22258085
0.686743
1.9804646
5.3512106
13.568074
32.326967
72.487199
153.25171
306.15345
579.34852
1041.3509
1783.133
2917.5969
4575.8296
6900.1966
10034.975
14115.738
19259.049
25553.782
33055.046
41781.18
51713.84
62800.75
74960.486
88088.535
102063.92
116755.76
132029.33
147751.32
163794.08
180038.9
196378
212716.47
228972.72
245078.23
260977.58
276627.04
291995.38
307059.34
321812.91
336244.13
350388
364226.89
377526.52
390650.87
403542
416263.88
0.00012054752
0.0011687758
0.0061726757
0.026747037
0.10302315
0.36221564
1.1747338
3.5310556
9.8621226
25.642585
62.187235
140.97272
299.48414
597.98642
1125.9014
2005.9382
3394.0984
5474.3065
8447.5783
12516.92
17870.107
24663.12
33006.671
42957.439
54514.734
67622.364
82174.792
98026.267
115001.57
132907.11
151541.35
170703.96
190203.28
209861.93
229520.72
249040.63
268304.46
287216.51
305701.43
323702.29
341180.73
358110.41
374485.97
390295.11
405583.39
420301.81
434641.31
448197.35
461473.56
474429.86
486741.21
498956.5
0.00013724343
0.0014577637
0.008383831
0.039278379
0.16217076
0.6054614
2.0651177
6.4656462
18.635239
49.565009
121.97448
278.56554
592.45485
1177.9568
2198.6557
3869.2616
6448.5828
10222.967
15482.076
22490.797
31462.255
42536.457
55767.389
71119.65
88473.903
107639.21
128369.72
150383.14
173378.94
197054.64
221119.27
245303.61
269367.26
293102.72
316336.9
338931.51
360781.68
381810.98
401973.08
421239.64
439611.57
457085.13
473719.68
489462.62
504564.47
518635.58
532273.32
545291.93
557478.67
569407.81
580794.69
591827.36
0.00015663999
0.0018397405
0.011601879
0.059043027
0.26209667
1.0406751
3.7331645
12.159298
36.082261
97.867668
243.50243
558.03872
1183.3464
2333.4637
4301.2256
7450.556
12192.127
18944.875
28089.993
39926.322
54635.629
72262.973
92713.837
115766.34
141094.54
168298.1
196933.56
226543.68
256682.49
286934.74
316929.52
346348.3
374927.93
402462.13
428797.17
453828.29
477494.35
499767.03
520658.39
540181.23
558423.57
575356.76
591274.15
605720.77
619474.63
632352.45
644161.99
655479.65
666029.19
676064.53
685594.19
694724.73
0.00017994893
0.0023543618
0.016380602
0.0909907
0.43554986
1.841197
6.9428168
23.480427
71.525479
197.09945
493.72949
1130.403
2379.5214
4634.1188
8402.9783
14277.071
22869.553
34740.328
50321.28
69858.21
93379.523
120694.57
151418.05
185012.59
220840.5
258216.2
296453.32
334902.61
372978.87
410180.3
446094
480398.21
512857.72
543316.67
571690.89
597951.53
622126.34
644257.8
664477.06
682793.07
699562.68
714371.04
728132.22
740262.27
751348.08
761576.51
770768.68
779235.12
787005.55
794228.64
800987.73
807385.65
0.00020801537
0.0030562722
0.023636493
0.14400955
0.7452862
3.3562077
13.28722
46.536408
144.97789
404.09927
1014.2866
2308.8278
4802.1325
9196.5215
16341.044
27140.978
42434.771
62867.321
88790.031
120207.95
156779.76
197863.38
242592.21
289964.44
338930.63
388468.36
437641.56
485635.47
531778.77
575549.34
616569.62
654591.55
689485.62
721214.6
749828.63
775419.81
798176.83
818181.72
835881.21
850915.53
864300.55
875489.67
885293.12
893603.81
900683.39
906771.44
911935.44
916374.13
920207.3
923573.42
926584.19
929350.56
0.00024183825
0.0040330346
0.034922653
0.23449736
1.3150529
6.3082893
26.168713
94.583745
300.00043
841.51108
2105.2666
4740.0173
9694.1936
18177.179
31530.447
51030.01
77670.283
111987.64
153965.56
203034.62
258154.12
317946.42
380850.17
445268.36
509685.81
572757.02
633357.13
690603.17
743851.87
792682.74
836872.53
876357.86
911218.44
941605.98
967799.69
990015.07
1008793.9
1023919.4
1036552.5
1046220.4
1053887.8
1059456.4
1063424.3
1065951
1067302.5
1067729.1
1067394.1
1066483.2
1065149.6
1063538.3
1061773.9
1059969.7
0.00028295809
0.0054171486
0.05293658
0.39360741
2.3961512
12.234024
53.023369
196.90978
632.49335
1775.2187
4401.3078
9748.5867
19508.945
35663.163
60173.881
94618.057
139869.33
195918.42
261864.23
336054.27
416318.32
500235.94
585377.98
669501.13
750677.03
827360.92
898408.28
963055.63
1020876
1071723.9
1115701.2
1153052.4
1184205
1209528.1
1229725.9
1244889.7
1256222.1
1263561.8
1268057.4
1269646.1
1269004.8
1266411.6
1262393.5
1257091.9
1250839.8
1243922.9
1236537.3
1228870.8
1221087.8
1213337.4
1205748.5
1198421.6
0.00033375225
0.007421371
0.082504439
0.68240085
4.5146611
24.491289
110.46716
419.24009
1355.3853
3782.3259
9236.7354
20014.549
39001.82
69225.149
113236.95
172538.24
247224.59
335938.99
436101.83
544318.81
656836.5
769958.03
880355.13
985262.3
1082564.2
1170800.2
1249105.9
1317128.4
1374915.1
1422811.6
1461470.8
1491518.1
1513987.3
1529241.5
1538617.3
1542760.6
1542453.3
1538217.1
1531174.2
1521370.3
1509544.5
1496149.8
1481648.2
1466333.3
1450521.6
1434490.2
1418448.7
1402579.8
1387042.1
1371979.8
1357526.6
1343739.3
0.00039743832
0.010390103
0.13253366
1.224534
8.8070075
50.619462
236.40706
911.03456
2943.9018
8112.0446
19388.868
40870.919
77188.332
132513.7
209517.76
308656.16
428000.14
563594.85
710151
861843.34
1013019.8
1158717.4
1294957.9
1418850.1
1528554.9
1623170.7
1702549.1
1767132.1
1817762.1
1855467.3
1881806.8
1897587.2
1904751.1
1904177.5
1897167.5
1885113.7
1868388.3
1848227
1825669.4
1800987.1
1774824.3
1747755.2
1720241.6
1692623.9
1665207.9
1638250.7
1611934.1
1586416.4
1561828.3
1538294
1515985.7
1494843.7
0.00047750322
0.014897653
0.22001854
2.2792722
17.808136
108.00158
518.97359
2015.67
6460.1844
17449.646
40555.11
82708.872
150712.8
249391.05
380149.64
540471.57
724413.98
923774.2
1129483.6
1332841
1526382.3
1704343.9
1862776.9
1999418.1
2113432.9
2205148.7
2275667
2326679.4
2360206.5
2377888.6
2382636.2
2375954.6
2360137.2
2336296.5
2306572
2272133.5
2233805.3
2192859.7
2150784.7
2107445.8
2063569.3
2019854
1976718.8
1934481.7
1893414.8
1853740.7
1815560.6
1778988.7
1744097.8
1710948.8
1679901.9
1650584.6
0.00058018561
0.021940415
0.37855014
4.4104143
37.360349
237.75537
1166.4865
4527.4241
14271.554
37500.954
84200.812
165263.01
289370.38
460137.43
674763.58
924564.47
1196895.9
1477588.3
1753127.1
2012157.5
2246229.5
2449920.8
2620535.5
2757578.7
2862174
2936715.3
2984086.1
3007705.3
3010827.7
2996718
2968934
2929489.6
2881293
2825894.6
2766451.5
2703325.3
2637548.1
2570462.2
2504957.1
2439012.6
2373911.1
2310569.9
2249214.8
2190076.2
2133360.4
2079262.3
2027702
1978753.2
1932392.7
1888449.3
1848003.7
1809800.8
0.00071447549
0.033289877
0.67719441
8.8919185
81.379549
539.52071
2678.1463
10288.774
31615.462
80192.516
172850.68
324895.69
544654.98
830152.57
1169239.7
1542611.2
1928056
2304368.8
2654028.7
2964454.3
3228104.9
3441865.8
3606084.4
3723505.6
3798228.1
3835703.1
3840943.3
3819558
3776715.1
3715989.1
3641951.2
3558751.2
3468237.9
3371635.9
3275385
3176869
3077519.7
2979829.6
2885088.1
2792757.9
2703408.3
2617593.9
2535517.4
2457289.7
2383011.6
2312945.9
2246585.3
2184059.8
2125245.7
0.00089290997
0.052215863
1.2640014
18.720483
184.12021
1260.1777
6262.448
23566.573
69936.54
169922.9
349490.7
626305.57
1002118.6
1461146.4
1974393.5
2506995.5
3025326.4
3501899.5
3917605.6
4261780.5
4530946.8
4727065.2
4855760
4924688.4
4941595.5
4916218.6
4856465.7
4768624.4
4659770.5
4536653.4
4401341.9
4262469.6
4119284.7
3972307.6
3829820.5
3688590.1
3550270.3
3416712
3288728.1
3166195.5
3049311.6
2938288.4
2833146.1
2733793.9
2640114
2552836.7
2470331.8
2393172.5
2321009
0.001133429
0.085023335
2.4711076
41.246566
432.6735
3023.5491
14862.805
54176.455
153803.83
355282.77
693403.41
1180136.1
1797775.8
2503987.5
3244164.6
3964455.1
4620975
5183984.5
5637989.3
5979366
6213011.4
6349231.5
6401305.8
6383195
6308032.8
6188262.5
6033971.4
5856349.4
5659691.9
5457458.4
5246529.9
5036953.5
4827974.9
4621236.7
4426427.7
4235286.4
4051789.7
3877383.8
3712165.8
3555919
3408498.2
3269756.2
3139435.1
3017152.2
2902164.2
2797039.1
2696977.5
2604334.5
2518069.7
0.0014685426
0.14439996
5.0811643
95.299102
1055.4955
7431.8493
35657.587
124426.44
334744.23
729962.33
1345192.1
2167339.2
3137576.2
4171089.5
5180931.1
6095783.1
6868162.7
7474676.8
7911780.4
8189771.2
8326872.4
8344833.9
8267328
8115559.8
7903938.1
7653750.2
7373334.7
7081013.9
6775641
6471742.2
6166758.7
5876852.9
5590784.8
5316269.8
5057461.1
4810750.7
4577231.4
4357495
4151329.4
3958211.7
3777594.5
3608926.8
3451610.7
3305001.3
3168465.2
3042368.2
2923904.1
2815826.9
2714906.9
0.0019456539
0.25722184
11.039082
231.3077
2669.7714
18650.743
86081.854
284111.16
717705.83
1467888.8
2543306.2
3869442.9
5316909.2
6744681.9
8034849.1
9109546
9932071.9
10498977
10829588
10955868
10914064
10740925
10468831
10123719
9728942.3
9310388.3
8874035
8433430.1
7992139.1
7573695.2
7160271.7
6770591.7
6398774.8
6047552.8
5718658.8
5410082
5121431.1
4852304.4
4601889.9
4369166.4
4153090.3
3952642.6
3766820
3594645.4
3435233.9
3288026.8
3151390
3025689.1
2908662.5
0.0026472666
0.48372475
25.463257
590.58879
6988.0702
47589.672
208057.07
641711.89
1509026.4
2878086.8
4672223.9
6700608.2
8734457.4
10575972
12093968
13228342
13975922
14370533
14466149
14324684
14002715
13545072
13004314
12404847
11782884
11148139
10511176
9904525.9
9306756.8
8745558
8211744
7712128.7
7244116.2
6807764.5
6402761
6026976
5678822.2
5356828.5
5059382.4
4784801.6
4531443.9
4297750.1
4082246.6
3883553.7
3700418.7
3531748.8
3376127.2
3232916.1
3100592.1
0.0037179403
0.96778699
62.680744
1587.4662
18873.201
122860.28
500717.07
1426392
3097813.5
5482765
8317472
11232689
13892140
16069783
17662741
18667386
19142831
19177686
18873640
18322247
17590012
16749887
15863478
14954877
14032721
13148581
12283687
11468934
10697688
9979560
9310179
8690415.8
8117321.6
7588706.6
7102257.9
6654857.1
6243650.8
5865997.8
5519330.8
5201169.7
4909176.9
4641182
4395181.1
4169334.9
3961974.4
3771581.5
3596613.7
3435901.8
3288058.4
0.0054258509
2.078764
165.53141
4491.6294
52385.729
319106.23
1192817.1
3103517.9
6181449.2
10113224
14312911
18198926
21371681
23650552
25028641
25607053
25535749
24976569
24069640
22930895
21661022
20348699
19018203
17725886
16474825
15278931
14156855
13115137
12149200
11260099
10442794
9693864.7
9008380.5
8381752.6
7809530.5
7287097.9
6810166
6374805.4
5977365.3
5614455.2
5282956.9
4980025.3
4703074.4
4449761.6
4217971.8
4005784.2
3811397.5
3633268.4
3469912.5
0.0082977302
4.8455475
471.41133
13360.692
148668.01
828265.84
2793848
6570996.6
11933534
18000157
23753014
28457018
31779579
33709055
34419723
34162983
33210671
31763967
30015754
28119473
26198561
24274835
22443557
20692025
19045877
17517739
16109918
14820936
13643206
12570970
11595951
10710607
9907120.5
9178199.2
8517046.7
7917209.4
7372785
6878437.1
6429325.4
6021058
5649666.2
5311576.8
5003580.7
4722799.2
4466650.7
4232807.7
4019154.5
3823823.1
3645137
0.013444972
12.413278
1454.5883
41663.903
428385.1
2130658.3
6384457.3
13452869
22182474
30810580
37934019
42894588
45657787
46534952
45959435
44378972
42129705
39469216
36651151
33855388
31094466
28507930
26059840
23798964
21724834
19833284
18116287
16563223
15160534
13895713
12755807
11728846
10803532
9969555.7
9217558.3
8539006.4
7926229.7
7372380.8
6871345.5
6417661.3
6006454.8
5633385.2
5294589.5
4986630.8
4706447
4451295.6
4218720.9
4006544.6
3812858.3
0.023436341
35.468594
4880.9313
135486.78
1241425.9
5378224.7
14112979
26456228
39514179
50558889
58190315
62273825
63369339
62245527
59661165
56145929
52173636
47985150
43919229
39973837
36331050
32922102
29817833
27006727
24471295
22192040
20148222
18318655
16681868
15218106
13908815
12737201
11688055
10747780
9904271.7
9146743.3
8465636.2
7852512.1
7299921.1
6801281.8
6350780
5943280.5
5574247.5
5239672.6
4936007.4
4660087.6
4409104.6
4180577.1
3972348.8
0.044874846
114.96089
17837.607
455335.63
3573618.8
13168864
29902242
49644203
67149519
79317565
85615522
87033271
84981973
80783006
75298777
69242607
63176743
57216122
51579005
46454299
41724174
37466918
33659037
30264201
27243726
24560155
22178078
20064428
18188476
16522645
15042145
13725007
12551806
11505462
10570986
9735219.1
8986636.4
8315155.7
7711954.5
7169304.4
6680431.1
6239391.9
5840970
5480582
5154194.7
4858220.7
4589489.2
4345227.5
4123024.1
0.097174645
430.62502
70810.934
1559965.8
10064155
30881156
60154334
88313766
1.0842388e+08
1.1869997e+08
1.2070555e+08
1.1709167e+08
1.1027414e+08
1.0170714e+08
92502320
83494883
74885013
66814496
59603238
53043213
47215579
42062404
37519660
33520415
30001316
26904819
24179365
21778989
19662811
17794961
16144004
14682551
13386768
12235967
11212191
10299851
9485412.6
8757126.1
8104783
7519500.9
6993541.5
6520154.8
6093445
5708258.1
5360086.5
5044927.9
4759236.4
4499964.9
4264443.3
0.24797589
1899.1173
302509.68
5345191.2
27236623
68415920
1.1382529e+08
1.4805796e+08
1.6578747e+08
1.6919468e+08
1.6301899e+08
1.5187421e+08
1.3840921e+08
1.2437454e+08
1.1097054e+08
98410003
86895735
76742265
67643097
59668901
52703359
46629652
41337933
36726720
32705572
29195413
26127596
23442624
21088952
19022135
17203878
15601243
14185906
12933518
11823134
10836719
9958727
9175746
8476190.7
7850035.6
7288590.2
6784309
6330628.7
5921836.3
0.79010028
10010.357
1365110.9
17869821
69426652
1.4122189e+08
2.0082014e+08
2.3275414e+08
2.3949671e+08
2.2956611e+08
2.1125766e+08
1.8981186e+08
1.6824982e+08
1.4828012e+08
1.2994006e+08
1.1343286e+08
99145259
86521965
75613414
66203303
58090637
51094653
45056671
39838565
35321565
31404390
28000919
25037894
22452923
20192919
18212683
16473725
14943242
13593251
12399848
11342583
10403931
9568848.7
8824405.3
8159459.3
7564393.5
7030889.4
6551735.5
6120680
3.4047601
63431.868
6311031.6
56556666
1.6315724e+08
2.6797926e+08
3.2785935e+08
3.4183759e+08
3.2650322e+08
2.9708835e+08
2.6254471e+08
2.2885302e+08
1.9895019e+08
1.7226624e+08
1.4860975e+08
1.2848881e+08
1.1097462e+08
96058059
83355848
72529541
63290010
55391253
48625213
42816795
37818815
33507876
29780531
26549903
23742879
21297855
19162844
17293916
15653884
14211224
12939153
11814877
10818953
9934765.5
9148083.8
8446694
7820089.4
7259210.2
6756223.7
6304367.9
22.068838
476951.73
28589077
1.6369605e+08
3.4596776e+08
4.6193648e+08
4.9255394e+08
4.6811269e+08
4.2104703e+08
3.6676902e+08
3.1307638e+08
2.6760263e+08
2.2877073e+08
1.9515068e+08
1.6691983e+08
1.4268111e+08
1.2228411e+08
1.0515895e+08
90732807
78546931
68226682
59463138
52000673
45628446
40171807
35486008
31450886
27966431
24949178
22329313
20048312
18057009
16314013
14784399
13438635
12251686
11202279
10272301
9446289.1
8711010.7
8055116.5
7468846.2
6943779.9
6472675.7
244.91587
4066686.6
1.1965344e+08
4.1747553e+08
6.4885461e+08
7.1683294e+08
6.7906977e+08
5.9921658e+08
5.1409047e+08
4.3191776e+08
3.6071019e+08
3.0345159e+08
2.5595063e+08
2.1698067e+08
1.8371171e+08
1.5588755e+08
1.328469e+08
1.1366847e+08
97632698
84173971
72840201
63264875
55148540
48247088
42360177
37323022
32999737
29277931
26064362
23281460
20864519
18759432
16920835
15310602
13896606
12651705
11552911
10580702
9718459.9
8952001.3
8269189
7659608.5
7114293.6
6625554.6
5293.6859
35824805
4.3094064e+08
9.0424093e+08
1.059542e+09
9.9682909e+08
8.5964333e+08
7.2005406e+08
5.9429724e+08
4.8813522e+08
4.0295746e+08
3.3383807e+08
2.8080555e+08
2.3641308e+08
1.9874e+08
1.6789412e+08
1.4249916e+08
1.2147095e+08
1.0397216e+08
89349414
77084925
66762087
58042703
50652770
44368623
39007155
34418027
30477427
27083060
24150164
21608300
19398768
17472520
15788457
14312047
13014196
11870326
10859614
9964375.8
9169548.2
8462268.4