/*--------------------------------*- C++ -*----------------------------------*\
| =========                 |                                                 |
| \\      /  F ield         | OpenFOAM: The Open Source CFD Toolbox           |
|  \\    /   O peration     | Version:  2312                                  |
|   \\  /    A nd           | Website:  www.openfoam.com                      |
|    \\/     M anipulation  |                                                 |
\*---------------------------------------------------------------------------*/
FoamFile
{
    version     2.0;
    format      ascii;
    arch        "LSB;label=32;scalar=64";
    class       volVectorField;
    location    "0.05";
    object      U;
}
// * * * * * * * * * * * * * * * * * * * * * * * * * * * * * * * * * * * * * //

dimensions      [0 1 -1 0 0 0 0];

internalField   nonuniform List<vector> 
3221
(
(1.1014538 -0.011922597 0)
(1.1016368 -0.026541184 0)
(1.1002439 -0.03616846 0)
(1.097796 -0.043082948 0)
(1.0946993 -0.048439843 0)
(1.0911241 -0.052854609 0)
(1.0871605 -0.056707523 0)
(1.0828798 -0.060268253 0)
(1.0783464 -0.063747229 0)
(1.073619 -0.067318029 0)
(1.0687529 -0.071126954 0)
(1.0638007 -0.075297464 0)
(1.0588134 -0.079933019 0)
(1.0538396 -0.08511883 0)
(1.048926 -0.090925125 0)
(1.0441169 -0.097409345 0)
(1.0394542 -0.10461792 0)
(1.0349766 -0.11258777 0)
(1.0307201 -0.12134747 0)
(1.026717 -0.13091812 0)
(1.0229961 -0.141314 0)
(1.0195824 -0.15254318 0)
(1.0164969 -0.16460796 0)
(1.0137568 -0.17750533 0)
(1.0113751 -0.19122739 0)
(1.0093609 -0.20576173 0)
(1.0077194 -0.2210918 0)
(1.006452 -0.23719721 0)
(1.0055564 -0.25405418 0)
(1.0050266 -0.27163588 0)
(1.0048534 -0.28991268 0)
(1.0050244 -0.30885249 0)
(1.0055241 -0.32842101 0)
(1.0063347 -0.34858203 0)
(1.0074353 -0.36929769 0)
(1.0088033 -0.39052871 0)
(1.0104139 -0.41223465 0)
(1.0122406 -0.43437409 0)
(1.0142554 -0.45690486 0)
(1.0164291 -0.47978423 0)
(1.0187316 -0.50296905 0)
(1.0211321 -0.52641593 0)
(1.0235991 -0.55008142 0)
(1.0261011 -0.57392207 0)
(1.0286062 -0.5978946 0)
(1.031083 -0.62195602 0)
(1.0335001 -0.64606367 0)
(1.0358267 -0.67017539 0)
(1.0380328 -0.69424954 0)
(1.0400888 -0.71824515 0)
(1.041966 -0.74212218 0)
(1.0436385 -0.76584154 0)
(1.1025973 -0.0038803101 0)
(1.1043267 -0.010223813 0)
(1.1039842 -0.015085234 0)
(1.1020417 -0.018748922 0)
(1.0991255 -0.021579438 0)
(1.0955545 -0.023877124 0)
(1.091496 -0.025884723 0)
(1.0870636 -0.027808409 0)
(1.0823474 -0.029829131 0)
(1.0774237 -0.032106235 0)
(1.0723596 -0.034778051 0)
(1.0672164 -0.03796244 0)
(1.0620521 -0.041758789 0)
(1.0569216 -0.046245527 0)
(1.0518749 -0.051486521 0)
(1.0469595 -0.057532314 0)
(1.0422192 -0.064421733 0)
(1.0376943 -0.072183432 0)
(1.0334214 -0.080837201 0)
(1.0294329 -0.090394958 0)
(1.0257574 -0.10086155 0)
(1.0224191 -0.11223543 0)
(1.0194382 -0.12450924 0)
(1.0168303 -0.13767038 0)
(1.0146072 -0.15170148 0)
(1.0127763 -0.16658091 0)
(1.0113408 -0.18228316 0)
(1.0103002 -0.19877936 0)
(1.0096501 -0.21603758 0)
(1.0093824 -0.23402327 0)
(1.0094857 -0.2526996 0)
(1.0099452 -0.27202776 0)
(1.0107435 -0.29196731 0)
(1.0118601 -0.31247641 0)
(1.0132724 -0.33351215 0)
(1.0149554 -0.35503073 0)
(1.0168823 -0.37698774 0)
(1.0190248 -0.39933833 0)
(1.021353 -0.4220374 0)
(1.0238361 -0.44503982 0)
(1.0264422 -0.4683005 0)
(1.0291392 -0.4917746 0)
(1.0318943 -0.51541761 0)
(1.0346746 -0.53918548 0)
(1.0374474 -0.56303471 0)
(1.0401802 -0.58692241 0)
(1.042841 -0.61080641 0)
(1.0453983 -0.6346453 0)
(1.0478214 -0.65839847 0)
(1.0500805 -0.68202617 0)
(1.0521463 -0.70548955 0)
(1.0539923 -0.72875068 0)
(1.102662 -0.00065025658 0)
(1.1056174 -0.0017745702 0)
(1.1064203 -0.0027507581 0)
(1.1054499 -0.003522202 0)
(1.1032446 -0.0041269806 0)
(1.1001493 -0.0046481083 0)
(1.0963879 -0.0051928961 0)
(1.0921256 -0.005884716 0)
(1.0874936 -0.0068546561 0)
(1.082599 -0.00823211 0)
(1.0775319 -0.010136952 0)
(1.0723691 -0.012674289 0)
(1.0671845 -0.015931302 0)
(1.0620456 -0.019982877 0)
(1.0570087 -0.024887339 0)
(1.0521271 -0.030689204 0)
(1.0474501 -0.037421298 0)
(1.0430217 -0.045106201 0)
(1.0388812 -0.053757385 0)
(1.035063 -0.063380168 0)
(1.0315964 -0.073972559 0)
(1.0285057 -0.085525996 0)
(1.0258106 -0.098026021 0)
(1.0235256 -0.11145291 0)
(1.0216606 -0.12578224 0)
(1.0202207 -0.14098547 0)
(1.0192068 -0.15703046 0)
(1.0186154 -0.1738819 0)
(1.0184388 -0.1915018 0)
(1.0186657 -0.20984987 0)
(1.0192812 -0.22888393 0)
(1.0202673 -0.24856024 0)
(1.0216026 -0.26883382 0)
(1.0232636 -0.28965875 0)
(1.025224 -0.31098844 0)
(1.0274556 -0.33277585 0)
(1.0299285 -0.35497372 0)
(1.0326113 -0.37753477 0)
(1.0354715 -0.40041186 0)
(1.0384754 -0.42355817 0)
(1.0415891 -0.4469273 0)
(1.0447779 -0.47047342 0)
(1.0480074 -0.49415136 0)
(1.0512429 -0.5179167 0)
(1.0544501 -0.54172582 0)
(1.0575954 -0.56553599 0)
(1.0606455 -0.58930543 0)
(1.0635682 -0.61299331 0)
(1.0663322 -0.6365598 0)
(1.0689069 -0.65996611 0)
(1.0712631 -0.68317441 0)
(1.0733737 -0.70614794 0)
(1.1028285 0.001911176 0)
(1.1065302 0.0053191076 0)
(1.1082594 0.0081663807 0)
(1.1082337 0.010526813 0)
(1.1068645 0.012470922 0)
(1.1044559 0.014034266 0)
(1.1012369 0.015207539 0)
(1.0973949 0.015940618 0)
(1.0930869 0.016154937 0)
(1.0884454 0.015758287 0)
(1.0835847 0.0146574 0)
(1.0786067 0.012766816 0)
(1.0735966 0.010014502 0)
(1.0686297 0.0063382907 0)
(1.0637792 0.0016908819 0)
(1.0591083 -0.0039621456 0)
(1.054673 -0.010644027 0)
(1.0505225 -0.018368041 0)
(1.0466999 -0.027138503 0)
(1.043242 -0.036951716 0)
(1.0401794 -0.047796807 0)
(1.0375368 -0.059656506 0)
(1.0353329 -0.072507848 0)
(1.033581 -0.086322852 0)
(1.0322885 -0.10106915 0)
(1.0314579 -0.11671059 0)
(1.0310866 -0.13320783 0)
(1.0311674 -0.15051874 0)
(1.0316887 -0.16859897 0)
(1.0326349 -0.18740234 0)
(1.0339866 -0.20688123 0)
(1.0357213 -0.22698695 0)
(1.0378133 -0.24767007 0)
(1.0402345 -0.26888066 0)
(1.0429544 -0.29056863 0)
(1.0459408 -0.31268385 0)
(1.0491597 -0.33517646 0)
(1.0525759 -0.35799698 0)
(1.0561536 -0.38109647 0)
(1.0598559 -0.40442671 0)
(1.0636459 -0.42794026 0)
(1.0674864 -0.45159058 0)
(1.0713407 -0.47533209 0)
(1.075172 -0.49912028 0)
(1.0789444 -0.52291169 0)
(1.0826228 -0.54666402 0)
(1.0861727 -0.5703361 0)
(1.0895612 -0.59388794 0)
(1.0927561 -0.61728071 0)
(1.0957267 -0.64047678 0)
(1.0984433 -0.66343965 0)
(1.100879 -0.686134 0)
(1.1029867 0.0040510471 0)
(1.1072731 0.011427918 0)
(1.1097685 0.017822609 0)
(1.1105881 0.023261728 0)
(1.1100451 0.027832311 0)
(1.1083924 0.031615355 0)
(1.1058417 0.034653009 0)
(1.1025811 0.036942726 0)
(1.0987784 0.038446516 0)
(1.0945819 0.039105626 0)
(1.0901229 0.038854076 0)
(1.0855181 0.037628102 0)
(1.0808703 0.035370782 0)
(1.076271 0.032039265 0)
(1.0718027 0.027600971 0)
(1.0675383 0.022034289 0)
(1.0635417 0.015328098 0)
(1.0598682 0.0074808405 0)
(1.0565653 -0.0015004494 0)
(1.0536726 -0.011601057 0)
(1.0512221 -0.022799427 0)
(1.0492385 -0.035067949 0)
(1.0477396 -0.04837371 0)
(1.0467367 -0.062679195 0)
(1.0462345 -0.07794297 0)
(1.0462318 -0.094120352 0)
(1.0467221 -0.11116394 0)
(1.0476935 -0.12902417 0)
(1.0491296 -0.14764978 0)
(1.0510095 -0.16698828 0)
(1.0533087 -0.18698633 0)
(1.0559992 -0.20759012 0)
(1.0590503 -0.22874564 0)
(1.0624284 -0.25039898 0)
(1.0660981 -0.27249656 0)
(1.0700224 -0.29498535 0)
(1.0741627 -0.31781301 0)
(1.0784797 -0.34092811 0)
(1.0829334 -0.36428017 0)
(1.0874836 -0.38781983 0)
(1.0920901 -0.41149893 0)
(1.096713 -0.43527051 0)
(1.1013128 -0.45908897 0)
(1.1058509 -0.48290999 0)
(1.1102895 -0.50669063 0)
(1.1145921 -0.53038932 0)
(1.1187233 -0.55396582 0)
(1.1226492 -0.5773813 0)
(1.1263373 -0.60059823 0)
(1.1297566 -0.62358042 0)
(1.1328776 -0.64629296 0)
(1.1356734 -0.66870224 0)
(1.1031506 0.0058944239 0)
(1.1079512 0.016803862 0)
(1.1111083 0.026467183 0)
(1.1126804 0.034847411 0)
(1.1129143 0.042010197 0)
(1.1120205 0.048041509 0)
(1.1101884 0.053002055 0)
(1.1075982 0.056913644 0)
(1.1044196 0.059764035 0)
(1.1008088 0.061519309 0)
(1.096908 0.062136465 0)
(1.0928463 0.061572848 0)
(1.0887396 0.059791978 0)
(1.084692 0.056767499 0)
(1.0807961 0.052483249 0)
(1.0771338 0.046933264 0)
(1.0737762 0.040121321 0)
(1.0707844 0.032060121 0)
(1.0682098 0.022770384 0)
(1.0660943 0.012279997 0)
(1.0644708 0.00062317652 0)
(1.0633636 -0.012160353 0)
(1.0627888 -0.02602614 0)
(1.0627548 -0.040925772 0)
(1.0632626 -0.0568076 0)
(1.0643069 -0.073617379 0)
(1.0658759 -0.091298854 0)
(1.0679523 -0.10979432 0)
(1.0705138 -0.12904513 0)
(1.0735337 -0.14899213 0)
(1.0769811 -0.16957604 0)
(1.080822 -0.19073778 0)
(1.0850196 -0.21241878 0)
(1.0895345 -0.23456121 0)
(1.0943256 -0.25710821 0)
(1.0993506 -0.28000401 0)
(1.1045659 -0.30319413 0)
(1.1099276 -0.32662548 0)
(1.1153916 -0.35024642 0)
(1.1209139 -0.37400687 0)
(1.1264508 -0.39785831 0)
(1.1319597 -0.42175384 0)
(1.1373987 -0.44564819 0)
(1.142727 -0.46949771 0)
(1.1479054 -0.49326036 0)
(1.152896 -0.51689571 0)
(1.1576627 -0.54036486 0)
(1.162171 -0.56363048 0)
(1.1663884 -0.58665671 0)
(1.1702839 -0.60940914 0)
(1.1738285 -0.63185474 0)
(1.1769958 -0.65396188 0)
(1.1033312 0.0075437906 0)
(1.1086198 0.021665677 0)
(1.1123772 0.03436091 0)
(1.1146325 0.045530049 0)
(1.1155915 0.055203124 0)
(1.1154344 0.063450864 0)
(1.1143325 0.070332713 0)
(1.1124573 0.075878319 0)
(1.1099769 0.080088826 0)
(1.1070513 0.082946746 0)
(1.1038299 0.084426952 0)
(1.100451 0.084505286 0)
(1.0970405 0.083163985 0)
(1.093712 0.080394557 0)
(1.0905669 0.076198539 0)
(1.0876946 0.070587361 0)
(1.0851723 0.063581705 0)
(1.0830654 0.055210658 0)
(1.0814281 0.045510789 0)
(1.0803036 0.034525242 0)
(1.0797244 0.022302834 0)
(1.0797134 0.0088971925 0)
(1.0802836 -0.0056341029 0)
(1.0814396 -0.021230344 0)
(1.0831776 -0.037828439 0)
(1.0854866 -0.055363558 0)
(1.0883487 -0.07376977 0)
(1.0917401 -0.092980606 0)
(1.0956315 -0.11292955 0)
(1.0999892 -0.13355045 0)
(1.1047754 -0.15477792 0)
(1.1099491 -0.17654757 0)
(1.1154666 -0.19879634 0)
(1.1212822 -0.22146264 0)
(1.1273488 -0.24448655 0)
(1.1336181 -0.26780993 0)
(1.1400414 -0.29137653 0)
(1.1465699 -0.31513201 0)
(1.1531553 -0.33902404 0)
(1.1597497 -0.36300228 0)
(1.1663064 -0.3870184 0)
(1.1727798 -0.41102602 0)
(1.1791258 -0.43498073 0)
(1.185302 -0.45884003 0)
(1.1912678 -0.48256329 0)
(1.1969846 -0.50611166 0)
(1.2024156 -0.52944804 0)
(1.2075264 -0.55253702 0)
(1.2122848 -0.57534478 0)
(1.2166603 -0.59783907 0)
(1.2206249 -0.61998908 0)
(1.2241532 -0.64176543 0)
(1.1035326 0.0090638232 0)
(1.1093089 0.026167836 0)
(1.113635 0.041706095 0)
(1.1165268 0.055522614 0)
(1.1181677 0.067607862 0)
(1.11872 0.078007978 0)
(1.1183434 0.086770072 0)
(1.1172034 0.093921104 0)
(1.1154673 0.099466779 0)
(1.1132978 0.10339936 0)
(1.1108499 0.10570705 0)
(1.1082689 0.10638139 0)
(1.1056884 0.10542186 0)
(1.1032296 0.10283803 0)
(1.1010007 0.098649967 0)
(1.0990967 0.09288781 0)
(1.097599 0.085590845 0)
(1.0965758 0.076806457 0)
(1.0960824 0.066589049 0)
(1.0961616 0.05499898 0)
(1.0968439 0.042101549 0)
(1.0981489 0.027965989 0)
(1.1000852 0.012664535 0)
(1.1026519 -0.0037284326 0)
(1.1058388 -0.021137178 0)
(1.1096279 -0.039485341 0)
(1.1139937 -0.05869656 0)
(1.1189045 -0.078695028 0)
(1.124323 -0.099405968 0)
(1.1302075 -0.12075603 0)
(1.1365121 -0.14267361 0)
(1.1431883 -0.16508911 0)
(1.1501848 -0.18793512 0)
(1.157449 -0.2111466 0)
(1.1649272 -0.23466095 0)
(1.1725651 -0.25841807 0)
(1.1803087 -0.28236041 0)
(1.1881043 -0.30643299 0)
(1.1958994 -0.3305833 0)
(1.2036425 -0.35476135 0)
(1.2112839 -0.37891956 0)
(1.2187756 -0.4030127 0)
(1.2260717 -0.42699778 0)
(1.2331284 -0.45083402 0)
(1.2399043 -0.47448272 0)
(1.2463605 -0.49790715 0)
(1.2524604 -0.52107249 0)
(1.2581701 -0.54394569 0)
(1.263458 -0.56649541 0)
(1.2682951 -0.58869192 0)
(1.2726545 -0.61050698 0)
(1.2765126 -0.63191379 0)
(1.103757 0.010496899 0)
(1.1100355 0.030419477 0)
(1.1149178 0.04865532 0)
(1.1184174 0.06499739 0)
(1.1207086 0.079396403 0)
(1.121946 0.091869925 0)
(1.1222848 0.10244694 0)
(1.1218894 0.11114554 0)
(1.1209286 0.1179704 0)
(1.1195689 0.122919 0)
(1.1179709 0.1259896 0)
(1.116286 0.12718744 0)
(1.1146544 0.1265283 0)
(1.1132032 0.12403986 0)
(1.1120457 0.11976147 0)
(1.1112804 0.11374324 0)
(1.1109912 0.10604467 0)
(1.111247 0.096733241 0)
(1.1121019 0.085883074 0)
(1.1135962 0.073573634 0)
(1.1157566 0.059888446 0)
(1.1185971 0.044913984 0)
(1.1221199 0.028738625 0)
(1.1263166 0.0114517 0)
(1.1311689 -0.0068573755 0)
(1.1366498 -0.026099856 0)
(1.1427248 -0.046188316 0)
(1.1493528 -0.067037181 0)
(1.1564873 -0.088563172 0)
(1.1640772 -0.11068566 0)
(1.1720679 -0.13332692 0)
(1.1804022 -0.15641234 0)
(1.1890209 -0.17987055 0)
(1.197864 -0.20363345 0)
(1.2068709 -0.22763628 0)
(1.2159814 -0.25181759 0)
(1.2251359 -0.27611919 0)
(1.2342762 -0.30048603 0)
(1.2433457 -0.32486619 0)
(1.2522899 -0.34921069 0)
(1.2610563 -0.37347338 0)
(1.2695951 -0.39761083 0)
(1.2778592 -0.42158216 0)
(1.2858041 -0.44534891 0)
(1.2933882 -0.46887489 0)
(1.300573 -0.49212607 0)
(1.3073227 -0.51507038 0)
(1.3136044 -0.53767764 0)
(1.3193883 -0.5599194 0)
(1.324647 -0.58176884 0)
(1.3293559 -0.60320061 0)
(1.3334933 -0.62419078 0)
(1.1040059 0.011874358 0)
(1.1108106 0.034504431 0)
(1.1162494 0.055330674 0)
(1.1203413 0.074098885 0)
(1.1232617 0.09072087 0)
(1.125166 0.10518416 0)
(1.1262118 0.11749682 0)
(1.1265675 0.12766486 0)
(1.1264069 0.13568883 0)
(1.1259027 0.14156891 0)
(1.125222 0.14531166 0)
(1.1245228 0.14693506 0)
(1.123951 0.14647104 0)
(1.1236386 0.14396588 0)
(1.1237024 0.13947933 0)
(1.1242428 0.13308288 0)
(1.1253437 0.12485796 0)
(1.1270725 0.11489403 0)
(1.12948 0.10328684 0)
(1.1326013 0.090136745 0)
(1.1364566 0.075547231 0)
(1.1410522 0.059623599 0)
(1.1463813 0.042471743 0)
(1.1524257 0.024197073 0)
(1.1591568 0.0049035866 0)
(1.1665369 -0.015306917 0)
(1.1745203 -0.036335487 0)
(1.1830552 -0.058086541 0)
(1.1920843 -0.080468253 0)
(1.2015461 -0.10339285 0)
(1.2113763 -0.12677678 0)
(1.2215083 -0.15054086 0)
(1.2318747 -0.17461025 0)
(1.2424075 -0.19891446 0)
(1.2530394 -0.22338729 0)
(1.263704 -0.24796665 0)
(1.2743368 -0.27259448 0)
(1.2848751 -0.29721654 0)
(1.2952589 -0.32178224 0)
(1.3054311 -0.34624441 0)
(1.3153373 -0.37055913 0)
(1.3249265 -0.39468551 0)
(1.3341511 -0.41858546 0)
(1.3429668 -0.44222353 0)
(1.3513326 -0.46556667 0)
(1.3592111 -0.48858407 0)
(1.3665682 -0.51124699 0)
(1.373373 -0.53352854 0)
(1.3795977 -0.55540361 0)
(1.3852178 -0.57684863 0)
(1.3902113 -0.59784149 0)
(1.3945595 -0.61836137 0)
(1.1042807 0.013221099 0)
(1.1116419 0.038490742 0)
(1.1176468 0.061833644 0)
(1.1223256 0.082950747 0)
(1.1258633 0.10171579 0)
(1.1284235 0.11808589 0)
(1.1301726 0.13204715 0)
(1.1312881 0.14359218 0)
(1.131953 0.15271621 0)
(1.1323491 0.15942129 0)
(1.1326518 0.16372197 0)
(1.1330262 0.1656492 0)
(1.1336239 0.16525183 0)
(1.1345812 0.16259602 0)
(1.1360168 0.15776345 0)
(1.1380312 0.15084893 0)
(1.1407061 0.14195781 0)
(1.1441047 0.13120359 0)
(1.1482717 0.11870559 0)
(1.1532345 0.10458695 0)
(1.1590037 0.088972868 0)
(1.165575 0.071988958 0)
(1.17293 0.053759867 0)
(1.1810382 0.034408073 0)
(1.1898581 0.014052879 0)
(1.1993389 -0.0071903979 0)
(1.2094222 -0.029211063 0)
(1.2200436 -0.051903529 0)
(1.2311337 -0.075167641 0)
(1.2426195 -0.098908866 0)
(1.2544259 -0.12303839 0)
(1.2664768 -0.14747309 0)
(1.2786957 -0.17213547 0)
(1.2910071 -0.1969535 0)
(1.3033367 -0.22186041 0)
(1.3156126 -0.24679446 0)
(1.3277655 -0.27169865 0)
(1.3397291 -0.29652048 0)
(1.3514407 -0.32121163 0)
(1.3628411 -0.34572764 0)
(1.3738752 -0.37002767 0)
(1.3844918 -0.39407415 0)
(1.3946435 -0.41783257 0)
(1.4042872 -0.44127113 0)
(1.4133836 -0.46436058 0)
(1.4218972 -0.48707392 0)
(1.4297966 -0.50938618 0)
(1.4370535 -0.53127428 0)
(1.4436435 -0.55271678 0)
(1.4495454 -0.57369374 0)
(1.4547406 -0.59418654 0)
(1.459214 -0.61417773 0)
(1.1045831 0.014557947 0)
(1.1125363 0.042435965 0)
(1.1191238 0.068251194 0)
(1.124392 0.091660647 0)
(1.1285432 0.11250048 0)
(1.131756 0.13069748 0)
(1.1342114 0.14621571 0)
(1.1361012 0.15903438 0)
(1.1376222 0.16914362 0)
(1.1389682 0.17654796 0)
(1.1403249 0.18127095 0)
(1.1418658 0.18335793 0)
(1.1437484 0.18287646 0)
(1.1461122 0.17991467 0)
(1.1490766 0.1745785 0)
(1.15274 0.16698846 0)
(1.1571796 0.15727626 0)
(1.1624515 0.14558173 0)
(1.1685913 0.13204995 0)
(1.1756151 0.11682889 0)
(1.1835211 0.10006715 0)
(1.192291 0.081912057 0)
(1.2018918 0.062508141 0)
(1.2122777 0.041995746 0)
(1.2233917 0.020509979 0)
(1.2351678 -0.001820118 0)
(1.2475329 -0.024872179 0)
(1.2604081 -0.048530922 0)
(1.2737105 -0.072688376 0)
(1.2873549 -0.097243953 0)
(1.3012549 -0.1221044 0)
(1.3153241 -0.14718366 0)
(1.3294772 -0.17240259 0)
(1.343631 -0.19768871 0)
(1.357705 -0.22297584 0)
(1.3716222 -0.24820367 0)
(1.3853094 -0.27331743 0)
(1.3986974 -0.29826742 0)
(1.4117219 -0.32300861 0)
(1.424323 -0.34750026 0)
(1.4364455 -0.37170549 0)
(1.4480391 -0.39559094 0)
(1.4590582 -0.41912638 0)
(1.4694617 -0.44228442 0)
(1.4792131 -0.46504017 0)
(1.48828 -0.48737099 0)
(1.4966344 -0.5092562 0)
(1.5042519 -0.53067687 0)
(1.5111121 -0.55161562 0)
(1.5171978 -0.57205639 0)
(1.5224949 -0.5919843 0)
(1.5269926 -0.61138546 0)
(1.1049147 0.015903046 0)
(1.1135 0.046390421 0)
(1.1206923 0.074659711 0)
(1.1265595 0.10032378 0)
(1.1313282 0.12318121 0)
(1.1351984 0.14312873 0)
(1.1383715 0.16010888 0)
(1.1410591 0.17408842 0)
(1.1434758 0.18505381 0)
(1.1458308 0.19301385 0)
(1.1483225 0.19800331 0)
(1.1511335 0.20008454 0)
(1.1544276 0.19934664 0)
(1.1583466 0.19590275 0)
(1.1630088 0.18988617 0)
(1.1685085 0.18144611 0)
(1.1749152 0.17074353 0)
(1.1822746 0.1579473 0)
(1.1906097 0.14323074 0)
(1.1999219 0.12676869 0)
(1.210193 0.10873484 0)
(1.2213874 0.089299631 0)
(1.233454 0.068628379 0)
(1.2463286 0.046879875 0)
(1.2599362 0.024205247 0)
(1.2741932 0.00074714349 0)
(1.2890095 -0.023360807 0)
(1.3042905 -0.047994299 0)
(1.3199387 -0.073038428 0)
(1.3358557 -0.098387604 0)
(1.3519434 -0.12394532 0)
(1.3681052 -0.14962384 0)
(1.3842473 -0.17534373 0)
(1.4002794 -0.20103342 0)
(1.4161155 -0.22662864 0)
(1.4316744 -0.25207188 0)
(1.4468799 -0.27731181 0)
(1.4616617 -0.30230276 0)
(1.4759546 -0.32700413 0)
(1.4896994 -0.35137992 0)
(1.5028424 -0.37539816 0)
(1.5153354 -0.39903053 0)
(1.5271357 -0.42225189 0)
(1.5382056 -0.44503987 0)
(1.5485124 -0.46737455 0)
(1.5580282 -0.48923812 0)
(1.5667293 -0.5106146 0)
(1.5745961 -0.53148957 0)
(1.5816132 -0.55184995 0)
(1.5877682 -0.57168381 0)
(1.5930522 -0.59098017 0)
(1.5974592 -0.6097288 0)
(1.1052774 0.017272684 0)
(1.1145394 0.050399216 0)
(1.122364 0.081127558 0)
(1.1288463 0.10902521 0)
(1.1342443 0.13385279 0)
(1.1387854 0.15547723 0)
(1.1426978 0.17382059 0)
(1.1462181 0.18883891 0)
(1.1495827 0.20051735 0)
(1.1530199 0.20887198 0)
(1.1567426 0.21395223 0)
(1.1609438 0.21584115 0)
(1.1657931 0.21465337 0)
(1.1714334 0.21053103 0)
(1.1779802 0.20363865 0)
(1.1855202 0.19415789 0)
(1.1941121 0.18228241 0)
(1.2037876 0.16821321 0)
(1.2145527 0.15215452 0)
(1.2263901 0.13431018 0)
(1.2392612 0.11488073 0)
(1.253109 0.094060841 0)
(1.2678608 0.072037393 0)
(1.283431 0.048987887 0)
(1.2997237 0.025079328 0)
(1.3166352 0.00046746644 0)
(1.3340568 -0.024703636 0)
(1.3518767 -0.050301743 0)
(1.3699822 -0.076206311 0)
(1.3882612 -0.10230819 0)
(1.4066039 -0.12850919 0)
(1.424904 -0.15472148 0)
(1.4430598 -0.18086699 0)
(1.4609748 -0.20687665 0)
(1.4785588 -0.23268968 0)
(1.4957276 -0.25825283 0)
(1.5124038 -0.28351966 0)
(1.5285169 -0.3084498 0)
(1.5440028 -0.33300826 0)
(1.5588045 -0.35716483 0)
(1.5728712 -0.38089342 0)
(1.5861584 -0.40417157 0)
(1.5986275 -0.42697992 0)
(1.6102458 -0.44930175 0)
(1.6209857 -0.47112261 0)
(1.6308245 -0.49242995 0)
(1.6397443 -0.51321279 0)
(1.6477311 -0.53346147 0)
(1.6547752 -0.55316743 0)
(1.6608701 -0.57232296 0)
(1.6660125 -0.59092105 0)
(1.670202 -0.60895517 0)
(1.1056734 0.018681825 0)
(1.1156611 0.054503524 0)
(1.1241511 0.087716722 0)
(1.1312712 0.11784147 0)
(1.1373181 0.14459962 0)
(1.1425538 0.16782862 0)
(1.147239 0.18743152 0)
(1.1516406 0.20335614 0)
(1.1560219 0.21558973 0)
(1.1606326 0.2241597 0)
(1.1657025 0.22913475 0)
(1.1714354 0.23062361 0)
(1.1780059 0.22877151 0)
(1.1855566 0.22375452 0)
(1.1941968 0.21577319 0)
(1.2040026 0.20504611 0)
(1.2150177 0.19180365 0)
(1.2272551 0.17628238 0)
(1.2406992 0.15872022 0)
(1.2553092 0.13935231 0)
(1.2710217 0.11840758 0)
(1.2877542 0.096105982 0)
(1.3054086 0.072656334 0)
(1.3238744 0.048254737 0)
(1.3430322 0.023083489 0)
(1.3627563 -0.0026895437 0)
(1.3829178 -0.028911189 0)
(1.403387 -0.055442846 0)
(1.4240352 -0.082160085 0)
(1.4447368 -0.10895208 0)
(1.465371 -0.13572088 0)
(1.4858225 -0.16238056 0)
(1.5059831 -0.18885629 0)
(1.5257515 -0.21508337 0)
(1.5450347 -0.24100627 0)
(1.5637475 -0.26657762 0)
(1.581813 -0.29175735 0)
(1.5991622 -0.31651173 0)
(1.6157342 -0.34081259 0)
(1.6314757 -0.36463655 0)
(1.6463406 -0.38796431 0)
(1.6602897 -0.41078003 0)
(1.6732902 -0.43307076 0)
(1.6853154 -0.45482597 0)
(1.6963442 -0.47603705 0)
(1.7063605 -0.49669703 0)
(1.7153529 -0.51680017 0)
(1.7233142 -0.53634173 0)
(1.730241 -0.5553177 0)
(1.7361335 -0.57372466 0)
(1.7409947 -0.59155953 0)
(1.7448301 -0.60881941 0)
(1.106105 0.020144439 0)
(1.1168725 0.058741442 0)
(1.1260665 0.094483901 0)
(1.1338538 0.12684155 0)
(1.1405783 0.15549632 0)
(1.1465434 0.18025662 0)
(1.152049 0.2010084 0)
(1.1573978 0.21769456 0)
(1.162884 0.23030886 0)
(1.1687823 0.23889539 0)
(1.1753403 0.24354798 0)
(1.1827729 0.24440728 0)
(1.1912583 0.24165525 0)
(1.200936 0.235508 0)
(1.2119057 0.22620788 0)
(1.2242282 0.21401555 0)
(1.2379271 0.19920256 0)
(1.2529915 0.18204483 0)
(1.269379 0.16281698 0)
(1.2870198 0.14178761 0)
(1.3058207 0.11921545 0)
(1.3256695 0.09534639 0)
(1.3464386 0.070411167 0)
(1.3679899 0.044623862 0)
(1.3901776 0.018180923 0)
(1.4128526 -0.0087392268 0)
(1.4358646 -0.035976179 0)
(1.4590654 -0.063387072 0)
(1.4823108 -0.090845853 0)
(1.5054626 -0.11824235 0)
(1.5283897 -0.1454812 0)
(1.5509696 -0.17248064 0)
(1.5730891 -0.1991713 0)
(1.5946444 -0.2254949 0)
(1.6155416 -0.25140302 0)
(1.6356966 -0.27685591 0)
(1.6550351 -0.30182139 0)
(1.6734921 -0.32627372 0)
(1.6910116 -0.35019271 0)
(1.707546 -0.37356279 0)
(1.7230557 -0.39637226 0)
(1.7375084 -0.41861256 0)
(1.7508788 -0.4402777 0)
(1.7631477 -0.46136369 0)
(1.7743016 -0.48186809 0)
(1.784332 -0.50178967 0)
(1.7932352 -0.52112803 0)
(1.8010114 -0.53988336 0)
(1.8076646 -0.55805622 0)
(1.8132019 -0.57564736 0)
(1.8176332 -0.59265753 0)
(1.8209706 -0.60908727 0)
(1.1065749 0.021673752 0)
(1.1181817 0.063148567 0)
(1.1281241 0.10148125 0)
(1.1366158 0.13608755 0)
(1.1440566 0.16660809 0)
(1.150799 0.1928228 0)
(1.1571889 0.21460311 0)
(1.1635709 0.23189118 0)
(1.1702742 0.24469292 0)
(1.177601 0.25307571 0)
(1.1858179 0.25716583 0)
(1.1951499 0.2571433 0)
(1.2057764 0.25323439 0)
(1.21783 0.2457025 0)
(1.2313961 0.23483834 0)
(1.2465147 0.22095049 0)
(1.2631831 0.20435669 0)
(1.2813601 0.18537619 0)
(1.3009705 0.16432331 0)
(1.3219097 0.14150212 0)
(1.3440495 0.11720222 0)
(1.3672432 0.091695594 0)
(1.3913303 0.065234326 0)
(1.4161418 0.038049197 0)
(1.441504 0.010349007 0)
(1.4672428 -0.017679507 0)
(1.4931863 -0.04587119 0)
(1.5191683 -0.074081626 0)
(1.5450299 -0.10218591 0)
(1.5706214 -0.13007733 0)
(1.5958038 -0.15766581 0)
(1.6204494 -0.18487635 0)
(1.6444423 -0.21164741 0)
(1.6676787 -0.23792934 0)
(1.6900664 -0.26368281 0)
(1.7115251 -0.28887744 0)
(1.7319855 -0.31349041 0)
(1.7513887 -0.33750529 0)
(1.7696859 -0.3609109 0)
(1.7868373 -0.38370038 0)
(1.8028118 -0.40587028 0)
(1.8175859 -0.42741989 0)
(1.8311428 -0.4483505 0)
(1.8434725 -0.46866494 0)
(1.8545701 -0.48836707 0)
(1.8644361 -0.50746144 0)
(1.8730749 -0.52595296 0)
(1.8804951 -0.54384666 0)
(1.8867085 -0.56114752 0)
(1.8917299 -0.57786025 0)
(1.8955762 -0.59398923 0)
(1.8982665 -0.60953828 0)
(1.1070862 0.023282411 0)
(1.1195976 0.067758438 0)
(1.1303395 0.10875686 0)
(1.1395812 0.14563508 0)
(1.1477883 0.17799075 0)
(1.1553709 0.20557627 0)
(1.1627285 0.22825176 0)
(1.1702533 0.24596405 0)
(1.178314 0.25873819 0)
(1.1872423 0.26667301 0)
(1.1973238 0.26993597 0)
(1.2087915 0.2687556 0)
(1.2218227 0.26341146 0)
(1.2365378 0.2542225 0)
(1.2530017 0.24153536 0)
(1.2712265 0.22571305 0)
(1.2911761 0.20712481 0)
(1.3127718 0.18613735 0)
(1.3358984 0.16310754 0)
(1.3604104 0.13837657 0)
(1.3861391 0.11226544 0)
(1.4128988 0.085071722 0)
(1.4404927 0.057067495 0)
(1.4687184 0.028498197 0)
(1.4973732 -0.00041762935 0)
(1.5262574 -0.029487896 0)
(1.5551782 -0.05854593 0)
(1.5839523 -0.087449042 0)
(1.6124081 -0.11607682 0)
(1.6403869 -0.14432918 0)
(1.6677442 -0.17212441 0)
(1.6943501 -0.19939706 0)
(1.7200891 -0.22609602 0)
(1.7448601 -0.25218248 0)
(1.768576 -0.27762822 0)
(1.7911628 -0.30241387 0)
(1.8125589 -0.32652744 0)
(1.8327144 -0.34996289 0)
(1.8515898 -0.37271903 0)
(1.8691555 -0.39479837 0)
(1.8853904 -0.41620627 0)
(1.9002813 -0.43695013 0)
(1.9138221 -0.45703881 0)
(1.9260126 -0.476482 0)
(1.936858 -0.49528983 0)
(1.9463682 -0.51347253 0)
(1.9545569 -0.53104014 0)
(1.9614416 -0.54800228 0)
(1.9670422 -0.5643681 0)
(1.9713815 -0.58014602 0)
(1.9744838 -0.59534371 0)
(1.9763754 -0.60996793 0)
(1.1076423 0.024982643 0)
(1.1211302 0.07260285 0)
(1.1327298 0.11635515 0)
(1.1427767 0.15553344 0)
(1.1518132 0.18969066 0)
(1.1603165 0.21855301 0)
(1.1687478 0.24197358 0)
(1.1775531 0.25991063 0)
(1.1871443 0.27241695 0)
(1.1978842 0.27963265 0)
(1.2100761 0.28177716 0)
(1.2239579 0.2791383 0)
(1.2396993 0.27205919 0)
(1.2574019 0.26092395 0)
(1.277102 0.24614354 0)
(1.2987753 0.22814247 0)
(1.3223439 0.20734706 0)
(1.347683 0.18417549 0)
(1.3746299 0.15902969 0)
(1.4029916 0.13228897 0)
(1.4325535 0.10430549 0)
(1.4630866 0.075401056 0)
(1.494355 0.045865428 0)
(1.5261215 0.015955684 0)
(1.5581535 -0.014103376 0)
(1.5902269 -0.044118104 0)
(1.6221291 -0.073924228 0)
(1.6536623 -0.10338475 0)
(1.6846448 -0.13238751 0)
(1.7149123 -0.16084269 0)
(1.7443183 -0.18868018 0)
(1.772734 -0.21584711 0)
(1.8000482 -0.24230532 0)
(1.8261661 -0.26802916 0)
(1.8510086 -0.29300334 0)
(1.8745115 -0.31722112 0)
(1.8966239 -0.3406825 0)
(1.9173071 -0.3633929 0)
(1.9365337 -0.38536172 0)
(1.9542859 -0.40660139 0)
(1.9705549 -0.42712633 0)
(1.9853393 -0.44695228 0)
(1.9986446 -0.46609558 0)
(2.010482 -0.48457272 0)
(2.0208675 -0.50239989 0)
(2.0298212 -0.51959273 0)
(2.0373668 -0.53616606 0)
(2.0435305 -0.55213385 0)
(2.0483413 -0.56750894 0)
(2.0518297 -0.58230301 0)
(2.0540278 -0.59652675 0)
(2.0549689 -0.61018958 0)
(1.1082468 0.026786374 0)
(1.1227902 0.07771215 0)
(1.1353141 0.1243171 0)
(1.1462324 0.16582569 0)
(1.1561765 0.20174435 0)
(1.1657016 0.2317751 0)
(1.1753392 0.2557696 0)
(1.1855953 0.27370588 0)
(1.1969284 0.28567501 0)
(1.2097327 0.29187065 0)
(1.2243268 0.29257683 0)
(1.2409483 0.28815328 0)
(1.259752 0.27901863 0)
(1.2808115 0.26563296 0)
(1.3041249 0.24848079 0)
(1.3296214 0.22805562 0)
(1.3571708 0.20484642 0)
(1.3865935 0.17932649 0)
(1.4176709 0.15194461 0)
(1.4501558 0.12311844 0)
(1.4837825 0.093229933 0)
(1.5182752 0.062622635 0)
(1.5533568 0.031600547 0)
(1.5887551 0.00042831413 0)
(1.6242084 -0.030667529 0)
(1.6594698 -0.061496393 0)
(1.6943098 -0.091901085 0)
(1.7285196 -0.12175479 0)
(1.7619115 -0.15095785 0)
(1.7943195 -0.17943456 0)
(1.8255995 -0.20712989 0)
(1.8556284 -0.23400646 0)
(1.8843029 -0.26004169 0)
(1.9115385 -0.28522513 0)
(1.9372682 -0.30955621 0)
(1.9614403 -0.33304206 0)
(1.9840179 -0.35569577 0)
(2.0049762 -0.37753481 0)
(2.0243019 -0.39857971 0)
(2.0419913 -0.418853 0)
(2.0580494 -0.43837828 0)
(2.072488 -0.45717948 0)
(2.0853256 -0.47528024 0)
(2.0965853 -0.49270357 0)
(2.1062948 -0.50947131 0)
(2.114485 -0.52560414 0)
(2.1211897 -0.54112121 0)
(2.1264446 -0.55604023 0)
(2.1302873 -0.57037741 0)
(2.1327563 -0.58414714 0)
(2.1338911 -0.59736256 0)
(2.1337321 -0.61003566 0)
(1.1089038 0.028705349 0)
(1.12459 0.083115444 0)
(1.1381139 0.13268042 0)
(1.1499821 0.17654852 0)
(1.1609299 0.21417798 0)
(1.171602 0.24524972 0)
(1.1826094 0.26962095 0)
(1.1945246 0.28729997 0)
(1.2078554 0.29842947 0)
(1.223026 0.30327109 0)
(1.240366 0.30218856 0)
(1.2601051 0.29562818 0)
(1.2823732 0.28409778 0)
(1.3072051 0.26814536 0)
(1.3345481 0.24833894 0)
(1.3642731 0.22524865 0)
(1.3961863 0.19943138 0)
(1.430043 0.17141853 0)
(1.4655605 0.14170653 0)
(1.5024309 0.11075025 0)
(1.5403326 0.07895883 0)
(1.5789411 0.046693647 0)
(1.6179371 0.014268177 0)
(1.6570143 -0.01805068 0)
(1.6958843 -0.050040107 0)
(1.7342805 -0.081518149 0)
(1.7719612 -0.11234003 0)
(1.808711 -0.14239411 0)
(1.8443412 -0.1715978 0)
(1.8786896 -0.19989345 0)
(1.9116193 -0.22724457 0)
(1.9430175 -0.25363221 0)
(1.9727938 -0.27905169 0)
(2.0008782 -0.30350968 0)
(2.0272191 -0.3270217 0)
(2.0517813 -0.34960982 0)
(2.0745443 -0.37130088 0)
(2.0955 -0.39212481 0)
(2.1146514 -0.41211342 0)
(2.1320106 -0.43129929 0)
(2.1475976 -0.44971499 0)
(2.1614392 -0.46739232 0)
(2.173567 -0.4843618 0)
(2.1840174 -0.50065249 0)
(2.19283 -0.51629144 0)
(2.2000469 -0.5313036 0)
(2.2057119 -0.54571192 0)
(2.2098702 -0.55953739 0)
(2.2125682 -0.5727991 0)
(2.2138522 -0.58551321 0)
(2.2137681 -0.59769468 0)
(2.2123642 -0.60935827 0)
(1.1096179 0.030751247 0)
(1.1265428 0.088840797 0)
(1.141153 0.14147957 0)
(1.1540643 0.18773192 0)
(1.1661326 0.22700665 0)
(1.178105 0.25896758 0)
(1.1906823 0.28348667 0)
(1.2045093 0.30061606 0)
(1.2201445 0.31056592 0)
(1.2380392 0.31368341 0)
(1.2585267 0.3104297 0)
(1.2818186 0.30135472 0)
(1.3080071 0.28707083 0)
(1.3370738 0.26822705 0)
(1.3689012 0.24548532 0)
(1.4032873 0.21949984 0)
(1.4399628 0.19090002 0)
(1.4786071 0.16027713 0)
(1.5188651 0.12817464 0)
(1.5603623 0.09508192 0)
(1.6027184 0.061430927 0)
(1.6455585 0.027595367 0)
(1.6885228 -0.0061080085 0)
(1.7312733 -0.039416601 0)
(1.7734988 -0.072117872 0)
(1.8149183 -0.10404487 0)
(1.8552834 -0.13507114 0)
(1.8943784 -0.16510557 0)
(1.9320197 -0.19408725 0)
(1.9680547 -0.22198067 0)
(2.0023595 -0.24877113 0)
(2.0348371 -0.27446076 0)
(2.0654147 -0.29906484 0)
(2.094041 -0.3226087 0)
(2.1206838 -0.34512496 0)
(2.1453276 -0.36665134 0)
(2.1679711 -0.38722868 0)
(2.1886253 -0.40689947 0)