/*--------------------------------*- C++ -*----------------------------------*\
| =========                 |                                                 |
| \\      /  F ield         | OpenFOAM: The Open Source CFD Toolbox           |
|  \\    /   O peration     | Version:  2312                                  |
|   \\  /    A nd           | Website:  www.openfoam.com                      |
|    \\/     M anipulation  |                                                 |
\*---------------------------------------------------------------------------*/
FoamFile
{
    version     2.0;
    format      ascii;
    arch        "LSB;label=32;scalar=64";
    class       volScalarField;
    location    "0.05";
    object      CO2;
}
// * * * * * * * * * * * * * * * * * * * * * * * * * * * * * * * * * * * * * //

dimensions      [0 0 0 0 0 0 0];

internalField   nonuniform List<scalar> 
3224
(
0.0075953536
0.007210361
0.0068411736
0.0064873012
0.0061482524
0.0058235314
0.0055126386
0.0052150735
0.0049303362
0.0046579302
0.0043973636
0.0041481503
0.0039098116
0.0036818771
0.0034638853
0.0032553848
0.0030559343
0.0028651039
0.0026824748
0.0025076398
0.0023402039
0.0021797837
0.0020260082
0.0018785185
0.0017369678
0.0016010212
0.001470356
0.0013446611
0.0012236369
0.0011069954
0.00099445974
0.00088576395
0.00078065279
0.00067888149
0.00058021544
0.00048442998
0.00039131011
0.00030065027
0.00021225407
0.00012593409
4.151196e-05
0.007594988
0.0072100432
0.0068409073
0.0064870784
0.0061480658
0.0058233759
0.0055125105
0.0052149696
0.004930254
0.0046578673
0.0043973179
0.00414812
0.003909795
0.0036818726
0.0034638914
0.0032554001
0.0030559577
0.0028651342
0.0026825109
0.0025076807
0.0023402487
0.0021798315
0.0020260583
0.0018785701
0.0017370202
0.0016010739
0.0014704083
0.0013447124
0.0012236868
0.0011070434
0.00099450543
0.0008858069
0.00078069263
0.00067891785
0.000580248
0.00048445841
0.00039133413
0.0003006696
0.00021226844
0.00012594322
4.151525e-05
0.0075940792
0.0072092263
0.0068401737
0.0064864177
0.0061474703
0.0058228394
0.0055120277
0.005214536
0.0049298655
0.0046575204
0.0043970091
0.0041478461
0.0039095532
0.0036816601
0.0034637057
0.0032552388
0.0030558187
0.0028650153
0.0026824103
0.0025075966
0.0023401793
0.0021797754
0.0020260139
0.0018785361
0.0017369954
0.001601057
0.0014703983
0.0013447082
0.0012236875
0.0011070481
0.00099451324
0.00088581705
0.0007807044
0.00067893054
0.00058026095
0.000484471
0.00039134577
0.00030067972
0.0002122765
0.00012594872
4.1517355e-05
0.0075926351
0.0072079141
0.0068389734
0.0064853193
0.0061464656
0.0058219211
0.0055111894
0.0052137717
0.0049291699
0.0046568883
0.0043964359
0.0041473275
0.0039090849
0.0036812383
0.0034633269
0.0032548997
0.003055516
0.0028647461
0.0026821717
0.0025073862
0.0023399946
0.0021796141
0.0020258739
0.0018784155
0.0017368922
0.0016009696
0.001470325
0.0013446476
0.0012236381
0.0011070086
0.00099448237
0.00088579369
0.00078068744
0.00067891896
0.00058025377
0.00048446729
0.00039134464
0.00030068032
0.00021227803
0.00012595043
4.1518241e-05
0.0079914566
0.007590673
0.0072061026
0.0068373018
0.0064837785
0.0061450469
0.0058206163
0.0055099907
0.0052126719
0.0049281621
0.0046559662
0.0043955935
0.0041465592
0.0039083855
0.0036806029
0.0034627507
0.0032543783
0.0030550453
0.0028643224
0.0026817913
0.0025070457
0.0023396908
0.0021793441
0.002025635
0.001878205
0.0017367077
0.0016008088
0.0014701858
0.001344528
0.0012235363
0.0011069228
0.00099441099
0.00088573516
0.0007806403
0.00067888184
0.00058022538
0.00048444639
0.00039133004
0.00030067089
0.00021227268
0.00012594816
4.1517863e-05
0.0079889765
0.0075883211
0.007203919
0.0068352772
0.0064819045
0.0061433149
0.0058190175
0.0055085167
0.0052113145
0.0049269137
0.0046548196
0.0043945418
0.004145596
0.0039075046
0.0036797986
0.0034620178
0.0032537116
0.0030544401
0.0028637741
0.0026812958
0.0025065991
0.0023392895
0.0021789845
0.0020253139
0.0018779194
0.0017364548
0.001600586
0.0014699905
0.001344358
0.0012233893
0.0011067968
0.00099430408
0.00088564554
0.00078056627
0.00067882179
0.00058017778
0.00048440979
0.00039130305
0.00030065215
0.0002122609
0.00012594215
4.1516285e-05
0.0079861224
0.0075856528
0.0072014365
0.0068329699
0.0064797638
0.006141332
0.0058171833
0.0055068221
0.0052097507
0.0049254724
0.0046534928
0.004393322
0.0041444761
0.003906478
0.0036788588
0.0034611589
0.003252928
0.0030537265
0.0028631256
0.0026807078
0.0025060671
0.0023388095
0.0021785527
0.0020249266
0.0018775733
0.0017361468
0.001600313
0.0014697499
0.0013441471
0.0012232057
0.0011066383
0.00099416845
0.00088553078
0.00078047049
0.00067874318
0.00058011463
0.00048436049
0.00039126601
0.00030062588
0.00021224395
0.00012593312
4.1513744e-05
0.0079826863
0.007582455
0.0071984561
0.0068301951
0.0064771853
0.0061389397
0.0058149669
0.005504771
0.005207855
0.0049237223
0.004651879
0.0043918358
0.0041431091
0.0039052224
0.0036777072
0.0034601042
0.0032519638
0.0030528465
0.002862324
0.002679979
0.0025054061
0.0023382114
0.002178013
0.0020244411
0.001877138
0.0017357579
0.0015999672
0.0014694438
0.0013438777
0.0012229701
0.0011064338
0.00099399253
0.00088538105
0.0007803447
0.00067863921
0.00058003044
0.00048429414
0.00039121567
0.00030058976
0.0002122203
0.00012592028
4.1510017e-05
0.0083952776
0.0079786497
0.007578687
0.0071949387
0.0068269165
0.006474135
0.0061361064
0.0058123385
0.0055023358
0.0052056014
0.0049216391
0.0046499557
0.0043900622
0.0041414755
0.0039037198
0.003676327
0.0034588383
0.0032508044
0.0030517865
0.0028613567
0.002679098
0.0025046054
0.0023374854
0.0021773565
0.0020238492
0.001876606
0.0017352816
0.0015995423
0.0014690667
0.0013435447
0.001222678
0.0011061793
0.00099377281
0.00088519328
0.00078018625
0.00067850759
0.0005799233
0.00048420922
0.0003911508
0.00030054285
0.00021218934
0.00012590327
4.1504991e-05
0.0083903102
0.007973964
0.0075743027
0.0071908417
0.0068230949
0.0064705766
0.0061327983
0.005809267
0.0054994874
0.0052029627
0.0049191976
0.0046476991
0.0043879791
0.0041395548
0.0039019511
0.0036747004
0.0034573445
0.0032494347
0.0030505326
0.0028602108
0.0026780529
0.0025036541
0.0023366215
0.002176574
0.0020231423
0.0018759696
0.0017347105
0.001599032
0.0014686128
0.001343143
0.0012223247
0.0011058708
0.00099350566
0.00088496429
0.00077999238
0.00067834599
0.00057979123
0.00048410409
0.00039107012
0.0003004842
0.00021215038
0.00012588171
4.1498546e-05
0.0088177771
0.0083845705
0.0079685728
0.0075692537
0.0071861212
0.0068186893
0.0064664718
0.0061289793
0.0058057186
0.0054961944
0.0051999102
0.0049163709
0.0046450845
0.0043855631
0.0041373253
0.0038998961
0.0036728088
0.0034556057
0.0032478386
0.0030490699
0.0028588726
0.0026768309
0.0025025405
0.0023356089
0.0021756555
0.0020223116
0.0018752205
0.0017340374
0.0015984295
0.0014680759
0.0013426671
0.0012219053
0.0011055038
0.0009931872
0.00088469069
0.00077976019
0.00067815191
0.00057963216
0.00048397705
0.00039097227
0.00030041279
0.00021210274
0.00012585519
4.1490551e-05
0.0088107767
0.0083780087
0.0079624178
0.0075634887
0.00718073
0.0068136561
0.0064617801
0.006124612
0.0058016584
0.0054924239
0.0051964127
0.0049131302
0.004642085
0.00438279
0.0041347642
0.0038975335
0.0036706323
0.0034536033
0.0032459991
0.0030473826
0.0028573275
0.0026754186
0.0025012522
0.0023344363
0.0021745908
0.0020213475
0.00187435
0.0017332542
0.0015977276
0.0014674496
0.0013421111
0.0012214145
0.0011050737
0.00099281331
0.00088436888
0.00077948652
0.00067792269
0.00057944385
0.00048382629
0.00039085581
0.00030032753
0.00021204564
0.00012582327
4.1480864e-05
0.0092526881
0.0088028236
0.0083705634
0.0079554392
0.0075569532
0.0071746182
0.0068079491
0.0064564586
0.0061196563
0.0057970489
0.0054881412
0.0051924379
0.0049094451
0.0046386721
0.0043796328
0.0041318468
0.003894841
0.0036681501
0.0034513179
0.0032438981
0.0030454541
0.0028555602
0.0026738019
0.0024997762
0.0023330917
0.0021733688
0.0020202398
0.001873349
0.0017323526
0.0015969187
0.0014667269
0.0013414687
0.001220847
0.0011045756
0.00099237965
0.00088399503
0.00077916808
0.00067765548
0.0005792239
0.00048364981
0.00039071918
0.00030022724
0.00021197827
0.00012578548
4.1469332e-05
0.0092431059
0.0087938577
0.0083621696
0.0079475749
0.0075495903
0.007167733
0.0068015191
0.0064504615
0.0061140698
0.0057918507
0.0054833095
0.0051879515
0.0049052837
0.0046348163
0.0043760638
0.0041285471
0.0038917938
0.0036653397
0.0034487293
0.0032415168
0.0030432666
0.0028535542
0.0026719656
0.0024980986
0.0023315622
0.0021719777
0.0020189779
0.0018722076
0.0017313237
0.0015959946
0.0014659006
0.0013407336
0.0012201966
0.0011040041
0.00099188154
0.00088356506
0.00077880132
0.00067734725
0.00057896976
0.00048344553
0.0003905607
0.00030011064
0.00021189976
0.0001257413
4.1455789e-05
0.0096988417
0.0092323611
0.0087838063
0.0083527583
0.0079387603
0.0075413398
0.0071600186
0.0067943143
0.0064437406
0.0061078073
0.0057860216
0.0054778895
0.005182917
0.0049006121
0.0046304858
0.0043720538
0.0041248379
0.0038883668
0.0036621772
0.0034458147
0.0032388345
0.0030408018
0.0028512926
0.002669894
0.0024962045
0.0023298343
0.002170405
0.0020175502
0.0018709155
0.001730158
0.0015949469
0.0014649629
0.0013398984
0.0012194571
0.0011033537
0.00099131403
0.00088307462
0.00077838246
0.00067699477
0.00057867872
0.00048321122
0.0003903786
0.0002999764
0.00021180916
0.00012569017
4.1440055e-05
0.0096860466
0.0092203797
0.0087725922
0.0083422577
0.007928928
0.0075321388
0.0071514162
0.00678628
0.0064362448
0.0061008213
0.0057795174
0.0054718399
0.0051772959
0.0048953943
0.0046256472
0.0043675716
0.0041206903
0.0038845331
0.0036586379
0.0034425513
0.0032358295
0.0030380388
0.0028487563
0.0026675699
0.0024940788
0.0023278938
0.0021686377
0.0020159448
0.0018694614
0.0017288453
0.0015937662
0.0014639055
0.0013389559
0.0012186218
0.0011026184
0.00099067181
0.00088251906
0.00077790746
0.00067659457
0.00057834785
0.00048294446
0.00039017095
0.00029982306
0.00021170545
0.00012563151
4.1421934e-05
0.010154784
0.009671836
0.0092070747
0.0087601347
0.0083305926
0.0079180073
0.0075219209
0.0071418638
0.0067773582
0.0064279201
0.0060930614
0.005772291
0.0054651169
0.0051710472
0.0048895921
0.0046202651
0.0043625841
0.0041160735
0.0038802641
0.0036546952
0.0034389145
0.0032324793
0.0030349572
0.0028459261
0.002664975
0.0024917041
0.0023257254
0.0021666619
0.0020141491
0.0018678338
0.0017273749
0.0015924429
0.0014627194
0.0013378981
0.0012176836
0.0011017918
0.00098994924
0.00088189341
0.00077737201
0.00067614295
0.00057797403
0.00048264268
0.00038993571
0.00029964906
0.00021158754
0.00012556467
4.140122e-05
0.010138009
0.0096561155
0.0091923543
0.0087463494
0.0083176842
0.0079059241
0.0075106167
0.0071312964
0.0067674881
0.0064187097
0.0060844745
0.005764293
0.0054576743
0.005164128
0.0048831656
0.004614302
0.0043570566
0.0041109551
0.0038755298
0.0036503212
0.0034348783
0.0032287599
0.0030315345
0.0028427813
0.0026620904
0.0024890631
0.0023233123
0.0021644623
0.0020121491
0.0018660204
0.0017257359
0.0015909666
0.0014613955
0.0013367165
0.0012166349
0.0011008671
0.00098914034
0.00088119242
0.00077677153
0.00067563598
0.00057755393
0.00048230314
0.00038967068
0.00029945273
0.00021145427
0.00012548896
4.1377687e-05
0.010119512
0.0096387856
0.0091761244
0.0087311484
0.00830345
0.0078926006
0.007498153
0.0071196454
0.0067566055
0.0064085536
0.0060750047
0.0057554711
0.0054494633
0.0051564927
0.0048760723
0.0046077184
0.0043509523
0.004105301
0.0038702983
0.0036454863
0.0034304154
0.0032246457
0.0030277472
0.0028393002
0.0026588961
0.0024861374
0.002320638
0.0021620232
0.0020099302
0.0018640076
0.0017239159
0.0015893268
0.001459924
0.0013354022
0.0012154676
0.0010998373
0.00098823873
0.00088041048
0.00077610113
0.00067506946
0.00057708402
0.00048192291
0.00038937353
0.00029923228
0.0002113044
0.00012540365
4.1351096e-05
0.010099191
0.009619747
0.0091582879
0.0087144399
0.0082878035
0.0078779555
0.0074844533
0.007106839
0.0067446433
0.0063973889
0.0060645933
0.0057457704
0.0054404329
0.0051480936
0.0048682676
0.0046004729
0.0043442325
0.004099075
0.0038645362
0.0036401594
0.0034254969
0.0032201101
0.0030235705
0.0028354599
0.0026553709
0.0024829074
0.0023176843
0.0021593283
0.0020074774
0.0018617815
0.0017219018
0.0015875113
0.0014582942
0.001333946
0.0012141736
0.0010986946
0.00098723766
0.00087954164
0.00077535564
0.00067443894
0.00057656052
0.00048149888
0.00038904174
0.00029898582
0.00021113658
0.00012530796
4.1321189e-05
0.010573197
0.010076941
0.0095988929
0.0091387433
0.0086961283
0.0082706544
0.0078619036
0.0074694375
0.0070928019
0.0067315308
0.0063851497
0.0060531784
0.0057351333
0.0054305289
0.0051388805
0.0048597047
0.0045925218
0.0043368565
0.0040922395
0.0038582081
0.0036343078
0.0034200923
0.0032151248
0.0030189783
0.0028312362
0.0026514925
0.0024793524
0.0023144323
0.00215636
0.0020047748
0.0018593276
0.0017196807
0.001585508
0.0014564947
0.0013323374
0.0012127435
0.0010974313
0.00098613021
0.00087857963
0.00077452955
0.0006737397
0.00057597943
0.00048102773
0.00038867268
0.00029871132
0.00021094939
0.00012520105
4.1287691e-05
0.010547331
0.010052652
0.0095761108
0.0091173845
0.0086761132
0.0082519082
0.0078443559
0.0074530218
0.0070774555
0.0067171943
0.0063717668
0.0060406955
0.0057234993
0.0054196952
0.0051288005
0.0048503344
0.0045838191
0.0043287816
0.0040847545
0.0038512772
0.0036278971
0.0034141697
0.0032096601
0.0030139431
0.0028266036
0.0026472373
0.0024754508
0.002310862
0.0021531
0.0020018055
0.0018566304
0.0017172383
0.0015833042
0.0014545143
0.0013305659
0.0012111676
0.0010960385
0.00098490858
0.000877518
0.00077361727
0.00067296672
0.00057533649
0.00048050595
0.00038826352
0.00029840664
0.00021074134
0.00012508202
4.125031e-05
0.011560366
0.011030453
0.010519153
0.010026191
0.0095512819
0.0090941002
0.00865429
0.0082314664
0.0078252195
0.0074351188
0.0070607175
0.0067015567
0.006357168
0.006027077
0.0057108052
0.0054078725
0.0051177987
0.0048401053
0.004574317
0.004319963
0.0040765784
0.0038437046
0.0036208911
0.0034076956
0.0032036851
0.0030084361
0.0028215355
0.0026425806
0.0024711798
0.0023069523
0.002149529
0.0019985516
0.0018536736
0.0017145599
0.0015808864
0.0014523405
0.0013286206
0.0012094361
0.0010945073
0.00098356463
0.0008763493
0.00077261242
0.00067211492
0.00057462741
0.00047992983
0.00038781127
0.0002980695
0.00021051081
0.00012494994
4.1208736e-05
0.012072297
0.011525749
0.010997882
0.010488529
0.0099974259
0.0095242819
0.0090687744
0.0086305496
0.0082092261
0.0078043976
0.0074156374
0.0070425026
0.0066845377
0.0063412781
0.0060122523
0.0056969852
0.0053949993
0.0051058174
0.0048289635
0.0045639652
0.0043103541
0.0040676677
0.0038354499
0.0036132523
0.0034006351
0.0031971671
0.0030024272
0.0028160039
0.0026374967
0.0024665155
0.0023026814
0.0021456266
0.0019949946
0.0018504403
0.0017116297
0.0015782402
0.0014499604
0.0013264897
0.0012075386
0.0010928282
0.00098209016
0.00087506625
0.00077150841
0.00067117834
0.00057384725
0.0004792956
0.00038731292
0.00029769748
0.00021025612
0.00012480379
4.1162638e-05
0.012032422
0.011488205
0.010962555
0.010455312
0.0099662173
0.0094949824
0.0090412866
0.0086047788
0.0081850808
0.0077817898
0.0073944832
0.0070227218
0.0066660541
0.0063240189
0.0059961484
0.0056819706
0.0053810115
0.0050927966
0.0048168533
0.0045527116
0.0042999061
0.0040579769
0.0038264706
0.0036049414
0.0033929515
0.0031900723
0.0029958848
0.0028099798
0.0026319585
0.002461433
0.0022980261
0.0021413717
0.0019911151
0.0018469125
0.0017084316
0.001575351
0.0014473606
0.0013241611
0.001205464
0.0010909916
0.00098047638
0.00087366114
0.0007702986
0.00067015122
0.00057299092
0.00047859882
0.00038676499
0.00029728815
0.00020997555
0.00012464253
4.111167e-05
0.011989272
0.011447568
0.010924313
0.010419349
0.0099324236
0.0094632506
0.0090115122
0.0085768604
0.00815892
0.0077572923
0.0073715584
0.0070012833
0.0066460193
0.0063053093
0.0059786891
0.0056656904
0.0053658424
0.0050786743
0.0048037163
0.0045405019
0.0042885684
0.004047459
0.003816723
0.0035959173
0.0033846068
0.0031823653
0.0029887762
0.0028034326
0.002625938
0.0024559063
0.0022929625
0.0021367423
0.0019868927
0.0018430716
0.0017049484
0.001572203
0.0014445268
0.0013216218
0.0012032007
0.001088987
0.00097871407
0.00087212583
0.00076897587
0.00066902748
0.00057205334
0.00047783526
0.00038616392
0.00029683864
0.00020966711
0.00012446508
4.1055479e-05
0.011942662
0.011403666
0.010882992
0.010380486
0.0098958995
0.00942895
0.0089793228
0.0085466733
0.0081306299
0.0077307977
0.007346762
0.0069780921
0.0066243444
0.0062850657
0.0059597961
0.005648071
0.0053494234
0.005063386
0.0047894926
0.0045272799
0.0042762887
0.004036065
0.0038061615
0.0035861378
0.0033755616
0.0031740096
0.0029810675
0.002796331
0.0026194059
0.0024499085
0.0022874657
0.0021317154
0.0019823063
0.0018388984
0.0017011624
0.0015687802
0.0014414444
0.0013188586
0.0012007368
0.0010868036
0.00097679362
0.00087045182
0.00076753277
0.00066780068
0.00057102903
0.0004770004
0.00038550616
0.00029634622
0.00020932882
0.00012427019
4.0993659e-05
0.011892407
0.011356324
0.010838427
0.010338566
0.0098564967
0.0093919407
0.0089445867
0.0085140936
0.0081000936
0.007702196
0.0073199905
0.0069530507
0.0066009375
0.0062632021
0.0059393887
0.0056290368
0.0053316835
0.0050468654
0.00477412
0.0045129877
0.0042630127
0.0040237446
0.0037947391
0.003575559
0.0033657752
0.0031649672
0.0029727235
0.0027886423
0.0026123322
0.0024434116
0.0022815099
0.0021262671
0.0019773341
0.0018343726
0.0016970553
0.0015650657
0.0014380982
0.0013158577
0.0011980597
0.0010844301
0.00097470501
0.00086863025
0.00076596156
0.00066646411
0.0005699123
0.00047608951
0.00038478788
0.00029580799
0.00020895866
0.00012405666
4.0925801e-05
0.011838321
0.011305363
0.010790449
0.010293429
0.0098140644
0.0093520804
0.0089071695
0.0084789944
0.0080671915
0.0076713746
0.0072911378
0.0069260595
0.006575705
0.0062396304
0.0059173841
0.0056085103
0.0053125502
0.0050290445
0.004757535
0.0044975658
0.004248685
0.0040104458
0.0037824073
0.003564136
0.0033552057
0.0031551992
0.0029637079
0.002780333
0.0026046856
0.0024363869
0.0022750686
0.0021203732
0.0019719535
0.0018294736
0.001692608
0.0015610422
0.0014344722
0.0013126046
0.0011951565
0.0010818551
0.00097243789
0.00086665196
0.0007642542
0.00066501082
0.00056869722
0.00047509767
0.00038400512
0.0002952209
0.00020855449
0.00012382323
4.0851499e-05
0.011780215
0.011250606
0.010738887
0.010244913
0.0097684497
0.0093092246
0.0088669347
0.008441247
0.0080318023
0.007638219
0.0072600961
0.0068970168
0.0065485514
0.0062142607
0.0058936981
0.0055864123
0.0052919492
0.005009854
0.0047396727
0.0044809536
0.0042332489
0.0039961157
0.003769117
0.0035518226
0.0033438102
0.0031446657
0.0029539838
0.0027713687
0.0025964343
0.0024288048
0.0022681145
0.0021140082
0.0019661414
0.0018241801
0.0016878011
0.0015566919
0.0014305503
0.0013090847
0.0011920138
0.0010790665
0.00096998156
0.00086450749
0.00076240238
0.00066343363
0.00056737768
0.00047401978
0.00038315378
0.0002945818
0.00020811408
0.00012356859
4.0770316e-05
0.011717898
0.011191871
0.010683571
0.010192858
0.009719499
0.0092632278
0.0088237448
0.0084007215
0.0079938035
0.0076026137
0.0072267565
0.0068658201
0.0065193801
0.0061870024
0.0058682454
0.0055626629
0.0052698056
0.0049892234
0.004720467
0.0044630893
0.0042166466
0.0039807004
0.0037548177
0.0035385721
0.0033315451
0.0031333261
0.0029435133
0.0027617142
0.0025875459
0.0024206353
0.0022606197
0.0021071466
0.0019598739
0.0018184703
0.0016826146
0.0015519965
0.0014263158
0.0013052828
0.0011886181
0.0010760521
0.00096732507
0.0008621871
0.00076039758
0.00066172514
0.00056594737
0.0004728506
0.00038222962
0.00029388746
0.00020763513
0.00012329136
4.0681801e-05
0.011651183
0.011128978
0.01062433
0.010137099
0.0096670586
0.0092139446
0.0087774623
0.008357288
0.0079530721
0.0075644427
0.0071910096
0.0068323664
0.0064880942
0.0061577641
0.0058409402
0.0055371813
0.0052460436
0.0049670818
0.0046998516
0.0044439107
0.0041988201
0.0039641456
0.0037394586
0.0035243371
0.0033183662
0.0031211393
0.0029322583
0.0027513341
0.0025779872
0.0024118478
0.002252556
0.0020997622
0.0019531273
0.0018123221
0.0016770282
0.0015469374
0.0014217518
0.0013011837
0.0011849554
0.0010727992
0.00096445723
0.00085968089
0.00075823109
0.00065987781
0.00056439987
0.00047158476
0.00038122831
0.00029313453
0.00020711531
0.00012299016
4.0585492e-05
0.011579881
0.011061751
0.010560995
0.010077478
0.0096109767
0.0091612309
0.0087279509
0.0083108174
0.0079094862
0.007523591
0.0071527468
0.0067965532
0.006454597
0.006126455
0.005811697
0.0055098874
0.0052205877
0.0049433583
0.00467776
0.0044233556
0.004179711
0.0039463969
0.0037229891
0.00350907
0.0033042292
0.003108064
0.0029201803
0.0027401928
0.0025677253
0.0024024116
0.002243895
0.0020918289
0.0019458771
0.0018057132
0.0016710215
0.001541496
0.0014168412
0.0012967716
0.0011810116
0.0010692954
0.00096136673
0.00085697882
0.0007558941
0.00065788398
0.00056272865
0.0004702168
0.00038014545
0.00029231963
0.0002065522
0.00012266356
4.0480917e-05
0.011503809
0.010990015
0.010493402
0.010013838
0.0095511045
0.0091049459
0.0086750768
0.0082611833
0.0078629263
0.0074799454
0.0071118613
0.0067582797
0.0064187935
0.0060929855
0.0057804314
0.0054807016
0.0051933635
0.0049179831
0.0046541267
0.0044013625
0.0041592618
0.0039274002
0.0037053585
0.0034927238
0.0032890902
0.0030940593
0.0029072413
0.0027282546
0.0025567272
0.0023922961
0.0022346083
0.0020833204
0.0019380993
0.0017986215
0.0016645739
0.0015356534
0.0014115669
0.0012920312
0.0011767727
0.0010655278
0.00095804219
0.00085407078
0.00075337771
0.00065573595
0.00056092711
0.00046874125
0.00037897659
0.00029143934
0.0002059434
0.0001223101
4.0367596e-05
0.011422793
0.010913604
0.010421391
0.0099460278
0.0094872987
0.0090449534
0.0086187111
0.0082082632
0.0078132765
0.0074333962
0.0070682495
0.0067174481
0.0063805912
0.0060572684
0.0057470613
0.0054495467
0.0051642981
0.0048908876
0.0046288873
0.0043778711
0.0041374159
0.0039071027
0.0036865174
0.0034752522
0.0032729059
0.0030790849
0.0028934036
0.0027154848
0.0025449603
0.0023814712
0.002224668
0.0020742109
0.0019297699
0.0017910248
0.0016576653
0.0015293913
0.001405912
0.0012869469
0.0011722247
0.0010614839
0.00095447232
0.00085094675
0.00075067311
0.00065342603
0.0005589887
0.0004671526
0.00037771731
0.00029049024
0.00020528647
0.00012192836
4.0245052e-05
0.011336667
0.010832359
0.010344813
0.0098739044
0.0094194236
0.0089811244
0.0085587313
0.0081519411
0.0077604266
0.0073838392
0.0070218125
0.0066739648
0.006339902
0.0060192203
0.0057115081
0.0054163486
0.0051333218
0.0048620062
0.0046019801
0.0043528234
0.004114119
0.0038854533
0.003666418
0.0034566105
0.0032556347
0.0030631018
0.0028786309
0.0027018493
0.0025323932
0.0023699076
0.002214047
0.0020644752
0.0019208657
0.0017829017
0.001650276
0.0015226913
0.0013998599
0.0012815036
0.0011673539
0.0010571514
0.00095064605
0.00084759686
0.0007477716
0.00065094669
0.00055690696
0.00046544546
0.00037636321
0.00028946896
0.00020457902
0.0001215169
4.0112808e-05
0.011245279
0.010746137
0.010263529
0.0097973365
0.0093473538
0.0089133397
0.0084950238
0.0080921091
0.0077042742
0.0073311772
0.0069724582
0.0066277426
0.0062966433
0.0059787632
0.005673698
0.0053810376
0.005100369
0.0048312771
0.0045733469
0.0043261648
0.0040893196
0.0038624039
0.0036450152
0.0034367564
0.0032372368
0.0030460728
0.0028628885
0.002687316
0.0025189958
0.0023575774
0.0022027193
0.0020540892
0.0019113645
0.0017742316
0.001642387
0.0015155362
0.0013933946
0.0012756869
0.001162147
0.0010525182
0.00094655267
0.00084401159
0.00074466478
0.00064829058
0.0005546756
0.00046361457
0.00037491003
0.00028837221
0.00020381871
0.00012107432
3.99704e-05
0.011148495
0.010654808
0.010177417
0.0097162072
0.0092709777
0.0088414927
0.0084274873
0.0080286704
0.0076447272
0.0072753226
0.0069201036
0.0065787027
0.0062507401
0.0059358262
0.0056335639
0.0053435504
0.0050653796
0.0047986437
0.0045429344
0.0042978449
0.0040629704
0.00383791
0.0036222671
0.0034156506
0.0032176755
0.0030279637
0.0028461444
0.0026718547
0.0025047401
0.0023444544
0.0021906606
0.0020430305
0.0019012453
0.0017649954
0.0016339805
0.0015079096
0.0013865013
0.001269483
0.0011565917
0.0010475731
0.00094218205
0.00084018189
0.00074134467
0.00064545075
0.00055228867
0.00046165492
0.00037335371
0.00028719682
0.00020300331
0.00012059928
3.9817379e-05
0.011046204
0.010558266
0.010086374
0.0096304177
0.0091902008
0.008765493
0.0083560351
0.0079615424
0.0075817068
0.0072162001
0.0068646768
0.0065267767
0.0062021276
0.0058903477
0.0055910472
0.0053038313
0.0050283011
0.0047640562
0.0045106956
0.0042678193
0.0040350296
0.0038119321
0.0035981366
0.0033932583
0.0031969181
0.0030087437
0.0028283697
0.0026554387
0.0024896009
0.0023305152
0.0021778491
0.0020312787
0.0018904894
0.0017551755
0.0016250403
0.0014997966
0.0013791661
0.0012628795
0.0011506765
0.0010423059
0.00093752487
0.00083609944
0.00073780389
0.00064242076
0.00054974062
0.00045956185
0.00037169046
0.00028593988
0.00020213071
0.00012009053
3.9653325e-05
0.010938321
0.01045643
0.0099903218
0.0095398922
0.0091049499
0.00868527
0.0082805995
0.0078906599
0.0075151503
0.0071537498
0.0068061204
0.0064719096
0.0061507533
0.0058422774
0.0055461003
0.0052618348
0.0049890903
0.0047274736
0.0044765914
0.0042360511
0.0040054622
0.0037844371
0.0035725925
0.00336955
0.0031749369
0.0029883867
0.00280954
0.0026380448
0.0024735567
0.0023157397
0.0021642659
0.0020188163
0.0018790804
0.0017447566
0.0016155525
0.0014911843
0.0013713771
0.0012558652
0.0011443914
0.0010367073
0.00093257291
0.00083175686
0.00073403591
0.00063919488
0.0005470265
0.0004573312
0.00036991687
0.00028459872
0.00020119903
0.00011954692
3.9477857e-05
0.010824795
0.010349248
0.0098892104
0.0094445822
0.0090151777
0.0086007777
0.0082011354
0.0078159792
0.0074450154
0.0070879305
0.0067443944
0.006414063
0.0060965799
0.0057915795
0.0054986885
0.005217528
0.0049477153
0.0046888654
0.0044405929
0.0042025127
0.0039742418
0.0037554
0.003545611
0.0033445032
0.0031517103
0.0029668724
0.0027896361
0.002619655
0.0024565905
0.0023001118
0.0021498961
0.0020056291
0.001867005
0.0017337267
0.0016055056
0.0014820619
0.0013631246
0.0012484313
0.0011377281
0.0010307698
0.00092731931
0.000827148
0.00073003522
0.00063576826
0.00054414213
0.00045495942
0.00036803004
0.00028317109
0.00020020664
0.00011896747
3.929064e-05
0.010705614
0.010236708
0.0097830256
0.0093444723
0.008920868
0.008511999
0.0081176253
0.0077374823
0.0073712835
0.0070187234
0.0066794803
0.0063532179
0.0060395887
0.0057382355
0.0054487936
0.0051708927
0.0049041585
0.0046482145
0.0044026831
0.0041671876
0.0039413526
0.0037248055
0.0035171773
0.0033181035
0.0031272249
0.0029441879
0.0027686455
0.0026002575
0.0024386911
0.0022836208
0.0021347294
0.0019917076
0.0018542544
0.0017220771
0.0015948915
0.0014724221
0.0013544015
0.0012405712
0.0011306806
0.0010244879
0.00092175899
0.00082226823
0.00072579769
0.00063213723
0.0005410843
0.00045244376
0.00036602769
0.0002816552
0.00019915224
0.00011835139
3.9091407e-05
0.010580812
0.01011884
0.0096717944
0.0092395863
0.0088220412
0.0084189517
0.0080300842
0.0076551816
0.007293965
0.006946137
0.0066113843
0.0062893793
0.0059797831
0.0056822475
0.0053964167
0.005121929
0.0048584192
0.0046055191
0.00436286
0.0041300731
0.0039067914
0.00369265
0.0034872876
0.0032903471
0.0031014763
0.0029203287
0.0027465639
0.0025798478
0.0024198538
0.0022662623
0.0021187616
0.0019770475
0.0018408242
0.0017098037
0.0015837064
0.0014622609
0.0013452042
0.0012322814
0.0011232456
0.0010178584
0.00091588902
0.00081711483
0.00072132081
0.00062829952
0.000537851
0.00044978249
0.00036390836
0.00028004987
0.00019803497
0.00011769815
3.887997e-05
0.010450479
0.009995726
0.0095555921
0.0091299934
0.0087187609
0.0083216938
0.0079385653
0.0075691256
0.0072131039
0.0068702112
0.0065401427
0.0062225798
0.0059171927
0.0056236421
0.0053415814
0.0050706583
0.0048105163
0.0045607965
0.0043211386
0.0040911828
0.0038705701
0.003658944
0.003455951
0.0032612419
0.0030744717
0.0028953011
0.0027233964
0.0025584304
0.0024000826
0.0022480395
0.0021019952
0.0019616509
0.0018267161
0.0016969078
0.0015719511
0.0014515792
0.0013355331
0.001223562
0.001115423
0.0010108811
0.00090970909
0.00081168741
0.0007166041
0.00062425462
0.00053444167
0.00044697507
0.00036167155
0.00027835465
0.00019685448
0.00011700751
3.8656242e-05
0.010314769
0.0098675062
0.00943455
0.0090158158
0.0086111408
0.0082203307
0.0078431659
0.0074794044
0.0071287835
0.0067910229
0.0064658264
0.0061528848
0.0058518774
0.0055624744
0.0052843385
0.0050171269
0.0047604925
0.0045140854
0.0042775546
0.004050549
0.0038327183
0.0036237145
0.0034231923
0.0032308103
0.0030462313
0.0028691232
0.0026991597
0.0025360203
0.002379391
0.0022289646
0.0020844411
0.0019455276
0.0018119389
0.0016833972
0.0015596326
0.0014403828
0.0013253934
0.0012144177
0.0011072168
0.0010035595
0.00090322203
0.00080598831
0.00071164951
0.00062000408
0.00053085755
0.0004440224
0.00035931792
0.00027657001
0.00019561104
0.00011627961
3.8420255e-05
0.010173912
0.0097343904
0.0093088641
0.0088972367
0.0084993516
0.0081150217
0.0077440347
0.0073861563
0.0070411325
0.0067086914
0.0063885462
0.0060803969
0.0057839324
0.0054988325
0.0052247696
0.0049614104
0.0047084173
0.0044654503
0.0042321673
0.0040082265
0.0037932865
0.0035870079
0.003389054
0.0031990914
0.0030167909
0.0028418281
0.0026738839
0.0025126449
0.002357804
0.0022090603
0.0020661201
0.0019286963
0.0017965095
0.0016692871
0.0015467645
0.001428684
0.001314796
0.0012048581
0.0010986356
0.00099590096
0.00089643439
0.00080002318
0.00070646183
0.00061555191
0.00052710193
0.00044092716
0.00035684954
0.00027469746
0.00019430566
0.00011551501
3.8172185e-05
0.010028234
0.0095966712
0.0091788036
0.0087745078
0.0083836295
0.0080059878
0.0076413782
0.0072895744
0.0069503308
0.0066233847
0.0063084586
0.0060052619
0.0057134934
0.0054328425
0.0051629917
0.0049036174
0.0046543919
0.0044149846
0.0041850634
0.0039642955
0.0037523488
0.0035488928
0.0033535993
0.0031661435
0.0029862044
0.0028134652
0.0026476145
0.0024883461
0.0023353598
0.0021883617