/*--------------------------------*- C++ -*----------------------------------*\
| =========                 |                                                 |
| \\      /  F ield         | OpenFOAM: The Open Source CFD Toolbox           |
|  \\    /   O peration     | Version:  2312                                  |
|   \\  /    A nd           | Website:  www.openfoam.com                      |
|    \\/     M anipulation  |                                                 |
\*---------------------------------------------------------------------------*/
FoamFile
{
    version     2.0;
    format      ascii;
    arch        "LSB;label=32;scalar=64";
    class       volScalarField;
    location    "0.05";
    object      f_Bilger;
}
// * * * * * * * * * * * * * * * * * * * * * * * * * * * * * * * * * * * * * //

dimensions      [0 0 0 0 0 0 0];

internalField   nonuniform List<scalar> 
3224
(
0.0048782844
0.0045942027
0.0043249647
0.0040698779
0.003828272
0.003599492
0.0033829007
0.0031778804
0.0029838342
0.0028001863
0.0026263826
0.0024618909
0.0023062002
0.0021588209
0.0020192843
0.0018871419
0.0017619654
0.0016433457
0.0015308923
0.001424233
0.001323013
0.0012268943
0.0011355551
0.0010486892
0.00096600526
0.00088722614
0.00081208835
0.0007403414
0.00067174721
0.00060607952
0.0005431233
0.00048267425
0.00042453821
0.0003685307
0.00031447642
0.00026220877
0.00021156942
0.00016240789
0.00011458115
6.795321e-05
2.239448e-05
0.0048783633
0.0045944221
0.0043252647
0.0040702204
0.0038286365
0.0035998671
0.0033832792
0.0031782576
0.0029842068
0.0028005519
0.0026267397
0.0024622381
0.0023065367
0.002159146
0.0020195974
0.0018874429
0.0017622539
0.0016436215
0.0015311554
0.0014244834
0.0013232506
0.0012271193
0.0011357675
0.0010488892
0.00096619285
0.00088740149
0.00081225159
0.00074049267
0.00067188664
0.00060620724
0.00054323944
0.00048277893
0.00042463154
0.0003686128
0.00031454738
0.00026226867
0.00021161833
0.00016244587
0.00011460824
6.7969482e-05
2.2400034e-05
0.0048781904
0.004594417
0.0043253479
0.0040703575
0.003828809
0.0036000637
0.0033834925
0.0031784824
0.0029844391
0.0028007887
0.0026269785
0.0024624771
0.0023067742
0.0021593806
0.0020198282
0.0018876687
0.0017624741
0.0016438355
0.0015313625
0.0014246831
0.0013234426
0.0012273032
0.0011359431
0.0010490562
0.00096635107
0.00088755077
0.0008123918
0.00074062369
0.00067200839
0.00060631962
0.0005433424
0.00048287239
0.00042471545
0.0003686871
0.00031461201
0.00026232356
0.00021166342
0.00016248108
0.00011463349
6.7984695e-05
2.2405227e-05
0.0048777713
0.0045941739
0.0043251955
0.0040702693
0.0038287696
0.0036000627
0.0033835224
0.0031785374
0.0029845146
0.002800881
0.0026270845
0.002462594
0.0023068996
0.0021595127
0.002019965
0.0018878089
0.0017626162
0.0016439782
0.0015315048
0.0014248241
0.0013235815
0.0012274391
0.0011360754
0.0010491843
0.00096647447
0.00088766899
0.00081250442
0.00074073033
0.0006721087
0.0006064133
0.00054342916
0.00048295197
0.0004247876
0.00036875158
0.0003146686
0.00026237205
0.00021170358
0.00016251269
0.00011465632
6.7998536e-05
2.240997e-05
0.0051759748
0.0048772178
0.0045936912
0.0043247981
0.0040699452
0.0038285076
0.0035998535
0.0033833586
0.0031784128
0.0029844239
0.0028008199
0.0026270489
0.0024625806
0.0023069053
0.0021595348
0.0020200011
0.0018878567
0.0017626738
0.0016440438
0.0015315769
0.0014249012
0.0013236623
0.0012275224
0.0011361602
0.0010492696
0.00096655943
0.00088775281
0.00081258637
0.00074080977
0.00067218502
0.00060648596
0.00054349764
0.00048301581
0.00042484636
0.00036880484
0.00031471596
0.00026241313
0.00021173801
0.00016254009
0.00011467633
6.8010795e-05
2.2414207e-05
0.0051754072
0.0048764786
0.0045930011
0.0043241882
0.0040694135
0.0038280469
0.0035994561
0.0033830176
0.003178122
0.002984178
0.0028006139
0.0026268785
0.0024624418
0.0023067946
0.0021594489
0.0020199371
0.001887812
0.0017626459
0.0016440306
0.0015315764
0.0014249115
0.0013236817
0.0012275495
0.0011361936
0.001049308
0.00096660171
0.00088779792
0.00081263337
0.00074085777
0.00067223322
0.00060653361
0.00054354405
0.00048306034
0.00042488841
0.00036884384
0.00031475137
0.00026244444
0.00021176471
0.0001625617
0.00011469236
6.8020771e-05
2.2417713e-05
0.0051744386
0.0048755574
0.004592139
0.0043234071
0.0040687154
0.0038274269
0.003598908
0.0033825348
0.0031776984
0.0029838079
0.002800292
0.0026266002
0.0024622027
0.0023065907
0.0021592766
0.0020197932
0.0018876933
0.0017625497
0.0016439543
0.0015315177
0.0014248683
0.001323652
0.0012275316
0.0011361858
0.0010493089
0.0009666099
0.00088781214
0.00081265247
0.00074088069
0.00067225898
0.00060656131
0.00054357286
0.00048308947
0.00042491713
0.00036887147
0.00031477726
0.00026246796
0.00021178526
0.00016257869
0.00011470522
6.8028928e-05
2.2420638e-05
0.005173109
0.0048743711
0.0045910304
0.00432239
0.0040677935
0.003826597
0.0035981641
0.0033818702
0.0031771065
0.0029832823
0.002799827
0.0026261902
0.0024618426
0.0023062759
0.0021590027
0.0020195562
0.0018874896
0.001762376
0.0016438075
0.0015313948
0.0014247669
0.0013235697
0.0012274661
0.0011361352
0.0010492713
0.0009665836
0.00088779559
0.00081264424
0.00074087946
0.00067226353
0.00060657051
0.00054358566
0.00048310489
0.00042493426
0.00036888944
0.00031479525
0.00026248519
0.00021180098
0.00016259218
0.00011471576
6.8035814e-05
2.2423185e-05
0.0054862599
0.0051715586
0.0048729016
0.0045896508
0.0043211151
0.0040666282
0.0038255388
0.0035972073
0.0033810079
0.0031763316
0.0029825878
0.0027992062
0.0026256367
0.0024613506
0.00230584
0.0021586178
0.0020192177
0.0018871931
0.0017621175
0.0016435834
0.0015312018
0.0014246017
0.0013234295
0.0012273484
0.0011360374
0.0010491913
0.0009665193
0.00088774512
0.00081260585
0.00074085155
0.00067224461
0.00060655921
0.00054358069
0.00048310506
0.00042493845
0.00036889661
0.0003148044
0.00026249537
0.00021181128
0.00016260172
0.00011472367
6.8041248e-05
2.2425297e-05
0.0054844909
0.0051697043
0.0048711192
0.0045879729
0.0043195583
0.0040651977
0.0038242325
0.0035960195
0.0033799312
0.0031753581
0.0029817097
0.002798416
0.0026249273
0.0024607153
0.0023052724
0.0021581122
0.0020187685
0.0018867954
0.0017617666
0.001643275
0.0015309319
0.0014243668
0.0013232261
0.0012271734
0.001135888
0.0010490648
0.00096641332
0.00088765739
0.0008125343
0.00074079427
0.00067219983
0.00060652528
0.00054355609
0.00048308837
0.00042492833
0.0003688918
0.00031480373
0.0002624977
0.00021181552
0.00016260682
0.00011472862
6.8045039e-05
2.2426913e-05
0.0058145235
0.0054822704
0.0051674858
0.0048689894
0.0045859675
0.0043176937
0.0040634787
0.0038226568
0.0035945808
0.0033786217
0.0031741691
0.0029806326
0.0027974422
0.0026240487
0.0024599242
0.0023045618
0.0021574752
0.002018199
0.0018862876
0.0017613151
0.0016428748
0.0015305785
0.0014240558
0.0013229537
0.001226936
0.0011356822
0.0010488875
0.00096626171
0.00088752884
0.00081242639
0.00074070475
0.00067212663
0.00060646647
0.00054350987
0.00048305307
0.00042490239
0.00036887375
0.00031479216
0.00026249129
0.00021181302
0.00016260699
0.00011473027
6.8046978e-05
2.2427966e-05
0.0058116309
0.0054795564
0.0051648495
0.0048664744
0.004583603
0.0043154934
0.0040614461
0.0038207887
0.0035928703
0.00337706
0.0031727466
0.0029793396
0.0027962692
0.0026229866
0.0024589643
0.0023036959
0.0021566957
0.0020174988
0.0018856601
0.0017607542
0.0016423748
0.001530134
0.001423662
0.0013226062
0.0012266304
0.0011354148
0.0010486547
0.00096606024
0.00088735566
0.00081227868
0.00074057992
0.00067202227
0.00060638034
0.0005434399
0.00048299731
0.00042485902
0.00036884106
0.00031476855
0.00026247523
0.00021180303
0.00016260166
0.00011472821
6.8046842e-05
2.2428383e-05
0.0061583351
0.0058081808
0.0054763109
0.0051617472
0.0048635345
0.0045808452
0.0043129273
0.0040590729
0.0038186037
0.0035908653
0.0033752252
0.0031710713
0.002977813
0.0027948805
0.0026217257
0.0024578215
0.0023026619
0.0021557619
0.002016657
0.0018849029
0.0017600746
0.0016417663
0.0015295907
0.0014231783
0.0013221768
0.0012262507
0.0011350804
0.0010483614
0.0009658044
0.00088713376
0.00081208751
0.00074041648
0.00067188381
0.00060626429
0.00054334387
0.00048291907
0.00042479649
0.00036879228
0.00031473167
0.00026244848
0.00021178474
0.00016259021
0.00011472204
6.8044383e-05
2.2428085e-05
0.006153907
0.0058041068
0.0054724902
0.0051581321
0.0048601285
0.004577658
0.0043099632
0.0040563299
0.0038160752
0.0035885417
0.003373095
0.0031691226
0.0029760336
0.0027932586
0.0026202497
0.0024564805
0.0023014456
0.0021546607
0.0020156618
0.0018840051
0.0017592663
0.0016410402
0.00152894
0.0014225968
0.0013216586
0.0012257904
0.001134673
0.0010480024
0.00096548934
0.00088685877
0.00081184891
0.0007402109
0.00067170809
0.00060611551
0.00054321931
0.0004828162
0.00042471293
0.0003687258
0.00031468016
0.00026240996
0.0002117573
0.00016257201
0.00011471129
6.8039334e-05
2.2426985e-05
0.0065172865
0.0061487836
0.0057993578
0.0054680485
0.0051539578
0.0048562136
0.0045740031
0.0043065667
0.0040531861
0.0038131749
0.0035858733
0.0033706455
0.0031668785
0.0029739812
0.0027913846
0.0026185413
0.0024549255
0.0023000324
0.0021533785
0.0020145004
0.001882955
0.0017583187
0.0016401868
0.0015281731
0.0014219093
0.001321044
0.0012252427
0.0011341864
0.0010475717
0.00096510987
0.00088652598
0.00081155867
0.00073995937
0.00067149171
0.00060593099
0.00054306357
0.00048268637
0.00042460633
0.00036863991
0.0003146126
0.00026235848
0.00021171974
0.00016254632
0.00011469546
6.8031403e-05
2.2424989e-05
0.0065108499
0.0061428763
0.0057938785
0.0054629376
0.0051491766
0.0048517456
0.0045698402
0.0043027012
0.0040496082
0.0038098725
0.0035828324
0.0033678512
0.0031643154
0.0029716341
0.0027892385
0.002616582
0.0024531393
0.0022984065
0.0021519007
0.0020131594
0.0018817402
0.0017572202
0.0016391954
0.0015272804
0.0014211071
0.001320325
0.0012246
0.0011336138
0.0010470635
0.00096466043
0.00088613037
0.00081121225
0.00073965783
0.00067123105
0.0006057075
0.00054287379
0.00048252708
0.00042447452
0.00036853274
0.00031452742
0.00026229275
0.00021167107
0.00016251238
0.00011467402
6.8020275e-05
2.2421994e-05
0.0068909305
0.0065035325
0.0061361196
0.0057876129
0.0054571066
0.0051437396
0.0048466784
0.0045651268
0.0042983281
0.0040455611
0.0038061357
0.0035793894
0.0033646848
0.0031614082
0.002968969
0.002786799
0.002614352
0.0024511037
0.002296551
0.0021502118
0.0020116245
0.0018803475
0.0017559587
0.0016380549
0.0015262513
0.0014201806
0.001319493
0.0012238548
0.0011329483
0.001046471
0.00096413509
0.00088566658
0.00081080479
0.00073930191
0.0006709222
0.00060544156
0.00054264691
0.00048233565
0.00042431517
0.00036840232
0.00031442294
0.0002622114
0.00021161016
0.00016246936
0.00011464639
6.8005607e-05
2.2417888e-05
0.0068819023
0.0064952162
0.0061284451
0.0057805034
0.0054505022
0.0051375956
0.0048409637
0.0045598185
0.0042934065
0.0040410072
0.0038019304
0.0035755129
0.0033611174
0.0031581303
0.0029659614
0.0027840432
0.0026118304
0.0024487994
0.0022944481
0.0021482954
0.0020098806
0.001878763
0.0017545214
0.0016367534
0.0015250751
0.0014191199
0.0013185386
0.0012229983
0.0011321819
0.0010457875
0.00096352762
0.00088512886
0.00081033112
0.00073888696
0.00067056098
0.00060512947
0.00054237964
0.00048210919
0.00042412578
0.00036824648
0.00031429735
0.00026211294
0.00021153585
0.00016241634
0.00011461194
6.798703e-05
2.241255e-05
0.0068715297
0.0064858145
0.0061197872
0.0057724907
0.0054430686
0.0051306914
0.0048345514
0.0045538685
0.0042878933
0.0040359071
0.00379722
0.0035711695
0.0033571182
0.0031544533
0.0029625851
0.0027809471
0.0026089948
0.0024462057
0.0022920787
0.0021461339
0.0020079114
0.0018769717
0.0017528945
0.0016352784
0.0015237402
0.0014179143
0.0013174522
0.0012220218
0.0011313066
0.0010450053
0.00096283116
0.00088451121
0.00080978582
0.00073840801
0.00067014296
0.00060476727
0.00054206847
0.00048184464
0.00042390368
0.00036806295
0.00031414873
0.00026199577
0.00021144685
0.00016235237
0.00011456998
6.7964143e-05
2.240585e-05
0.006859885
0.0064752777
0.0061100844
0.0057635142
0.0054347476
0.0051229714
0.004827389
0.004547228
0.0042817433
0.0040302189
0.0037919663
0.0035663236
0.0033526546
0.003150347
0.0029588124
0.0027774849
0.0026058215
0.0024433007
0.0022894227
0.0021437086
0.0020056998
0.0018749578
0.0017510635
0.0016336163
0.0015222342
0.0014165525
0.0013162234
0.0012209157
0.0011303136
0.0010441165
0.00096203843
0.00088380691
0.0008091629
0.00073785988
0.00066966347
0.00060435072
0.00054170967
0.0004815387
0.00042364601
0.00036784927
0.00031397499
0.00026185817
0.00021134179
0.0001622764
0.00011451979
6.7936518e-05
2.2397647e-05
0.0072508069
0.0068471733
0.0064635724
0.0060992754
0.0057535106
0.005425478
0.0051143773
0.0048194216
0.0045398455
0.0042749089
0.0040238987
0.0037861285
0.0035609381
0.0033476921
0.0031457798
0.0029546138
0.0027736297
0.0026022855
0.0024400614
0.0022864587
0.0021409998
0.0020032276
0.0018727046
0.0017490128
0.0016317531
0.0015205442
0.0014150225
0.0013148412
0.0012196699
0.0011291938
0.0010431129
0.0009611419
0.00088300909
0.000808456
0.00073723673
0.00066911737
0.00060387542
0.00054129933
0.00048118787
0.00042334971
0.00036760281
0.00031377393
0.00026169833
0.00021121921
0.00016218732
0.00011446058
6.7903692e-05
2.238779e-05
0.0072357545
0.0068331881
0.0064506235
0.0060872913
0.0057424129
0.0054151957
0.0051048482
0.0048105917
0.0045316674
0.0042673401
0.0040169003
0.0037796642
0.0035549734
0.0033421944
0.003140718
0.0029499584
0.0027693526
0.0025983605
0.0024364633
0.0022831642
0.0021379868
0.0020004755
0.0018701942
0.0017467263
0.0016296737
0.0015186563
0.0014133117
0.0013132941
0.001218274
0.0011279375
0.0010419855
0.00096013349
0.00088211046
0.0008076586
0.00073653262
0.00066849921
0.0006033364
0.0005408331
0.0004807885
0.00042301162
0.00036732078
0.00031354317
0.00026151429
0.00021107755
0.00016208393
0.00011439152
6.7865173e-05
2.2376117e-05
0.0080868102
0.0076416633
0.0072192648
0.006817807
0.0064363434
0.0060740557
0.0057301496
0.005403833
0.0050943203
0.0048008394
0.0045226376
0.0042589849
0.0040091753
0.0037725284
0.0035483881
0.0033361232
0.0031351263
0.0029448135
0.0027646237
0.0025940184
0.0024324807
0.0022795153
0.0021346476
0.0019974234
0.0018674081
0.0017441866
0.0016273621
0.0015165559
0.0014114066
0.0013115696
0.0012167165
0.0011265343
0.0010407249
0.00095900464
0.00088110324
0.00080676365
0.00073574127
0.00066780339
0.00060272863
0.00054030643
0.00048033646
0.00042262819
0.00036700028
0.00031328026
0.00026130396
0.00021091513
0.00016196496
0.00011431172
6.7820434e-05
2.2362455e-05
0.0085318519
0.0080656256
0.0076222896
0.0072011313
0.0068009016
0.0064206354
0.0060594857
0.0057166447
0.0053913189
0.0050827268
0.004790102
0.0045126977
0.0042497885
0.0040006731
0.0037646742
0.0035411389
0.0033294383
0.0031289675
0.0029391448
0.0027594112
0.00258923
0.0024280865
0.0022754871
0.002130959
0.0019940498
0.0018643266
0.0017413757
0.0016248018
0.0015142276
0.0014092931
0.0013096549
0.0012149856
0.0011249734
0.0010393213
0.00095774634
0.00087997925
0.00080576375
0.00073485598
0.0006670239
0.00060204678
0.00053971461
0.00047982761
0.00042219571
0.00036663803
0.00031298248
0.00026106519
0.00021073023
0.00016182906
0.00011422022
6.7768912e-05
2.2346619e-05
0.0085068068
0.0080424239
0.0076008762
0.0071811962
0.006782348
0.0064033983
0.0060434931
0.0057018178
0.0053775787
0.0050699979
0.0047783143
0.0045017865
0.0042396944
0.003991341
0.0037560528
0.0035331804
0.0033220978
0.0031222029
0.0029329164
0.0027536818
0.0025839646
0.0024232522
0.0022710532
0.0021268969
0.0019903325
0.001860929
0.0017382745
0.0016219752
0.0015116554
0.0014069564
0.0013075362
0.0012130688
0.0011232435
0.0010377642
0.00095634908
0.00087872984
0.00080465107
0.00073386968
0.00066615441
0.00060128518
0.00053905263
0.00047925755
0.00042171038
0.00036623074
0.00031264694
0.00026079554
0.00021052092
0.00016167483
0.00011411605
6.7710013e-05
2.2328414e-05
0.0084792901
0.0080169905
0.0075773414
0.0071593343
0.0067620292
0.006384529
0.0060259857
0.0056855849
0.0053625346
0.005056061
0.0047654084
0.0044898408
0.0042286434
0.0039811239
0.0037466131
0.0035244653
0.003314058
0.0031147919
0.0029260908
0.0027474008
0.00257819
0.0024179483
0.0022661864
0.0021224358
0.001986248
0.0018571938
0.0017348631
0.0016188639
0.0015088223
0.001404381
0.0013051995
0.0012109531
0.0011213324
0.0010360426
0.00095480288
0.00087734596
0.00080341739
0.00073277497
0.00066518823
0.00060043786
0.00053831518
0.00047862159
0.00042116812
0.0003657749
0.00031227073
0.00026049257
0.00021028519
0.00016150067
0.0001139981
6.764312e-05
2.2307637e-05
0.0084492272
0.0079891855
0.0075515862
0.0071354311
0.0067398323
0.0063639235
0.0060068688
0.0056678588
0.0053461057
0.0050408408
0.004751314
0.004476795
0.0042165744
0.0039699651
0.0037363024
0.0035149446
0.0033052732
0.0031066924
0.002918629
0.0027405322
0.002571873
0.0024121438
0.002260858
0.0021175494
0.0019817719
0.0018530983
0.0017311206
0.0016154489
0.0015057106
0.0014015506
0.0013026297
0.0012086248
0.0011192278
0.0010341451
0.00095309731
0.00087581812
0.00080205412
0.00073156408
0.0006641184
0.00059949858
0.0005374967
0.00047791483
0.00042056464
0.00036526683
0.0003118507
0.0002601537
0.00021002098
0.00016130503
0.00011386523
6.7567533e-05
2.2284062e-05
0.008416511
0.0079588892
0.007523504
0.007109375
0.0067156464
0.0063414772
0.0059860454
0.0056485498
0.0053282088
0.0050242597
0.0047359587
0.0044625815
0.0042034245
0.0039578058
0.0037250659
0.0035045677
0.0032956966
0.0030978607
0.0029104905
0.0027330384
0.0025649786
0.0024058065
0.0022550382
0.0021122103
0.0019768788
0.0018486192
0.0017270256
0.00161171
0.0015023021
0.0013984483
0.0012998113
0.0012060696
0.0011169164
0.0010320598
0.00095122149
0.00087413641
0.00080055227
0.00073022888
0.0006629376
0.0005984608
0.00053659138
0.00047713216
0.00041989548
0.00036470266
0.00031138358
0.00025977618
0.0002097261
0.00016108622
0.00011371629
6.7482566e-05
2.2257454e-05
0.0083810185
0.0079259832
0.0074929832
0.0070810538
0.0066893613
0.006317085
0.0059634171
0.0056275661
0.0053087584
0.0050062381
0.0047192682
0.0044471308
0.0041891287
0.0039445858
0.0037128477
0.0034932822
0.0032852795
0.0030882518
0.0029016335
0.0027248808
0.0025574712
0.0023989034
0.0022486965
0.0021063899
0.0019715425
0.0018437322
0.0017225555
0.0016076267
0.0014985776
0.0013950566
0.0012967283
0.0012032727
0.0011143849
0.0010297743
0.00094916412
0.00087229055
0.00079890251
0.00072876094
0.00066163823
0.00059731772
0.00053559316
0.00047626821
0.00041915594
0.00036407835
0.00031086593
0.00025935719
0.00020939827
0.00016084249
0.00011355003
6.7387488e-05
2.2227578e-05
0.0083426176
0.0078903449
0.0074599075
0.0070503537
0.0066608664
0.0062906414
0.0059388845
0.0056048148
0.0052876675
0.0049866946
0.0047011664
0.0044303721
0.0041736211
0.0039302432
0.0036995901
0.0034810348
0.0032739723
0.0030778196
0.0028920154
0.0027160197
0.0025493139
0.0023914002
0.0022418011
0.0021000591
0.0019657359
0.0018384123
0.0017176873
0.0016031778
0.0014945176
0.0013913575
0.0012933639
0.0012002189
0.0011116192
0.0010272758
0.00094691351
0.00087026989
0.00079709518
0.00072715153
0.00066021243
0.00059606228
0.00053449577
0.00047531745
0.00041834117
0.0003633897
0.00031029418
0.00025889374
0.00020903508
0.00016057202
0.00011336517
6.7281537e-05
2.2194181e-05
0.008301171
0.0078518479
0.0074241575
0.0070171599
0.0066300509
0.0062620406
0.0059123476
0.0055802019
0.0052648481
0.0049655468
0.0046815764
0.0044122334
0.0041568343
0.0039147155
0.0036852347
0.0034677709
0.0032617244
0.003066517
0.0028815922
0.0027064144
0.0025404691
0.0023832622
0.0022343198
0.0020931879
0.0019594313
0.0018326339
0.0017123974
0.0015983412
0.0014901019
0.0013873324
0.0012897012
0.0011968925
0.0011086049
0.0010245512
0.00094445764
0.00086806348
0.00079512034
0.00072539163
0.00065865209
0.00059468721
0.00053329273
0.00047427413
0.00041744617
0.00036263238
0.00030966465
0.00025838279
0.00020863408
0.0001602729
0.00011316037
6.7163917e-05
2.2157001e-05
0.0082565385
0.0078103628
0.0073856115
0.0069813561
0.0065968037
0.0062311769
0.0058837064
0.0055536332
0.0052402118
0.0049427121
0.0046604206
0.0043926421
0.0041387005
0.0038979392
0.0036697226
0.0034534356
0.0032484844
0.0030542964
0.0028703198
0.0026960239
0.0025308985
0.0023744538
0.0022262198
0.0020857459
0.0019526006
0.0018263709
0.0017066616
0.0015930949
0.00148531
0.0013829623
0.0012857227
0.0011932775
0.0011053273
0.0010215869
0.00094178421
0.00086566013
0.00079296779
0.00072347203
0.00065694889
0.00059318506
0.00053197739
0.0004731324
0.00041646577
0.00036180192
0.00030897354
0.00025782115
0.00020819271
0.00015994319
0.00011293425
6.7033809e-05
2.2115766e-05
0.0082085796
0.0077657593
0.0073441473
0.0069428266
0.0065610145
0.0061979455
0.0058528616
0.0055250152
0.0052136707
0.0049181077
0.0046376216
0.0043715258
0.0041191518
0.003879851
0.0036529943
0.0034379736
0.003234201
0.0030411097
0.0028581535
0.0026848066
0.0025205637
0.0023649394
0.0022174678
0.0020777024
0.0019452154
0.0018195971
0.0017004556
0.0015874163
0.0014801211
0.0013782281
0.0012814108
0.0011893577
0.0011017716
0.0010183693
0.00093888073
0.00086304843
0.00079062718
0.00072138335
0.00065509436
0.00059154822
0.00053054297
0.00047188623
0.00041539472
0.00036089379
0.00030821699
0.00025720562
0.00020770837
0.00015958089
0.0001126854
6.6890374e-05
2.20702e-05
0.0081571552
0.0077179079
0.0072996434
0.0069014565
0.0065225745
0.0061622431
0.0058197157
0.0054942556
0.005185138
0.004891652
0.0046131029
0.0043488125
0.0040981212
0.0038603879
0.0036349913
0.00342133
0.0032188229
0.0030269094
0.0028450489
0.0026727213
0.0025094262
0.0023546831
0.0022080307
0.0020690266
0.001937247
0.0018122859
0.0016937549
0.0015812828
0.0014745143
0.0013731106
0.0012767477
0.0011851167
0.0010979227
0.0010148847
0.00093573463
0.0008602169
0.00078808807
0.00071911611
0.00065307996
0.00058976902
0.00052898262
0.00047052957
0.0004142277
0.00035990336
0.00030739104
0.00025653291
0.00020717843
0.00015918395
0.00011241237
6.6732757e-05
2.2020018e-05
0.00810213
0.0076666825
0.0072519813
0.0068571339
0.0064813778
0.0061239695
0.0057841738
0.005461265
0.0051545291
0.0048632657
0.0045867896
0.0043244323
0.0040755427
0.0038394883
0.0036156557
0.0034034508
0.0032022998
0.0030116483
0.0028309622
0.002659727
0.0024974481
0.0023436498
0.0021978757
0.0020596881
0.0019286672
0.0018044112
0.0016865354
0.0015746719
0.0014684689
0.0013675905
0.0012717157
0.0011805382
0.0010937657
0.0010111194
0.00093233335
0.0008571541
0.00078534003
0.00071666086
0.00065089714
0.00058783977
0.00052728947
0.00046905633
0.00041295936
0.00035882601
0.00030649177
0.00025579973
0.00020660021
0.00015875034
0.00011211373
6.6560095e-05
2.1964936e-05
0.0080433746
0.0076119618
0.0072010474
0.0068097518
0.0064373231
0.0060830287
0.0057461449
0.0054259574
0.0051217632
0.0048328724
0.0045586101
0.0042983175
0.004051353
0.0038170928
0.0035949318
0.003384284
0.0031845828
0.0029952809
0.0028158508
0.0026457843
0.0024845923
0.0023318049
0.0021869708
0.002049657
0.0019194484
0.0017959474
0.0016787732
0.0015675616
0.0014619646
0.0013616492
0.0012662976
0.0011756064
0.0010892859
0.0010070598
0.00092866453
0.00085384871
0.00078237275
0.00071400823
0.00064853744
0.00058575287
0.00052545672
0.00046746048
0.0004115844
0.00035765713
0.00030551523
0.00025500279
0.00020597106
0.00015827801
0.00011178803
6.6371525e-05
2.1904666e-05
0.0079807685
0.0075536329
0.0071467351
0.0067592097
0.0063903153
0.0060393309
0.0057055442
0.0053882525
0.005086764
0.0048004001
0.0045284964
0.0042704043
0.004025492
0.0037931449
0.0035727668
0.0033637799
0.0031656255
0.0029777638
0.0027996742
0.002630855
0.0024708235
0.0023191156
0.0021752854
0.002038905
0.0019095641
0.0017868697
0.0016704454
0.0015599308
0.0014549816
0.0013552683
0.0012604765
0.0011703057
0.001084469
0.0010026929
0.00092471613
0.00085028973
0.0007791762
0.00071114912
0.00064599262
0.00058350089
0.00052347774
0.00046573611
0.00041009763
0.00035639221
0.00030445757
0.00025413889
0.00020528838
0.00015776496
0.00011143383
6.6166198e-05
2.1838926e-05
0.0079142028
0.007491593
0.007088948
0.0067054164
0.0063402684
0.0059927944
0.0056622942
0.0053480768
0.0050494622
0.0047657833
0.0044963866
0.0042406342
0.0039979045
0.0037675926
0.0035491116
0.0033418925
0.0031453847
0.0029590564
0.0027823944
0.0026149038
0.0024561087
0.0023055509
0.0021627904
0.0020274049
0.0018989893
0.001777155
0.0016615304
0.0015517594
0.0014475013
0.0013484308
0.0012542365
0.0011646213
0.0010793015
0.00099800613
0.00092047672
0.00084646668
0.00077574082
0.00070807482
0.00064325477
0.00058107671
0.00052134613
0.00046387755
0.00040849406
0.00035502691
0.00030331508
0.00025320489
0.00020454965
0.00015720923
0.00011104976
6.5943287e-05
2.1767441e-05
0.0078435834
0.0074257538
0.0070276023
0.0066482929
0.0062871072
0.005943348
0.0056163272
0.005305366
0.0050097968
0.0047289639
0.0044622257
0.0042089552
0.0039685413
0.0037403896
0.0035239226
0.0033185806
0.0031238217
0.0029391224
0.0027639772
0.0025978987
0.0024404176
0.0022910826
0.0021494598
0.0020151325
0.0018877009
0.001766782
0.0016520084
0.0015430288
0.0014395068
0.0013411206
0.0012475629
0.0011585398
0.0010737708
0.00099298798
0.00091593564
0.0008423698
0.00077205767
0.00070477718
0.00064031652
0.00057847367
0.00051905592
0.00046187948
0.00040676899
0.00035355714
0.00030208424
0.00025219787
0.00020375247
0.00015660898
0.00011063451
6.5702006e-05
2.1689948e-05
0.0077688353
0.007356044
0.0069626308
0.0065877752
0.0062307712
0.0058909339
0.005567588
0.0052600676
0.0049677174
0.0046898941
0.004425968
0.0041753237
0.0039373612
0.0037114965
0.0034971625
0.003293809
0.0031009033
0.0029179304
0.0027443931
0.0025798118
0.0024237244
0.0022756865
0.0021352706
0.0020020661
0.0018756791
0.0017557318
0.001641862
0.0015337229
0.0014309827
0.0013333238
0.0012404426
0.0011520489
0.0010678657
0.00098762806
0.00091108336
0.00083799031
0.00076811871
0.00070124886
0.00063717119
0.00057568572
0.00051660168
0.00045973705
0.00040491813
0.00035197914
0.00030076185
0.00025111513
0.00020289465
0.0001559625
0.00011018685
6.5441625e-05
2.1606204e-05
0.007689906
0.0072824138
0.0068939862
0.0065238184
0.0061712172
0.0058355108
0.005516037
0.0052121431
0.004923187
0.0046485382
0.0043875793
0.0041397069
0.0039043325
0.0036808833
0.0034688026
0.0032675503
0.0030766033
0.0028954557
0.0027236187
0.0025606209
0.002406008
0.0022593426
0.0021202041
0.0019881883
0.0018629074
0.0017439891
0.0016310766
0.0015238282
0.0014219165
0.0013250285
0.0012328646
0.0011451385
0.0010615767
0.0009819176
0.00090591174
0.00083332073
0.00076391706
0.00069748357
0.00063381302
0.00057270764
0.00051397869
0.00045744603
0.00040293774
0.00035028966
0.00029934507
0.00024995428
0.00020197425
0.0001552683
0.00010970572
6.5161495e-05
2.1515989e-05
0.0076067706
0.0072048395
0.0068216457
0.0064564004
0.0061084237
0.0057770571
0.0054616526
0.0051615713
0.0048761846
0.0046048752
0.0043470389
0.0041020844
0.0038694355
0.0036485306
0.0034388241
0.0032397864
0.0030509043
0.0028716814
0.0027016379
0.0025403107
0.0023872537
0.0022420369
0.002104247
0.0019734865
0.0018493737
0.0017315425
0.0016196416
0.0015133344
0.0014122987
0.0013162258
0.0012248206
0.0011378008
0.0010548965
0.00097584981
0.00090041449
0.0008283552
0.00075944731
0.00069347631
0.00063023745
0.00056953527
0.00051118317
0.00045500303
0.00040082478
0.00034848601
0.0002978316
0.00024871335
0.00020098965
0.00015452509
0.0001091902
6.4861067e-05
2.1419118e-05
0.0075194361
0.0071233283
0.0067456161
0.0063855271
0.0060423949
0.0057155757
0.0054044362
0.0051083518
0.0048267083
0.0045589024
0.0043043428
0.0040624516
0.0038326646
0.0036144323
0.0034072205
0.0032105104
0.0030237993
0.0028466004
0.0026784434
0.002518874
0.0023674543
0.0022237625
0.0020873925
0.0019579539
0.0018350717
0.0017183858
0.0016075509
0.001502236
0.0014021237
0.0013069105
0.0012163055
0.0011300308
0.0010478205
0.00096942038
0.00089458752
0.00082308991
0.00075470588
0.00068922375
0.00062644138
0.00056616573
0.0005082125
0.00045240566
0.00039857711
0.00034656627
0.00029621975
0.00024739093
0.00019993967
0.00015373196
0.00010863961
6.4539923e-05
2.1315448e-05
0.0074279467
0.0070379242
0.0066659395
0.0063112371
0.0059731658
0.0056510977
0.005344415
0.0050525086
0.0047747791
0.0045106376
0.0042595067
0.0040208216
0.0037940311
0.0035785981
0.0033739998
0.003179729
0.0029952936
0.002820217
0.0026540386
0.0024963133
0.0023466119
0.0022045207
0.0020696414
0.0019415909
0.0018200012
0.0017045187
0.0015948041
0.001490532
0.0013913907
0.0012970814
0.0012073183
0.0011218276
0.0010403476
0.00096262798
0.00088842951
0.00081752349
0.00074969142
0.00068472456
0.0006224235
0.00056259778
0.00050506546
0.00044965276
0.00039619364
0.00034452946
0.00029450862
0.0002459862
0.00019882362
0.00015288834
0.00010805354
6.4197808e-05
2.1204888e-05
0.007332387
0.0069487159
0.006582701
0.0062336091
0.0059008079
0.0055836875
0.0052816472
0.0049940942
0.0047204444
0.0044601236
0.0042125688
0.0039772291
0.0037535662
0.0035410557
0.0033391871
0.0031474647
0.0029654074
0.0027925493
0.0026284397
0.0024726431
0.0023247391
0.0021843228
0.0020510038
0.0019244066
0.0018041704
0.0016899482
0.0015814072
0.001478228
0.0013801044
0.0012867428
0.0011978624
0.001113194
0.0010324803
0.00095547489
0.00088194237
0.00081165756
0.00074440527
0.00067997982
0.00061818468
0.00055883208
0.00050174257
0.0004467447
0.00039367462
0.00034237571
0.00029269828
0.00024449917
0.00019764147
0.00015199418
0.00010743192
6.3834661e-05
2.1087414e-05
0.007232887
0.0068558495
0.0064960385
0.0061527685
0.0058254346
0.0055134482
0.0052162266
0.0049331939
0.0046637818
0.0044074314
0.0041635942
0.0039317331
0.0037113237
0.0035018544
0.0033028272
0.0031137582
0.0029341778
0.002763631
0.0026016773
0.0024478912
0.0023018615
0.0021631919
0.0020315006
0.0019064199
0.0017875963
0.0016746899
0.0015673744
0.0014653366
0.0013682761
0.0012759049
0.0011879471
0.0011041384
0.001024226
0.00094796766
0.00087513191
0.00080549725
0.00073885193
0.00067499347
0.00061372835
0.00055487159
0.00049824635
0.00044368362
0.00039102184
0.00034010651
0.00029078992
0.00024293078
0.00019639391
0.00015104996
0.00010677508
6.3450661e-05