/*--------------------------------*- C++ -*----------------------------------*\
| =========                 |                                                 |
| \\      /  F ield         | OpenFOAM: The Open Source CFD Toolbox           |
|  \\    /   O peration     | Version:  2312                                  |
|   \\  /    A nd           | Website:  www.openfoam.com                      |
|    \\/     M anipulation  |                                                 |
\*---------------------------------------------------------------------------*/
FoamFile
{
    version     2.0;
    format      ascii;
    arch        "LSB;label=32;scalar=64";
    class       volScalarField;
    location    "0.05";
    object      H2O;
}
// * * * * * * * * * * * * * * * * * * * * * * * * * * * * * * * * * * * * * //

dimensions      [0 0 0 0 0 0 0];

internalField   nonuniform List<scalar> 
3224
(
0.0062182492
0.0059030592
0.0056008087
0.0053110965
0.0050335202
0.0047676739
0.0045131488
0.0042695348
0.0040364229
0.0038134065
0.0036000829
0.0033960542
0.0032009284
0.0030143204
0.0028358525
0.0026651549
0.0025018666
0.0023456354
0.0021961185
0.0020529827
0.0019159043
0.0017845697
0.0016586751
0.0015379266
0.0014220402
0.001310742
0.0012037675
0.0011008622
0.0010017808
0.0009062874
0.00081415544
0.00072516715
0.00063911358
0.00055579431
0.00047501728
0.00039659856
0.00032036214
0.00024613973
0.00017377054
0.00010310113
3.3985477e-05
0.0062179499
0.005902799
0.0056005906
0.005310914
0.0050333674
0.0047675467
0.0045130439
0.0042694498
0.0040363556
0.003813355
0.0036000455
0.0033960294
0.0032009148
0.0030143167
0.0028358574
0.0026651675
0.0025018857
0.0023456602
0.0021961481
0.0020530162
0.001915941
0.0017846089
0.0016587161
0.0015379688
0.0014220832
0.0013107851
0.0012038103
0.0011009042
0.0010018216
0.00090632672
0.00081419285
0.00072520232
0.00063914619
0.00055582408
0.00047504393
0.00039662184
0.00032038181
0.00024615556
0.0001737823
0.00010310861
3.398817e-05
0.0062172059
0.0059021302
0.00559999
0.0053103731
0.0050328799
0.0047671074
0.0045126486
0.0042690948
0.0040360376
0.003813071
0.0035997927
0.0033958051
0.0032007168
0.0030141427
0.0028357054
0.0026650354
0.0025017719
0.0023455629
0.0021960657
0.0020529473
0.0019158842
0.0017845629
0.0016586798
0.001537941
0.0014220629
0.0013107713
0.0012038022
0.0011009008
0.0010018222
0.00090633054
0.00081419924
0.00072521063
0.00063915582
0.00055583446
0.00047505453
0.00039663215
0.00032039134
0.00024616384
0.00017378891
0.00010311311
3.3989893e-05
0.0062160236
0.0059010559
0.0055990074
0.0053094739
0.0050320573
0.0047663556
0.0045119623
0.0042684691
0.0040354681
0.0038125535
0.0035993234
0.0033953805
0.0032003334
0.0030137975
0.0028353953
0.0026647578
0.002501524
0.0023453424
0.0021958704
0.002052775
0.001915733
0.0017844309
0.0016585652
0.0015378422
0.0014219784
0.0013106997
0.0012037422
0.0011008512
0.0010017817
0.00090629818
0.00081417397
0.0007251915
0.00063914194
0.00055582498
0.00047504866
0.00039662911
0.00032039042
0.00024616433
0.00017379015
0.00010311451
3.3990619e-05
0.0065425353
0.0062144172
0.0058995729
0.0055976389
0.0053082124
0.0050308958
0.0047652874
0.0045109809
0.0042675686
0.004034643
0.0038117986
0.0035986338
0.0033947516
0.0031997609
0.0030132772
0.0028349236
0.0026643309
0.0025011388
0.0023449955
0.002195559
0.0020524962
0.0019154843
0.0017842099
0.0016583695
0.0015376699
0.0014218273
0.0013105681
0.0012036282
0.0011007533
0.0010016984
0.00090622797
0.00081411553
0.00072514358
0.00063910335
0.0005557946
0.00047502541
0.000396612
0.00032037847
0.00024615661
0.00017378577
0.00010311265
3.3990309e-05
0.0065405048
0.0062124918
0.0058977852
0.0055959814
0.0053066782
0.0050294779
0.0047639785
0.0045097742
0.0042664574
0.0040336209
0.0038108599
0.0035977727
0.003393963
0.0031990397
0.0030126188
0.0028343235
0.002663785
0.0025006432
0.0023445467
0.0021951533
0.0020521306
0.0019151557
0.0017839155
0.0016581067
0.0015374361
0.0014216203
0.0013103857
0.0012034683
0.0011006141
0.001001578
0.00090612481
0.00081402801
0.00072507021
0.00063904274
0.00055574543
0.00047498644
0.00039658204
0.00032035636
0.00024614127
0.00017377614
0.00010310773
3.3989018e-05
0.0065381682
0.0062103072
0.0058957528
0.0055940923
0.0053049257
0.0050278545
0.0047624769
0.0045083868
0.0042651771
0.0040324409
0.0038097736
0.0035967741
0.0033930461
0.0031981992
0.0030118494
0.0028336203
0.0026631435
0.002500059
0.0023440158
0.0021946719
0.0020516951
0.0019147627
0.0017835619
0.0016577896
0.0015371528
0.0014213681
0.0013101622
0.0012032713
0.0011004414
0.0010014278
0.00090599503
0.00081391697
0.00072497626
0.00063896432
0.00055568108
0.00047493475
0.00039654167
0.00032032604
0.00024611977
0.00017376226
0.00010310034
3.3986937e-05
0.0065353551
0.0062076893
0.0058933127
0.0055918206
0.0053028146
0.005025896
0.0047606623
0.0045067076
0.0042636251
0.0040310081
0.0038084524
0.0035955574
0.003391927
0.0031971712
0.0030109066
0.0028327569
0.0026623541
0.0024993386
0.0023433595
0.0021940753
0.002051154
0.0019142731
0.0017831201
0.0016573921
0.0015367964
0.0014210498
0.0013098791
0.0012030207
0.0011002208
0.0010012349
0.00090582761
0.00081377294
0.00072485368
0.00063886134
0.00055559595
0.00047486582
0.00039648736
0.00032028483
0.00024609019
0.0001737429
0.00010308983
3.3983886e-05
0.00687314
0.0065320504
0.0062046044
0.005890433
0.0055891365
0.0053003174
0.0050235764
0.0047585104
0.0045047139
0.0042617801
0.0040293027
0.0038068778
0.0035941053
0.0033905896
0.0031959411
0.0030097766
0.0028317205
0.002661405
0.0024984708
0.0023425675
0.002193354
0.0020504985
0.0019136788
0.0017825826
0.0016569075
0.0015363608
0.0014206598
0.0013095313
0.001202712
0.0010999483
0.0010009957
0.00090561929
0.00081359306
0.00072469995
0.00063873162
0.0005554882
0.0004747781
0.00039641783
0.00032023172
0.00024605179
0.00017371754
0.0001030759
3.3979771e-05
0.0068690732
0.0065282142
0.006201015
0.0058870789
0.0055860078
0.0052974042
0.005020868
0.0047559958
0.0045023819
0.0042596198
0.0040273038
0.0038050304
0.0035923999
0.0033890171
0.0031944931
0.0030084449
0.0028304976
0.0026602836
0.0024974442
0.0023416294
0.0021924983
0.0020497196
0.0019129715
0.001781942
0.0016563289
0.0015358398
0.0014201922
0.0013091135
0.0012023404
0.0010996194
0.0010007065
0.00090536671
0.00081337435
0.00072451248
0.00063857291
0.0005553559
0.00047466998
0.00039633176
0.00032016567
0.00024600378
0.00017368565
0.00010305825
3.3974495e-05
0.0072190366
0.0068643741
0.0065238005
0.0061968815
0.0058832143
0.005582401
0.0052940436
0.0050177414
0.0047530908
0.004499686
0.0042571207
0.0040249896
0.0038028898
0.003590422
0.0033871918
0.0031928107
0.0030068963
0.002829074
0.0026589769
0.0024962467
0.0023405338
0.0021914979
0.0020488079
0.0019121425
0.0017811901
0.0016556487
0.0015352265
0.0014196411
0.0013086202
0.0012019008
0.0010992297
0.0010003631
0.00090506626
0.00081311363
0.00072428849
0.00063838281
0.00055519701
0.00047453976
0.00039622776
0.00032008556
0.00024594531
0.00017364664
0.00010303654
3.3967949e-05
0.0072133054
0.006859002
0.0065187615
0.0061921617
0.0058788005
0.0055782804
0.0052902026
0.005014166
0.0047497667
0.0044965991
0.0042542573
0.0040223365
0.0038004342
0.0035881516
0.0033850951
0.0031908764
0.0030051143
0.0028274346
0.0026574709
0.0024948654
0.0023392689
0.0021903417
0.0020477532
0.0019111825
0.0017803184
0.0016548594
0.0015345139
0.001419
0.0013080455
0.001201388
0.0010987745
0.00099996135
0.00090471414
0.00081280753
0.00072402502
0.00063815876
0.00055500934
0.00047438559
0.00039610433
0.00031999021
0.0002458755
0.0001735999
0.00010301041
3.3960019e-05
0.0075750944
0.0072067943
0.0068529067
0.0065130481
0.0061868111
0.0058737968
0.005573608
0.0052858459
0.0050101088
0.004745993
0.004493093
0.0042510032
0.0040193195
0.0037976401
0.0035855668
0.0033827067
0.0031886721
0.0030030823
0.0028255637
0.0026557508
0.0024932865
0.002337822
0.0021890181
0.0020465448
0.0019100817
0.0017793179
0.0016539526
0.0015336944
0.0014182619
0.0013073833
0.0012007964
0.0010982487
0.00099949666
0.0009043063
0.00081245249
0.00072371896
0.00063789806
0.00055479058
0.00047420551
0.00039595985
0.00031987835
0.0002457934
0.00017354475
0.00010297947
3.3950578e-05
0.0075672496
0.007199454
0.0068460347
0.0065066097
0.0061807832
0.00586816
0.0055683439
0.0052809361
0.0050055352
0.0047417372
0.0044891373
0.0042473303
0.0040159127
0.0037944833
0.003582645
0.0033800052
0.0031861774
0.0030007814
0.0028234443
0.0026538013
0.0024914956
0.0023361797
0.0021875147
0.0020451713
0.0019088295
0.001778179
0.0016529194
0.0015327599
0.0014174195
0.0013066268
0.00120012
0.0010976468
0.0009989642
0.00090383844
0.0008120447
0.00072336695
0.0006375978
0.00055453824
0.00047399745
0.00039579261
0.00031974861
0.00024569795
0.00017348047
0.0001029433
3.393949e-05
0.0079403564
0.0075584529
0.0071912249
0.0068383298
0.0064993933
0.0061740286
0.0058618443
0.0055624454
0.0052754338
0.0050004081
0.004736965
0.0044847
0.0042432086
0.004012088
0.003790938
0.003579362
0.0033769686
0.0031833717
0.0029981923
0.0028210582
0.0026516053
0.0024894777
0.0023343282
0.0021858188
0.0020436207
0.0019074148
0.0017768915
0.0016517506
0.001531702
0.0014164651
0.001305769
0.0011993523
0.0010969631
0.00099835879
0.00090330596
0.00081158008
0.00072296543
0.00063725488
0.00055424966
0.00047375918
0.00039560077
0.00031959953
0.00024558804
0.00017340629
0.00010290144
3.3926609e-05
0.0079298812
0.0075486438
0.0071820441
0.0068297331
0.0064913437
0.0061664958
0.0058548015
0.0055558678
0.005269297
0.0049946887
0.0047316401
0.0044797472
0.0042386066
0.0040078162
0.0037869767
0.0035756925
0.0033735729
0.0031802331
0.0029952947
0.0028183865
0.0026491451
0.0024872157
0.0023322518
0.0021839161
0.0020418804
0.0019058262
0.0017754446
0.0016504363
0.0015305116
0.0014153904
0.0013048024
0.0011984865
0.0010961915
0.00099767496
0.00090270396
0.0008110543
0.00072251059
0.000636866
0.00055392202
0.0004734883
0.00039538238
0.00031942953
0.0002454625
0.00017332139
0.00010285341
3.3911773e-05
0.0083136323
0.0079182471
0.0075377511
0.0071718453
0.0068201829
0.006482403
0.0061581305
0.0058469811
0.0055485636
0.0052624817
0.0049883358
0.0047257239
0.0044742431
0.0042334909
0.0040030661
0.0037825704
0.0035716093
0.0033697932
0.0031767381
0.0029920668
0.002815409
0.0026464024
0.0024846927
0.0023299346
0.0021817916
0.0020399363
0.0019040509
0.001773827
0.0016489661
0.0015291791
0.0014141867
0.001303719
0.0011975155
0.0010953254
0.00099690686
0.00090202722
0.00081046274
0.00072199838
0.00063642763
0.00055355229
0.00047318225
0.00039513532
0.00031923694
0.00024532005
0.00017322486
0.00010279869
3.3894815e-05
0.0082998988
0.0079053769
0.0075256996
0.0071605594
0.0068096149
0.0064725105
0.0061488758
0.0058383297
0.005540483
0.0052549412
0.0049813058
0.004719176
0.0044681499
0.0042278262
0.0039978047
0.0037776884
0.003567084
0.0033656028
0.0031728622
0.0029884858
0.0028121047
0.0026433573
0.0024818906
0.00232736
0.00217943
0.0020377741
0.0019020754
0.0017720262
0.0016473288
0.0015276945
0.0014128448
0.0013025104
0.0011964316
0.001094358
0.00099604829
0.00090127023
0.0008098005
0.00072142449
0.00063593602
0.00055313724
0.00047283833
0.00039485734
0.00031901996
0.00024515931
0.00017311575
0.00010273671
3.3875549e-05
0.0082847553
0.007891189
0.0075124123
0.0071481144
0.0067979615
0.0064616027
0.0061386719
0.0058287911
0.0055315735
0.0052466265
0.004973553
0.0047119536
0.0044614277
0.0042215753
0.0039919975
0.0037722986
0.0035620864
0.0033609738
0.0031685792
0.0029845276
0.0028084509
0.0026399891
0.00247879
0.0023245101
0.0021768149
0.0020353789
0.0018998859
0.0017700294
0.0016455122
0.0015260466
0.0014113548
0.0013011679
0.0011952269
0.001093282
0.00099509266
0.0009004271
0.00080906236
0.00072078432
0.00063538717
0.00055267343
0.00047245361
0.00039454605
0.00031877668
0.00024497884
0.00017299305
0.00010266687
3.3853779e-05
0.0082681185
0.0078756023
0.0074978098
0.0071344354
0.0067851518
0.0064496129
0.0061274561
0.0058183066
0.0055217801
0.0052374861
0.0049650292
0.0047040117
0.0044540345
0.004214699
0.0039856079
0.0037663667
0.003556585
0.0033558767
0.0031638618
0.0029801665
0.0028044242
0.0026362758
0.0024753706
0.0023213661
0.0021739288
0.0020327345
0.0018974678
0.0017678231
0.0016435041
0.0015242242
0.0014097059
0.0012996815
0.0011938926
0.0010920899
0.00099403324
0.00089949161
0.00080824279
0.00072007301
0.00063477684
0.00055215723
0.00047202503
0.0003941989
0.00031850505
0.00024477706
0.00017285566
0.00010258853
3.3829294e-05
0.0086561835
0.0082499032
0.0078585292
0.0074818088
0.0071194438
0.006771112
0.0064364714
0.0061151628
0.0058068146
0.0055110451
0.0052274659
0.004955684
0.0046953032
0.0044459263
0.0042071563
0.0039785975
0.0037598572
0.0035505463
0.0033502805
0.0031586811
0.0029753758
0.0027999995
0.0026321944
0.002471611
0.0023179081
0.0021707536
0.002029824
0.0018948054
0.001765393
0.0016412915
0.0015222152
0.0014078875
0.0012980415
0.0011924194
0.0010907729
0.00099286241
0.00089845739
0.00080733613
0.00071928542
0.00063410053
0.00055158476
0.00047154929
0.00039381317
0.0003182029
0.00024455233
0.00017270241
0.000102501
3.380187e-05
0.0086350075
0.0082300176
0.0078398777
0.0074643225
0.0071030576
0.0067557647
0.0064221052
0.0061017234
0.0057942506
0.0054993079
0.0052165094
0.0049454643
0.0046857785
0.0044370568
0.0041989039
0.0039709261
0.0037527324
0.0035439354
0.0033441526
0.0031530068
0.0029701274
0.0027951507
0.0026277205
0.0024674887
0.0023141155
0.0021672699
0.0020266298
0.0018918824
0.0017627241
0.0016388605
0.001520007
0.0014058879
0.0012962372
0.001190798
0.0010893226
0.00099157225
0.00089731709
0.000806336
0.00071841627
0.00063335366
0.00055095194
0.00047102293
0.000393386
0.00031786793
0.00024430289
0.00017253208
0.00010240355
3.3771266e-05
0.0094643697
0.0090305347
0.0086119379
0.0082083547
0.0078195505
0.0074452598
0.0070851911
0.0067390291
0.0064064384
0.0060870664
0.0057805474
0.0054865055
0.0052045575
0.0049343149
0.004675386
0.0044273777
0.0041898968
0.0039625516
0.0037449531
0.0035367158
0.0033374589
0.0031468072
0.0029643917
0.0027898505
0.0026228288
0.0024629802
0.0023099663
0.0021634575
0.0020231332
0.0018886816
0.0017598005
0.0016361966
0.0015175863
0.0014036951
0.0012942578
0.0011890184
0.00108773
0.00099015474
0.00089606346
0.00080523571
0.00071745947
0.000632531
0.00055025457
0.00047044241
0.00039291433
0.00031749768
0.00024402687
0.00017234335
0.00010229542
3.373723e-05
0.0098834833
0.0094360297
0.0090038689
0.0085868665
0.0081848047
0.0077974459
0.0074245258
0.0070657551
0.0067208212
0.0063893917
0.0060711171
0.0057656349
0.0054725723
0.0051915486
0.0049221781
0.0046640717
0.0044168385
0.0041800878
0.00395343
0.0037364782
0.003528849
0.0033301637
0.0031400491
0.0029581379
0.00278407
0.0026174926
0.0024580607
0.0023054376
0.0021592953
0.0020193145
0.001885185
0.0017566056
0.0016332845
0.0015149392
0.0014012962
0.0012920914
0.0011870698
0.0010859855
0.00098860126
0.00089468887
0.00080402858
0.00071640904
0.00063162715
0.0005494878
0.0004698037
0.00039239509
0.00031708968
0.00024372231
0.00017213484
0.00010217577
3.369949e-05
0.0098508385
0.0094052923
0.0089749472
0.0085596718
0.0081592545
0.0077734586
0.0074020218
0.0070446568
0.0067010537
0.0063708829
0.0060537984
0.0057494406
0.0054574399
0.0051774186
0.0049089939
0.0046517794
0.0044053868
0.0041694278
0.0039435154
0.0037272649
0.0035202953
0.00332223
0.0031326979
0.0029513338
0.0027777795
0.0026116841
0.0024527045
0.0023005057
0.0021547613
0.0020151535
0.0018813737
0.0017531222
0.0016301084
0.001512051
0.0013986779
0.001289726
0.0011849414
0.001084079
0.00098690279
0.00089318523
0.00080270739
0.00071525869
0.00063063669
0.00054864691
0.00046910263
0.00039182465
0.0003166411
0.0002433872
0.00017190513
0.00010204375
3.3657763e-05
0.0098155115
0.0093720232
0.008943639
0.0085302295
0.0081315879
0.0077474801
0.0073776458
0.0070218002
0.0066796361
0.006350827
0.00603503
0.0057318891
0.0054410376
0.0051621013
0.0048947002
0.0046384509
0.004392968
0.004157866
0.0039327603
0.0037172689
0.0035110133
0.0033136191
0.0031247176
0.0029439459
0.0027709478
0.0026053745
0.0024468848
0.0022951456
0.0021498323
0.0020106289
0.0018772282
0.0017493321
0.0016266516
0.0015089066
0.0013958262
0.0012871488
0.0011826214
0.0010820001
0.00098504987
0.00089154405
0.0008012646
0.00071400175
0.00062955378
0.00054772692
0.00046833504
0.00039119952
0.00031614901
0.00024301919
0.00017165262
0.00010189847
3.3611759e-05
0.0097773525
0.009336081
0.0089098102
0.0084984128
0.0081016859
0.0077193984
0.0073512926
0.0069970863
0.0066564752
0.0063291361
0.0060147295
0.0057129026
0.0054232925
0.005145528
0.0048792327
0.0046240261
0.0043795259
0.0041453496
0.0039211154
0.0037064442
0.0035009599
0.003304291
0.003116071
0.0029359395
0.0027635426
0.0025985337
0.0024405738
0.0022893316
0.0021444846
0.0020057185
0.001872728
0.0017452166
0.0016228967
0.0015054899
0.0013927267
0.0012843465
0.0011800979
0.0010797379
0.00098303267
0.00088975651
0.00079969234
0.00071263125
0.00062837233
0.00054672254
0.00046749645
0.00039051603
0.0003156105
0.00024261604
0.00017137566
0.00010173891
3.3561148e-05
0.0097362094
0.0092973222
0.008873325
0.008464093
0.0080694272
0.0076890993
0.0073228545
0.0069704135
0.0066314754
0.0063057201
0.0059928119
0.0056924015
0.0054041295
0.0051276285
0.0048625253
0.0046084429
0.0043650024
0.0041318243
0.0039085301
0.0036947433
0.003490091
0.0032942043
0.0031067195
0.0029272787
0.0027555306
0.0025911308
0.0024337425
0.002283037
0.0021386934
0.0020003996
0.0018678521
0.0017407562
0.001618826
0.0015017847
0.0013893642
0.0012813055
0.0011773583
0.0010772811
0.00098084094
0.00088781342
0.00079798242
0.00071113995
0.000627086
0.00054562831
0.00046658219
0.0003897703
0.00031502245
0.0002421754
0.00017107262
0.00010156409
3.3505593e-05
0.0096919294
0.0092556015
0.0088340455
0.0084271397
0.0080346882
0.007656466
0.0072922213
0.0069416781
0.0066045388
0.0062804869
0.0059691904
0.005670304
0.0053834719
0.0051083305
0.0048445103
0.004591638
0.0043493381
0.0041172345
0.0038949521
0.0036821176
0.0034783611
0.0032833167
0.0030966236
0.0029179268
0.0027468774
0.0025831338
0.0024263616
0.0022762342
0.0021324332
0.0019946485
0.0018625787
0.0017359309
0.001614421
0.0014977739
0.0013857233
0.0012780115
0.0011743898
0.0010746178
0.0009784641
0.00088570528
0.00079612635
0.00070952034
0.00062568819
0.00054443851
0.00046558741
0.00038895829
0.00031438162
0.00024169475
0.00017074172
0.00010137299
3.3444763e-05
0.0096443582
0.009210772
0.0087918324
0.0083874206
0.0079973439
0.0076213803
0.0072592814
0.0069107747
0.0065755659
0.0062533427
0.0059437768
0.005646527
0.0053612415
0.0050875606
0.0048251188
0.0045735466
0.0043324723
0.0041015234
0.0038803283
0.0036685173
0.0034657236
0.0032715848
0.0030857429
0.002907846
0.002737548
0.0025745101
0.0024184005
0.0022688952
0.002125678
0.0019884412
0.0018568854
0.0017307199
0.0016096626
0.0014934402
0.0013817879
0.0012744499
0.0011711789
0.0010717361
0.00097589124
0.00088342228
0.00079411537
0.00070776468
0.00062417212
0.00054314728
0.00046450711
0.00038807583
0.00031368463
0.00024117153
0.00017038116
0.00010116451
3.3378299e-05
0.0095933403
0.0091626861
0.0087465457
0.0083448029
0.0079572683
0.0075837231
0.0072239223
0.0068775969
0.0065444566
0.006224193
0.005916482
0.0056209865
0.0053373592
0.0050652445
0.0048042809
0.0045541032
0.0043143435
0.0040846333
0.0038646048
0.0036538919
0.0034521315
0.0032589644
0.0030740362
0.0028969979
0.0027275067
0.0025652265
0.0024098285
0.0022609911
0.002118401
0.0019817528
0.0018507495
0.0017251024
0.0016045316
0.0014887656
0.0013775418
0.0012706059
0.0011677122
0.0010686236
0.00097311119
0.00088095437
0.00079194053
0.000705865
0.00062253081
0.00054174855
0.00046333614
0.00038711863
0.00031292803
0.00024060308
0.00016998906
0.00010093755
3.3305833e-05
0.0095387208
0.0091111968
0.0086980457
0.0082991541
0.0079143359
0.0075433754
0.0071860312
0.0068420382
0.0065111102
0.0061929428
0.0058872163
0.0055935983
0.0053117456
0.0050413074
0.0047819264
0.0045332417
0.0042948897
0.0040665062
0.0038477272
0.0036381906
0.0034375371
0.0032454112
0.0030614619
0.0028853438
0.0027167172
0.0025552493
0.0024006141
0.002252493
0.0021105755
0.0019745586
0.0018441478
0.0017190569
0.0015990081
0.0014837322
0.0013729682
0.001266464
0.0011639757
0.0010652676
0.00097011256
0.00087829131
0.00078959265
0.00070381319
0.00062075713
0.00054023616
0.00046206921
0.00038608229
0.00031210826
0.00023998666
0.00016956348
0.00010069096
3.3226986e-05
0.0094803464
0.0090561584
0.0086461941
0.008250343
0.0078684221
0.0075002192
0.0071454966
0.0068039931
0.0064754268
0.0061594978
0.0058558909
0.0055642783
0.0052843218
0.0050156749
0.0047579852
0.0045108963
0.0042740493
0.004047084
0.003829641
0.0036213623
0.0034218927
0.0032308804
0.0030479784
0.0028728447
0.0027051434
0.0025445447
0.002390726
0.0022433717
0.0021021741
0.0019668332
0.0018370571
0.001712562
0.0015930725
0.0014783216
0.0013680506
0.0012620092
0.0011599554
0.0010616555
0.00096688384
0.00087542274
0.00078706248
0.00070160102
0.00061884385
0.00053860383
0.000460701
0.00038496236
0.00031122174
0.00023931951
0.00016910247
0.00010042357
3.314137e-05
0.0094180674
0.0089974288
0.0085908559
0.0081982413
0.0078194053
0.0074541392
0.0071022091
0.0067633581
0.0064373087
0.0061237655
0.0058224183
0.0055329442
0.0052550098
0.0049882736
0.0047323883
0.0044870022
0.004251761
0.0040263095
0.0038102926
0.0036033568
0.0034051511
0.003215328
0.0030335444
0.0028594622
0.0026927492
0.0025330792
0.0023801329
0.0022335981
0.0020931701
0.0019585518
0.0018294542
0.0017055961
0.0015867048
0.0014725156
0.001362772
0.001257226
0.0011556374
0.0010577746
0.00096341349
0.00087233827
0.00078434071
0.00069922024
0.00061678371
0.00053684525
0.00045922609
0.00038375434
0.0003102648
0.00023859882
0.00016860405
0.00010013421
3.3048596e-05
0.0093517403
0.0089348714
0.0085319012
0.0081427255
0.007767168
0.0074050238
0.007056063
0.0067200329
0.0063966608
0.0060856561
0.0057867137
0.0054995157
0.0052237339
0.0049590323
0.0047050685
0.004461496
0.0042279655
0.0040041266
0.0037896293
0.0035841246
0.003387266
0.0031987106
0.0030181194
0.0028451584
0.0026794993
0.0025208197
0.0023688041
0.0022231435
0.0020835366
0.0019496895
0.0018213161
0.0016981382
0.0015798856
0.0014662962
0.001357116
0.0012520992
0.0011510078
0.0010536121
0.00095969006
0.00086902757
0.0007814181
0.00069666262
0.00061456947
0.00053495415
0.00045763914
0.00038245373
0.00030923384
0.00023782181
0.00016806623
9.9821679e-05
3.294827e-05
0.0092812295
0.0088683571
0.0084692071
0.0080836787
0.0077115992
0.0073527676
0.007006958
0.0066739225
0.006353393
0.0060450842
0.0057486961
0.0054639163
0.005190422
0.0049278827
0.0046759614
0.004434317
0.0042026055
0.0039804817
0.0037676006
0.0035636183
0.003368193
0.0031809865
0.0030016642
0.0028298966
0.0026653595
0.0025077345
0.0023567098
0.0022119803
0.002073248
0.0019402225
0.0018126208
0.0016901677
0.0015725959
0.0014596459
0.0013510665
0.001246614
0.001146053
0.0010491557
0.00095570235
0.00086548053
0.00077828556
0.0006939201
0.00061219403
0.00053292433
0.00045593483
0.00038105611
0.00030812525
0.0002369857
0.00016748704
9.9484818e-05
3.2840003e-05
0.009206411
0.0087977675
0.0084026607
0.0080209933
0.0076525964
0.0072972728
0.0069548013
0.0066249385
0.0063074215
0.0060019703
0.0057082902
0.0054260746
0.0051550065
0.0048947609
0.0046450066
0.0044054082
0.0041756272
0.0039553241
0.0037441589
0.0035417931
0.00334789
0.0031621161
0.0029841419
0.0028136422
0.0026502973
0.002493793
0.0023438216
0.0022000819
0.0020622797
0.0019301279
0.0018033469
0.0016816648
0.0015648173
0.0014525478
0.0013446078
0.0012407562
0.0011407599
0.0010443937
0.00095143955
0.00086168739
0.00077493435
0.00069098487
0.00060965051
0.00053074979
0.00045410804
0.00037955717
0.00030693555
0.00023608779
0.00016686459
9.9122481e-05
3.2723415e-05
0.009127175
0.0087229977
0.0083321616
0.0079545734
0.0075900679
0.0072384523
0.0068995097
0.0065730018
0.006258671
0.0059562426
0.005665428
0.005385926
0.005117426
0.0048596087
0.0046121492
0.0043747177
0.0041469817
0.0039286074
0.0037192605
0.0035186078
0.0033263181
0.0031420632
0.0029655182
0.0027963631
0.0026342826
0.0024789673
0.0023301134
0.002187424
0.0020506087
0.0019193842
0.0017934746
0.0016726111
0.0015565328
0.0014449862
0.0013377254
0.0012345124
0.0011351164
0.0010393146
0.00094689146
0.00085763892
0.00077135616
0.00068784952
0.00060693236
0.00052842485
0.00045215388
0.00037795282
0.0003056614
0.00023512551
0.00016619702
9.873357e-05
3.2598138e-05
0.0090434301
0.0086439599
0.0082576258
0.0078843383
0.0075239366
0.007176232
0.0068410125
0.0065180447
0.0062070767
0.0059078396
0.0056200505
0.0053434147
0.0050776274
0.0048223758
0.0045773412
0.0043422
0.0041166259
0.0039002909
0.0036928668
0.0034940261
0.0033034432
0.0031207953
0.0029457628
0.0027780307
0.0026172888
0.002463232
0.0023155614
0.0021739843
0.0020382144
0.0019079723
0.0017829859
0.00166299
0.0015477271
0.0014369467
0.0013304062
0.0012278703
0.0011291111
0.0010339083
0.00094204874
0.00085332665
0.00076754337
0.00068450726
0.00060403356
0.00052594423
0.00045006781
0.00037623925
0.00030429971
0.00023409646
0.00016548264
9.8317057e-05
3.2463829e-05
0.0089551072
0.0085605873
0.0081789886
0.0078102258
0.0074541425
0.0071105542
0.006779254
0.0064600139
0.0061525875
0.0058567121
0.0055721109
0.0052984955
0.0050355676
0.0047830211
0.0045405435
0.0043078179
0.0040845243
0.003870341
0.003664946
0.0034680178
0.0032792367
0.0030982854
0.0029248501
0.002758621
0.0025992929
0.0024465659
0.0023001457
0.0021597441
0.0020250791
0.0018958757
0.0017718655
0.0016527871
0.0015383866
0.0014284169
0.0013226386
0.0012208194
0.0011227344
0.0010281658
0.00093690318
0.00084874312
0.00076348924
0.00068095203
0.00060094874
0.00052330322
0.00044784579
0.00037441303
0.00030284769
0.00023299847
0.00016471988
9.7872008e-05
3.2320174e-05
0.0088621643
0.0084728386
0.0080962096
0.0077321964
0.0073806467
0.0070413811
0.0067141974
0.0063988735
0.0060951686
0.0058028263
0.0055215764
0.005251137
0.0049912164
0.0047415152
0.0045017279
0.0042715443
0.004050651
0.0038387329
0.0036354743
0.0034405602
0.0032536768
0.003074513
0.0029027606
0.0027381153
0.0025802775
0.0024289524
0.0022838505
0.0021446885
0.0020111891
0.0018830813
0.001760101
0.0016419909
0.0015285006
0.0014193868
0.0013144133
0.0012133511
0.0011159781
0.0010220797
0.00093144802
0.00084388216
0.00075918817
0.00067717879
0.00059767342
0.00052049788
0.00044548438
0.00037247127
0.00030130295
0.00023182968
0.00016390742
9.7397618e-05
3.2166901e-05
0.0087645917
0.008380703
0.008009277
0.0076502373
0.0073034362
0.0069686988
0.0066458285
0.0063346087
0.0060348049
0.0057461672
0.0054684317
0.0052013236
0.0049445582
0.004697843
0.0044608794
0.0042333644
0.0040149915
0.0038054523
0.003604438
0.0034116399
0.0032267507
0.0030494655
0.0028794821
0.0027165022
0.0025602315
0.0024103807
0.0022666657
0.002128808
0.0019965349
0.0018695803
0.0017476842
0.0016305935
0.0015180618
0.0014098494
0.0013057237
0.001205459
0.0011088366
0.0010156447
0.00092567829
0.0008387392
0.00075463598
0.00067318377
0.00059420418
0.00051752519
0.00044298096
0.00037041173
0.00029966365
0.00023058863
0.00016304419
9.6893242e-05
3.2003791e-05
0.0086624177
0.0082842055
0.007918213
0.007564368
0.0072225275
0.0068925217
0.0065741594
0.0062672298
0.005971505
0.0056867413
0.0054126822
0.0051490595
0.0048955959
0.0046520061
0.0044179989
0.0041932783
0.003977545
0.003770498
0.0035718351
0.0033812546
0.0031984557
0.00302314
0.0028550117
0.0026937782
0.0025391514
0.0023908475
0.0022485877
0.0021120987
0.001981113
0.0018553691
0.0017346115
0.0016185914
0.0015070666
0.0013998012
0.0012965665
0.0011971402
0.0011013069
0.0010088579
0.00091959129
0.00083331169
0.00074983028
0.00066896473
0.000590539
0.0005143833
0.00044033388
0.00036823297
0.00029792858
0.00022927436
0.00016212949
9.635844e-05
3.183069e-05
0.0085557155
0.008183413
0.0078230792
0.0074746453
0.0071379729
0.0068128975
0.0064992336
0.0061967765
0.0059053047
0.0056245815
0.0053543573
0.0050943714
0.0048443536
0.0046040263
0.0043731057
0.0041513033
0.0039383274
0.003733884
0.0035376782
0.0033494154
0.0031688017
0.0029955452
0.0028293567
0.00266995
0.0025170429
0.0023703575
0.0022296207
0.0020945645
0.0019649265
0.0018404502
0.0017208849
0.0016059864
0.0014955164
0.0013892435
0.0012869426
0.0011883951
0.0010933892
0.0010017194
0.00091318701
0.00082759948
0.00074477083
0.00066452134
0.00058667748
0.00051107177
0.0004375427
0.00036593456
0.00029609732
0.00022788651
0.00016116303
9.5793019e-05
3.1647525e-05
0.0084446105
0.0080784406
0.0077239832
0.0073811691
0.0070498652
0.0067299124
0.006421131
0.0061233226
0.0058362724
0.0055597507
0.0052935152
0.0050373127
0.0047908805
0.0045539488
0.0043262415
0.0041074777
0.0038973733
0.003695642
0.0035019964
0.0033161488
0.0031378128
0.0029667032
0.0028025375
0.002645036
0.0024939228
0.002348926
0.0022097783
0.0020762175
0.0019479865
0.0018248337
0.0017065136
0.0015927863
0.0014834184
0.0013781825
0.0012768575
0.0011792287
0.0010850879
0.00099423307
0.00090646866
0.00082160531
0.00073945993
0.00065985554
0.0005826212
0.00050759189
0.00043460841
0.00036351724
0.00029417043
0.00022642544
0.00016014504
9.5197091e-05
3.1454325e-05
0.0083292924
0.0079694598
0.0076210852
0.0072840894
0.0069583444
0.0066436969
0.0063399731
0.0060469812
0.0057645132
0.0054923466
0.0052302466
0.0049779674
0.0047352546
0.0045018458
0.0042774729
0.004061863
0.0038547399
0.0036558249
0.0034648382
0.0032814998
0.0031055303
0.0029366519
0.0027745887
0.002619068
0.0024698202
0.0023265797
0.0021890853
0.0020570803
0.0019303134
0.0018085382
0.0016915143
0.0015790067
0.0014707865
0.0013666307
0.0012663225
0.001169651
0.0010764119
0.00098640675
0.00089944327
0.00081533536
0.00073390296
0.00065497194
0.00057837409
0.00050394694
0.00043153371
0.00036098319
0.00029214958
0.00022489239
0.00015907634
9.4571122e-05
3.1251232e-05
0.0082100267
0.0078567103
0.0075146058
0.0071836124
0.0068636037
0.0065544318
0.0062559291
0.0059679104
0.0056901747
0.0054225068
0.0051646796
0.0049164551
0.0046775868
0.0044478204
0.0042268959
0.0040145484
0.0038105097
0.0036145091
0.0034262746