/*--------------------------------*- C++ -*----------------------------------*\
| =========                 |                                                 |
| \\      /  F ield         | OpenFOAM: The Open Source CFD Toolbox           |
|  \\    /   O peration     | Version:  2312                                  |
|   \\  /    A nd           | Website:  www.openfoam.com                      |
|    \\/     M anipulation  |                                                 |
\*---------------------------------------------------------------------------*/
FoamFile
{
    version     2.0;
    format      ascii;
    arch        "LSB;label=32;scalar=64";
    class       volScalarField;
    location    "0.05";
    object      k;
}
// * * * * * * * * * * * * * * * * * * * * * * * * * * * * * * * * * * * * * //

dimensions      [0 2 -2 0 0 0 0];

internalField   nonuniform List<scalar> 
3224
(
8.6423405
8.665156
8.6901154
8.7171907
8.7463531
8.7775731
8.8108206
8.8460658
8.8832785
8.9224293
8.9634889
9.0064284
9.0512194
9.0978341
9.1462451
9.1964254
9.2483486
9.3019888
9.3573206
9.4143189
9.4729593
9.5332175
9.5950698
9.658493
9.7234639
9.78996
9.8579589
9.9274384
9.9983769
10.070753
10.144544
10.219731
10.296292
10.374206
10.453453
10.534012
10.615864
10.698989
10.783367
10.868982
10.955803
8.6425382
8.665372
8.690339
8.7174158
8.7465767
8.7777934
8.8110366
8.8462766
8.8834838
8.9226286
8.9636818
9.0066149
9.0513993
9.0980072
9.1464114
9.1965848
9.2485011
9.3021345
9.3574594
9.4144508
9.4730843
9.5333358
9.5951814
9.6585979
9.7235623
9.7900518
9.8580442
9.9275174
9.9984496
10.070819
10.144605
10.219786
10.29634
10.374249
10.45349
10.534043
10.615889
10.699009
10.783381
10.868991
10.955806
8.6428297
8.6656798
8.69065
8.7177248
8.746881
8.7780915
8.8113274
8.8465595
8.8837582
8.9228942
8.9639384
9.0068622
9.0516372
9.0982357
9.1466303
9.1967941
9.2487009
9.3023247
9.3576401
9.4146222
9.4732464
9.5334886
9.5953251
9.6587326
9.7236882
9.790169
9.8581529
9.9276177
9.9985417
10.070903
10.144681
10.219854
10.296401
10.374302
10.453536
10.534082
10.615921
10.699033
10.783399
10.869001
10.95581
8.6432149
8.666076
8.6910442
8.7181133
8.7472616
8.778463
8.8116889
8.8469103
8.8840979
8.9232225
8.964255
9.0071669
9.0519299
9.0985163
9.1468988
9.1970505
9.2489452
9.302557
9.3578605
9.4148307
9.4734432
9.5336739
9.595499
9.6588954
9.7238399
9.79031
9.8582834
9.9277379
9.9986518
10.071004
10.144772
10.219935
10.296473
10.374365
10.45359
10.534128
10.615959
10.699063
10.78342
10.869014
10.955814
8.6229851
8.6437112
8.66656
8.6915197
8.718579
8.7477163
8.7789057
8.8121189
8.8473271
8.884501
8.9236115
8.9646298
9.0075273
9.0522757
9.0988475
9.1472153
9.1973525
9.2492326
9.3028299
9.358119
9.4150751
9.4736736
9.5338904
9.595702
9.6590851
9.7240166
9.7904739
9.8584348
9.9278772
9.9987793
10.071119
10.144876
10.220029
10.296557
10.374438
10.453653
10.534181
10.616002
10.699097
10.783444
10.869029
10.955819
8.6235985
8.6442684
8.6670972
8.6920435
8.7190899
8.7482139
8.7793893
8.812588
8.8477812
8.8849398
8.9240347
8.9650371
9.0079186
9.0526509
9.0992066
9.1475583
9.1976793
9.2495434
9.3031248
9.3583982
9.4153386
9.4739218
9.5341236
9.5959204
9.6592889
9.7242061
9.7906496
9.8585969
9.9280261
9.9989153
10.071243
10.144988
10.220129
10.296645
10.374515
10.45372
10.534237
10.616048
10.699133
10.78347
10.869044
10.955824
8.6242228
8.644868
8.6676753
8.6926052
8.7196365
8.7487452
8.779905
8.8130878
8.8482646
8.8854066
8.9244846
8.96547
9.0083342
9.0530493
9.0995876
9.1479219
9.1980257
9.2498726
9.303437
9.3586935
9.4156173
9.4741841
9.5343697
9.5961507
9.6595037
9.7244058
9.7908344
9.8587674
9.9281825
9.9990581
10.071373
10.145105
10.220233
10.296737
10.374596
10.453789
10.534296
10.616096
10.69917
10.783497
10.869061
10.95583
8.6249251
8.645555
8.6683383
8.6932481
8.7202607
8.7493513
8.7804928
8.8136568
8.8488148
8.8859375
8.9249961
8.9659618
9.0088062
9.0535014
9.1000198
9.1483343
9.1984183
9.2502456
9.3037904
9.3590277
9.4159325
9.4744805
9.5346477
9.5964106
9.6597459
9.7246307
9.7910426
9.8589591
9.9283583
9.9992185
10.071518
10.145236
10.22035
10.296841
10.374687
10.453867
10.534361
10.616149
10.699211
10.783527
10.869079
10.955836
8.6073128
8.6257365
8.6463352
8.6690908
8.6939767
8.7209674
8.7500366
8.7811568
8.8142994
8.8494356
8.8865363
8.9255727
8.966516
9.0093379
9.0540106
9.1005064
9.1487983
9.1988598
9.2506647
9.3041875
9.3594029
9.4162861
9.4748129
9.5349593
9.5967017
9.660017
9.7248823
9.7912751
9.8591732
9.9285544
9.9993972
10.07168
10.145381
10.22048
10.296956
10.374787
10.453953
10.534434
10.616208
10.699257
10.78356
10.869099
10.955843
8.6082931
8.6266533
8.6472134
8.6699374
8.6947958
8.7217611
8.7508058
8.7819015
8.8150197
8.8501312
8.887207
8.9262182
8.9671362
9.0099327
9.0545799
9.1010502
9.1493167
9.1993528
9.2511327
9.3046305
9.3598213
9.4166803
9.4751832
9.5353061
9.5970256
9.6603184
9.7251618
9.7915333
9.8594106
9.9287718
9.9995951
10.071859
10.145542
10.220624
10.297082
10.374897
10.454048
10.534513
10.616273
10.699308
10.783596
10.869121
10.955851
8.5933838
8.6093735
8.6276764
8.6481941
8.6708829
8.6957102
8.7226467
8.7516634
8.7827315
8.815822
8.8509057
8.8879535
8.9269364
8.9678261
9.010594
9.0552126
9.1016543
9.1498924
9.1999002
9.2516519
9.3051219
9.3602852
9.417117
9.4755932
9.53569
9.5973838
9.6606516
9.7254706
9.7918183
9.8596725
9.9290114
9.999813
10.072056
10.145719
10.220781
10.297221
10.375018
10.454151
10.5346
10.616344
10.699363
10.783636
10.869145
10.955859
8.5946067
8.6105585
8.6288084
8.6492814
8.6719319
8.6967248
8.7236288
8.7526142
8.7836513
8.8167108
8.8517634
8.8887798
8.9277313
8.9685892
9.0113254
9.0559121
9.1023221
9.1505284
9.2005047
9.2522251
9.3056641
9.3607967
9.4175984
9.4760449
9.5361126
9.597778
9.6610179
9.7258098
9.7921312
9.8599599
9.9292739
10.000052
10.072272
10.145912
10.220953
10.297372
10.375149
10.454264
10.534694
10.61642
10.699422
10.783678
10.86917
10.955868
8.5823882
8.595945
8.6118538
8.6300528
8.6504798
8.6730892
8.6978443
8.7247125
8.753663
8.7846656
8.8176906
8.8527086
8.8896902
8.9286067
8.9694295
9.0121304
9.0566818
9.1030565
9.1512277
9.201169
9.2528548
9.3062595
9.3613582
9.4181265
9.4765403
9.5365758
9.5982096
9.6614189
9.7261808
9.7924731
9.8602736
9.9295603
10.000312
10.072506
10.146123
10.22114
10.297536
10.375292
10.454385
10.534796
10.616503
10.699486
10.783724
10.869198
10.955877
8.5838752
8.5974008
8.613265
8.6314142
8.6517939
8.6743595
8.6990737
8.7259025
8.7548145
8.785779
8.818766
8.8537457
8.8906889
8.9295667
8.9703506
9.0130127
9.0575251
9.1038609
9.1519933
9.2018961
9.2535437
9.3069105
9.361972
9.4187035
9.4770811
9.5370812
9.5986804
9.6618558
9.7265849
9.7928451
9.8606146
9.9298713
10.000594
10.07276
10.14635
10.221341
10.297713
10.375445
10.454516
10.534905
10.616591
10.699554
10.783772
10.869227
10.955887
8.5743916
8.5854919
8.5989793
8.6147977
8.6328972
8.6532284
8.6757479
8.7004179
8.7272039
8.7560738
8.7869964
8.8199414
8.854879
8.89178
8.9306153
8.9713566
9.0139758
9.0584455
9.1047385
9.1528283
9.2026888
9.2542944
9.3076197
9.3626402
9.4193313
9.4776693
9.5376305
9.5991917
9.6623301
9.7270231
9.7932483
9.8609839
9.9302078
10.000899
10.073035
10.146595
10.221559
10.297904
10.37561
10.454656
10.535022
10.616685
10.699627
10.783824
10.869258
10.955897
8.5761665
8.5872389
8.6006858
8.6164575
8.6345071
8.6547883
8.6772592
8.7018819
8.7286216
8.7574456
8.7883224
8.8212216
8.8561131
8.8929678
8.9317565
8.9724511
9.0150235
9.0594463
9.1056926
9.1537358
9.20355
9.2551096
9.3083895
9.3633651
9.4200122
9.4783068
9.5382255
9.5997452
9.6628431
9.7274967
9.7936837
9.8613822
9.9305705
10.001227
10.07333
10.146858
10.221791
10.298108
10.375786
10.454806
10.535146
10.616785
10.699703
10.783878
10.86929
10.955908
8.5694814
8.5780832
8.5891211
8.6025259
8.6182501
8.636249
8.6564787
8.6788985
8.7034707
8.7301604
8.7589347
8.7897618
8.822611
8.8574524
8.8942565
8.9329945
8.9736381
9.0161594
9.0605311
9.1067263
9.1547187
9.2044824
9.2559919
9.3092223
9.364149
9.420748
9.4789953
9.5388678
9.6003423
9.6633961
9.7280068
9.7941523
9.8618105
9.9309599
10.001579
10.073646
10.14714
10.22204
10.298325
10.375973
10.454964
10.535277
10.616891
10.699784
10.783935
10.869324
10.95592
8.5715669
8.5801409
8.5911433
8.6045052
8.6201811
8.6381281
8.6583046
8.6806707
8.7051893
8.7318254
8.760546
8.7913193
8.8241144
8.8589012
8.8956505
8.9343333
8.9749215
9.0173872
9.0617033
9.107843
9.1557801
9.2054889
9.2569439
9.3101205
9.3649941
9.4215407
9.4797368
9.539559
9.6009843
9.6639903
9.7285545
9.7946549
9.8622695
9.9313768
10.001955
10.073984
10.14744
10.222305
10.298556
10.376172
10.455132
10.535416
10.617002
10.699869
10.783995
10.86936
10.955931
8.5737767
8.5823427
8.5933112
8.6066296
8.6222561
8.6401499
8.660271
8.6825808
8.7070425
8.7336214
8.7622844
8.7929996
8.8257361
8.860464
8.8971538
8.9357768
8.9763049
9.0187104
9.0629662
9.1090458
9.156923
9.2065722
9.2579682
9.3110864
9.3659024
9.4223924
9.4805328
9.5403006
9.6016728
9.6646269
9.7291408
9.7951924
9.8627599
9.9318217
10.002356
10.074343
10.14776
10.222586
10.2988
10.376381
10.455309
10.535562
10.617118
10.699957
10.784057
10.869396
10.955943
8.5761344
8.5846968
8.5956311
8.6089049
8.6244806
8.6423195
8.6623831
8.6846337
8.7090352
8.7355531
8.7641543
8.7948072
8.8274807
8.862145
8.8987706
8.937329
8.9777922
9.0201326
9.0643233
9.1103378
9.1581502
9.207735
9.2590672
9.3121223
9.3668761
9.4233048
9.4813852
9.5410941
9.6024089
9.6653071
9.7297667
9.7957656
9.8632822
9.9322951
10.002783
10.074724
10.148098
10.222883
10.299058
10.376602
10.455495
10.535714
10.61724
10.700049
10.784121
10.869433
10.955955
8.5725292
8.5786788
8.5872135
8.5981096
8.6113368
8.62686
8.6446421
8.6646458
8.6868343
8.7111721
8.7376251
8.7661605
8.7967465
8.8293524
8.8639482
8.9005048
8.9389937
8.9793869
9.0216572
9.0657776
9.111722
9.1594645
9.2089799
9.2602433
9.3132304
9.3679171
9.4242798
9.4822954
9.541941
9.6031939
9.6660319
9.7304329
9.7963752
9.8638372
9.9327973
10.003234
10.075127
10.148455
10.223196
10.299329
10.376834
10.455689
10.535874
10.617366
10.700144
10.784187
10.869472
10.955968
8.5752862
8.5814003
8.5898986
8.6007524
8.6139308
8.6293996
8.6471227
8.6670638
8.6891871
8.7134578
8.739842
8.7683072
8.7988218
8.8313553
8.8658778
8.9023604
8.9407745
8.9810926
9.0232874
9.0673323
9.1132013
9.1608687
9.2103094
9.2614988
9.3144127
9.3690272
9.425319
9.483265
9.5428424
9.6040288
9.6668021
9.7311403
9.7970218
9.8644251
9.9333288
10.003712
10.075553
10.148831
10.223525
10.299613
10.377076
10.455892
10.536039
10.617496
10.700242
10.784254
10.869511
10.95598
8.5735148
8.5745905
8.5782283
8.5842998
8.5927566
8.6035648
8.616692
8.6321041
8.6497658
8.6696417
8.6916967
8.7158965
8.7422079
8.7705986
8.8010372
8.8334934
8.8679375
8.9043408
8.9426749
8.9829125
9.0250264
9.0689903
9.1147784
9.1623652
9.2117258
9.2628358
9.3156712
9.3702083
9.426424
9.4842952
9.5437996
9.6049147
9.6676186
9.7318896
9.797706
9.8650464
9.9338897
10.004215
10.076
10.149225
10.223869
10.299911
10.377329
10.456103
10.536211
10.617631
10.700343
10.784324
10.869551
10.955993
8.5780794
8.5766587
8.5777524
8.5813491
8.587378
8.5957908
8.606551
8.6196248
8.6349779
8.6525757
8.6723835
8.694367
8.7184924
8.7447268
8.7730385
8.8033964
8.8357703
8.8701308
8.9064494
8.9446981
8.9848496
9.026877
9.0707544
9.1164558
9.1639564
9.2132312
9.2642563
9.3170076
9.3714619
9.427596
9.4853874
9.5448136
9.6058524
9.6684822
9.7326812
9.798428
9.8657014
9.9344802
10.004743
10.07647
10.149639
10.22423
10.300221
10.377592
10.456321
10.536388
10.61777
10.700446
10.784394
10.869591
10.956006
8.5814065
8.5799886
8.5810816
8.584647
8.590636
8.5990042
8.6097147
8.622733
8.638025
8.6555564
8.6752932
8.6972017
8.7212489
8.7474023
8.7756304
8.8059027
8.8381892
8.8724609
8.9086895
8.9468471
8.9869067
9.028842
9.0726268
9.1182359
9.1656443
9.2148276
9.2657619
9.3184235
9.3727893
9.4288364
9.4865424
9.5458851
9.6068426
9.6693932
9.7335155
9.7991881
9.86639
9.9351002
10.005298
10.076961
10.150071
10.224605
10.300543
10.377864
10.456547
10.53657
10.617912
10.700551
10.784465
10.869631
10.956018
8.5849042
8.5834971
8.5845845
8.5881238
8.5940756
8.6023993
8.6130589
8.6260199
8.6412485
8.658711
8.6783739
8.7002042
8.7241692
8.7502373
8.7783774
8.8085592
8.8407532
8.8749307
8.9110635
8.9491244
8.9890864
9.0309235
9.0746099
9.1201206
9.1674309
9.2165166
9.2673542
9.3199202
9.3741916
9.4301461
9.4877612
9.547015
9.6078858
9.6703522
9.7343928
9.7999865
9.8671124
9.9357496
10.005877
10.077475
10.150521
10.224995
10.300877
10.378146
10.456779
10.536757
10.618057
10.700658
10.784537
10.869672
10.956031
8.5885793
8.5871842
8.5882655
8.5917817
8.5976983
8.6059779
8.6165858
8.6294881
8.6446513
8.6620423
8.6816283
8.7033768
8.727256
8.7532346
8.781282
8.8113684
8.8434646
8.8775424
8.9135739
8.9515321
8.9913906
9.0331234
9.0767053
9.1221115
9.1693175
9.2182996
9.2690343
9.3214986
9.3756699
9.4315257
9.4890442
9.5482035
9.6089822
9.6713591
9.735313
9.8008229
9.8678682
9.936428
10.006482
10.078009
10.150988
10.2254
10.301223
10.378436
10.457018
10.536948
10.618205
10.700766
10.784609
10.869712
10.956043
8.5924348
8.5910516
8.5921273
8.5956223
8.6015053
8.6097414
8.620297
8.6331391
8.6482349
8.6655521
8.6850583
8.7067218
8.7305113
8.7563961
8.7843461
8.8143321
8.8463254
8.8802979
8.9162223
8.954072
8.9938209
9.0354434
9.0789145
9.1242098
9.1713053
9.2201775
9.2708031
9.3231596
9.3772245
9.4329758
9.4903918
9.5494509
9.610132
9.6724139
9.7362759
9.8016972
9.8686571
9.9371351
10.007111
10.078563
10.151473
10.225818
10.301578
10.378733
10.457262
10.537143
10.618354
10.700874
10.784681
10.869752
10.956055
8.5964715
8.5951003
8.596171
8.5996464
8.6054972
8.61369
8.6241929
8.6369737
8.6520005
8.6692414
8.688665
8.7102401
8.7339361
8.7597229
8.7875711
8.8174517
8.8493367
8.8831984
8.91901
8.9567452
8.9963784
9.0378843
9.0812383
9.1264164
9.173395
9.2221508
9.2726611
9.3249034
9.3788558
9.4344964
9.4918039
9.550757
9.6113347
9.6735163
9.7372812
9.8026087
9.8694785
9.9378702
10.007763
10.079138
10.151973
10.226249
10.301944
10.379038
10.457511
10.53734
10.618505
10.700983
10.784753
10.869791
10.956066
8.6006883
8.5993296
8.6003965
8.6038537
8.6096732
8.6178233
8.6282732
8.6409918
8.6559478
8.6731103
8.6924485
8.713932
8.7375308
8.7632155
8.7909572
8.8207276
8.852499
8.8862444
8.9219374
8.9595522
8.9990634
9.0404464
9.0836771
9.1287316
9.1755867
9.2242197
9.2746081
9.32673
9.3805635
9.4360872
9.4932801
9.5521213
9.61259
9.6746657
9.738328
9.8035567
9.8703315
9.9386323
10.008439
10.079731
10.152489
10.226691
10.302318
10.379349
10.457763
10.537539
10.618656
10.701091
10.784824
10.869829
10.956077
8.6050819
8.6037372
8.6048016
8.608242
8.6140314
8.6221394
8.6325362
8.6451917
8.6600755
8.6771576
8.6964079
8.7177967
8.7412948
8.7668733
8.794504
8.8241593
8.855812
8.8894356
8.9250042
8.9624926
9.0018758
9.0431296
9.0862304
9.1311548
9.1778801
9.2263837
9.2766438
9.3286387
9.3823469
9.4377476
9.4948198
9.553543
9.6138969
9.6758611
9.7394155
9.8045402
9.8712152
9.9394204
10.009136
10.080342
10.153018
10.227144
10.3027
10.379665
10.458019
10.53774
10.618807
10.701199
10.784893
10.869866
10.956088
8.6096473
8.6083187
8.6093826
8.6128078
8.6185685
8.6266351
8.6369789
8.6495707
8.6643812
8.6813811
8.700541
8.7218322
8.7452261
8.7706946
8.7982101
8.8277455
8.8592744
8.8927708
8.9282093
8.9655653
9.0048144
9.0459328
9.0888973
9.1336852
9.180274
9.2286418
9.278767
9.3306284
9.3842051
9.4394763
9.4964216
9.5550209
9.615254
9.6771011
9.7405423
9.8055578
9.872128
9.9402331
10.009853
10.080969
10.15356
10.227607
10.303089
10.379986
10.458277
10.537941
10.618958
10.701305
10.784961
10.869901
10.956097
8.6143774
8.6130678
8.6141335
8.6175457
8.6232791
8.6313053
8.6415965
8.6541245
8.6688607
8.6857768
8.7048444
8.7260353
8.7493218
8.7746766
8.8020726
8.8314836
8.8628837
8.8962476
8.9315506
8.9687683
9.0078772
9.048854
9.091676
9.1363209
9.1827667
9.2309922
9.280976
9.3326975
9.3861361
9.4412716
9.4980839
9.5565532
9.6166598
9.6783841
9.7417066
9.8066078
9.8730683
9.9410687
10.010589
10.081611
10.154114
10.228077
10.303482
10.380309
10.458535
10.538142
10.619106
10.701409
10.785026
10.869935
10.956106
8.6192628
8.6179758
8.6190465
8.622448
8.6281563
8.6361435
8.6463828
8.658847
8.6735084
8.6903396
8.7093129
8.7304012
8.7535774
8.7788149
8.8060876
8.8353699
8.8666365
8.8998628
8.9350247
8.9720986
9.0110615
9.0518905
9.0945637
9.1390592
9.1853558
9.2334324
9.2832684
9.3348436
9.3881378
9.4431313
9.4998044
9.5581378
9.618112
9.6797079
9.7429063
9.8076881
9.8740342
9.9419253
10.011342
10.082266
10.154676
10.228554
10.30388
10.380633
10.458793
10.53834
10.619253
10.701509
10.785089
10.869966
10.956114
8.6242917
8.6230318
8.6241112
8.6275053
8.6331908
8.6411408
8.6513295
8.6637303
8.6783168
8.6950622
8.7139399
8.7349235
8.7579868
8.783104
8.8102498
8.8393992
8.8705278
8.9036117
8.9386274
8.975552
9.014363
9.0550385
9.0975568
9.1418968
9.1880377
9.2359591
9.285641
9.3370635
9.3902071
9.4450524
9.5015803
9.5597718
9.619608
9.68107
9.744139
9.8087964
9.8750232
9.9428007
10.01211
10.082932
10.155247
10.229036
10.304279
10.380957
10.45905
10.538536
10.619395
10.701606
10.785148
10.869995
10.956121
8.6294499
8.6282224
8.629315
8.6327053
8.6383712
8.6462864
8.6564261
8.6687646
8.6832764
8.6999357
8.7187168
8.7395941
8.7625423
8.7875364
8.814552
8.8435648
8.8745513
8.9074882
8.9423528
8.9791229
9.0177767
9.0582929
9.1006504
9.1448289
9.1908081
9.2385683
9.2880898
9.3393535
9.3923403
9.4470314
9.5034081
9.561452
9.6211444
9.6824671
9.7454017
9.8099297
9.8760327
9.9436922
10.01289
10.083606
10.155822
10.22952
10.304679
10.38128
10.459303
10.538727
10.619533
10.701698
10.785203
10.870021
10.956127
8.6347203
8.6335315
8.6346424
8.6380336
8.6436836
8.6515671
8.66166
8.6739378
8.6883758
8.7049492
8.7236332
8.744403
8.7672344
8.7921032
8.8189858
8.8478587
8.8786993
8.911485
8.946194
8.9828047
9.0212961
9.0616476
9.1038388
9.14785
9.1936617
9.2412546
9.2906098
9.3417087
9.3945329
9.4490639
9.5052837
9.5631743
9.6227177
9.6838958
9.7466909
9.8110848
9.8770596
9.944597
10.013679
10.084286
10.156401
10.230004
10.305077
10.381599
10.459551
10.538913
10.619665
10.701785
10.785253
10.870044
10.956132
8.6400832
8.63894
8.6400757
8.643473
8.6491115
8.656967
8.6670161
8.6792355
8.6936012
8.7100895
8.7286764
8.7493383
8.7720517
8.7967934
8.8235406
8.8522709
8.8829622
8.9155931
8.9501423
8.9865892
9.0249134
9.0650951
9.1071149
9.1509534
9.196592
9.244012
9.2931953
9.3441237
9.3967795
9.4511448
9.5072023
9.5649342
9.6243232
9.6853519
9.7480026
9.8122579
9.8781002
9.9455115
10.014474
10.08497
10.15698
10.230486
10.30547
10.381912
10.459793
10.539092
10.61979
10.701865
10.785298
10.870063
10.956135
8.6455158
8.6444264
8.6455938
8.6490035
8.6546359
8.6624678
8.672477
8.6846408
8.6989365
8.7153411
8.7338317
8.7543858
8.7769806
8.8015941
8.8282042
8.8567895
8.8873289
8.9198017
8.9541875
8.9904666
9.0286194
9.0686268
9.1104702
9.1541311
9.1995914
9.2468333
9.2958393
9.3465919
9.3990739
9.4532683
9.5091581
9.5667264
9.6259561
9.6868305
9.7493324
9.8134448
9.8791505
9.9464322
10.015272
10.085653
10.157556
10.230964
10.305857
10.382218
10.460026
10.539262
10.619906
10.701938
10.785336
10.870078
10.956136
8.6509926
8.649966
8.6511731
8.6546023
8.6602349
8.6680486
8.6780224
8.6901344
8.704363
8.7206862
8.7390821
8.7595291
8.7820056
8.8064903
8.8329623
8.861401
8.8917863
8.9240984
8.9583178
8.9944257
9.0324033
9.0722324
9.1138951
9.1573738
9.2026511
9.2497101
9.2985339
9.3491057
9.4014091
9.4554277
9.511145
9.5685448
9.6276107
9.6883263
9.7506752
9.8146408
9.8802063
9.9473549
10.016069
10.086332
10.158126
10.231433
10.306235
10.382513
10.460248
10.539421
10.620012
10.702001
10.785368
10.870088
10.956136
8.6564849
8.6555313
8.6567871
8.6602438
8.6658837
8.6736857
8.6836294
8.6956944
8.7098598
8.7261046
8.7444082
8.7647498
8.7871088
8.8114651
8.8377986
8.8660899
8.8963196
8.9284691
8.9625198
8.9984536
9.0362528
9.0759001
9.1173784
9.160671
9.2057613
9.252633
9.3012702
9.3516568
9.403777
9.4576152
9.5131557
9.5703827
9.6292805
9.6898334
9.7520255
9.8158406
9.8812626
9.9482751
10.016861
10.087004
10.158687
10.231892
10.306601
10.382796
10.460458
10.539568
10.620108
10.702055
10.785392
10.870093
10.956134
8.6619614
8.6610918
8.6624063
8.6658997
8.671555
8.6793525
8.6892727
8.7012962
8.7154032
8.7315738
8.7497882
8.7700269
8.7922703
8.8164992
8.8426948
8.8708385
8.9009121
8.9328978
8.9667781
9.0025358
9.0401543
9.079617
9.1209079
9.164011
9.2089106
9.2555914
9.3040381
9.3542356
9.4061687
9.4598226
9.5151823
9.5722326
9.6309587
9.6913453
9.7533771
9.8170387
9.8823143
9.949188
10.017644
10.087665
10.159235
10.232336
10.306952
10.383064
10.460653
10.539701
10.62019
10.702098
10.785407
10.870092
10.956129
8.6673884
8.6666145
8.6679987
8.6715387
8.6772187
8.6850199
8.6949242
8.7069128
8.7209672
8.7370686
8.7551981
8.7753373
8.7974678
8.8215715
8.8476306
8.8756275
8.9055452
8.9373667
8.9710758
9.0066563
9.0440923
9.0833685
9.1244695
9.1673805
9.2120867
9.2585736
9.3068267
9.3568317
9.4085744
9.4620407
9.5172161
9.5740866
9.6326377
9.6928549
9.7547236
9.8182289
9.8833556
9.9500885
10.018412
10.08831
10.159766
10.232763
10.307285
10.383313
10.460831
10.539818
10.620258
10.702129
10.785412
10.870085
10.956123
8.6727296
8.6720638
8.6735293
8.677127
8.682842
8.6906565
8.7005533
8.7125149
8.7265236
8.7425617
8.7606116
8.7806559
8.8026772
8.8266587
8.8525836
8.8804355
8.9101983
8.9418565
8.9753944
9.0107972
9.0480501
9.0871385
9.1280482
9.1707654
9.2152761
9.2615667
9.3096238
9.3594338
9.4109835
9.4642593
9.519248
9.5759358
9.6343094
9.6943547
9.7560579
9.8194048
9.8843808
9.9509711
10.019161
10.088934
10.160275
10.233168
10.307596
10.383542
10.460989
10.539917
10.620309
10.702146
10.785408
10.870072
10.956114
8.6779477
8.6774017
8.6789609
8.6826285
8.6883898
8.6962282
8.7061274
8.7180708
8.7320418
8.7480239
8.7660004
8.7859553
8.8078723
8.8317356
8.8575297
8.8852394
8.9148496
8.9463459
8.9797138
9.0149396
9.0520093
9.0909098
9.1316277
9.17415
9.218464
9.264557
9.3124164
9.3620297
9.4133844
9.466468
9.5212677
9.5777711
9.6359651
9.6958368
9.7573728
9.8205596
9.8853835
9.9518301
10.019885
10.089533
10.16076
10.233549
10.307884
10.383748
10.461125
10.539996
10.620343
10.702148
10.785392
10.870051
10.956102
8.6830048
8.6825877
8.6842537
8.6880045
8.693825
8.7016993
8.7116118
8.7235471
8.7374896
8.7534238
8.7713346
8.7912066
8.8130252
8.8367755
8.8624433
8.8900145
8.9194753
8.9508124
8.9840125
9.0190628
9.0559507
9.0946639
9.1351903
9.1775179
9.221635
9.2675298
9.3151909
9.3646065
9.4157652
9.4686553
9.523265
9.5795826
9.6375959
9.6972927
9.7586605
9.8216865
9.8863574
9.9526599
10.02058
10.090103
10.161215
10.2339
10.308143
10.383928
10.461237
10.540053
10.620358
10.702135
10.785364
10.870023
10.956088
8.6878608
8.6875771
8.689365
8.6932148
8.6991091
8.7070325
8.7169707
8.728909
8.7428332
8.7587291
8.7765824
8.7963795
8.8181065
8.8417501
8.8672972
8.8947349
8.9240507
8.9552323
8.9882677
9.0231453
9.0598536
9.0983814
9.1387177
9.1808516
9.2247725
9.2704697
9.3179326
9.3671507
9.4181132
9.4708096
9.525229
9.5813604
9.6391926
9.6987142
9.7599134
9.8227782
9.8872962
9.9534545
10.02124
10.090639
10.161637
10.23422
10.308372
10.384078
10.461322
10.540086
10.620353
10.702105
10.785323
10.869986
10.956071
8.6945791
8.6924218
8.6923166
8.694251
8.6982187
8.7042029
8.7121902
8.7221673
8.734121
8.7480382
8.763906
8.7817116
8.8014424
8.823086
8.8466303
8.8720634
8.8993736
8.9285497
8.9595807
8.9924559
9.0271646
9.0636966
9.102042
9.1421908
9.1841332
9.2278598
9.2733609
9.3206269
9.3696484
9.4204156
9.472919
9.5271485
9.5830942
9.6407458
9.7000925
9.7611237
9.8238279
9.8881935
9.9542085
10.02186
10.091136
10.162022
10.234504
10.308568
10.384198
10.461378
10.540093
10.620325
10.702057
10.785269
10.869941
10.956051
8.7025216
8.6985911
8.6966736
8.6967711
8.6988736
8.7029776
8.7090685
8.7171349
8.727165
8.7391471
8.7530696
8.7689207
8.7866892
8.8063636
8.8279329
8.8513862
8.876713
8.903903
8.9329461
8.9638325
8.9965528
9.0310977
9.067458
9.105625
9.14559
9.1873443
9.2308794
9.276187
9.3232586
9.3720855
9.4226594
9.4749714
9.5290127
9.5847741
9.6422463
9.7014196
9.7622838
9.8248287
9.8890433
9.9549164
10.022436
10.09159
10.162366
10.234749
10.308727
10.384284
10.461405
10.540074
10.620275
10.70199
10.785201
10.869888
10.956028
8.7114821
8.7058887
8.7022508
8.7005907
8.7009087
8.7031977
8.7074553
8.7136694
8.7218304
8.7319281
8.7439524
8.757893
8.7737397
8.7914823
8.8111111
8.8326161
8.8559879
8.8812173
8.9082953
8.937213
8.9679621
9.0005342
9.0349214
9.0711157
9.1091096
9.1488956
9.1904662
9.2338142
9.278932
9.3258126
9.3744483
9.4248317
9.4769552
9.5308107
9.5863903
9.6436854
9.7026873
9.7633868
9.8257744
9.8898402
9.9555735
10.022963
10.091998
10.162666
10.234954
10.308848
10.384335
10.4614
10.540027
10.620201
10.701904
10.785119
10.869825
10.956001
8.7141234
8.7088665
8.7055339
8.704145
8.7046989
8.7071907
8.7116183
8.7179716
8.7262426
8.7364227
8.7485032
8.7624753
8.7783302
8.7960592
8.8156538
8.8371055
8.8604062
8.885548
8.9125232
8.9413243
8.9719442
9.004376
9.0386127
9.074648
9.1124753
9.1520884
9.193481
9.2366469
9.2815801
9.3282743
9.3767231
9.4269202
9.4788589
9.5325323
9.5879334
9.6450547
9.7038883
9.7644261
9.8266594
9.8905791
9.9561755
10.023438
10.092357
10.16292
10.235115
10.308929
10.38435
10.461362
10.539952
10.620103
10.701799
10.785022
10.869754
10.955972
8.7163306
8.711426
8.7084125
8.7073086
8.7081131
8.7108232
8.7154362
8.7219441
8.7303401
8.7406172
8.7527681
8.7667854
8.7826616
8.8003896
8.8199621
8.8413721
8.8646127
8.8896775
8.9165601
8.9452544
8.9757545
9.0080547
9.0421495
9.0780337
9.115702
9.1551494
9.1963709
9.2393615
9.2841161
9.3306298
9.3788972
9.4289132
9.4806721
9.5341681
9.5893952
9.6463469
9.7050163
9.7653963
9.827479
9.8912563
9.9567193
10.023859
10.092664
10.163126
10.235232
10.30897
10.384328
10.461292
10.539848
10.619981
10.701674
10.784912
10.869674
10.955939
8.7180767
8.7135414
8.7108618
8.7100573
8.7111267
8.7140695
8.7188827
8.7255598
8.7340954
8.7444837
8.7567189
8.7707949
8.7867058
8.8044456
8.8240085
8.8453888
8.8685812
8.8935804
8.9203814
8.9489794
8.9793698
9.0115484
9.0455107
9.081253
9.1187711
9.1580612
9.1991196
9.2419425
9.2865259
9.3328661
9.3809589
9.4308002
9.4823854
9.5357098
9.5907684
9.6475557
9.706066
9.7662929
9.8282297
9.891869
9.9572029
10.024223
10.09292
10.163284
10.235305
10.308971
10.384271
10.461191
10.539717
10.619836
10.701531
10.784788
10.869585
10.955904
8.719348
8.715197
8.7128652
8.7123734
8.7137209
8.7169101
8.721937
8.7287968
8.7374856
8.7479987
8.7603316
8.7744796
8.7904382
8.8082026
8.8277685
8.8491316
8.8722878
8.8972332
8.9239642
8.9524772
8.9827691
9.0148366
9.048677
9.0842874
9.1216651
9.1608075
9.201712
9.244376
9.2887969
9.3349718
9.3828979
9.432572
9.4839907
9.5371505
9.5920472
9.6486765
9.7070336
9.7671131
9.8289093
9.8924158
9.9576256
10.024531
10.093124
10.163395
10.235335
10.308934
10.384179
10.461059
10.53956
10.619669
10.701372
10.784651
10.869489
10.955866
8.7201446
8.7163885
8.7144154
8.7142475
8.7158848
8.719332
8.7245846
8.7316396
8.7404938
8.7511441
8.7635873
8.7778199
8.7938385
8.8116401
8.8312215
8.8525797
8.8757119
8.9006157
8.9272886
8.9557284
8.9859333
9.0179014
9.051631
9.0871206
9.1243687
9.1633739
9.2041348
9.24665
9.2909179
9.336937
9.3847054
9.434221
9.4854817
9.5384848
9.5932273
9.6497059
9.7079167
9.7678556
9.8295175
9.8928972
9.9579885
10.024785
10.093279
10.163462
10.235326
10.30886
10.384055
10.460899
10.53938
10.619484
10.701197
10.784504
10.869386
10.955826
8.7204836
8.7171238
8.715516
8.71568
8.7176167
8.7213313
8.7268195
8.7340797
8.7431101
8.7539085
8.766473
8.7808015
8.7968919
8.8147423
8.834351
8.8557162
8.8788366
8.9037108
8.9303378
8.9587167
8.9888467
9.0207273
9.054358
9.0897386
9.1268688
9.1657483
9.2063768
9.2487542
9.29288
9.3387536
9.3863745
9.4357416
9.4868537
9.5397092
9.5943063
9.6506425
9.7087152
9.7685208
9.8300556
9.8933151
9.9582942
10.024987
10.093387
10.163488
10.23528
10.308756
10.383905
10.460717
10.53918
10.619282
10.70101
10.784347
10.869278
10.955784
8.7204027
8.7174215
8.7161807
8.716682
8.718925
8.7229135
8.7286446
8.7361178
8.7453324
8.7562876
8.7689827
8.7834167
8.799589
8.8174988
8.8371457
8.8585292
8.8816493
8.9065057
8.9330988
8.9614288
8.9914962
9.0233017
9.056846
9.09213
9.1291545
9.1679205
9.2084289
9.2506804
9.2946758
9.3404156
9.3879002
9.4371297
9.4881038
9.5408221
9.5952836
9.6514869
9.7094301
9.7691111
9.8305267
9.8936735
9.9585473
10.025143
10.093456
10.163479
10.235204
10.308625
10.383733
10.460517
10.538966
10.619069
10.700814
10.784185
10.869167
10.955741
8.7240923
8.7198616
8.7172984
8.7164354
8.717278
8.7198304
8.7240957
8.7300731
8.7377635
8.7471674
8.7582853
8.7711175
8.7856646
8.8019268
8.8199049
8.8395995
8.8610115
8.8841417
8.9089915
8.9355621
8.9638551
8.9938721
9.025615
9.0590855
9.0942856
9.1312175
9.1698829
9.2102839
9.2524224
9.2963002
9.3419187
9.3892793
9.4383831
9.489231
9.5418233
9.59616
9.6522408
9.7100647
9.7696303
9.8309356
9.8939779
9.958754
10.02526
10.093491
10.163442
10.235106
10.308477
10.383547
10.460305
10.538743
10.61885
10.700614
10.78402
10.869054
10.955698
8.7227683
8.7189798
8.7168244
8.7163318
8.7175105
8.7203681
8.7249074
8.7311296
8.7390369
8.7486311
8.7599137
8.7728866
8.7875511
8.8039089
8.8219619
8.8417117
8.8631605
8.8863102
8.9111633
8.9377222
8.9659895
8.9959679
9.0276603
9.0610696
9.0961989
9.1330512
9.1716295
9.2119367
9.2539757
9.2977492
9.3432598
9.3905097
9.4395009
9.4902352
9.5427139
9.5969379
9.6529077
9.7106231
9.7700838
9.8312884
9.8942354
9.9589221
10.025346
10.093502
10.163387
10.234995
10.30832
10.383355
10.460091
10.53852
10.618632
10.700415
10.783856
10.868942
10.955655
8.7212213
8.7178471
8.7160757
8.7159365
8.7174362
8.7205869
8.7253903
8.7318496
8.7399679
8.7497483
8.7611935
8.7743061
8.789089
8.8055448
8.8236764
8.8434865
8.8649783
8.888155
8.9130198
8.9395764
8.9678282
8.9977791
9.0294328
9.0627934
9.0978647
9.1346508
9.1731555
9.2133828
9.2553364
9.2990199
9.3444368
9.3915901
9.4404827
9.4911172
9.5434957
9.5976199
9.6534912
9.7111102
9.7704773
9.831592
9.8944535
9.9590601
10.02541
10.093499
10.163324
10.234881
10.308164
10.383168
10.459884
10.538305