/*--------------------------------*- C++ -*----------------------------------*\
| =========                 |                                                 |
| \\      /  F ield         | OpenFOAM: The Open Source CFD Toolbox           |
|  \\    /   O peration     | Version:  2312                                  |
|   \\  /    A nd           | Website:  www.openfoam.com                      |
|    \\/     M anipulation  |                                                 |
\*---------------------------------------------------------------------------*/
FoamFile
{
    version     2.0;
    format      ascii;
    arch        "LSB;label=32;scalar=64";
    class       surfaceScalarField;
    location    "0.05";
    object      phi;
}
// * * * * * * * * * * * * * * * * * * * * * * * * * * * * * * * * * * * * * //

dimensions      [1 0 -1 0 0 0 0];

oriented        oriented;

internalField   nonuniform List<scalar> 
6327
(
-5.2706444e-09
6.5778923e-10
-6.2681039e-09
6.5172123e-10
-7.2522387e-09
6.4584901e-10
-8.2229897e-09
6.401838e-10
-9.1803058e-09
6.34728e-10
-1.0124146e-08
6.2948235e-10
-1.1054479e-08
6.2444627e-10
-1.1971289e-08
6.196188e-10
-1.2874573e-08
6.1499886e-10
-1.3764342e-08
6.1058534e-10
-1.4640625e-08
6.0637744e-10
-1.5503465e-08
6.0237447e-10
-1.6352924e-08
5.9857618e-10
-1.7189081e-08
5.949825e-10
-1.801203e-08
5.9159383e-10
-1.8821885e-08
5.8841075e-10
-1.9618777e-08
5.8543432e-10
-2.0402854e-08
5.8266573e-10
-2.1174282e-08
5.801066e-10
-2.1933244e-08
5.7775863e-10
-2.2679941e-08
5.7562386e-10
-2.3414588e-08
5.7370385e-10
-2.4137418e-08
5.7200119e-10
-2.4848682e-08
5.7051791e-10
-2.5548641e-08
5.6925613e-10
-2.6237575e-08
5.6821753e-10
-2.6915775e-08
5.674037e-10
-2.7583547e-08
5.6681544e-10
-2.8241205e-08
5.6645298e-10
-2.8889074e-08
5.6631502e-10
-2.9527486e-08
5.6639861e-10
-3.0156775e-08
5.6669779e-10
-3.0777273e-08
5.6720278e-10
-3.1389303e-08
5.6789738e-10
-3.1993168e-08
5.6875865e-10
-3.2589135e-08
5.6974774e-10
-3.3177439e-08
5.7083662e-10
-3.3758191e-08
5.719019e-10
-3.4331798e-08
5.7325133e-10
-3.4897661e-08
5.7388839e-10
5.7793795e-10
-5.2632157e-09
1.2171683e-09
-6.2605123e-09
1.2088932e-09
-7.2444808e-09
1.2009735e-09
-8.2150646e-09
1.1934121e-09
-9.1722137e-09
1.1862018e-09
-1.0115887e-08
1.1793347e-09
-1.1046056e-08
1.1728025e-09
-1.1962702e-08
1.1665971e-09
-1.2865823e-08
1.1607114e-09
-1.3755431e-08
1.1551386e-09
-1.4631553e-08
1.1498735e-09
-1.5494234e-08
1.1449113e-09
-1.6343536e-08
1.1402487e-09
-1.7179535e-08
1.1358832e-09
-1.8002329e-08
1.1318133e-09
-1.8812029e-08
1.1280387e-09
-1.9608768e-08
1.12456e-09
-2.0392693e-08
1.1213788e-09
-2.1163969e-08
1.1184974e-09
-2.1922781e-08
1.1159191e-09
-2.2669328e-08
1.1136479e-09
-2.3403827e-08
1.1116878e-09
-2.412651e-08
1.1100443e-09
-2.4837626e-08
1.1087225e-09
-2.553744e-08
1.107728e-09
-2.6226229e-08
1.107066e-09
-2.6904286e-08
1.1067415e-09
-2.7571914e-08
1.1067584e-09
-2.822943e-08
1.1071194e-09
-2.8877159e-08
1.1078246e-09
-2.9515431e-08
1.1088705e-09
-3.0144583e-08
1.110248e-09
-3.0764946e-08
1.1119401e-09
-3.1376845e-08
1.113917e-09
-3.1980585e-08
1.1161354e-09
-3.2576435e-08
1.1185201e-09
-3.3164637e-08
1.1210157e-09
-3.3745304e-08
1.1233754e-09
-3.4318832e-08
1.1261939e-09
-3.4884479e-08
1.1273493e-09
1.1354678e-09
-5.2475778e-09
1.7764756e-09
-6.2445108e-09
1.7659909e-09
-7.2281151e-09
1.7560237e-09
-8.1983357e-09
1.7465654e-09
-9.1551239e-09
1.7375993e-09
-1.0098439e-08
1.729109e-09
-1.1028252e-08
1.7210784e-09
-1.1944545e-08
1.7134925e-09
-1.2847316e-08
1.7063378e-09
-1.3736577e-08
1.6996024e-09
-1.4612355e-08
1.6932763e-09
-1.5474695e-08
1.6873509e-09
-1.6323658e-08
1.6818197e-09
-1.7159321e-08
1.6766777e-09
-1.7981782e-08
1.6719219e-09
-1.8791152e-08
1.6675507e-09
-1.9587563e-08
1.6635646e-09
-2.0371163e-08
1.6599653e-09
-2.1142118e-08
1.6567561e-09
-2.190061e-08
1.6539417e-09
-2.2646839e-08
1.651528e-09
-2.3381023e-08
1.6495218e-09
-2.4103394e-08
1.6479312e-09
-2.4814201e-08
1.6467646e-09
-2.5513707e-08
1.646031e-09
-2.620219e-08
1.6457391e-09
-2.6879944e-08
1.6458973e-09
-2.7547272e-08
1.6465129e-09
-2.8204489e-08
1.6475909e-09
-2.8851922e-08
1.6491329e-09
-2.9489902e-08
1.6511352e-09
-3.0118765e-08
1.6535859e-09
-3.0738844e-08
1.6564612e-09
-3.1350467e-08
1.6597192e-09
-3.1953941e-08
1.6632974e-09
-3.2549545e-08
1.6670878e-09
-3.3137526e-08
1.6710078e-09
-3.3718015e-08
1.6746956e-09
-3.4291362e-08
1.6789745e-09
-3.4856603e-08
1.6804146e-09
1.6927917e-09
-5.2237335e-09
2.3356338e-09
-6.2201024e-09
2.3229376e-09
-7.2031446e-09
2.3109216e-09
-8.1728065e-09
2.2995647e-09
-9.1290399e-09
2.2888404e-09
-1.0071805e-08
2.2787239e-09
-1.1001071e-08
2.2691913e-09
-1.1916823e-08
2.2602208e-09
-1.2819056e-08
2.2517928e-09
-1.3707784e-08
2.24389e-09
-1.4583035e-08
2.2364977e-09
-1.5444851e-08
2.2296036e-09
-1.6293295e-08
2.223198e-09
-1.7128444e-08
2.2172735e-09
-1.7950395e-08
2.2118253e-09
-1.8759259e-08
2.206851e-09
-1.9555169e-08
2.2023505e-09
-2.0338272e-08
2.198326e-09
-2.1108733e-08
2.1947816e-09
-2.1866736e-08
2.1917235e-09
-2.2612481e-08
2.1891597e-09
-2.3346184e-08
2.1870994e-09
-2.4068078e-08
2.1855536e-09
-2.4778412e-08
2.1845339e-09
-2.5477449e-08
2.1840528e-09
-2.6165467e-08
2.1841226e-09
-2.6842759e-08
2.1847551e-09
-2.7509629e-08
2.1859609e-09
-2.8166393e-08
2.1877475e-09
-2.8813375e-08
2.1901183e-09
-2.945091e-08
2.1930696e-09
-3.0079333e-08
2.196587e-09
-3.0698981e-08
2.2006411e-09
-3.1310182e-08
2.2051789e-09
-3.1913251e-08
2.2101215e-09
-3.2508475e-08
2.215332e-09
-3.3096116e-08
2.2207042e-09
-3.3676326e-08
2.2257715e-09
-3.424943e-08
2.2315355e-09
-3.4813993e-08
2.2328164e-09
2.2500136e-09
-4.1828624e-09
2.910332e-09
-5.191734e-09
2.8945675e-09
-6.1873389e-09
2.8796568e-09
-7.1696224e-09
2.8655896e-09
-8.1385311e-09
2.8523309e-09
-9.0940169e-09
2.8398447e-09
-1.003604e-08
2.8280976e-09
-1.0964571e-08
2.8170582e-09
-1.1879593e-08
2.8066978e-09
-1.2781103e-08
2.7969907e-09
-1.3669114e-08
2.7879143e-09
-1.4543653e-08
2.7794494e-09
-1.5404764e-08
2.7715796e-09
-1.6252509e-08
2.7642923e-09
-1.7086966e-08
2.7575776e-09
-1.790823e-08
2.7514291e-09
-1.8716415e-08
2.7458434e-09
-1.951165e-08
2.7408201e-09
-2.0294085e-08
2.7363615e-09
-2.1063884e-08
2.7324729e-09
-2.182123e-08
2.7291618e-09
-2.2566324e-08
2.7264383e-09
-2.3299382e-08
2.7243142e-09
-2.4020635e-08
2.7228033e-09
-2.4730334e-08
2.7219205e-09
-2.5428742e-08
2.7216818e-09
-2.6116136e-08
2.7221029e-09
-2.6792809e-08
2.7231995e-09
-2.7459065e-08
2.7249852e-09
-2.811522e-08
2.7274705e-09
-2.87616e-08
2.7306603e-09
-2.9398539e-08
2.7345516e-09
-3.0026373e-08
2.7391281e-09
-3.0645441e-08
2.7443554e-09
-3.1256076e-08
2.7501718e-09
-3.1858599e-08
2.7564834e-09
-3.245331e-08
2.7631327e-09
-3.3040477e-08
2.7699836e-09
-3.362032e-08
2.7765228e-09
-3.4193044e-08
2.7837455e-09
-3.4757508e-08
2.785137e-09
2.8055411e-09
-3.6705454e-09
3.4070949e-09
-4.5630231e-09
3.3892161e-09
-5.443761e-09
3.3723411e-09
-6.3127102e-09
3.3564545e-09
-7.1698232e-09
3.3415081e-09
-8.0150576e-09
3.3274579e-09
-8.8483781e-09
3.3142627e-09
-9.669759e-09
3.3018843e-09
-1.0479185e-08
3.290288e-09
-1.1276655e-08
3.2794428e-09
-1.2062178e-08
3.2693213e-09
-1.283578e-08
3.2599002e-09
-1.35975e-08
3.2511599e-09
-1.4347392e-08
3.2430849e-09
-1.5085524e-08
3.2356633e-09
-1.5811982e-08
3.2288871e-09
-1.6526866e-08
3.2227521e-09
-1.7230291e-08
3.2172576e-09
-1.7922387e-08
3.2124062e-09
-1.8603303e-08
3.208204e-09
-1.9273199e-08
3.2046599e-09
-1.9932252e-08
3.2017858e-09
-2.0580654e-08
3.1995958e-09
-2.1218611e-08
3.1981062e-09
-2.1846342e-08
3.1973348e-09
-2.2464082e-08
3.1973008e-09
-2.3072075e-08
3.1980231e-09
-2.3670582e-08
3.1995206e-09
-2.425987e-08
3.2018098e-09
-2.4840221e-08
3.2049038e-09
-2.5411923e-08
3.2088095e-09
-2.5975271e-08
3.2135241e-09
-2.6530566e-08
3.2190308e-09
-2.7078108e-08
3.225291e-09
-2.7618197e-08
3.2322388e-09
-2.8151116e-08
3.2397606e-09
-2.8677169e-08
3.2477198e-09
-2.9196501e-08
3.2558242e-09
-2.9709728e-08
3.264034e-09
-3.0215474e-08
3.2713584e-09
-3.0720086e-08
3.2790133e-09
3.285939e-09
-3.7319396e-09
3.9172894e-09
-4.6481449e-09
3.8972312e-09
-5.5522971e-09
3.8783365e-09
-6.444344e-09
3.8605772e-09
-7.3242363e-09
3.8438933e-09
-8.1919304e-09
3.8282323e-09
-9.0473901e-09
3.813545e-09
-9.890589e-09
3.7997864e-09
-1.0721512e-08
3.7869154e-09
-1.1540157e-08
3.7748956e-09
-1.2346535e-08
3.7636947e-09
-1.3140671e-08
3.7532853e-09
-1.3922606e-08
3.7436443e-09
-1.4692394e-08
3.7347533e-09
-1.5450108e-08
3.7265983e-09
-1.6195834e-08
3.7191698e-09
-1.6929674e-08
3.7124626e-09
-1.7651747e-08
3.7064757e-09
-1.8362188e-08
3.7012123e-09
-1.9061147e-08
3.6966791e-09
-1.974879e-08
3.6928865e-09
-2.0425299e-08
3.6898483e-09
-2.109087e-08
3.6875809e-09
-2.1745714e-08
3.6861032e-09
-2.2390058e-08
3.6854363e-09
-2.3024141e-08
3.6856022e-09
-2.3648216e-08
3.6866235e-09
-2.4262549e-08
3.6885223e-09
-2.4867416e-08
3.6913183e-09
-2.5463104e-08
3.6950273e-09
-2.6049912e-08
3.6996582e-09
-2.6628143e-08
3.7052093e-09
-2.7198106e-08
3.7116632e-09
-2.7760113e-08
3.7189781e-09
-2.8314474e-08
3.7270849e-09
-2.8861486e-08
3.7358531e-09
-2.9401464e-08
3.745165e-09
-2.9934587e-08
3.7545935e-09
-3.0461449e-08
3.7645167e-09
-3.098086e-08
3.7721684e-09
-3.1498152e-08
3.7852916e-09
3.7803579e-09
-3.7844968e-09
4.4411919e-09
-4.7248631e-09
4.4188941e-09
-5.6528588e-09
4.3979237e-09
-6.5684277e-09
4.3782374e-09
-7.4715184e-09
4.3597651e-09
-8.3620857e-09
4.3424455e-09
-9.2400925e-09
4.3262213e-09
-1.0105512e-08
4.3110402e-09
-1.0958329e-08
4.2968549e-09
-1.179854e-08
4.2836232e-09
-1.2626158e-08
4.2713079e-09
-1.3441209e-08
4.2598772e-09
-1.4243734e-08
4.2493044e-09
-1.5033789e-08
4.2395683e-09
-1.5811448e-08
4.2306525e-09
-1.65768e-08
4.2225461e-09
-1.732995e-08
4.2152429e-09
-1.807102e-08
4.2087417e-09
-1.8800148e-08
4.2030459e-09
-1.9517487e-08
4.1981632e-09
-2.0223209e-08
4.1941055e-09
-2.09175e-08
4.1908883e-09
-2.1600561e-08
4.1885306e-09
-2.2272609e-08
4.1870542e-09
-2.2933877e-08
4.1864831e-09
-2.3584609e-08
4.1868429e-09
-2.4225066e-08
4.1881596e-09
-2.4855519e-08
4.1904586e-09
-2.5476255e-08
4.1937631e-09
-2.6087567e-08
4.1980918e-09
-2.6689762e-08
4.2034561e-09
-2.7283152e-08
4.2098553e-09
-2.7868057e-08
4.2172721e-09
-2.8444796e-08
4.2256625e-09
-2.9013692e-08
4.2349542e-09
-2.9575057e-08
4.2450046e-09
-3.0129214e-08
4.2557065e-09
-3.0676384e-08
4.2665357e-09
-3.1217073e-08
4.2781552e-09
-3.1750456e-08
4.2864753e-09
-3.2280103e-08
4.3036445e-09
4.290383e-09
-2.8498176e-09
5.0052884e-09
-3.8274016e-09
4.9790885e-09
-4.7923548e-09
4.9544898e-09
-5.744615e-09
4.931386e-09
-6.6841217e-09
4.9097171e-09
-7.6108209e-09
4.889404e-09
-8.5246661e-09
4.8703766e-09
-9.425619e-09
4.8525691e-09
-1.0313652e-08
4.8359222e-09
-1.118875e-08
4.8203817e-09
-1.2050911e-08
4.8058996e-09
-1.2900145e-08
4.7924336e-09
-1.3736481e-08
4.7799474e-09
-1.4559961e-08
4.7684107e-09
-1.5370643e-08
4.7577991e-09
-1.6168602e-08
4.748094e-09
-1.6953929e-08
4.7392828e-09
-1.7726732e-08
4.7313584e-09
-1.8487136e-08
4.7243193e-09
-1.9235283e-08
4.7181693e-09
-1.997133e-08
4.712917e-09
-2.0695452e-08
4.7085758e-09
-2.140784e-08
4.7051633e-09
-2.2108702e-08
4.702701e-09
-2.2798259e-08
4.7012135e-09
-2.347675e-08
4.700728e-09
-2.4144426e-08
4.7012737e-09
-2.4801554e-08
4.7028802e-09
-2.5448415e-08
4.7055766e-09
-2.6085299e-08
4.7093896e-09
-2.6712511e-08
4.7143413e-09
-2.7330363e-08
4.7204452e-09
-2.7939179e-08
4.7277026e-09
-2.8539286e-08
4.7360967e-09
-2.9131017e-08
4.7455816e-09
-2.9714703e-08
4.7560829e-09
-3.029067e-08
4.7674487e-09
-3.0859248e-08
4.7795753e-09
-3.14207e-08
4.7918738e-09
-3.1975438e-08
4.8051627e-09
-3.2522971e-08
4.8144514e-09
-3.3065535e-08
4.83463e-09
4.8158338e-09
-2.8568269e-09
5.5600063e-09
-3.859739e-09
5.5312723e-09
-4.849696e-09
5.5043084e-09
-5.8266312e-09
5.47901e-09
-6.7904804e-09
5.4553006e-09
-7.7411874e-09
5.4330923e-09
-8.6787038e-09
5.4123058e-09
-9.6029905e-09
5.3928674e-09
-1.0514019e-08
5.3747096e-09
-1.1411775e-08
5.3577715e-09
-1.2296255e-08
5.341999e-09
-1.3167471e-08
5.3273445e-09
-1.4025452e-08
5.313767e-09
-1.487024e-08
5.3012324e-09
-1.5701897e-08
5.2897132e-09
-1.6520497e-08
5.2791884e-09
-1.7326136e-08
5.2696438e-09
-1.8118923e-08
5.2610713e-09
-1.8898987e-08
5.253469e-09
-1.9666473e-08
5.246841e-09
-2.0421542e-08
5.2411971e-09
-2.1164373e-08
5.2365522e-09
-2.1895163e-08
5.2329259e-09
-2.2614124e-08
5.2303424e-09
-2.3321483e-08
5.2288292e-09
-2.4017485e-08
5.2284171e-09
-2.4702388e-08
5.2291386e-09
-2.5376466e-08
5.2310275e-09
-2.6040006e-08
5.2341165e-09
-2.6693307e-08
5.2384361e-09
-2.7336681e-08
5.2440116e-09
-2.7970451e-08
5.2508598e-09
-2.8594947e-08
5.2589837e-09
-2.9210508e-08
5.2683673e-09
-2.9817476e-08
5.2789643e-09
-3.0416194e-08
5.2906978e-09
-3.1007002e-08
5.30341e-09
-3.1590235e-08
5.3169928e-09
-3.2166192e-08
5.3308229e-09
-3.2735199e-08
5.3457505e-09
-3.329709e-08
5.3563001e-09
-3.3853021e-08
5.3786935e-09
5.3567661e-09
-1.8100739e-09
6.1628598e-09
-2.8519168e-09
6.1293871e-09
-3.880567e-09
6.0980404e-09
-4.8959322e-09
6.0686436e-09
-5.8979408e-09
6.0410863e-09
-6.886525e-09
6.015276e-09
-7.8616263e-09
5.9911156e-09
-8.8231947e-09
5.9685168e-09
-9.7711901e-09
5.947397e-09
-1.0705584e-08
5.927681e-09
-1.162636e-08
5.9093008e-09
-1.2533517e-08
5.8921959e-09
-1.3427066e-08
5.8763131e-09
-1.4307038e-08
5.8616064e-09
-1.5173475e-08
5.8480379e-09
-1.602644e-08
5.8355768e-09
-1.6866012e-08
5.8241999e-09
-1.7692286e-08
5.8138909e-09
-1.8505375e-08
5.8046409e-09
-1.930541e-08
5.7964476e-09
-2.0092541e-08
5.7893157e-09
-2.0866933e-08
5.7832557e-09
-2.1628769e-08
5.7782843e-09
-2.2378251e-08
5.7744232e-09
-2.3115595e-08
5.7716994e-09
-2.3841036e-08
5.7701435e-09
-2.4554823e-08
5.7697899e-09
-2.5257222e-08
5.7706749e-09
-2.5948514e-08
5.772836e-09
-2.6628992e-08
5.7763103e-09
-2.7298965e-08
5.7811322e-09
-2.7958752e-08
5.7873305e-09
-2.8608685e-08
5.7949252e-09
-2.9249104e-08
5.8039217e-09
-2.9880356e-08
5.8143054e-09
-3.0502796e-08
5.8260298e-09
-3.1116776e-08
5.839016e-09
-3.172265e-08
5.8531031e-09
-3.2320761e-08
5.8681717e-09
-3.2911438e-08
5.8835891e-09
-3.3494938e-08
5.9001372e-09
-3.4071387e-08
5.9122163e-09
-3.464114e-08
5.9362882e-09
5.913236e-09
-1.7657897e-09
6.7500765e-09
-2.8340999e-09
6.7137308e-09
-3.8888844e-09
6.679694e-09
-4.9300483e-09
6.6477936e-09
-5.9575144e-09
6.6179096e-09
-6.9712121e-09
6.5899351e-09
-7.9710803e-09
6.5637634e-09
-8.9570674e-09
6.5392962e-09
-9.9291323e-09
6.5164422e-09
-1.0887246e-08
6.4951181e-09
-1.1831392e-08
6.4752485e-09
-1.2761568e-08
6.4567662e-09
-1.3677788e-08
6.4396123e-09
-1.4580082e-08
6.4237362e-09
-1.5468494e-08
6.4090954e-09
-1.6343089e-08
6.3956556e-09
-1.7203945e-08
6.3833911e-09
-1.8051163e-08
6.372284e-09
-1.8884857e-08
6.3623243e-09
-1.9705161e-08
6.3535095e-09
-2.0512229e-08
6.3458444e-09
-2.130623e-08
6.3393409e-09
-2.2087352e-08
6.3340172e-09
-2.28558e-08
6.3298974e-09
-2.3611798e-08
6.3270112e-09
-2.4355584e-08
6.3253926e-09
-2.5087416e-08
6.3250796e-09
-2.5807566e-08
6.3261124e-09
-2.6516321e-08
6.328533e-09
-2.7213982e-08
6.3323824e-09
-2.7900867e-08
6.3376994e-09
-2.8577303e-08
6.3445166e-09
-2.9243631e-08
6.3528576e-09
-2.99002e-08
6.3627306e-09
-3.0547368e-08
6.3741224e-09
-3.11855e-08
6.3869875e-09
-3.181496e-08
6.4012451e-09
-3.2436114e-08
6.416733e-09
-3.3049314e-08
6.4333164e-09
-3.3654917e-08
6.4503722e-09
-3.4253136e-08
6.4685431e-09
-3.4844342e-08
6.4823947e-09
-3.5428345e-08
6.5078402e-09
6.4852894e-09
-5.982837e-10
7.3946522e-09
-1.7071785e-09
7.3526556e-09
-2.8023433e-09
7.3133472e-09
-3.8836433e-09
7.2765402e-09
-4.9509807e-09
7.2420621e-09
-6.0042733e-09
7.2097807e-09
-7.0434473e-09
7.1795756e-09
-8.0684395e-09
7.1513299e-09
-9.0791966e-09
7.1249353e-09
-1.0075676e-08
7.1002914e-09
-1.1057849e-08
7.0773062e-09
-1.2025698e-08
7.0558969e-09
-1.2979222e-08
7.0359893e-09
-1.3918435e-08
7.0175186e-09
-1.4843367e-08
7.0004289e-09
-1.5754064e-08
6.9846736e-09
-1.6650592e-08
6.970215e-09
-1.7533033e-08
6.9570246e-09
-1.8401487e-08
6.9450823e-09
-1.9256072e-08
6.9343772e-09
-2.0096928e-08
6.9249065e-09
-2.0924208e-08
6.9166758e-09
-2.1738088e-08
6.9096977e-09
-2.253876e-08
6.9039922e-09
-2.3326435e-08
6.8995861e-09
-2.410134e-08
6.8965117e-09
-2.4863721e-08
6.8948067e-09
-2.5613842e-08
6.8945128e-09
-2.6351981e-08
6.8956746e-09
-2.7078433e-08
6.8983382e-09
-2.7793507e-08
6.9025493e-09
-2.8497529e-08
6.9083509e-09
-2.9190835e-08
6.9157803e-09
-2.9873774e-08
6.9248644e-09
-3.0546707e-08
6.9356147e-09
-3.1210001e-08
6.9480204e-09
-3.1864031e-08
6.9620369e-09
-3.2509174e-08
6.9775825e-09
-3.314581e-08
6.994495e-09
-3.37743e-08
7.0126229e-09
-3.4395026e-08
7.031366e-09
-3.5008186e-08
7.0511871e-09
-3.5614348e-08
7.0670316e-09
-3.6212986e-08
7.0937318e-09
7.0729833e-09
-4.9670554e-10
8.0161736e-09
-1.6331753e-09
7.9709167e-09
-2.7555654e-09
7.9285547e-09
-3.8637453e-09
7.888895e-09
-4.9576141e-09
7.8517611e-09
-6.037085e-09
7.8170082e-09
-7.1020814e-09
7.7845026e-09
-8.1525378e-09
7.7541168e-09
-9.1883992e-09
7.7257323e-09
-1.0209622e-08
7.6992389e-09
-1.1216177e-08
7.6745361e-09
-1.2208046e-08
7.651533e-09
-1.3185229e-08
7.6301484e-09
-1.414774e-08
7.6103113e-09
-1.5095609e-08
7.5919605e-09
-1.6028885e-08
7.5750447e-09
-1.6947634e-08
7.5595228e-09
-1.785194e-08
7.5453634e-09
-1.8741906e-08
7.5325448e-09
-1.9617655e-08
7.5210547e-09
-2.0479325e-08
7.5108901e-09
-2.1327078e-08
7.5020566e-09
-2.2161091e-08
7.4945685e-09
-2.2981561e-08
7.4884475e-09
-2.3788704e-08
7.483723e-09
-2.4582754e-08
7.4804305e-09
-2.5363962e-08
7.4786112e-09
-2.6132598e-08
7.4783108e-09
-2.6888948e-08
7.4795783e-09
-2.7633315e-08
7.4824645e-09
-2.8366015e-08
7.4870198e-09
-2.9087382e-08
7.4932922e-09
-2.9797762e-08
7.501323e-09
-3.0497514e-08
7.5111438e-09
-3.1187008e-08
7.5227694e-09
-3.1866622e-08
7.5361917e-09
-3.2536743e-08
7.5513679e-09
-3.3197759e-08
7.5682161e-09
-3.3850064e-08
7.5865756e-09
-3.4494034e-08
7.606279e-09
-3.5130075e-08
7.6267586e-09
-3.5758391e-08
7.6482828e-09
-3.6379705e-08
7.6663222e-09
-3.6993312e-08
7.6942968e-09
7.676381e-09
8.0041157e-10
8.705747e-09
-3.7827063e-10
8.6538112e-09
-1.5426724e-09
8.6051921e-09
-2.6926399e-09
8.5596828e-09
-3.8280454e-09
8.5170842e-09
-4.9487846e-09
8.4772126e-09
-6.054767e-09
8.4399102e-09
-7.1459133e-09
8.4050305e-09
-8.2221555e-09
8.3724346e-09
-9.2834372e-09
8.3419934e-09
-1.0329714e-08
8.313587e-09
-1.1360955e-08
8.2871057e-09
-1.2377143e-08
8.2624505e-09
-1.3378278e-08
8.239533e-09
-1.4364373e-08
8.2182754e-09
-1.533546e-08
8.1986112e-09
-1.629159e-08
8.1804844e-09
-1.723283e-08
8.1638501e-09
-1.8159265e-08
8.1486741e-09
-1.9071002e-08
8.1349328e-09
-1.9968165e-08
8.1226127e-09
-2.0850898e-08
8.1117106e-09
-2.1719363e-08
8.1022327e-09
-2.2573744e-08
8.0941943e-09
-2.3414243e-08
8.0876191e-09
-2.4241079e-08
8.0825392e-09
-2.5054493e-08
8.0789934e-09
-2.5854742e-08
8.0770267e-09
-2.6642103e-08
8.0766892e-09
-2.7416869e-08
8.0780345e-09
-2.817935e-08
8.0811182e-09
-2.8929872e-08
8.0859959e-09
-2.9668776e-08
8.0927204e-09
-3.0396418e-08
8.1013383e-09
-3.1113167e-08
8.1118853e-09
-3.1819403e-08
8.1243805e-09
-3.2515516e-08
8.1388189e-09
-3.3201903e-08
8.1551605e-09
-3.3878968e-08
8.173324e-09
-3.4547117e-08
8.1931521e-09
-3.5206745e-08
8.2144645e-09
-3.585828e-08
8.2367319e-09
-3.6501957e-08
8.2600355e-09
-3.7138612e-08
8.2804557e-09
-3.7767478e-08
8.3098239e-09
8.2955483e-09
9.6546547e-10
9.3635544e-09
-2.4185074e-10
9.3079155e-09
-1.4345212e-09
9.2558282e-09
-2.6123977e-09
9.2070746e-09
-3.7753534e-09
9.1614467e-09
-4.9232813e-09
9.1187514e-09
-6.0560877e-09
9.0788174e-09
-7.1736907e-09
9.0414854e-09
-8.27602e-09
9.0066048e-09
-9.3630176e-09
8.9740356e-09
-1.0434638e-08
8.9436478e-09
-1.149085e-08
8.9153225e-09
-1.2531635e-08
8.8889519e-09
-1.3556994e-08
8.8644401e-09
-1.4566941e-08
8.8417028e-09
-1.5561509e-08
8.8206675e-09
-1.6540748e-08
8.8012736e-09
-1.7504728e-08
8.7834724e-09
-1.8453538e-08
8.7672266e-09
-1.9387284e-08
8.7525105e-09
-2.0306094e-08
8.7393097e-09
-2.1210116e-08
8.7276207e-09
-2.2099516e-08
8.7174502e-09
-2.2974481e-08
8.708815e-09
-2.3835218e-08
8.7017411e-09
-2.4681953e-08
8.696263e-09
-2.5514931e-08
8.692423e-09
-2.6334416e-08
8.6902702e-09
-2.7140692e-08
8.6898592e-09
-2.7934059e-08
8.6912486e-09
-2.8714835e-08
8.6944993e-09
-2.9483355e-08
8.6996721e-09
-3.0239969e-08
8.7068254e-09
-3.0985042e-08
8.7160109e-09
-3.1718955e-08
8.7272694e-09
-3.2442096e-08
8.7406245e-09
-3.3154869e-08
8.7560752e-09
-3.3857684e-08
8.773585e-09
-3.4550957e-08
8.7930747e-09
-3.5235112e-08
8.8143926e-09
-3.5910562e-08
8.8373502e-09
-3.6577761e-08
8.8614603e-09
-3.723699e-08
8.8866394e-09
-3.7889165e-08
8.909612e-09
-3.8533533e-08
8.9405592e-09
8.9305496e-09
2.4011031e-09
1.0101794e-08
1.1499846e-09
1.0038312e-08
-8.6283335e-11
9.978853e-09
-1.3075361e-09
9.9231883e-09
-2.5136294e-09
9.8710894e-09
-3.7044367e-09
9.822337e-09
-4.8798487e-09
9.7767271e-09
-6.0397688e-09
9.7340748e-09
-7.1841126e-09
9.6942074e-09
-8.3128077e-09
9.6569626e-09
-9.4257943e-09
9.6221888e-09
-1.0523026e-08
9.5897458e-09
-1.1604471e-08
9.5595049e-09
-1.267011e-08
9.5313498e-09
-1.3719945e-08
9.5051766e-09
-1.4753989e-08
9.4808941e-09
-1.5772277e-08
9.458424e-09
-1.677486e-08
9.4377006e-09
-1.7761809e-08
9.4186713e-09
-1.8733215e-08
9.4012957e-09
-1.9689187e-08
9.3855463e-09
-2.0629856e-08
9.3714074e-09
-2.1555373e-08
9.3588753e-09
-2.2465908e-08
9.3479573e-09
-2.3361652e-08
9.3386718e-09
-2.4242817e-08
9.3310472e-09
-2.5109634e-08
9.3251209e-09
-2.5962355e-08
9.320939e-09
-2.6801251e-08
9.3185548e-09
-2.7626611e-08
9.3180275e-09
-2.8438744e-08
9.3194209e-09
-2.9237976e-08
9.3228016e-09
-3.002465e-08
9.3282364e-09
-3.0799127e-08
9.3357892e-09
-3.1561782e-08
9.3455175e-09
-3.2313005e-08
9.3574678e-09
-3.3053197e-08
9.3716687e-09
-3.3782774e-08
9.3881239e-09
-3.4502158e-08
9.4068018e-09
-3.5211783e-08
9.4276271e-09
-3.5912088e-08
9.4504557e-09
-3.6603512e-08
9.4750976e-09
-3.7286533e-08
9.5011094e-09
-3.7961488e-08
9.5282754e-09
-3.8629345e-08
9.5539588e-09
-3.9289422e-08
9.5867104e-09
9.5814455e-09
2.6358772e-09
1.0798101e-08
1.3551361e-09
1.073041e-08
8.9625128e-11
1.066701e-08
-1.160497e-09
1.0607655e-08
-2.3950886e-09
1.0552105e-08
-3.6140232e-09
1.0500128e-08
-4.817189e-09
1.0451508e-08
-6.004487e-09
1.0406045e-08
-7.1758304e-09
1.0363554e-08
-8.3311448e-09
1.0323859e-08
-9.4703689e-09
1.0286798e-08
-1.0593455e-08
1.025222e-08
-1.170037e-08
1.0219985e-08
-1.2791096e-08
1.018997e-08
-1.3865633e-08
1.0162061e-08
-1.4923996e-08
1.0136161e-08
-1.5966219e-08
1.0112185e-08
-1.6992357e-08
1.0090062e-08
-1.800248e-08
1.0069736e-08
-1.8996681e-08
1.0051163e-08
-1.9975073e-08
1.0034314e-08
-2.093779e-08
1.0019172e-08
-2.1884984e-08
1.0005732e-08
-2.281683e-08
9.9940042e-09
-2.3733525e-08
9.9840071e-09
-2.4635285e-08
9.9757719e-09
-2.5522346e-08
9.9693394e-09
-2.6394966e-08
9.9647596e-09
-2.7253423e-08
9.9620904e-09
-2.8098014e-08
9.9613963e-09
-2.8929056e-08
9.9627464e-09
-2.9746882e-08
9.9662134e-09
-3.0551846e-08
9.9718698e-09
-3.1344318e-08
9.9797862e-09
-3.2124682e-08
9.9900266e-09
-3.2893341e-08
1.0002643e-08
-3.3650709e-08
1.0017671e-08
-3.4397213e-08
1.0035118e-08
-3.5133292e-08
1.0054961e-08
-3.5859394e-08
1.0077129e-08
-3.6575979e-08
1.010149e-08
-3.7283511e-08
1.0127857e-08
-3.7982495e-08
1.0155834e-08
-3.8673333e-08
1.0185108e-08
-3.9357018e-08
1.0213648e-08
-4.0032972e-08
1.024845e-08
1.0248291e-08
2.892738e-09
1.1512288e-08
1.5821107e-09
1.1440258e-08
2.8709571e-10
1.1372794e-08
-9.9215321e-10
1.1309634e-08
-2.2554955e-09
1.1250523e-08
-3.5028039e-09
1.1195216e-08
-4.7339647e-09
1.1143483e-08
-5.9488766e-09
1.1095111e-08
-7.1474504e-09
1.1049901e-08
-8.32961e-09
1.1007664e-08
-9.4952923e-09
1.0968226e-08
-1.0644448e-08
1.0931425e-08
-1.1777045e-08
1.0897112e-08
-1.2893063e-08
1.0865153e-08
-1.3992502e-08
1.0835427e-08
-1.5075378e-08
1.0807828e-08
-1.6141727e-08
1.0782267e-08
-1.7191602e-08
1.0758666e-08
-1.8225078e-08
1.0736966e-08
-1.9242248e-08
1.071712e-08
-2.0243228e-08
1.0699095e-08
-2.1228154e-08
1.0682875e-08
-2.2197183e-08
1.0668455e-08
-2.3150493e-08
1.0655844e-08
-2.4088285e-08
1.0645065e-08
-2.501078e-08
1.063615e-08
-2.5918221e-08
1.0629144e-08
-2.6810872e-08
1.0624102e-08
-2.7689017e-08
1.0621085e-08
-2.8552961e-08
1.0620165e-08
-2.9403028e-08
1.0621415e-08
-3.0239563e-08
1.0624916e-08
-3.1062928e-08
1.0630746e-08
-3.1873502e-08
1.0638984e-08
-3.2671682e-08
1.0649698e-08
-3.3457881e-08
1.0662949e-08
-3.4232528e-08
1.0678778e-08
-3.4996062e-08
1.0697202e-08
-3.5748938e-08
1.0718202e-08
-3.6491623e-08
1.0741719e-08
-3.7224599e-08
1.0767632e-08
-3.7948357e-08
1.0795769e-08
-3.8663429e-08
1.0825776e-08
-3.9370282e-08
1.0857285e-08
-4.0069922e-08
1.0888816e-08
-4.0761888e-08
1.0925918e-08
1.0931135e-08
3.1728657e-09
1.224479e-08
1.8321216e-09
1.2168298e-08
5.0737349e-10
1.2096646e-08
-8.0122718e-10
1.2029559e-08
-2.0935401e-09
1.1966771e-08
-3.369437e-09
1.1908021e-08
-4.6288023e-09
1.1853067e-08
-5.8715324e-09
1.1801681e-08
-7.0975363e-09
1.1753648e-08
-8.3067357e-09
1.170877e-08
-9.4990662e-09
1.1666857e-08
-1.0674478e-08
1.1627738e-08
-1.1832935e-08
1.1591253e-08
-1.2974421e-08
1.1557257e-08
-1.4098933e-08
1.1525622e-08
-1.5206488e-08
1.1496235e-08
-1.6297122e-08
1.1469e-08
-1.7370891e-08
1.1443833e-08
-1.8427869e-08
1.1420672e-08
-1.9468153e-08
1.1399465e-08
-2.049186e-08
1.1380179e-08
-2.1499128e-08
1.1362796e-08
-2.249012e-08
1.1347312e-08
-2.3465017e-08
1.1333736e-08
-2.4424024e-08
1.1322093e-08
-2.5367368e-08
1.1312419e-08
-2.6295298e-08
1.1304762e-08
-2.7208083e-08
1.1299182e-08
-2.8106016e-08
1.1295745e-08
-2.8989408e-08
1.1294529e-08
-2.9858593e-08
1.1295614e-08
-3.0713924e-08
1.1299087e-08
-3.1555774e-08
1.1305034e-08
-3.2384533e-08
1.131354e-08
-3.3200609e-08
1.1324682e-08
-3.4004428e-08
1.1338529e-08
-3.4796432e-08
1.1355129e-08
-3.5577076e-08
1.1374507e-08
-3.6346832e-08
1.1396654e-08
-3.7106186e-08
1.1421522e-08
-3.7855642e-08
1.1449007e-08
-3.8595722e-08
1.1478957e-08
-3.9326987e-08
1.1511064e-08
-4.0049966e-08
1.1544935e-08
-4.0765665e-08
1.1579578e-08
-4.1473747e-08
1.1619226e-08
1.1630016e-08
4.8647446e-09
1.3082622e-08
3.4774574e-09
1.2996107e-08
2.1063979e-09
1.2915012e-08
7.5172251e-10
1.2839038e-08
-5.8641921e-10
1.2767897e-08
-1.9078869e-09
1.2701307e-08
-3.2125514e-09
1.2638995e-08
-4.5002953e-09
1.2580703e-08
-5.7710132e-09
1.2526188e-08
-7.024612e-09
1.2475223e-08
-8.2610117e-09
1.2427594e-08
-9.4801463e-09
1.2383101e-08
-1.0681965e-08
1.2341558e-08
-1.1866431e-08
1.2302796e-08
-1.3033526e-08
1.2266661e-08
-1.4183248e-08
1.2233017e-08
-1.5315615e-08
1.2201741e-08
-1.6430663e-08
1.217273e-08
-1.7528448e-08
1.2145899e-08
-1.8609046e-08
1.2121177e-08
-1.9672556e-08
1.2098511e-08
-2.0719097e-08
1.2077867e-08
-2.1748812e-08
1.2059224e-08
-2.2761864e-08
1.2042579e-08
-2.3758441e-08
1.2027944e-08
-2.4738751e-08
1.2015343e-08
-2.5703027e-08
1.2004819e-08
-2.6651523e-08
1.1996421e-08
-2.7584516e-08
1.1990215e-08
-2.8502305e-08
1.1986274e-08
-2.9405211e-08
1.1984681e-08
-3.0293576e-08
1.1985524e-08
-3.1167763e-08
1.1988897e-08
-3.2028154e-08
1.1994893e-08
-3.2875152e-08
1.2003606e-08
-3.3709177e-08
1.2015123e-08
-3.4530669e-08
1.2029518e-08
-3.5340083e-08
1.204685e-08
-3.6137892e-08
1.2067154e-08
-3.6924585e-08
1.2090432e-08
-3.770067e-08
1.2116651e-08
-3.8466674e-08
1.2145727e-08
-3.9223151e-08
1.2177533e-08
-3.997069e-08
1.2211808e-08
-4.0709881e-08
1.2248165e-08
-4.1441718e-08
1.2286031e-08
-4.216599e-08
1.2328457e-08
1.2344962e-08
5.22587e-09
1.3858345e-08
3.8077109e-09
1.3766771e-08
2.4061763e-09
1.3680922e-08
1.021419e-09
1.3600485e-08
-3.4641315e-10
1.3525153e-08
-1.69718e-09
1.3454629e-08
-3.0307515e-09
1.3388625e-08
-4.347009e-09
1.3326869e-08
-5.6458453e-09
1.3269103e-08
-6.9271655e-09
1.3215084e-08
-8.1908879e-09
1.3164585e-08
-9.4369449e-09
1.3117393e-08
-1.0665284e-08
1.3073311e-08
-1.1875868e-08
1.3032158e-08
-1.3068679e-08
1.299377e-08
-1.4243713e-08
1.2958001e-08
-1.5400989e-08
1.2924723e-08
-1.6540542e-08
1.2893826e-08
-1.766243e-08
1.2865216e-08
-1.8766731e-08
1.2838821e-08
-1.9853545e-08
1.2814586e-08
-2.0922994e-08
1.2792471e-08
-2.1975223e-08
1.2772458e-08
-2.3010399e-08
1.2754543e-08
-2.4028713e-08
1.2738738e-08
-2.503038e-08
1.2725074e-08
-2.6015636e-08
1.2713592e-08
-2.6984743e-08
1.2704351e-08
-2.7937985e-08
1.2697419e-08
-2.8875668e-08
1.2692876e-08
-2.9798121e-08
1.2690812e-08
-3.0705696e-08
1.2691323e-08
-3.1598765e-08
1.2694511e-08
-3.2477723e-08
1.2700478e-08
-3.3342985e-08
1.2709326e-08
-3.4194982e-08
1.2721152e-08
-3.503417e-08
1.2736039e-08
-3.586102e-08
1.2754058e-08
-3.6676021e-08
1.2775252e-08
-3.7479683e-08
1.2799641e-08
-3.8272535e-08
1.2827206e-08
-3.905513e-08
1.2857889e-08
-3.9828053e-08
1.2891593e-08
-4.0591923e-08
1.2928102e-08
-4.1347385e-08
1.2967062e-08
-4.2095415e-08
1.3008248e-08
-4.2835924e-08
1.305367e-08
1.3075988e-08
8.5626869e-09
1.4867319e-08
7.079976e-09
1.4757353e-08
5.6139622e-09
1.465416e-08
4.1648158e-09
1.4557359e-08
2.7326926e-09
1.4466597e-08
1.3177441e-09
1.4381544e-08
-7.9882934e-11
1.4301874e-08
-1.4600488e-09
1.4227272e-08
-2.8226231e-09
1.4157438e-08
-4.1674857e-09
1.4092082e-08
-5.4945281e-09
1.403093e-08
-6.8036536e-09
1.3973726e-08
-8.0947789e-09
1.3920226e-08
-9.3678349e-09
1.3870206e-08
-1.0622768e-08
1.3823455e-08
-1.185954e-08
1.3779783e-08
-1.307813e-08
1.3739014e-08
-1.4278538e-08
1.3700994e-08
-1.5460778e-08
1.3665587e-08
-1.662489e-08
1.3632674e-08
-1.777093e-08
1.360216e-08
-1.8898978e-08
1.3573965e-08
-2.0009135e-08
1.3548032e-08
-2.1101526e-08
1.352432e-08
-2.2176299e-08
1.350281e-08
-2.3233625e-08
1.3483499e-08
-2.4273698e-08
1.3466401e-08
-2.5296738e-08
1.3451549e-08
-2.6302987e-08
1.343899e-08
-2.7292713e-08
1.3428785e-08
-2.8266208e-08
1.3421011e-08
-2.9223785e-08
1.3415754e-08
-3.0165783e-08
1.3413111e-08
-3.1092563e-08
1.3413186e-08
-3.2004509e-08
1.3416091e-08
-3.2902025e-08
1.3421937e-08
-3.3785541e-08
1.3430836e-08
-3.4655502e-08
1.3442894e-08
-3.5512378e-08
1.3458207e-08
-3.6356658e-08
1.3476856e-08
-3.7188848e-08
1.3498899e-08
-3.8009481e-08
1.3524371e-08
-3.8819108e-08
1.3553272e-08
-3.961831e-08
1.3585574e-08
-4.0407701e-08
1.3621213e-08
-4.1187931e-08
1.3660019e-08
-4.1959693e-08
1.3701691e-08
-4.2723946e-08
1.3746284e-08
-4.3480712e-08
1.3794898e-08
1.3823095e-08
1.0573681e-08
1.5819255e-08