/*--------------------------------*- C++ -*----------------------------------*\
| =========                 |                                                 |
| \\      /  F ield         | OpenFOAM: The Open Source CFD Toolbox           |
|  \\    /   O peration     | Version:  2312                                  |
|   \\  /    A nd           | Website:  www.openfoam.com                      |
|    \\/     M anipulation  |                                                 |
\*---------------------------------------------------------------------------*/
FoamFile
{
    version     2.0;
    format      ascii;
    arch        "LSB;label=32;scalar=64";
    class       volVectorField;
    location    "0.05";
    object      U;
}
// * * * * * * * * * * * * * * * * * * * * * * * * * * * * * * * * * * * * * //

dimensions      [0 1 -1 0 0 0 0];

internalField   nonuniform List<vector> 
3224
(
(-0.069759329 0.0022125122 0)
(-0.083694949 0.0021639703 0)
(-0.097190124 0.0021169039 0)
(-0.11025486 0.0020713583 0)
(-0.12289919 0.0020273476 0)
(-0.13513318 0.0019848708 0)
(-0.14696695 0.0019439176 0)
(-0.15841063 0.0019044711 0)
(-0.16947439 0.0018665133 0)
(-0.18016844 0.0018300217 0)
(-0.19050297 0.001794975 0)
(-0.20048817 0.001761349 0)
(-0.21013424 0.0017291218 0)
(-0.21945133 0.0016982686 0)
(-0.22844956 0.0016687679 0)
(-0.23713902 0.0016405949 0)
(-0.24552971 0.0016137288 0)
(-0.2536316 0.0015881453 0)
(-0.26145455 0.0015638242 0)
(-0.26900838 0.0015407415 0)
(-0.27630278 0.0015188775 0)
(-0.28334735 0.0014982051 0)
(-0.29015161 0.001478707 0)
(-0.29672494 0.0014603584 0)
(-0.3030766 0.0014431386 0)
(-0.30921576 0.0014270215 0)
(-0.31515142 0.0014119856 0)
(-0.32089246 0.0013980028 0)
(-0.3264476 0.0013850489 0)
(-0.3318254 0.0013730919 0)
(-0.33703423 0.0013621012 0)
(-0.34208225 0.0013520359 0)
(-0.34697741 0.0013428524 0)
(-0.35172714 0.0013344895 0)
(-0.35633929 0.0013268779 0)
(-0.36081807 0.0013199116 0)
(-0.36517881 0.0013135166 0)
(-0.36939231 0.0013074123 0)
(-0.37359063 0.0013022812 0)
(-0.37726984 0.0012960283 0)
(-0.38265511 0.0012972972 0)
(-0.069650429 0.0054856952 0)
(-0.083584408 0.0053951719 0)
(-0.097077936 0.0053076687 0)
(-0.11014105 0.005223181 0)
(-0.12278381 0.0051416449 0)
(-0.13501631 0.0050629905 0)
(-0.14684864 0.0049871416 0)
(-0.15829095 0.0049140246 0)
(-0.16935341 0.0048435664 0)
(-0.1800462 0.0047756988 0)
(-0.19037954 0.0047103558 0)
(-0.2003636 0.0046474772 0)
(-0.21000858 0.0045870052 0)
(-0.21932462 0.004528888 0)
(-0.22832186 0.0044730763 0)
(-0.23701035 0.0044195266 0)
(-0.24540013 0.0043681973 0)
(-0.25350113 0.0043190525 0)
(-0.26132324 0.0042720572 0)
(-0.26887624 0.0042271821 0)
(-0.27616985 0.0041843975 0)
(-0.28321367 0.0041436771 0)
(-0.29001719 0.0041049966 0)
(-0.29658981 0.0040683342 0)
(-0.30294079 0.0040336655 0)
(-0.30907928 0.0040009687 0)
(-0.3150143 0.0039702179 0)
(-0.32075471 0.0039413872 0)
(-0.32630923 0.0039144432 0)
(-0.33168644 0.0038893475 0)
(-0.3368947 0.0038660471 0)
(-0.34194217 0.0038444741 0)
(-0.3468368 0.0038245316 0)
(-0.35158604 0.0038060858 0)
(-0.35619775 0.0037889558 0)
(-0.36067616 0.003772862 0)
(-0.36503671 0.0037575963 0)
(-0.36924998 0.003742329 0)
(-0.37344898 0.0037290777 0)
(-0.37712691 0.0037111662 0)
(-0.38251151 0.0037156102 0)
(-0.069421659 0.0087583954 0)
(-0.083351906 0.0086258838 0)
(-0.096841825 0.0084979605 0)
(-0.10990145 0.0083745438 0)
(-0.12254087 0.0082554935 0)
(-0.13477016 0.0081406681 0)
(-0.14659942 0.008029929 0)
(-0.15803879 0.0079231426 0)
(-0.16909844 0.007820185 0)
(-0.17978855 0.0077209384 0)
(-0.19011931 0.0076252966 0)
(-0.20010092 0.0075331588 0)
(-0.20974354 0.0074444365 0)
(-0.21905733 0.007359046 0)
(-0.22805239 0.0072769154 0)
(-0.23673881 0.0071979772 0)
(-0.2451266 0.0071221747 0)
(-0.25322569 0.0070494545 0)
(-0.26104596 0.0069797734 0)
(-0.26859719 0.0069130901 0)
(-0.2758891 0.006849372 0)
(-0.28293127 0.0067885862 0)
(-0.28973321 0.0067307091 0)
(-0.29630429 0.0066757145 0)
(-0.30265379 0.0066235819 0)
(-0.30879085 0.0065742863 0)
(-0.31472447 0.0065278051 0)
(-0.32046353 0.0064841071 0)
(-0.32601675 0.0064431577 0)
(-0.33139268 0.0064049049 0)
(-0.33659971 0.0063692815 0)
(-0.34164599 0.0063361864 0)
(-0.34653949 0.0063054794 0)
(-0.35128766 0.0062769498 0)
(-0.3558984 0.0062503187 0)
(-0.36037598 0.0062251341 0)
(-0.36473604 0.0062010704 0)
(-0.36894874 0.0061767256 0)
(-0.37314912 0.0061554105 0)
(-0.37682423 0.0061245042 0)
(-0.38220797 0.0061343171 0)
(-0.069073074 0.012030004 0)
(-0.082997504 0.011855513 0)
(-0.096481858 0.011687192 0)
(-0.10953613 0.011524865 0)
(-0.12217043 0.011368314 0)
(-0.1343948 0.011217329 0)
(-0.14621936 0.011071706 0)
(-0.15765423 0.010931255 0)
(-0.16870957 0.010795799 0)
(-0.17939556 0.010665173 0)
(-0.18972238 0.010539228 0)
(-0.1997002 0.010417828 0)
(-0.2093392 0.010300847 0)
(-0.21864952 0.010188177 0)
(-0.22764126 0.010079716 0)
(-0.23632449 0.0099753795 0)
(-0.24470921 0.00987509 0)
(-0.25280536 0.0097787822 0)
(-0.26062281 0.0096863991 0)
(-0.26817133 0.0095978935 0)
(-0.27546061 0.009513224 0)
(-0.28250026 0.009432357 0)
(-0.28929976 0.0093552637 0)
(-0.2958685 0.0092819201 0)
(-0.30221572 0.009212303 0)
(-0.30835058 0.0091463909 0)
(-0.31428207 0.0090841583 0)
(-0.32001906 0.0090255755 0)
(-0.32557027 0.0089706002 0)
(-0.33094426 0.0089191746 0)
(-0.33614941 0.0088712115 0)
(-0.34119387 0.0088265851 0)
(-0.34608563 0.0087851084 0)
(-0.35083215 0.0087465063 0)
(-0.35544141 0.0087104054 0)
(-0.35991768 0.0086761997 0)
(-0.36427691 0.0086434637 0)
(-0.36848864 0.0086102068 0)
(-0.37269137 0.0085809787 0)
(-0.3763615 0.0085348864 0)
(-0.38174553 0.0085538815 0)
(-0.054238393 0.015524294 0)
(-0.068605398 0.015299871 0)
(-0.082521992 0.015083427 0)
(-0.095998842 0.014874739 0)
(-0.10904592 0.014673528 0)
(-0.12167331 0.014479498 0)
(-0.13389107 0.01429237 0)
(-0.1457093 0.014111876 0)
(-0.15713811 0.01393777 0)
(-0.16818765 0.013769822 0)
(-0.17886809 0.013607821 0)
(-0.18918958 0.013451575 0)
(-0.19916231 0.01330091 0)
(-0.20879643 0.013155668 0)
(-0.21810207 0.013015711 0)
(-0.22708933 0.012880914 0)
(-0.23576826 0.012751168 0)
(-0.24414886 0.012626381 0)
(-0.25224104 0.012506472 0)
(-0.26005468 0.012391374 0)
(-0.26759953 0.012281029 0)
(-0.27488529 0.012175392 0)
(-0.28192154 0.012074425 0)
(-0.28871777 0.011978097 0)
(-0.29528334 0.011886383 0)
(-0.3016275 0.011799262 0)
(-0.3077594 0.011716711 0)
(-0.31368802 0.011638707 0)
(-0.31942224 0.011565216 0)
(-0.32497076 0.011496195 0)
(-0.33034213 0.011431576 0)
(-0.33554475 0.011371258 0)
(-0.34058677 0.011315087 0)
(-0.34547619 0.01126284 0)
(-0.3502205 0.011214179 0)
(-0.35482773 0.01116865 0)
(-0.35930219 0.011125523 0)
(-0.36366022 0.011084235 0)
(-0.36787047 0.011042488 0)
(-0.37207683 0.011004989 0)
(-0.37573858 0.010944956 0)
(-0.38112684 0.010966942 0)
(-0.053688499 0.018645623 0)
(-0.068045753 0.018380212 0)
(-0.081953113 0.018124267 0)
(-0.095421105 0.017877569 0)
(-0.1084597 0.01763974 0)
(-0.12107896 0.017410412 0)
(-0.13328895 0.017189241 0)
(-0.14509973 0.0169759 0)
(-0.15652142 0.016770088 0)
(-0.16756415 0.016571527 0)
(-0.17823806 0.016379963 0)
(-0.18855332 0.016195163 0)
(-0.19852008 0.016016917 0)
(-0.20814849 0.015845038 0)
(-0.21744867 0.015679359 0)
(-0.2264307 0.015519733 0)
(-0.23510461 0.015366031 0)
(-0.2434804 0.015218143 0)
(-0.25156798 0.015075976 0)
(-0.25937719 0.014939451 0)
(-0.2669178 0.014808505 0)
(-0.27419947 0.014683086 0)
(-0.28123179 0.014563152 0)
(-0.28802423 0.014448671 0)
(-0.29458614 0.014339618 0)
(-0.30092678 0.014235972 0)
(-0.30705527 0.014137711 0)
(-0.3129806 0.014044811 0)
(-0.31871163 0.013957241 0)
(-0.32425706 0.013874952 0)
(-0.32962545 0.013797869 0)
(-0.33482517 0.013725878 0)
(-0.33986439 0.013658807 0)
(-0.34475113 0.013596395 0)
(-0.3494929 0.013538264 0)
(-0.35409778 0.013483865 0)
(-0.35857012 0.013432469 0)
(-0.36292662 0.013383067 0)
(-0.36713517 0.013334387 0)
(-0.37134497 0.013286446 0)
(-0.37499775 0.013227696 0)
(-0.38039127 0.013211277 0)
(-0.053040341 0.021615414 0)
(-0.067386619 0.021310961 0)
(-0.081283664 0.021017436 0)
(-0.094741797 0.020734572 0)
(-0.10777097 0.020461898 0)
(-0.12038125 0.02019898 0)
(-0.13258265 0.01994541 0)
(-0.14438525 0.019700805 0)
(-0.15579913 0.019464814 0)
(-0.16683441 0.019237112 0)
(-0.17750123 0.019017402 0)
(-0.18780972 0.018805416 0)
(-0.19777004 0.01860091 0)
(-0.20739231 0.018403666 0)
(-0.21668663 0.018213492 0)
(-0.22566308 0.018030218 0)
(-0.23433167 0.017853698 0)
(-0.24270239 0.017683806 0)
(-0.25078512 0.017520435 0)
(-0.2585897 0.017363498 0)
(-0.26612588 0.017212923 0)
(-0.27340333 0.017068654 0)
(-0.28043159 0.016930646 0)
(-0.28722014 0.016798866 0)
(-0.29377833 0.016673287 0)
(-0.30011539 0.01655389 0)
(-0.30624043 0.016440655 0)
(-0.31216243 0.016333557 0)
(-0.31789025 0.016232566 0)
(-0.32343259 0.016137629 0)
(-0.32879799 0.016048666 0)
(-0.33399483 0.015965553 0)
(-0.33903128 0.0158881 0)
(-0.34391536 0.015816014 0)
(-0.3486546 0.015748889 0)
(-0.35325713 0.015686082 0)
(-0.35772741 0.015626938 0)
(-0.3620821 0.015569806 0)
(-0.36628964 0.015515338 0)
(-0.37049896 0.015455508 0)
(-0.37415106 0.015408818 0)
(-0.37954209 0.015325703 0)
(-0.052244188 0.024664242 0)
(-0.066577476 0.024319692 0)
(-0.080462328 0.023987614 0)
(-0.093908846 0.023667636 0)
(-0.10692696 0.023359201 0)
(-0.1195267 0.023061807 0)
(-0.13171807 0.022774979 0)
(-0.14351111 0.022498282 0)
(-0.1549159 0.022231308 0)
(-0.16594254 0.021973687 0)
(-0.17660114 0.021725079 0)
(-0.18690183 0.021485176 0)
(-0.19685473 0.0212537 0)
(-0.20646996 0.021030404 0)
(-0.21575761 0.020815069 0)
(-0.22472771 0.020607502 0)
(-0.23339028 0.020407537 0)
(-0.24175526 0.020215034 0)
(-0.24983255 0.020029872 0)
(-0.25763196 0.019851954 0)
(-0.26516321 0.019681202 0)
(-0.27243596 0.019517553 0)
(-0.27945975 0.01936096 0)
(-0.28624403 0.019211389 0)
(-0.29279814 0.019068814 0)
(-0.29913128 0.018933215 0)
(-0.30525258 0.018804572 0)
(-0.31117099 0.018682866 0)
(-0.31689536 0.018568061 0)
(-0.32243437 0.018460107 0)
(-0.32779657 0.018358918 0)
(-0.33299033 0.018264359 0)
(-0.33802382 0.018176223 0)
(-0.34290506 0.018094193 0)
(-0.34764163 0.018017833 0)
(-0.35224163 0.017946422 0)
(-0.35670974 0.017879368 0)
(-0.36106217 0.017814462 0)
(-0.36526928 0.017754025 0)
(-0.36947394 0.01768277 0)
(-0.37313383 0.017644995 0)
(-0.37851377 0.017501204 0)
(-0.036523907 0.028194137 0)
(-0.051299781 0.0277935 0)
(-0.06561799 0.027407835 0)
(-0.079488631 0.027036228 0)
(-0.092921634 0.026678181 0)
(-0.1059269 0.026333063 0)
(-0.1185144 0.026000298 0)
(-0.13069413 0.025679351 0)
(-0.14247611 0.025369724 0)
(-0.15387039 0.025070958 0)
(-0.16488705 0.024782633 0)
(-0.17553618 0.024504366 0)
(-0.18582789 0.024235808 0)
(-0.19577228 0.023976647 0)
(-0.20537945 0.023726604 0)
(-0.21465944 0.023485433 0)
(-0.2236223 0.023252918 0)
(-0.232278 0.023028874 0)
(-0.24063648 0.022813143 0)
(-0.2487076 0.022605593 0)
(-0.25650116 0.022406116 0)
(-0.26402686 0.022214627 0)
(-0.27129433 0.022031057 0)
(-0.2783131 0.021855357 0)
(-0.2850926 0.021687492 0)
(-0.29164215 0.021527435 0)
(-0.29797095 0.021375168 0)
(-0.30408809 0.021230674 0)
(-0.31000253 0.021093933 0)
(-0.31572308 0.020964912 0)
(-0.32125844 0.020843558 0)
(-0.32661712 0.020729781 0)
(-0.3318075 0.020623437 0)
(-0.33683775 0.020524307 0)
(-0.34171589 0.020432048 0)
(-0.34644952 0.0203462 0)
(-0.35104672 0.020265978 0)
(-0.35551243 0.020190812 0)
(-0.35986213 0.020118114 0)
(-0.36406909 0.020051211 0)
(-0.36826595 0.019969742 0)
(-0.3719395 0.019934253 0)
(-0.37730351 0.019745899 0)
(-0.035448574 0.031448924 0)
(-0.050206142 0.031004615 0)
(-0.064507059 0.03057682 0)
(-0.078361325 0.030164689 0)
(-0.091778759 0.029767605 0)
(-0.10476922 0.029384864 0)
(-0.11734264 0.029015823 0)
(-0.12950899 0.028659879 0)
(-0.14127825 0.028316474 0)
(-0.15266046 0.027985094 0)
(-0.16366566 0.02766527 0)
(-0.17430393 0.02735657 0)
(-0.18458535 0.027058607 0)
(-0.19452 0.026771032 0)
(-0.20411793 0.026493535 0)
(-0.21338918 0.026225841 0)
(-0.22234377 0.025967711 0)
(-0.23099164 0.02571894 0)
(-0.23934271 0.025479353 0)
(-0.24740681 0.025248804 0)
(-0.25519371 0.025027177 0)
(-0.26271311 0.024814377 0)
(-0.2699746 0.024610332 0)
(-0.27698769 0.02441499 0)
(-0.28376179 0.024228313 0)
(-0.2903062 0.024050278 0)
(-0.29663011 0.023880866 0)
(-0.30274257 0.023720062 0)
(-0.30865254 0.02356785 0)
(-0.31436882 0.023424196 0)
(-0.31990008 0.023289047 0)
(-0.32525484 0.02316231 0)
(-0.33044145 0.023043835 0)
(-0.33546808 0.022933387 0)
(-0.34034276 0.022830607 0)
(-0.34507311 0.022735005 0)
(-0.34966716 0.022645752 0)
(-0.35413016 0.022562261 0)
(-0.35847661 0.022481714 0)
(-0.36268347 0.022407827 0)
(-0.36687031 0.022317209 0)
(-0.37056164 0.022279056 0)
(-0.37590681 0.022058821 0)
(-0.019025024 0.035296733 0)
(-0.034226106 0.034788159 0)
(-0.048962767 0.034299035 0)
(-0.063243983 0.033828065 0)
(-0.077079548 0.033374394 0)
(-0.090479202 0.032937288 0)
(-0.10345276 0.032515974 0)
(-0.1160101 0.032109738 0)
(-0.12816117 0.031717908 0)
(-0.13991591 0.031339864 0)
(-0.15128434 0.030975036 0)
(-0.16227647 0.030622902 0)
(-0.17290234 0.030282985 0)
(-0.18317202 0.029954855 0)
(-0.19309554 0.029638126 0)
(-0.20268294 0.029332454 0)
(-0.21194423 0.029037538 0)
(-0.22088939 0.028753112 0)
(-0.22952834 0.028478953 0)
(-0.23787096 0.028214866 0)
(-0.24592706 0.027960696 0)
(-0.25370639 0.027716312 0)
(-0.2612186 0.027481615 0)
(-0.26847328 0.027256526 0)
(-0.27547992 0.027040992 0)
(-0.28224788 0.026834974 0)
(-0.28878645 0.026638448 0)
(-0.2951048 0.0264514 0)
(-0.30121196 0.026273816 0)
(-0.30711687 0.026105681 0)
(-0.31282831 0.025946966 0)
(-0.31835493 0.025797615 0)
(-0.32370525 0.025657535 0)
(-0.3288876 0.025526568 0)
(-0.33391015 0.02540447 0)
(-0.33878092 0.025290861 0)
(-0.34350756 0.025185231 0)
(-0.34809804 0.025086711 0)
(-0.35255791 0.024994668 0)
(-0.35690064 0.024906176 0)
(-0.36110719 0.024824832 0)
(-0.36528255 0.024725963 0)
(-0.36899462 0.024681862 0)
(-0.37431905 0.024439067 0)
(-0.017679699 0.038769548 0)
(-0.032856016 0.038213286 0)
(-0.047569094 0.037678191 0)
(-0.061828011 0.03716298 0)
(-0.075642391 0.036666734 0)
(-0.089021896 0.036188609 0)
(-0.10197629 0.035727757 0)
(-0.11451541 0.035283391 0)
(-0.12664915 0.034854771 0)
(-0.13838743 0.034441214 0)
(-0.14974023 0.03404209 0)
(-0.16071753 0.033656824 0)
(-0.17132934 0.033284892 0)
(-0.18158569 0.032925819 0)
(-0.19149659 0.032579181 0)
(-0.20107203 0.032244601 0)
(-0.210322 0.031921748 0)
(-0.21925644 0.031610332 0)
(-0.22788525 0.031310107 0)
(-0.23621826 0.031020865 0)
(-0.24426527 0.030742433 0)
(-0.25203598 0.030474672 0)
(-0.25954003 0.030217474 0)
(-0.26678697 0.029970758 0)
(-0.27378624 0.029734466 0)
(-0.28054722 0.029508561 0)
(-0.28707915 0.029293018 0)
(-0.29339117 0.029087827 0)
(-0.2994923 0.028892976 0)
(-0.30539145 0.028708454 0)
(-0.31109738 0.028534233 0)
(-0.31661874 0.02837026 0)
(-0.32196401 0.028216439 0)
(-0.32714153 0.028072608 0)
(-0.33215945 0.027938513 0)
(-0.33702578 0.02781376 0)
(-0.34174821 0.027697813 0)
(-0.34633462 0.02758978 0)
(-0.35079087 0.027488948 0)
(-0.3551294 0.027392386 0)
(-0.35933531 0.027303192 0)
(-0.36349828 0.027196839 0)
(-0.36723323 0.02714469 0)
(-0.37253523 0.026886693 0)
(-0.00057110411 0.042960344 0)
(-0.016189607 0.042330856 0)
(-0.031338074 0.041725706 0)
(-0.046024718 0.041143502 0)
(-0.06025857 0.040582969 0)
(-0.074049118 0.040043096 0)
(-0.087405951 0.039522937 0)
(-0.10033877 0.039021569 0)
(-0.11285738 0.038538125 0)
(-0.1249716 0.038071798 0)
(-0.13669134 0.037621838 0)
(-0.14802652 0.037187556 0)
(-0.15898711 0.03676832 0)
(-0.16958306 0.036363558 0)
(-0.17982438 0.035972751 0)
(-0.18972102 0.035595435 0)
(-0.19928296 0.035231197 0)
(-0.20852014 0.034879677 0)
(-0.21744246 0.034540559 0)
(-0.22605979 0.034213577 0)
(-0.23438193 0.033898503 0)
(-0.24241863 0.033595153 0)
(-0.25017958 0.033303377 0)
(-0.25767437 0.033023059 0)
(-0.26491251 0.032754114 0)
(-0.27190344 0.032496482 0)
(-0.27865648 0.032250125 0)
(-0.28518085 0.032015022 0)
(-0.29148568 0.031791164 0)
(-0.29757995 0.031578544 0)
(-0.30347255 0.031377153 0)
(-0.30917223 0.031186968 0)
(-0.3146876 0.031007937 0)
(-0.32002714 0.030839965 0)
(-0.32519916 0.030682884 0)
(-0.33021182 0.030536434 0)
(-0.33507312 0.030400207 0)
(-0.33979074 0.030273645 0)
(-0.34437253 0.030155836 0)
(-0.34882463 0.030045979 0)
(-0.35315849 0.029941204 0)
(-0.35736329 0.029843868 0)
(-0.36151339 0.029730695 0)
(-0.36527262 0.02966928 0)
(-0.37055069 0.02940198 0)
(0.0010314511 0.046663664 0)
(-0.014554722 0.045982117 0)
(-0.029672193 0.045326845 0)
(-0.04432937 0.044696388 0)
(-0.058535229 0.044089432 0)
(-0.072299142 0.043504866 0)
(-0.085630627 0.042941645 0)
(-0.098539326 0.042398764 0)
(-0.11103497 0.041875281 0)
(-0.12312736 0.041370313 0)
(-0.13482634 0.040883045 0)
(-0.1461418 0.040412725 0)
(-0.15708365 0.039958666 0)
(-0.16766183 0.039520243 0)
(-0.17788627 0.039096892 0)
(-0.18776692 0.038688109 0)
(-0.19731369 0.038293446 0)
(-0.20653649 0.03791251 0)
(-0.21544518 0.037544961 0)
(-0.22404959 0.03719051 0)
(-0.23235948 0.036848912 0)
(-0.24038457 0.036519968 0)
(-0.24813449 0.036203519 0)
(-0.25561882 0.035899441 0)
(-0.26284703 0.035607646 0)
(-0.26982851 0.035328071 0)
(-0.27657257 0.035060681 0)
(-0.28308839 0.034805455 0)
(-0.28938507 0.034562387 0)
(-0.29547157 0.034331477 0)
(-0.30135674 0.03411272 0)
(-0.30704932 0.033906095 0)
(-0.3125579 0.033711555 0)
(-0.31789094 0.033529004 0)
(-0.32305674 0.033358274 0)
(-0.32806343 0.033199096 0)
(-0.33291902 0.033051054 0)
(-0.33763121 0.032913568 0)
(-0.34220778 0.032785714 0)
(-0.34665513 0.0326666 0)
(-0.35098387 0.032553465 0)
(-0.35518699 0.032447806 0)
(-0.35932404 0.032328384 0)
(-0.36310836 0.03225718 0)
(-0.368361 0.031985233 0)
(0.0188001 0.051224313 0)
(0.00277492 0.05045962 0)
(-0.012775334 0.049724756 0)
(-0.027858493 0.049018141 0)
(-0.042482997 0.048338276 0)
(-0.056657772 0.047683779 0)
(-0.070392092 0.047053439 0)
(-0.083695402 0.046446111 0)
(-0.096577276 0.045860707 0)
(-0.10904739 0.045296204 0)
(-0.12111548 0.044751646 0)
(-0.13279135 0.044226147 0)
(-0.14408485 0.043718893 0)
(-0.15500583 0.043229137 0)
(-0.16556418 0.042756203 0)
(-0.17576981 0.042299479 0)
(-0.18563259 0.04185842 0)
(-0.19516242 0.041432542 0)
(-0.20436915 0.041021421 0)
(-0.21326259 0.04062469 0)
(-0.22185253 0.040242037 0)
(-0.2301487 0.039873199 0)
(-0.23816075 0.039517965 0)
(-0.24589831 0.039176163 0)
(-0.25337088 0.038847664 0)
(-0.26058791 0.038532376 0)
(-0.26755877 0.038230235 0)
(-0.27429271 0.037941206 0)
(-0.28079889 0.037665274 0)
(-0.28708637 0.037402434 0)
(-0.2931641 0.037152693 0)
(-0.29904089 0.036916051 0)
(-0.30472546 0.036692493 0)
(-0.31022637 0.036481974 0)
(-0.31555206 0.036284402 0)
(-0.32071083 0.036099607 0)
(-0.3257108 0.035927317 0)
(-0.33055994 0.035767107 0)
(-0.335266 0.03561838 0)
(-0.3398367 0.035480206 0)
(-0.34427869 0.03535161 0)
(-0.34860186 0.035229974 0)
(-0.35280264 0.035115922 0)
(-0.35692668 0.034990747 0)
(-0.36073633 0.034909736 0)
(-0.36596208 0.034636729 0)
(0.020642698 0.055171209 0)
(0.004658674 0.054349729 0)
(-0.010852003 0.053560236 0)
(-0.025897344 0.052801052 0)
(-0.040485795 0.052070608 0)
(-0.054626232 0.051367438 0)
(-0.068327843 0.050690225 0)
(-0.081599996 0.05003773 0)
(-0.094452197 0.049408774 0)
(-0.10689405 0.048802254 0)
(-0.11893525 0.048217136 0)
(-0.13058554 0.047652465 0)
(-0.14185469 0.047107359 0)
(-0.15275254 0.046581013 0)
(-0.16328891 0.046072696 0)
(-0.17347365 0.04558175 0)
(-0.18331661 0.045107584 0)
(-0.19282761 0.04464968 0)
(-0.20201646 0.044207579 0)
(-0.21089293 0.04378089 0)
(-0.21946675 0.043369276 0)
(-0.22774761 0.042972459 0)
(-0.23574513 0.042590211 0)
(-0.24346886 0.042222353 0)
(-0.25092829 0.041868748 0)
(-0.25813283 0.041529299 0)
(-0.26509178 0.041203944 0)
(-0.27181438 0.040892648 0)
(-0.27830975 0.040595401 0)
(-0.28458691 0.040312204 0)
(-0.29065479 0.040043069 0)
(-0.29652216 0.039788002 0)
(-0.30219772 0.039546996 0)
(-0.30769001 0.039320011 0)
(-0.31300745 0.039106957 0)
(-0.31815832 0.038907667 0)
(-0.32315073 0.038721865 0)
(-0.32799264 0.038549123 0)
(-0.33269182 0.03838883 0)
(-0.33725597 0.03824006 0)
(-0.34169194 0.038101769 0)
(-0.34600909 0.037971504 0)
(-0.35020681 0.037849086 0)
(-0.35431796 0.037718585 0)
(-0.35815276 0.037628106 0)
(-0.36335017 0.037356753 0)
(0.039038012 0.060130706 0)
(0.022620395 0.059215091 0)
(0.0066816651 0.058335482 0)
(-0.0087855909 0.057490054 0)
(-0.023789416 0.056677066 0)
(-0.038338255 0.055894855 0)
(-0.052440932 0.055141862 0)
(-0.066106555 0.054416664 0)
(-0.079344413 0.053717921 0)
(-0.092163939 0.053044367 0)
(-0.10457467 0.052394812 0)
(-0.11658624 0.051768145 0)
(-0.12820832 0.051163337 0)
(-0.13945064 0.05057944 0)
(-0.15032296 0.050015587 0)
(-0.16083506 0.049470992 0)
(-0.17099674 0.048944947 0)
(-0.18081778 0.048436819 0)
(-0.19030795 0.047946049 0)
(-0.19947701 0.047472149 0)
(-0.20833468 0.047014698 0)
(-0.21689064 0.046573339 0)
(-0.22515451 0.046147773 0)
(-0.23313588 0.045737761 0)
(-0.24084425 0.045343113 0)
(-0.24828907 0.044963687 0)
(-0.25547968 0.044599382 0)
(-0.26242537 0.044250138 0)
(-0.26913532 0.043915921 0)
(-0.27561862 0.043596725 0)
(-0.28188426 0.043292559 0)
(-0.28794112 0.043003441 0)
(-0.29379797 0.042729387 0)
(-0.29946345 0.042470396 0)
(-0.3049461 0.042226435 0)
(-0.31025432 0.04199742 0)
(-0.31539635 0.041783186 0)
(-0.32038031 0.041583458 0)
(-0.32521416 0.041397808 0)
(-0.32990567 0.041225619 0)
(-0.33446253 0.041065975 0)
(-0.3388918 0.040917792 0)
(-0.34320245 0.04077879 0)
(-0.34739631 0.04064811 0)
(-0.35149477 0.040512653 0)
(-0.35535416 0.040413269 0)
(-0.36052179 0.040145573 0)
(0.041097881 0.064335097 0)
(0.024731662 0.063357554 0)
(0.0088424695 0.06241842 0)
(-0.0065773057 0.06151575 0)
(-0.021535719 0.060647709 0)
(-0.036041201 0.059812526 0)
(-0.050102521 0.059008544 0)
(-0.063728705 0.058234229 0)
(-0.076928966 0.057488141 0)
(-0.08971266 0.056768921 0)
(-0.10208925 0.056075292 0)
(-0.1140683 0.055406063 0)
(-0.12565941 0.05476013 0)
(-0.13687226 0.054136477 0)
(-0.14771653 0.053534173 0)
(-0.15820196 0.052952377 0)
(-0.16833827 0.052390329 0)
(-0.17813518 0.051847352 0)
(-0.18760242 0.05132285 0)
(-0.19674967 0.0508163 0)
(-0.2055866 0.050327254 0)
(-0.21412283 0.049855331 0)
(-0.22236794 0.049400218 0)
(-0.23033145 0.048961658 0)
(-0.23802283 0.048539455 0)
(-0.24545145 0.04813346 0)
(-0.25262663 0.047743573 0)
(-0.2595576 0.047369732 0)
(-0.26625351 0.047011907 0)
(-0.2727234 0.046670099 0)
(-0.27897623 0.046344324 0)
(-0.28502084 0.046034608 0)
(-0.29086597 0.045740977 0)
(-0.29652025 0.045463438 0)
(-0.30199217 0.045201969 0)
(-0.3072901 0.044956491 0)
(-0.31242231 0.044726847 0)
(-0.31739688 0.044512764 0)
(-0.32222177 0.044313819 0)
(-0.32690477 0.044129399 0)
(-0.33145359 0.043958608 0)
(-0.33587543 0.04380035 0)
(-0.34017907 0.043652522 0)
(-0.34436823 0.043513743 0)
(-0.34845416 0.043373643 0)
(-0.35233729 0.043266043 0)
(-0.35747377 0.043003442 0)
(0.04328449 0.068641065 0)
(0.026974453 0.067600174 0)
(0.011139276 0.066600135 0)
(-0.0042287382 0.065638914 0)
(-0.019137637 0.064714558 0)
(-0.033595824 0.063825185 0)
(-0.047612002 0.062969028 0)
(-0.061195121 0.062144446 0)
(-0.074354311 0.061349894 0)
(-0.087098847 0.060583917 0)
(-0.099438119 0.05984515 0)
(-0.1113816 0.059132321 0)
(-0.12293885 0.058444247 0)
(-0.13411944 0.057779843 0)
(-0.14493301 0.057138115 0)
(-0.15538922 0.056518162 0)
(-0.16549772 0.055919175 0)
(-0.17526818 0.055340432 0)
(-0.18471024 0.054781295 0)
(-0.19383354 0.054241209 0)
(-0.20264769 0.053719699 0)
(-0.21116223 0.05321636 0)
(-0.21938669 0.052730862 0)
(-0.22733054 0.052262936 0)
(-0.23500317 0.051812376 0)
(-0.24241393 0.051379031 0)
(-0.24957207 0.050962797 0)
(-0.25648678 0.050563615 0)
(-0.26316717 0.050181462 0)
(-0.26962222 0.049816344 0)
(-0.27586087 0.049468287 0)
(-0.28189191 0.049137326 0)
(-0.28772406 0.048823498 0)
(-0.29336591 0.048526823 0)
(-0.29882593 0.048247286 0)
(-0.30411249 0.047984822 0)
(-0.30923381 0.04773928 0)
(-0.31419799 0.047510397 0)
(-0.31901298 0.04729776 0)
(-0.32368659 0.047100768 0)
(-0.32822656 0.046918559 0)
(-0.33264023 0.046750056 0)
(-0.33693629 0.046593335 0)
(-0.34111983 0.046446653 0)
(-0.34519339 0.046302173 0)
(-0.34909913 0.046187097 0)
(-0.35420312 0.045930581 0)
(0.045595205 0.073050264 0)
(0.02934632 0.071944595 0)
(0.01356986 0.070882293 0)
(-0.001741893 0.069861208 0)
(-0.016596964 0.068879263 0)
(-0.031003711 0.067934462 0)
(-0.044970769 0.067024926 0)
(-0.058507006 0.066148903 0)
(-0.071621468 0.065304743 0)
(-0.084323346 0.064490893 0)
(-0.096621948 0.063705897 0)
(-0.10852667 0.062948398 0)
(-0.12004697 0.062217136 0)
(-0.13119238 0.061510955 0)
(-0.14197245 0.060828794 0)
(-0.15239675 0.060169696 0)
(-0.16247488 0.059532797 0)
(-0.17221642 0.058917329 0)
(-0.18163095 0.058322617 0)
(-0.19072804 0.05774807 0)
(-0.19951723 0.057193186 0)
(-0.208008 0.056657538 0)
(-0.21620981 0.056140778 0)
(-0.22413207 0.055642625 0)
(-0.23178412 0.055162866 0)
(-0.23917524 0.054701345 0)
(-0.24631464 0.05425796 0)
(-0.25321145 0.053832655 0)
(-0.25987473 0.053425413 0)
(-0.26631343 0.053036249 0)
(-0.27253644 0.052665199 0)
(-0.27855251 0.052312311 0)
(-0.28437033 0.051977635 0)
(-0.28999847 0.051661202 0)
(-0.29544536 0.051363012 0)
(-0.30071936 0.051083012 0)
(-0.30582868 0.050821063 0)
(-0.3107814 0.050576917 0)
(-0.31558549 0.050350178 0)
(-0.32024879 0.05014027 0)
(-0.32477906 0.049946375 0)
(-0.32918376 0.049767467 0)
(-0.33347163 0.049601799 0)
(-0.33764858 0.049447429 0)
(-0.34170984 0.04929878 0)
(-0.34563688 0.049176968 0)
(-0.35070713 0.048927179 0)
(0.064686864 0.078784626 0)
(0.048026967 0.077564437 0)
(0.031844377 0.076392586 0)
(0.016131545 0.075266662 0)
(0.00088077436 0.074184388 0)
(-0.013915933 0.073143562 0)
(-0.02826688 0.072142074 0)
(-0.042180631 0.071177931 0)
(-0.05566597 0.070249269 0)
(-0.068731854 0.069354328 0)
(-0.081387388 0.068491458 0)
(-0.09364179 0.067659109 0)
(-0.10550437 0.066855838 0)
(-0.11698451 0.066080306 0)
(-0.12809164 0.065331283 0)
(-0.13883524 0.064607642 0)
(-0.1492248 0.063908367 0)
(-0.15926983 0.06323254 0)
(-0.16897985 0.062579349 0)
(-0.17836437 0.061948075 0)
(-0.18743286 0.061338097 0)
(-0.19619479 0.060748883 0)
(-0.20465958 0.060179986 0)
(-0.21283663 0.05963104 0)
(-0.22073527 0.059101753 0)
(-0.22836478 0.058591905 0)
(-0.23573438 0.058101339 0)
(-0.24285322 0.057629953 0)
(-0.24973039 0.057177696 0)
(-0.25637488 0.05674456 0)
(-0.26279562 0.056330571 0)
(-0.26900143 0.055935776 0)
(-0.27500105 0.055560239 0)
(-0.28080311 0.055204024 0)
(-0.28641616 0.054867178 0)
(-0.29184862 0.054549717 0)
(-0.29710881 0.054251604 0)
(-0.30220493 0.053972717 0)
(-0.30714508 0.053712827 0)
(-0.31193722 0.053471563 0)
(-0.31658923 0.053248385 0)
(-0.32110888 0.053042539 0)
(-0.3255038 0.05285307 0)
(-0.32978277 0.052678414 0)
(-0.33395212 0.052516568 0)
(-0.33800109 0.052363913 0)
(-0.34194795 0.052236068 0)
(-0.34698327 0.051993379 0)
(0.067161481 0.083476051 0)
(0.050576125 0.082185531 0)
(0.034465192 0.080946072 0)
(0.018821146 0.079755143 0)
(0.0036363192 0.07861033 0)
(-0.011097252 0.077509306 0)
(-0.025387811 0.076449845 0)
(-0.039243847 0.07542984 0)
(-0.052674057 0.074447308 0)
(-0.065687309 0.073500383 0)
(-0.078292614 0.072587312 0)
(-0.090499096 0.07170645 0)
(-0.10231597 0.070856265 0)
(-0.11375253 0.070035339 0)
(-0.12481812 0.069242365 0)
(-0.13552213 0.068476153 0)
(-0.14587395 0.067735623 0)
(-0.15588303 0.067019805 0)
(-0.16555878 0.066327839 0)
(-0.17491063 0.065658969 0)
(-0.18394798 0.065012537 0)
(-0.19268023 0.064387985 0)
(-0.20111671 0.063784845 0)
(-0.20926675 0.063202735 0)
(-0.2171396 0.062641354 0)
(-0.2247445 0.062100474 0)
(-0.23209058 0.061579939 0)
(-0.23918695 0.061079649 0)
(-0.24604262 0.060599561 0)
(-0.25266656 0.060139677 0)
(-0.25906762 0.059700035 0)
(-0.26525459 0.059280697 0)
(-0.27123616 0.058881745 0)
(-0.27702096 0.058503258 0)
(-0.28261746 0.058145305 0)
(-0.2880341 0.057807921 0)
(-0.29327915 0.057491086 0)
(-0.29836083 0.057194703 0)
(-0.30328722 0.056918566 0)
(-0.3080663 0.05666234 0)
(-0.31270597 0.056425533 0)
(-0.31721406 0.056207465 0)
(-0.32159829 0.056007283 0)
(-0.32586761 0.0558236 0)
(-0.33002829 0.055654473 0)
(-0.33406488 0.05549793 0)
(-0.33802997 0.055364695 0)
(-0.34302925 0.055129272 0)
(0.10419358 0.091175546 0)
(0.08672624 0.089697049 0)
(0.069743222 0.088278012 0)
(0.053238375 0.086915665 0)
(0.037204749 0.085607137 0)
(0.021634925 0.084349783 0)
(0.0065212693 0.083141048 0)
(-0.0081441378 0.081978479 0)
(-0.022369476 0.08085973 0)
(-0.036163155 0.079782573 0)
(-0.04953378 0.078744907 0)
(-0.062490127 0.077744756 0)
(-0.075041106 0.076780262 0)
(-0.087195744 0.075849682 0)
(-0.09896316 0.074951397 0)
(-0.11035254 0.074083905 0)
(-0.12137315 0.073245824 0)
(-0.13203425 0.072435896 0)
(-0.14234518 0.071652979 0)
(-0.15231526 0.070896052 0)
(-0.16195383 0.070164205 0)
(-0.17127022 0.069456642 0)
(-0.18027376 0.068772675 0)
(-0.18897374 0.068111718 0)
(-0.19737944 0.067473281 0)
(-0.20550009 0.066856968 0)
(-0.21334488 0.06626247 0)
(-0.22092295 0.065689555 0)
(-0.2282434 0.065138067 0)
(-0.23531525 0.064607912 0)
(-0.24214747 0.064099056 0)
(-0.24874895 0.063611513 0)
(-0.25512851 0.063145335 0)
(-0.26129489 0.062700605 0)
(-0.26725675 0.062277421 0)
(-0.27302266 0.061875886 0)
(-0.27860109 0.061496088 0)
(-0.28400042 0.061138087 0)
(-0.28922895 0.060801888 0)
(-0.29429485 0.060487419 0)
(-0.29920622 0.06019451 0)
(-0.30397106 0.059922868 0)
(-0.3085973 0.059672058 0)
(-0.31309281 0.059441495 0)
(-0.31746542 0.059230442 0)
(-0.32172422 0.059037687 0)
(-0.32587513 0.058861446 0)
(-0.32989917 0.058701088 0)
(-0.33388079 0.058563034 0)
(-0.33884299 0.058334891 0)
(0.12455466 0.097869983 0)
(0.10669385 0.096246278 0)
(0.089319848 0.094688224 0)
(0.072426931 0.093192862 0)
(0.056008772 0.091757123 0)
(0.040058426 0.090378031 0)
(0.024568563 0.089052799 0)
(0.0095315907 0.087778728 0)
(-0.0050603528 0.086553232 0)
(-0.019215376 0.085373841 0)
(-0.032941804 0.084238203 0)
(-0.04624815 0.083144097 0)
(-0.059143085 0.082089434 0)
(-0.07163542 0.081072246 0)