/*--------------------------------*- C++ -*----------------------------------*\
| =========                 |                                                 |
| \\      /  F ield         | OpenFOAM: The Open Source CFD Toolbox           |
|  \\    /   O peration     | Version:  2312                                  |
|   \\  /    A nd           | Website:  www.openfoam.com                      |
|    \\/     M anipulation  |                                                 |
\*---------------------------------------------------------------------------*/
FoamFile
{
    version     2.0;
    format      ascii;
    arch        "LSB;label=32;scalar=64";
    class       volScalarField;
    location    "0.06";
    object      alphat;
}
// * * * * * * * * * * * * * * * * * * * * * * * * * * * * * * * * * * * * * //

dimensions      [1 -1 -1 0 0 0 0];

internalField   nonuniform List<scalar> 
3251
(
0.021015814
0.02114317
0.021276671
0.021416555
0.021563057
0.021716417
0.021876881
0.022044702
0.022220141
0.022403461
0.022594934
0.022794834
0.02300344
0.023221034
0.023447896
0.02368431
0.023930556
0.024186912
0.024453653
0.024731045
0.02501935
0.025318816
0.025629684
0.025952181
0.026286517
0.026632889
0.026991475
0.027362432
0.0277459
0.028141993
0.028550806
0.028972409
0.029406845
0.029854137
0.03031428
0.030787244
0.031272976
0.031771397
0.032282407
0.03280588
0.03334167
0.033889611
0.034449519
0.035021191
0.03560441
0.03619895
0.036804576
0.037421052
0.038048152
0.038685666
0.039333421
0.039991369
0.04065985
0.041338289
0.042025776
0.04272206
0.043426962
0.044140358
0.021017126
0.021144506
0.021278041
0.021417963
0.021564503
0.0217179
0.021878402
0.022046262
0.02222174
0.022405099
0.022596611
0.022796552
0.023005198
0.023222832
0.023449735
0.023686189
0.023932476
0.024188874
0.024455655
0.024733089
0.025021433
0.02532094
0.025631848
0.025954384
0.02628876
0.02663517
0.026993793
0.027364788
0.027748291
0.02814442
0.028553267
0.028974902
0.029409371
0.029856693
0.030316865
0.030789856
0.031275615
0.031774061
0.032285094
0.032808589
0.0333444
0.033892361
0.034452288
0.03502398
0.035607221
0.036201787
0.036807444
0.03742396
0.038051111
0.038688687
0.039336518
0.039994533
0.040662814
0.041340917
0.042028169
0.042724266
0.043429008
0.044142342
0.021019482
0.021146907
0.021280497
0.021420478
0.021567078
0.021720535
0.021881098
0.022049019
0.022224558
0.022407979
0.022599554
0.022799556
0.023008266
0.023225962
0.023452928
0.023689445
0.023935795
0.024192255
0.024459098
0.024736593
0.025024999
0.025324566
0.025635533
0.025958127
0.026292559
0.026639025
0.026997703
0.027368749
0.027752304
0.028148481
0.028557375
0.028979054
0.029413565
0.029860927
0.030321136
0.030794162
0.031279952
0.031778428
0.032289487
0.032813005
0.033348837
0.033896817
0.03445676
0.035028468
0.035611725
0.036206307
0.036811984
0.037428525
0.038055704
0.038693314
0.039341176
0.039999185
0.040667276
0.041345087
0.04203209
0.042727969
0.043432502
0.044145608
0.021022873
0.021150366
0.021284034
0.021424095
0.021570776
0.021724316
0.021884962
0.022052966
0.022228589
0.022412094
0.022603753
0.022803841
0.023012635
0.023230416
0.023457467
0.023694068
0.023940502
0.024197045
0.024463972
0.024741548
0.025030035
0.025329681
0.025640726
0.025963396
0.026297903
0.026644441
0.027003188
0.027374303
0.027757922
0.028154161
0.028563113
0.028984848
0.029419411
0.029866821
0.030327075
0.030800142
0.031285969
0.031784477
0.032295565
0.032819108
0.03335496
0.033902957
0.034462914
0.035034631
0.035617897
0.036212486
0.036818171
0.037434719
0.038061907
0.038699521
0.039347374
0.040005324
0.040673225
0.041350764
0.042037505
0.042733144
0.043437433
0.044150003
0.021027296
0.021154882
0.021288648
0.021428811
0.021575596
0.02172924
0.021889991
0.022058101
0.022233829
0.022417441
0.022609206
0.0228094
0.023018301
0.023236189
0.023463345
0.023700053
0.023946592
0.024203239
0.024470268
0.024747947
0.025036533
0.025336278
0.02564742
0.025970184
0.026304782
0.026651409
0.027010241
0.027381438
0.027765135
0.028161449
0.028570472
0.028992273
0.029426897
0.029874365
0.03033467
0.030807784
0.031293653
0.031792197
0.032303315
0.032826883
0.033362755
0.033910766
0.034470732
0.035042455
0.035625721
0.036220308
0.036825987
0.037442526
0.0380697
0.038707291
0.039355099
0.040012953
0.040680656
0.041357927
0.042044394
0.042739779
0.043443847
0.021032439
0.021160136
0.021294015
0.021434295
0.021581197
0.02173496
0.021895831
0.02206406
0.022239909
0.022423642
0.022615528
0.022815843
0.023024865
0.023242873
0.02347015
0.023706978
0.023953635
0.0242104
0.024477546
0.024755338
0.025044038
0.025343893
0.025655142
0.025978012
0.026312712
0.026659437
0.027018365
0.027389652
0.027773436
0.028169832
0.028578932
0.029000806
0.029435497
0.029883025
0.030343386
0.03081655
0.031302461
0.031801043
0.032312192
0.032835784
0.033371673
0.033919696
0.034479667
0.035051388
0.035634647
0.036229222
0.036834883
0.0374514
0.038078542
0.038716087
0.039363823
0.040021556
0.040689061
0.041366075
0.042052268
0.042747406
0.043451458
0.021038161
0.021165981
0.021299987
0.021440395
0.021587427
0.02174132
0.021902322
0.022070683
0.022246664
0.022430529
0.022622548
0.022822996
0.02303215
0.02325029
0.023477699
0.023714656
0.023961443
0.024218336
0.024485609
0.024763526
0.025052348
0.025352323
0.02566369
0.025986673
0.026321483
0.026668315
0.027027346
0.027398731
0.027782608
0.028179092
0.028588275
0.029010225
0.029444987
0.02989258
0.030353
0.030826215
0.031312171
0.03181079
0.03232197
0.032845585
0.033381491
0.033929522
0.034489495
0.03506121
0.035644457
0.036239012
0.036844647
0.037461128
0.038088224
0.038725707
0.039373354
0.04003095
0.040698254
0.041375015
0.042060934
0.042755811
0.043459751
0.021044916
0.021172883
0.021307037
0.021447595
0.021594778
0.021748824
0.021909978
0.022078494
0.022254628
0.022438648
0.022630821
0.022831423
0.023040731
0.023259025
0.023486586
0.023723696
0.023970633
0.024227675
0.024495094
0.024773156
0.02506212
0.025362233
0.025673736
0.025996851
0.026331789
0.026678743
0.027037891
0.027409389
0.027793373
0.028189958
0.028599235
0.029021273
0.029456116
0.029903782
0.030364267
0.03083754
0.031323546
0.031822206
0.032333418
0.032857058
0.033392979
0.033941017
0.034500987
0.035072692
0.035655918
0.036250444
0.03685604
0.037472473
0.038099506
0.038736906
0.039384439
0.040041875
0.040708958
0.041385448
0.042071067
0.042765635
0.043469225
0.021052789
0.021180926
0.021315251
0.021455982
0.02160334
0.021757562
0.021918893
0.022087585
0.022263898
0.022448095
0.022640446
0.022841226
0.023050711
0.023269182
0.023496919
0.023734202
0.023981313
0.024238525
0.024506113
0.024784341
0.025073467
0.02537374
0.025685397
0.026008662
0.026343746
0.026690841
0.027050123
0.027421749
0.027805855
0.028202554
0.028611938
0.029034075
0.029469008
0.029916756
0.030377314
0.030850651
0.031336711
0.031835416
0.032346663
0.032870328
0.033406263
0.033954305
0.034514269
0.035085956
0.035669155
0.036263642
0.036869187
0.037485555
0.038112508
0.038749805
0.039397201
0.040054452
0.040721292
0.041397489
0.042082784
0.042777003
0.021061867
0.0211902
0.021324722
0.021465652
0.021613209
0.021767632
0.021929165
0.02209806
0.022274575
0.022458975
0.02265153
0.022852512
0.0230622
0.023280872
0.023508809
0.023746291
0.023993598
0.024251005
0.024518784
0.024797201
0.025086512
0.025386965
0.025698798
0.026022234
0.026357483
0.026704737
0.027064171
0.027435942
0.027820184
0.028217012
0.028626516
0.029048764
0.029483798
0.029931638
0.030392277
0.030865684
0.031351804
0.031850557
0.032361841
0.032885531
0.03342148
0.033969522
0.034529475
0.035101139
0.0356843
0.036278737
0.036884218
0.037500506
0.03812736
0.038764532
0.039411769
0.040068811
0.040735384
0.041411265
0.042096219
0.042790136
0.021072249
0.021200804
0.021335551
0.021476706
0.02162449
0.021779141
0.021940902
0.022110027
0.022286772
0.022471402
0.022664186
0.022865398
0.023075314
0.023294214
0.023522378
0.023760085
0.024007614
0.024265241
0.024533237
0.024811866
0.025101385
0.025402042
0.025714074
0.026037702
0.026373136
0.026720569
0.027080174
0.027452107
0.027836503
0.028233475
0.028643113
0.029065484
0.029500631
0.029948572
0.0304093
0.030882784
0.031368969
0.031867775
0.032379097
0.032902812
0.033438773
0.033986814
0.03454675
0.035118383
0.035701498
0.036295872
0.036901274
0.037517465
0.0381442
0.038781228
0.039428283
0.040085092
0.040751372
0.041426916
0.042111514
0.021084039
0.021212846
0.021347846
0.021489255
0.021637295
0.021792202
0.021954221
0.022123604
0.022300607
0.022485496
0.022678539
0.022880009
0.023090183
0.023309339
0.023537757
0.023775717
0.024023496
0.024281369
0.024549608
0.024828476
0.025118229
0.025419114
0.025731367
0.026055211
0.026390853
0.026738485
0.027098281
0.027470395
0.027854962
0.028252094
0.028661881
0.029084389
0.029519661
0.029967713
0.03042854
0.030902109
0.031388364
0.031887225
0.032398589
0.032922329
0.0334583
0.034006335
0.034566249
0.035137842
0.0357209
0.036315199
0.036920506
0.037536582
0.03816318
0.038800042
0.039446894
0.040103445
0.040769406
0.041444595
0.042128905
0.021097351
0.02122644
0.021361723
0.021503417
0.021651744
0.021806939
0.021969246
0.022138918
0.022316211
0.02250139
0.022694722
0.022896481
0.023106942
0.023326385
0.023555087
0.023793329
0.024041387
0.024299536
0.024568046
0.02484718
0.025137194
0.025438334
0.025750835
0.026074918
0.026410791
0.026758645
0.027118652
0.027490968
0.027875724
0.028273034
0.028682986
0.029105645
0.029541054
0.029989229
0.030450163
0.030923824
0.031410155
0.031909076
0.032420482
0.032944249
0.033480227
0.034028252
0.034588137
0.035159682
0.035742672
0.036336881
0.036942077
0.037558018
0.038184457
0.038821133
0.039467761
0.040124033
0.040789647
0.041464463
0.021112306
0.021241711
0.021377311
0.021519323
0.021667969
0.021823484
0.021986113
0.022156107
0.022333723
0.022519224
0.022712878
0.022914958
0.02312574
0.023345501
0.02357452
0.023813075
0.024061444
0.024319899
0.02458871
0.02486814
0.025158443
0.025459866
0.025772641
0.02609699
0.026433119
0.026781219
0.027141461
0.027513998
0.027898964
0.02829647
0.028706603
0.029129428
0.029564988
0.030013297
0.030474348
0.030948109
0.031434522
0.031933506
0.032444957
0.032968749
0.033504733
0.034052743
0.034612593
0.03518408
0.035766989
0.036361093
0.036966159
0.037581944
0.038208203
0.038844673
0.03949106
0.040147035
0.040812274
0.041486779
0.021129039
0.021258794
0.021394745
0.02153711
0.021686111
0.021841982
0.022004968
0.022175319
0.022353292
0.022539151
0.022733162
0.022935599
0.023146736
0.023366849
0.023596219
0.023835121
0.024083833
0.024342627
0.024611772
0.024891529
0.025182153
0.025483887
0.025796966
0.026121608
0.02645802
0.02680639
0.027166891
0.027539673
0.027924869
0.02832259
0.028732922
0.02915593
0.029591653
0.030040109
0.030501288
0.030975156
0.031461657
0.031960708
0.032472205
0.032996022
0.033532009
0.034079999
0.034639805
0.035211224
0.035794039
0.036388022
0.036992938
0.037608546
0.038234601
0.038870845
0.039516978
0.040172645
0.04083747
0.021147692
0.021277834
0.021414175
0.021556932
0.021706324
0.021862589
0.022025969
0.022196714
0.022375083
0.022561336
0.022755742
0.022958572
0.0231701
0.023390604
0.02362036
0.023859646
0.024108736
0.024367904
0.024637416
0.024917534
0.02520851
0.025510588
0.025824
0.026148966
0.026485688
0.026834356
0.02719514
0.027568191
0.02795364
0.028351596
0.028762146
0.029185352
0.029621255
0.030069869
0.030531186
0.03100517
0.031491765
0.031990887
0.032502433
0.033026273
0.03356226
0.034110224
0.034669979
0.035241318
0.035824025
0.036417869
0.037022613
0.037638017
0.038263844
0.038899842
0.039545716
0.040201086
0.040865524
0.021168423
0.021298992
0.021435763
0.02157895
0.021728774
0.021885472
0.022049286
0.022220466
0.022399269
0.022585957
0.022780797
0.02298406
0.02319602
0.023416952
0.023647133
0.02388684
0.024136347
0.024395926
0.024665842
0.024946355
0.025237719
0.025540174
0.025853952
0.026179271
0.026516335
0.026865329
0.027226423
0.027599768
0.027985493
0.028383706
0.028794492
0.029217915
0.029654012
0.030102799
0.030564264
0.031038373
0.031525068
0.032024265
0.03253586
0.033059723
0.033595706
0.034143638
0.034703331
0.03527458
0.035857163
0.036450848
0.037055397
0.03767057
0.038296138
0.038931869
0.039577488
0.040232601
0.021191399
0.021322439
0.021459681
0.021603342
0.021753641
0.021910815
0.022075105
0.022246762
0.022426043
0.022613208
0.022808524
0.023012261
0.023224694
0.023446096
0.023676744
0.023916913
0.024166876
0.024426904
0.024697263
0.02497821
0.025269997
0.025572865
0.025887044
0.02621275
0.026550185
0.026899535
0.027260969
0.027634633
0.028020659
0.028419151
0.028830195
0.029253853
0.029690161
0.030139133
0.030600758
0.031075001
0.031561802
0.032061078
0.032572723
0.033096607
0.033632582
0.034180475
0.034740098
0.035311243
0.035893686
0.036487192
0.037091519
0.037706428
0.038331702
0.038967141
0.039612519
0.040267599
0.021216806
0.021348361
0.021486122
0.021630301
0.02178112
0.021938814
0.022103626
0.022275806
0.022455608
0.022643295
0.022839132
0.023043389
0.023256339
0.023478255
0.023709413
0.023950086
0.024200549
0.024461068
0.02473191
0.025013331
0.02530558
0.025608899
0.025923514
0.026249642
0.026587483
0.026937221
0.027299023
0.027673036
0.028059387
0.028458183
0.028869507
0.029293418
0.029729953
0.030179125
0.030640922
0.031115308
0.031602221
0.03210158
0.032613275
0.033137179
0.03367314
0.034220987
0.034780529
0.035351556
0.035933843
0.036527148
0.037131225
0.037745833
0.038370767
0.039005877
0.039651001
0.040305953
0.021244844
0.021376963
0.02151529
0.021660036
0.021811423
0.021969686
0.022135067
0.022307816
0.022488189
0.022676446
0.022872851
0.023077675
0.023291189
0.023513665
0.023745379
0.023986603
0.024237609
0.024498665
0.024770033
0.025051969
0.025344723
0.025648531
0.025963622
0.026290208
0.02662849
0.026978649
0.027340851
0.027715241
0.028101947
0.028501071
0.028912696
0.029336881
0.029773661
0.030223048
0.030685029
0.031159566
0.031646598
0.032146042
0.032657789
0.03318171
0.033717652
0.034265445
0.034824894
0.03539579
0.035977902
0.036570984
0.037174781
0.037789044
0.038413577
0.039048306
0.039693152
0.040347738
0.021275729
0.021408465
0.02154741
0.021692774
0.021844779
0.022003661
0.022169663
0.022343033
0.022524026
0.022712903
0.022909928
0.023115368
0.023329496
0.023552583
0.023784902
0.024026725
0.024278322
0.02453996
0.0248119
0.025094397
0.025387697
0.025692038
0.026007644
0.026334729
0.026673488
0.027024103
0.027386738
0.027761537
0.028148625
0.028548103
0.028960054
0.029384533
0.029821577
0.030271193
0.03073337
0.031208068
0.031695225
0.032194758
0.032706556
0.03323049
0.033766408
0.034314136
0.034873481
0.035444231
0.036026151
0.036618989
0.037222477
0.037836345
0.038460396
0.039094675
0.039739277
0.021309699
0.021443108
0.021582726
0.021728762
0.021881439
0.022040994
0.02220767
0.022381714
0.022563382
0.022752932
0.022950629
0.02315674
0.023371535
0.023595284
0.023828259
0.024070732
0.024322971
0.024585241
0.024857801
0.025140906
0.025434799
0.025739717
0.026055882
0.026383504
0.02672278
0.027073889
0.027436992
0.027812232
0.028199732
0.028599592
0.029011892
0.029436688
0.029874013
0.030323875
0.030786259
0.031261127
0.031748416
0.03224804
0.032759889
0.033283833
0.033819718
0.034367372
0.034926601
0.035497188
0.036078899
0.036671474
0.037274626
0.037888053
0.038511507
0.039145231
0.039789911
0.021347012
0.021481155
0.021621504
0.021768268
0.021921675
0.022081959
0.022249365
0.022424141
0.022606539
0.02279682
0.022995246
0.023202083
0.0234176
0.023642067
0.023875754
0.024118931
0.024371865
0.024634818
0.02490805
0.025191812
0.025486347
0.025791888
0.026108656
0.026436861
0.026776694
0.027128335
0.027491943
0.027867658
0.0282556
0.028655871
0.029068546
0.029493681
0.029931306
0.03038143
0.030844035
0.031319082
0.031806508
0.032306225
0.032818123
0.033342072
0.033877917
0.034425486
0.034984583
0.035554993
0.036136478
0.036728773
0.037331576
0.037944531
0.038567222
0.021387951
0.021522895
0.021664035
0.021811587
0.021965781
0.022126854
0.022295051
0.022470617
0.022653807
0.022844878
0.023044093
0.023251716
0.023468014
0.023693257
0.023927713
0.024171651
0.024425335
0.024689028
0.024962986
0.025247457
0.025542684
0.025848898
0.026166317
0.026495148
0.026835583
0.027187796
0.027551946
0.027928171
0.02831659
0.028717301
0.029130377
0.029555874
0.02999382
0.030444221
0.03090706
0.031382295
0.031869862
0.032369674
0.032881619
0.033405567
0.033941363
0.034488833
0.035047784
0.035617999
0.036199242
0.036791246
0.037393707
0.03800623
0.021432835
0.021568646
0.021710635
0.021859034
0.022014078
0.022176004
0.022345054
0.022521475
0.022705519
0.022897444
0.02309751
0.023305981
0.023523123
0.023749204
0.02398449
0.024229249
0.024483743
0.024748233
0.025022973
0.025308209
0.025604182
0.025911119
0.026229239
0.026558745
0.026899825
0.027252654
0.027617387
0.027994159
0.028383087
0.028784268
0.029197774
0.029623656
0.030061942
0.030512637
0.030975722
0.031451154
0.031938867
0.032438774
0.032950764
0.033474703
0.034010438
0.034557796
0.035116583
0.035686585
0.036267567
0.036859271
0.037461418
0.038073753
0.02135132
0.02148205
0.021618752
0.021761646
0.021910957
0.022066916
0.02222976
0.02239973
0.022577072
0.022762038
0.022954883
0.023155867
0.023365252
0.023583304
0.023810287
0.024046468
0.024292111
0.024547477
0.024812825
0.025088406
0.025374465
0.02567124
0.025978956
0.026297828
0.026628057
0.026969831
0.02732332
0.027688676
0.028066034
0.028455507
0.02885719
0.029271152
0.029697444
0.030136091
0.030587097
0.031050439
0.031526076
0.032013941
0.032513943
0.033025971
0.033549893
0.034085555
0.034632784
0.035191387
0.035761154
0.036341853
0.03693324
0.037535066
0.03814715
0.021404283
0.021535922
0.021673576
0.02181744
0.02196773
0.022124674
0.022288506
0.022459466
0.0226378
0.022823757
0.023017592
0.023219564
0.023429933
0.023648963
0.023876917
0.02411406
0.024360654
0.024616958
0.024883228
0.025159712
0.025446655
0.025744291
0.026052842
0.02637252
0.026703526
0.027046042
0.027400237
0.02776626
0.028144243
0.028534297
0.028936514
0.029350962
0.029777689
0.030216717
0.030668049
0.031131663
0.031607512
0.032095529
0.032595625
0.033107686
0.033631581
0.034167154
0.034714235
0.035272632
0.035842137
0.036422525
0.037013563
0.037615027
0.038226761
0.021462175
0.021594829
0.021733513
0.02187842
0.022029762
0.022187764
0.022352657
0.022524682
0.02270408
0.022891103
0.023086002
0.023289035
0.023500462
0.023720543
0.02394954
0.024187715
0.02443533
0.02469264
0.024959898
0.025237353
0.025525243
0.0258238
0.026133245
0.026453788
0.026785623
0.027128933
0.027483881
0.027850616
0.028229265
0.028619938
0.029022723
0.029437686
0.029864873
0.030304303
0.030755978
0.031219873
0.031695942
0.032184114
0.032684301
0.033196387
0.033720241
0.034255709
0.03480262
0.035360783
0.035929995
0.036510036
0.037100682
0.037701724
0.038313008
0.021525439
0.021659201
0.021798997
0.021945026
0.022097497
0.022256633
0.022422666
0.022595832
0.022776373
0.022964539
0.02316058
0.023364752
0.023577312
0.023798519
0.024028635
0.024267918
0.024516626
0.024775014
0.025043332
0.025321824
0.025610728
0.025910271
0.026220673
0.026542138
0.02687486
0.027219016
0.027574768
0.02794226
0.028321619
0.028712949
0.029116336
0.029531844
0.029959515
0.030399369
0.030851402
0.03131559
0.031791883
0.032280212
0.032780484
0.033292586
0.033816384
0.034351726
0.034898441
0.035456341
0.036025223
0.036604874
0.037195075
0.037795624
0.038406364
0.021594553
0.021729508
0.021870501
0.022017734
0.022171416
0.022331768
0.022499021
0.022673411
0.022855177
0.023044567
0.023241831
0.023447223
0.023660997
0.023883411
0.024114724
0.024355192
0.02460507
0.024864611
0.025134061
0.025413663
0.02570365
0.026004247
0.026315669
0.026638118
0.026971785
0.027316842
0.02767345
0.028041748
0.028421858
0.028813885
0.029217909
0.029633992
0.030062174
0.030502471
0.030954878
0.031419368
0.031895891
0.032384375
0.032884727
0.033396832
0.033920557
0.03445575
0.035002239
0.03555984
0.036128351
0.036707562
0.037297259
0.037897241
0.038507344
0.021670028
0.021806265
0.021948542
0.022097065
0.022252043
0.022413698
0.022582256
0.022757955
0.022941032
0.023131732
0.023330304
0.023537
0.023752072
0.023975777
0.024208369
0.024450103
0.024701232
0.024962004
0.025232664
0.025513449
0.025804591
0.026106312
0.026418821
0.026742319
0.02707699
0.027423006
0.027780522
0.028149674
0.028530582
0.028923345
0.029328042
0.029744731
0.030173448
0.030614209
0.031067005
0.031531807
0.032008562
0.032497199
0.032997621
0.033509716
0.034033347
0.034568363
0.035114594
0.035671855
0.036239948
0.036818664
0.03740779
0.038007126
0.038616501
0.021752424
0.02189003
0.022033682
0.022183584
0.022339948
0.022502994
0.022672948
0.022850045
0.023034521
0.023226621
0.023426591
0.023634679
0.023851138
0.02407622
0.024310178
0.024553263
0.024805726
0.025067811
0.025339759
0.025621807
0.025914179
0.026217095
0.026530761
0.026855373
0.027191112
0.027538145
0.027896624
0.028266681
0.028648432
0.029041972
0.029447378
0.029864703
0.030293982
0.030735225
0.031188424
0.031653545
0.032130535
0.03261932
0.033119803
0.033631868
0.034155382
0.034690191
0.035236127
0.035793004
0.036360627
0.036938786
0.037527271
0.038125878
0.038734432
0.021842343
0.021981411
0.02212653
0.022277905
0.022435748
0.022600278
0.022771721
0.022950309
0.023136279
0.023329872
0.023531332
0.023740905
0.023958842
0.024185392
0.024420806
0.024665331
0.024919214
0.025182697
0.025456018
0.025739407
0.026033088
0.026337274
0.026652169
0.026977963
0.027314834
0.027662945
0.028022443
0.028393457
0.028776097
0.029170457
0.029576607
0.0299946
0.030424465
0.03086621
0.031319824
0.031785271
0.032262496
0.032751422
0.033251952
0.03376397
0.034287339
0.034821907
0.035367505
0.035923949
0.036491043
0.037068579
0.037656346
0.038254139
0.038861778
0.021940442
0.022081066
0.022227747
0.022380692
0.022540111
0.022706222
0.022879252
0.023059429
0.02324699
0.023442172
0.023645219
0.023856374
0.024075885
0.024303998
0.02454096
0.024787017
0.025042411
0.025307381
0.02558216
0.025866974
0.026162044
0.026467578
0.026783776
0.027110823
0.027448893
0.027798144
0.028158718
0.028530741
0.028914319
0.02930954
0.029716472
0.030135162
0.030565637
0.031007903
0.031461944
0.031927723
0.032405181
0.03289424
0.033394801
0.033906746
0.03442994
0.034964229
0.035509444
0.036065401
0.036631903
0.037208745
0.037795713
0.038392602
0.038999225
0.02204743
0.022189707
0.02233805
0.022492664
0.022653759
0.022821553
0.022996269
0.023178137
0.02336739
0.023564263
0.023768998
0.023981835
0.024203019
0.024432793
0.024671401
0.024919086
0.025176084
0.025442632
0.025718958
0.026005285
0.026301827
0.026608789
0.026926366
0.027254739
0.027594076
0.027944531
0.028306241
0.028679326
0.02906389
0.029460015
0.029867765
0.030287184
0.030718294
0.031161098
0.031615577
0.03208169
0.032559377
0.033048558
0.033549132
0.03406098
0.034583965
0.035117932
0.035662713
0.036218123
0.036783967
0.037360038
0.037946121
0.03854201
0.039147515
0.022164071
0.022308103
0.02245821
0.022614597
0.022777472
0.022947053
0.023123562
0.023307225
0.023498275
0.023696944
0.023903471
0.024118093
0.024341054
0.024572591
0.024812947
0.025062357
0.025321058
0.025589278
0.025867244
0.026155172
0.026453274
0.026761747
0.027080782
0.027410555
0.027751229
0.028102954
0.02846586
0.028840063
0.029225662
0.029622734
0.03003134
0.030451518
0.030883287
0.031326645
0.031781571
0.032248021
0.032725932
0.033215222
0.033715787
0.034227508
0.034750246
0.035283846
0.035828138
0.036382939
0.036948051
0.037523269
0.038108376
0.038703165
0.039307444
0.022291194
0.022437085
0.022589061
0.022747327
0.02291209
0.023083566
0.023261975
0.023447543
0.023640499
0.023841073
0.024049501
0.024266016
0.02449086
0.024724267
0.024966473
0.025217713
0.025478216
0.025748207
0.026027908
0.026317531
0.02661728
0.02692735
0.027247925
0.027579175
0.02792126
0.02827432
0.028638484
0.029013862
0.029400546
0.02979861
0.030208108
0.030629075
0.031061526
0.031505456
0.031960837
0.032427625
0.032905754
0.033395137
0.03389567
0.034407231
0.034929681
0.035462864
0.036006609
0.036560731
0.037125035
0.037699312
0.038283347
0.038876931
0.039479869
0.022429687
0.022577543
0.022731498
0.022891752
0.023058514
0.023231997
0.023412419
0.023600004
0.023794978
0.023997569
0.024208009
0.024426532
0.024653369
0.024888755
0.025132921
0.025386096
0.025648505
0.02592037
0.026201905
0.026493317
0.026794807
0.027106562
0.02742876
0.027761568
0.028105136
0.028459603
0.028825089
0.029201699
0.029589519
0.029988619
0.030399048
0.030820836
0.031253993
0.031698508
0.032154354
0.032621479
0.033099816
0.033589275
0.03408975
0.034601117
0.035123235
0.035655947
0.036199082
0.036752454
0.037315866
0.03788911
0.038471972
0.039064239
0.039665717
0.022580503
0.022730435
0.022886479
0.023048836
0.02321771
0.023393315
0.023575867
0.023765585
0.023962694
0.02416742
0.024379988
0.024600632
0.024829579
0.025067057
0.025313294
0.025568514
0.025832938
0.026106782
0.026390253
0.026683555
0.02698688
0.027300412
0.027624321
0.027958768
0.028303898
0.028659842
0.029026716
0.029404617
0.029793628
0.03019381
0.030605209
0.031027849
0.031461735
0.031906853
0.03236317
0.032830632
0.033309167
0.033798683
0.034299073
0.034810208
0.035331947
0.035864132
0.036406589
0.036959133
0.037521567
0.038093683
0.038675264
0.039266098
0.039865989
0.022744662
0.022896783
0.023055031
0.023219606
0.023390711
0.023568557
0.023753357
0.02394533
0.024144695
0.024351675
0.024566494
0.024789378
0.025020553
0.025260241
0.025508666
0.025766047
0.026032597
0.026308529
0.026594044
0.026889338
0.027194598
0.027510001
0.027835712
0.028171884
0.028518656
0.028876153
0.029244482
0.029623738
0.030013994
0.030415307
0.030827716
0.031251241
0.031685881
0.032131619
0.032588415
0.033056213
0.033534936
0.03402449
0.034524764
0.035035629
0.03555694
0.036088537
0.036630247
0.037181883
0.037743248
0.038314131
0.038894319
0.039483598
0.04008177
0.02292325
0.023077675
0.023238246
0.02340516
0.023578617
0.023758826
0.023945999
0.02414035
0.024342096
0.024551454
0.02476865
0.0249939
0.025227427
0.025469449
0.025720183
0.025979843
0.026248638
0.026526772
0.026814441
0.027111836
0.027419136
0.02773651
0.028064118
0.028402105
0.028750603
0.02910973
0.029479588
0.029860263
0.030251823
0.030654318
0.031067781
0.031492226
0.031927648
0.032374023
0.032831308
0.033299441
0.033778343
0.034267915
0.034768044
0.035278597
0.035799429
0.036330377
0.036871266
0.037421909
0.037982108
0.038551653
0.03913033
0.039717924
0.040314238
0.023117422
0.023274271
0.023437287
0.023606662
0.023782597
0.023965297
0.024154971
0.024351831
0.024556089
0.024767958
0.024987658
0.025215405
0.025451414
0.025695897
0.025949068
0.026211133
0.026482295
0.026762752
0.027052693
0.027352302
0.027661751
0.027981202
0.028310807
0.028650705
0.029001019
0.02936186
0.029733324
0.030115488
0.030508415
0.030912147
0.031326711
0.031752116
0.032188349
0.032635382
0.033093166
0.033561637
0.034040708
0.03453028
0.035030234
0.035540435
0.036060734
0.036590968
0.037130961
0.037680523
0.038239455
0.03880755
0.039384591
0.039970366
0.040564675
0.023328402
0.023487799
0.023653385
0.023825351
0.024003895
0.024189219
0.024381528
0.024581031
0.024787934
0.025002454
0.025224799
0.025455179
0.025693806
0.025940888
0.026196629
0.026461232
0.026734892
0.027017799
0.027310138
0.027612082
0.027923797
0.028245438
0.028577148
0.028919058
0.029271284
0.029633931
0.030007083
0.030390813
0.030785175
0.031190206
0.031605924
0.032032331
0.032469409
0.032917125
0.033375424
0.033844236
0.034323471
0.034813024
0.035312774
0.035822581
0.036342296
0.03687175
0.037410767
0.037959156
0.038516717
0.039083242
0.039658516
0.040242328
0.040834479
0.023557488
0.023719562
0.023887849
0.024062541
0.024243831
0.024431919
0.024627006
0.024829297
0.025038993
0.025256306
0.025481439
0.0257146
0.025955991
0.026205816
0.026464272
0.026731554
0.027007851
0.027293347
0.027588216
0.027892626
0.028206734
0.028530686
0.028864618
0.029208652
0.029562897
0.029927446
0.03030238
0.03068776
0.031083634
0.03149003
0.03190696
0.03233442
0.032772384
0.033220813
0.033679646
0.034148806
0.034628202
0.035117721
0.035617239
0.036126613
0.036645688
0.037174295
0.037712254
0.038259373
0.038815451
0.03938028
0.039953647
0.040535343
0.041125172
0.023806059
0.023970944
0.024142074
0.024319635
0.024503818
0.024694818
0.024892834
0.025098063
0.025310709
0.025530972
0.025759052
0.02599515
0.026239463
0.026492186
0.026753513
0.027023629
0.027302716
0.027590949
0.027888495
0.028195513
0.028512152
0.028838549
0.029174831
0.029521111
0.02987749
0.030244052
0.030620868
0.031007992
0.031405463
0.031813301
0.032231512
0.032660081
0.033098978
0.033548155
0.034007546
0.034477069
0.034956624
0.035446097
0.035945356
0.036454256
0.036972637
0.037500328
0.038037143
0.03858289
0.039137366
0.039700362
0.040271667
0.040851079
0.041438409
0.024075586
0.024243429
0.024417552
0.024598136
0.02478537
0.024979445
0.025180555
0.025388889
0.025604652
0.025828035
0.026059233
0.026298439
0.026545845
0.02680164
0.027066007
0.027339125
0.027621168
0.027912302
0.028212686
0.028522469
0.028841791
0.029170781
0.029509555
0.029858217
0.030216858
0.030585555
0.030964367
0.031353341
0.031752505
0.032161873
0.032581439
0.033011184
0.033451067
0.033901035
0.034361014
0.034830915
0.035310634
0.035800049
0.036299024
0.036807409
0.037325039
0.037851739
0.03838732
0.038931584
0.039484327
0.040045338
0.040614409
0.041191345
0.041775977
0.024367657
0.02453862
0.024715901
0.024899679
0.025090137
0.025287463
0.025491845
0.025703472
0.025922537
0.026149228
0.026383732
0.026626237
0.026876927
0.027135981
0.027403577
0.027679884
0.027965067
0.028259284
0.028562684
0.028875406
0.029197581
0.029529326
0.02987075
0.030221945
0.030582992
0.030953958
0.031334893
0.031725834
0.032126799
0.032537792
0.0329588
0.033389793
0.033830724
0.03428153
0.034742131
0.035212431
0.035692317
0.036181663
0.036680327
0.037188152
0.03770497
0.038230598
0.038764844
0.039307505
0.03985837
0.040417224
0.040983858
0.041558088
0.042139779
0.024684016
0.024858278
0.025038903
0.025226064
0.025419943
0.02562072
0.025828572
0.026043697
0.026266271
0.026496479
0.0267345
0.026980515
0.027234699
0.027497224
0.027768258
0.028047962
0.02833649
0.028633991