/*--------------------------------*- C++ -*----------------------------------*\
| =========                 |                                                 |
| \\      /  F ield         | OpenFOAM: The Open Source CFD Toolbox           |
|  \\    /   O peration     | Version:  2312                                  |
|   \\  /    A nd           | Website:  www.openfoam.com                      |
|    \\/     M anipulation  |                                                 |
\*---------------------------------------------------------------------------*/
FoamFile
{
    version     2.0;
    format      ascii;
    arch        "LSB;label=32;scalar=64";
    class       volScalarField;
    location    "0.06";
    object      Ma;
}
// * * * * * * * * * * * * * * * * * * * * * * * * * * * * * * * * * * * * * //

dimensions      [0 0 0 0 0 0 0];

internalField   nonuniform List<scalar> 
3251
(
0.0037352143
0.0036536956
0.0035724634
0.0034915471
0.0034109712
0.0033307607
0.0032509404
0.0031715353
0.0030925707
0.0030140718
0.0029360641
0.0028585733
0.0027816248
0.0027052439
0.0026294558
0.0025542852
0.0024797569
0.0024058947
0.0023327223
0.0022602627
0.002188538
0.0021175697
0.0020473787
0.0019779845
0.001909406
0.0018416609
0.0017747657
0.0017087359
0.0016435857
0.0015793278
0.0015159739
0.0014535341
0.0013920172
0.0013314305
0.00127178
0.00121307
0.0011553036
0.0010984825
0.0010426069
0.00098767554
0.00093368593
0.0008806342
0.00082851517
0.00077732236
0.00072704798
0.00067768322
0.00062921931
0.00058164915
0.00053495886
0.00048913984
0.0004441864
0.00040008491
0.00035681612
0.00031436567
0.0002727308
0.00023190665
0.00019188817
0.0001526674
0.0037350297
0.003653527
0.0035723104
0.0034914085
0.0034108465
0.0033306495
0.0032508422
0.0031714497
0.0030924971
0.0030140098
0.0029360134
0.0028585333
0.0027815951
0.0027052241
0.0026294454
0.002554284
0.0024797643
0.0024059105
0.002332746
0.0022602939
0.0021885765
0.0021176151
0.0020474306
0.0019780426
0.00190947
0.0018417305
0.0017748406
0.0017088158
0.0016436702
0.0015794168
0.001516067
0.0014536311
0.0013921178
0.0013315345
0.0012718871
0.0012131801
0.0011554166
0.0010985982
0.0010427252
0.00098779655
0.00093380971
0.00088076095
0.00082864523
0.0007774562
0.0007271863
0.00067782679
0.00062936952
0.00058180653
0.0005351244
0.00048931544
0.00044437246
0.00040028278
0.00035703042
0.00031460279
0.00027299704
0.00023221057
0.00019224256
0.00015309322
0.0037346088
0.0036531383
0.0035719521
0.0034910793
0.0034105455
0.0033303757
0.0032505949
0.0031712278
0.0030922998
0.0030138362
0.0029358626
0.0028584044
0.0027814871
0.0027051362
0.0026293768
0.0025542338
0.0024797317
0.0024058946
0.0023327462
0.0022603093
0.0021886064
0.0021176589
0.0020474876
0.0019781122
0.0019095516
0.0018418235
0.0017749445
0.00170893
0.0016437943
0.0015795502
0.0015162094
0.0014537821
0.001392277
0.0013317016
0.0012720619
0.0012133624
0.0011556063
0.0010987952
0.0010429297
0.00098800858
0.00093402967
0.00088098934
0.00082888274
0.0007777038
0.00072744521
0.00067809876
0.00062965617
0.00058210946
0.00053544676
0.00048965994
0.0004447416
0.00040068086
0.0003574646
0.00031508309
0.00027353515
0.0002328223
0.00019295205
0.00015394073
0.0037339775
0.0036525541
0.0035714134
0.0034905845
0.0034100932
0.0033299648
0.003250224
0.0031708958
0.0030920052
0.0030135776
0.0029356386
0.0028582137
0.0027813283
0.0027050079
0.0026292775
0.0025541622
0.0024796864
0.0024058744
0.0023327497
0.0022603353
0.0021886537
0.0021177263
0.0020475739
0.0019782165
0.0019096728
0.0018419606
0.0017750966
0.0017090963
0.0016439741
0.0015797428
0.0015164141
0.0014539984
0.0013925045
0.00133194
0.0012723109
0.0012136219
0.0011558763
0.0010990759
0.0010432214
0.00098831183
0.00093434521
0.00088131818
0.00082922619
0.00077806349
0.00072782322
0.00067849761
0.00063007894
0.00058255892
0.00053592712
0.00049017616
0.00044529837
0.00040128499
0.00035812617
0.00031581572
0.00027435576
0.00023375399
0.00019402918
0.00015522013
0.0037331694
0.0036518065
0.0035707244
0.0034899524
0.0034095171
0.0033294433
0.0032497558
0.0031704794
0.003091639
0.00301326
0.0029353679
0.0028579879
0.0027811456
0.0027048664
0.0026291752
0.0025540971
0.0024796566
0.0024058778
0.0023327844
0.0022603994
0.0021887452
0.0021178434
0.0020477149
0.0019783796
0.0019098564
0.0018421632
0.0017753169
0.001709333
0.0016442259
0.0015800089
0.0015166936
0.0014542906
0.001392809
0.0013322564
0.0012726391
0.0012139621
0.0011562289
0.0010994416
0.0010436009
0.00098870652
0.00093475659
0.00088174817
0.00082967712
0.00077853817
0.00072832496
0.00067903035
0.00063064699
0.00058316715
0.00053658158
0.00049088325
0.00044606556
0.00040212182
0.00035904562
0.00031683482
0.00027549589
0.00023504451
0.00019551322
0.0037323351
0.0036510382
0.003570021
0.0034893129
0.0034089401
0.0033289278
0.0032493005
0.0031700829
0.0030913
0.0030129768
0.0029351387
0.0028578109
0.0027810189
0.0027047879
0.0026291428
0.0025541087
0.0024797099
0.0024059706
0.0023329145
0.0022605646
0.0021889432
0.0021180722
0.0020479724
0.0019786638
0.0019101654
0.0018424953
0.0017756703
0.0017097064
0.001644618
0.0015804185
0.0015171198
0.0014547327
0.0013932665
0.0013327291
0.0012731271
0.0012144657
0.0011567486
0.0010999783
0.001044156
0.00098928148
0.00093535348
0.0008823694
0.00083032555
0.00077921716
0.00072903846
0.00067978293
0.00063144381
0.00058401364
0.00053748448
0.00049185026
0.00044710515
0.00040324478
0.00036026619
0.00031817157
0.00027697259
0.00023669329
0.00019738114
0.0037317168
0.0036504895
0.0035695398
0.0034888974
0.0034085889
0.0033286395
0.0032490737
0.0031699163
0.0030911921
0.0030129262
0.002935144
0.0028578708
0.0027811318
0.0027049525
0.0026293577
0.0025543725
0.0024800212
0.0024063282
0.002333317
0.0022610107
0.0021894318
0.002118602
0.0020485422
0.0019792726
0.0019108121
0.0018431789
0.0017763899
0.0017104611
0.0016454069
0.0015812409
0.001517975
0.0014556201
0.0013941855
0.0013336793
0.0012741081
0.0012154772
0.0011577905
0.0011010507
0.0010452591
0.00099041566
0.00093651934
0.00088356783
0.00083155777
0.00078048475
0.00073034347
0.00068112795
0.00063283191
0.00058544864
0.00053897129
0.00049339453
0.0004487141
0.00040492795
0.0003620367
0.00032004693
0.0002789759
0.00023885699
0.00019975279
0.0037312913
0.0036501405
0.0035692648
0.003488694
0.0034084553
0.0033285739
0.0032490748
0.0031699826
0.0030913224
0.0030131193
0.0029353988
0.0028581863
0.0027815072
0.0027053869
0.0026298504
0.0025549228
0.0024806286
0.002406992
0.0023340369
0.0022617861
0.0021902624
0.0021194875
0.0020494822
0.0019802667
0.00191186
0.0018442802
0.0017775443
0.0017116681
0.0016466661
0.0015825518
0.0015193371
0.0014570327
0.001395648
0.001335191
0.0012756684
0.0012170852
0.0011594456
0.001102752
0.0010470058
0.00099220715
0.000938355
0.00088544722
0.00083348063
0.00078245114
0.00073235381
0.00068318316
0.00063493347
0.00058759868
0.00054117315
0.0004956528
0.00045103487
0.00040731992
0.00036451252
0.00032262439
0.00028167901
0.00024171933
0.00020282372
0.0037310162
0.003649949
0.0035691541
0.0034886617
0.0034084994
0.0033286929
0.0032492671
0.0031702471
0.0030916579
0.003013525
0.002935874
0.0028587302
0.0027821193
0.0027060668
0.0026305978
0.0025557375
0.0024815105
0.002407941
0.0023350528
0.0022628692
0.0021914126
0.0021207048
0.0020507667
0.0019816184
0.001913279
0.0018457664
0.0017790975
0.0017132882
0.0016483528
0.0015843047
0.0015211557
0.0014589165
0.0013975963
0.0013372029
0.001277743
0.0012192216
0.0011616425
0.0011050083
0.0010493203
0.00099457863
0.00094078223
0.00088792908
0.00083601614
0.00078503956
0.00073499473
0.00068587664
0.00063768011
0.00059039994
0.00054403161
0.0004985722
0.00045402096
0.00041038126
0.0003676618
0.00032587942
0.00028506424
0.00024526893
0.0037308424
0.0036498681
0.0035691631
0.0034887581
0.0034086813
0.0033289586
0.0032496153
0.0031706765
0.0030921677
0.0030141144
0.0029365422
0.0028594769
0.0027829441
0.0027069693
0.002631578
0.0025567953
0.0024826459
0.0024091542
0.002336344
0.0022642384
0.0021928601
0.0021222308
0.0020523714
0.0019833019
0.0019150413
0.0018476076
0.0017810177
0.001715287
0.0016504301
0.00158646
0.0015233886
0.0014612263
0.0013999822
0.001339664
0.0012802782
0.0012218297
0.0011643222
0.0011077582
0.0010521389
0.00099746434
0.00094373356
0.00089094454
0.0008390944
0.00078817945
0.00073819547
0.00068913786
0.0006410021
0.00059378376
0.00054747961
0.00050208813
0.00045761049
0.00041405291
0.00037142859
0.00032975977
0.00028908312
0.00024946033
0.0037307088
0.0036498392
0.0035692361
0.0034889303
0.0034089505
0.0033293232
0.0032500738
0.0031712277
0.0030928106
0.003014848
0.0029373659
0.0028603902
0.0027839465
0.0027080606
0.002632758
0.0025580639
0.0024840032
0.0024106001
0.0023378786
0.002265862
0.0021945727
0.0021240325
0.0020542624
0.0019852822
0.001917111
0.0018497666
0.0017832658
0.001717624
0.0016528556
0.0015889736
0.0015259896
0.0014639139
0.0014027556
0.0013425221
0.0012832197
0.0012248533
0.0011674264
0.0011109415
0.0010553996
0.0010008007
0.00094714396
0.00089442732
0.00084264806
0.00079180272
0.0007418874
0.00069289803
0.0006448307
0.00059768204
0.00055144995
0.0005061344
0.00046173873
0.00041827224
0.00037575261
0.00033420744
0.00029367933
0.0037305505
0.0036498001
0.0035693128
0.0034891201
0.0034092512
0.0033297327
0.0032505905
0.0031718503
0.0030935377
0.0030156787
0.0029382993
0.0028614255
0.0027850832
0.0027092982
0.0026340961
0.0025595023
0.0024855416
0.0024122385
0.0023396169
0.0022677001
0.0021965107
0.0021260703
0.0020563999
0.0019875194
0.0019194476
0.0018522025
0.0017858006
0.0017202574
0.001655587
0.0015918024
0.0015289149
0.0014669349
0.0014058711
0.0013457309
0.0012865204
0.0012282445
0.0011709064
0.0011145086
0.001059052
0.0010045367
0.00095096163
0.00089832498
0.00084662412
0.00079585587
0.0007460167
0.00069710306
0.00064911183
0.00060204061
0.00055588873
0.00051065781
0.00046635318
0.00042298727
0.00038058265
0.00033917215
0.00029880329
0.0037302989
0.0036496839
0.0035693287
0.0034892649
0.0034095224
0.003330128
0.0032511079
0.0031724881
0.0030942945
0.0030165531
0.0029392901
0.0028625317
0.002786304
0.0027106328
0.002635544
0.002561063
0.0024872146
0.0024140234
0.0023415135
0.0022697081
0.0021986297
0.0021283002
0.0020587403
0.0019899701
0.0019220082
0.0018548725
0.0017885796
0.0017231447
0.0016585819
0.0015949039
0.0015321222
0.0014702468
0.0014092863
0.0013492481
0.001290138
0.0012319607
0.0011747196
0.0011184168
0.0010630533
0.0010086292
0.00095514343
0.00090259427
0.00085097929
0.00080029557
0.00075054002
0.00070170968
0.00065380228
0.0006068166
0.00056075335
0.00051561583
0.0004714116
0.00042815635
0.00038587761
0.00034461288
0.0037298853
0.003649424
0.0035692183
0.0034893008
0.0034097015
0.0033304478
0.0032515662
0.0031730827
0.0030950235
0.003017415
0.0029402834
0.002863655
0.0027875561
0.0027120128
0.002637051
0.002562696
0.002488973
0.0024159067
0.0023435209
0.0022718392
0.0022008839
0.002130677
0.0020612393
0.0019925906
0.0019247497
0.0018577344
0.0017915609
0.0017262447
0.0016617997
0.0015982384
0.0015355721
0.0014738108
0.001412963
0.0013530357
0.0012940349
0.001235965
0.0011788293
0.0011226299
0.0010673678
0.0010130429
0.00095965433
0.00090720051
0.00085567918
0.00080508775
0.00075542358
0.00070668439
0.00065886882
0.0006119769
0.00056601099
0.00052097629
0.00047688218
0.00043374783
0.00039160603
0.0003504976
0.003729243
0.0036489545
0.0035689175
0.0034891649
0.0034097271
0.003330632
0.0032519062
0.0031735761
0.0030956681
0.0030182087
0.0029412245
0.0028647418
0.0027887871
0.0027133866
0.0026385664
0.0025643519
0.0024907685
0.0024178407
0.0023455926
0.0022740477
0.0022032286
0.0021331571
0.0020638539
0.0019953389
0.001927631
0.0018607476
0.0017947052
0.0017295188
0.0016652025
0.0016017686
0.0015392283
0.0014775914
0.0014168662
0.0013570597
0.0012981778
0.0012402247
0.0011832036
0.0011271165
0.0010719645
0.0010177475
0.00096446472
0.00091211465
0.00086069528
0.0008102044
0.00076063985
0.00071200008
0.00066428487
0.00061749541
0.00057163613
0.00052671376
0.0004827398
0.00043973696
0.0003977431
0.0037283083
0.0036482134
0.0035683652
0.0034887972
0.0034095403
0.0033306227
0.0032520714
0.0031739129
0.0030961739
0.0030188811
0.0029420613
0.002865741
0.0027899468
0.0027147052
0.0026400423
0.0025659837
0.0024925548
0.0024197803
0.0023476845
0.0022762907
0.0022056216
0.002135699
0.0020665438
0.0019981757
0.0019306135
0.0018638747
0.0017979756
0.0017329313
0.0016687555
0.0016054606
0.0015430576
0.0014815562
0.0014209645
0.0013612895
0.0013025368
0.0012447105
0.001187814
0.001131849
0.0010768167
0.0010227169
0.00096954904
0.00091731173
0.00086600327
0.00081562175
0.00076616562
0.00071763416
0.00067002798
0.00062335039
0.00057760714
0.00053280726
0.00048896403
0.00044610386
0.00040426823
0.0037270219
0.0036471422
0.0035675042
0.0034881417
0.0034090862
0.0033303661
0.0032520089
0.0031740412
0.0030964901
0.0030193823
0.0029427449
0.0028666047
0.0027909885
0.0027159228
0.0026414338
0.0025675475
0.0024942892
0.0024216838
0.0023497556
0.002278528
0.0022080238
0.0021382648
0.0020692718
0.0020010646
0.0019336619
0.0018670812
0.0018013387
0.0017364493
0.0016724268
0.0016092833
0.0015470298
0.0014856757
0.0014252292
0.001365697
0.0013070846
0.0012493962
0.0011926349
0.0011368024
0.0010818999
0.0010279274
0.00097488426
0.0009227694
0.00087158134
0.00082131863
0.00077198029
0.00072356623
0.00067607901
0.00062952237
0.0005839056
0.00053923882
0.00049553697
0.00045283044
0.0037253278
0.0036456862
0.0035662807
0.0034871456
0.003408313
0.0033298117
0.0032516691
0.0031739126
0.0030965692
0.0030196659
0.0029432301
0.0028672887
0.0027918687
0.0027169968
0.0026426994
0.0025690026
0.0024959319
0.0024235123
0.002351768
0.0022807227
0.0022103992
0.0021408191
0.0020720035
0.0020039721
0.0019367435
0.0018703352
0.0018047633
0.0017400427
0.0016761869
0.001613208
0.0015511169
0.0014899228
0.0014296338
0.0013702566
0.0013117964
0.0012542574
0.0011976425
0.0011419536
0.0010871918
0.0010333571
0.00098044914
0.00092846695
0.00087740939
0.00082727545
0.00077806463
0.00072977821
0.00068241886
0.00063599419
0.00059051395
0.00054599058
0.00050244159
0.0004598994
0.0037231727
0.0036437934
0.0035646437
0.003485759
0.0034071718
0.0033289113
0.0032510052
0.003173481
0.0030963661
0.0030196878
0.0029434736
0.0028677506
0.0027925461
0.002717887
0.0026437998
0.0025703108
0.0024974455
0.0024252291
0.002353686
0.0022828399
0.0022127136
0.0021433288
0.0020747066
0.0020068667
0.0019398275
0.0018736067
0.0018082202
0.0017436827
0.0016800079
0.0016172075
0.0015552924
0.0014942717
0.0014341533
0.0013749437
0.0013166481
0.0012592707
0.0012028142
0.0011472805
0.0010926708
0.0010389851
0.00098622326
0.0009343845
0.00088346803
0.00083347324
0.00078440048
0.00073625122
0.00068903131
0.00064274783
0.00059741491
0.00055304711
0.00050966095
0.00046729224
0.0037205047
0.0036414122
0.0035625429
0.0034839327
0.0034056146
0.003327618
0.0032499711
0.0031727016
0.0030958371
0.0030194052
0.0029434335
0.0028679496
0.0027929808
0.0027185543
0.0026446968
0.0025714346
0.0024987935
0.0024267988
0.002355475
0.0022848458
0.002214934
0.0021457617
0.0020773496
0.0020097175
0.0019428841
0.0018768665
0.0018116809
0.0017473419
0.0016838628
0.0016212556
0.0015595307
0.0014986973
0.0014387631
0.0013797345
0.0013216166
0.0012644134
0.0012081278
0.0011527616
0.0010983158
0.0010447908
0.00099218655
0.00094050246
0.00088973811
0.00083989345
0.00079096917
0.00074296875
0.00069589729
0.00064976667
0.00060459278
0.00056039053
0.00051717888
0.00047499186
0.0037172701
0.0036384911
0.0035599274
0.0034816169
0.0034035925
0.0033258842
0.0032485203
0.0031715288
0.0030949375
0.0030187744
0.0029430674
0.0028678442
0.0027931323
0.0027189592
0.0026453517
0.0025723363
0.0024999391
0.0024281854
0.0023570998
0.002286706
0.0022170272
0.0021480851
0.0020799007
0.0020124938
0.0019458829
0.0018800852
0.0018151167
0.001750992
0.0016877243
0.0016253255
0.0015638058
0.0015031743
0.0014434385
0.0013846048
0.0013266783
0.0012696627
0.0012135609
0.0011583748
0.0011041054
0.0010507533
0.00099831851
0.00094680079
0.0008962001
0.00084651679
0.00079775269
0.00074991102
0.00070300063
0.00065703342
0.00061202927
0.00056800654
0.00052497892
0.0037134136
0.0036349745
0.0035567436
0.003478759
0.0034010544
0.0033236598
0.0032466038
0.0031699148
0.0030936208
0.00301775
0.0029423307
0.0028673907
0.002792958
0.0027190601
0.002645724
0.0025729765
0.0025008438
0.0024293513
0.0023585237
0.002288385
0.0022189581
0.0021502651
0.0020823268
0.0020151631
0.0019487924
0.0018832319
0.0018184976
0.0017546038
0.0016915639
0.0016293893
0.0015680904
0.001507676
0.0014481536
0.0013895295
0.0013318084
0.0012749943
0.00121909
0.0011640972
0.0011100173
0.0010568507
0.0010045978
0.00095325864
0.00090283356
0.00085332361
0.00080473083
0.00075706088
0.0007103217
0.00066452998
0.00061971002
0.0005758766
0.00053304241
0.0037088744
0.0036308041
0.0035529334
0.0034753025
0.0033979449
0.0033208907
0.0032441688
0.0031678079
0.0030918363
0.0030162826
0.0029411752
0.0028665423
0.002792412
0.0027188121
0.00264577
0.0025733124
0.0025014658
0.0024302557
0.002359707
0.0022898438
0.002220689
0.0021522647
0.0020845919
0.0020176903
0.0019515784
0.0018862734
0.001821791
0.0017581457
0.0016953506
0.001633417
0.0015723552
0.001512174
0.0014528806
0.0013944811
0.0013369805
0.0012803825
0.0012246897
0.0011699042
0.0011160272
0.0010630594
0.0010110014
0.00095985354
0.00090961664
0.0008602922
0.00081188371
0.00076439642
0.00071784224
0.00067223965
0.0006276154
0.0037035867
0.003625914
0.0035484334
0.0034711853
0.0033942033
0.0033175175
0.0032411573
0.0031651514
0.0030895287
0.0030143179
0.0029395479
0.002865247
0.0027914437
0.002718166
0.0026454414
0.0025732969
0.0025017592
0.0024308539
0.002360606
0.0022910398
0.0022221782
0.0021540434
0.0020866564
0.0020200369
0.0019542034
0.0018891729
0.0018249613
0.0017615828
0.0016990504
0.0016373754
0.001576568
0.0015166366
0.0014575886
0.00139943
0.0013421654
0.0012857987
0.0012303325
0.0011757688
0.0011221089
0.0010693539
0.0010175043
0.0009665611
0.00091652545
0.00086739974
0.00081918769
0.00077189738
0.00072554066
0.00068014093
0.0036974766
0.0036202328
0.0035431734
0.003466339
0.0033897625
0.0033134746
0.0032375049
0.0031618824
0.0030866364
0.0030117959
0.0029373899
0.0028634474
0.0027899969
0.0027170666
0.0026446844
0.0025728775
0.0025016727
0.0024310957
0.0023611718
0.0022919253
0.0022233792
0.0021555558
0.002088476
0.0020221597
0.0019566251
0.0018918895
0.0018279684
0.0017648761
0.0017026254
0.0016412276
0.0015806926
0.0015210289
0.0014622436
0.0014043426
0.0013473306
0.0012912113
0.0012359874
0.0011816608
0.0011282332
0.0010757055
0.0010240788
0.00097335423
0.0009235337
0.00087462004
0.00082661868
0.00077953753
0.00073339268
0.00068820935
0.0037673735
0.0036904635
0.0036136809
0.0035370761
0.0034606875
0.0033845483
0.0033086893
0.0032331404
0.0031579311
0.003083091
0.0030086494
0.0029346358
0.0028610793
0.0027880087
0.0027154527
0.0026434391
0.0025719956
0.002501149
0.0024309253
0.0023613498
0.0022924469
0.0022242399
0.002156751
0.0020900012
0.0020240102
0.0019587965
0.001894377
0.0018307674
0.0017679818
0.0017060329
0.0016449319
0.0015846886
0.0015253113
0.0014668071
0.0014091817
0.0013524398
0.001296585
0.00124162
0.0011875469
0.0011343673
0.0010820825
0.0010306938
0.00098020289
0.00093061199
0.00088192499
0.00083414755
0.0007872905
0.00074136999
0.00069641242
0.0037588638
0.0036824558
0.0036061717
0.0035300563
0.0034541475
0.0033784787
0.0033030811
0.0032279849
0.0031532202
0.0030788167
0.0030048044
0.0029312128
0.0028580715
0.0027854096
0.002713256
0.0026416388
0.0025705859
0.0025001242
0.0024302801
0.0023610789
0.0022925451
0.0022247021
0.0021575721
0.0020911763
0.0020255343
0.0019606645
0.0018965839
0.0018333081
0.001770851
0.0017092252
0.0016484419
0.0015885107
0.0015294397
0.0014712361
0.0014139053
0.0013574521
0.00130188
0.0012471917
0.0011933894
0.0011404748
0.0010884495
0.001037315
0.00098707341
0.00093772767
0.00088928211
0.00084174415
0.00079512419
0.00074944147
0.00070472272
0.0037492236
0.0036733588
0.0035976105
0.0035220209
0.0034466274
0.0033714638
0.0032965617
0.0032219518
0.0031476646
0.0030737302
0.0030001788
0.0029270406
0.0028543453
0.0027821224
0.0027104009
0.0026392094
0.0025685758
0.0024985274
0.0024290907
0.0023602911
0.0022921533
0.0022247008
0.0021579558
0.0020919395
0.0020266715
0.0019621702
0.0018984527
0.0018355342
0.0017734287
0.0017121488
0.0016517054
0.001592108
0.0015333647
0.0014754824
0.0014184667
0.0013623221
0.001307052
0.0012526594
0.0011991464
0.0011465149
0.0010947667
0.0010439037
0.00099392836
0.00094484416
0.00089665645
0.00084937268
0.00080300585
0.00075757489
0.00071310601
0.0037383493
0.0036630682
0.0035878946
0.0035128683
0.0034380271
0.0033634052
0.0032890345
0.0032149461
0.003141171
0.0030677397
0.0029946829
0.002922031
0.0028498141
0.0027780621
0.0027068042
0.0026360693
0.0025658855
0.0024962804
0.0024272805
0.0023589115
0.0022911982
0.0022241642
0.0021578317
0.002092222
0.0020273546
0.0019632481
0.0018999191
0.0018373832
0.0017756541
0.0017147442
0.0016546644
0.0015954241
0.0015370312
0.0014794925
0.0014228136
0.0013669987
0.0013120516
0.001257975
0.0012047712
0.0011524422
0.0011009901
0.001050417
0.001000726
0.00095192106
0.00090400797
0.00085699587
0.00081089713
0.00076573271
0.00072153003
0.0037261256
0.003651471
0.0035769119
0.0035024885
0.0034282384
0.0033541963
0.0032803945
0.0032068646
0.0031336379
0.0030607455
0.0029882185
0.0029160877
0.0028443834
0.0027731359
0.0027023747
0.002632129
0.0025624272
0.002493297
0.0024247652
0.0023568576
0.002289599
0.0022230132
0.0021571226
0.0020919482
0.0020275098
0.0019638257
0.0019009127
0.0018387862
0.0017774598
0.0017169458
0.0016572549
0.0015983965
0.0015403783
0.0014832071
0.0014268882
0.001371426
0.0013168241
0.0012630853
0.0012102119
0.0011582063
0.0011070706
0.0010568074
0.0010074202
0.00095891336
0.00091129372
0.00086457025
0.00081875759
0.00077387667
0.00072995351
0.0037124301
0.0036384444
0.0035645422
0.0034907627
0.0034171444
0.0033437219
0.0032705283
0.0031975955
0.0031249554
0.0030526396
0.0029806794
0.002909106
0.0028379503
0.0027672428
0.0026970134
0.0026272914
0.0025581055
0.0024894837
0.0024214529
0.0023540392
0.0022872674
0.0022211614
0.0021557436
0.0020910352
0.0020270558
0.0019638239
0.001901356
0.0018396674
0.0017787718
0.0017186813
0.0016594064
0.0016009564
0.001543339
0.0014865607
0.0014306269
0.0013755418
0.0013213091
0.0012679315
0.0012154117
0.0011637518
0.0011129545
0.0010630227
0.0010139601
0.00096577186
0.00091846506
0.0008720503
0.00082654161
0.00078196102
0.00073833713
0.0036971289
0.003623858
0.003550656
0.0034775636
0.0034046191
0.003331858
0.0032593137
0.0031870186
0.0031150051
0.0030433052
0.0029719507
0.0029009732
0.0028304039
0.0027602737
0.0026906128
0.0026214509
0.0025528168
0.0024847388
0.0024172439
0.0023503585
0.0022841074
0.0022185147
0.0021536027
0.0020893927
0.0020259044
0.0019631561
0.0019011643
0.0018399442
0.0017795094
0.0017198718
0.0016610419
0.0016030288
0.00154584
0.001489482
0.0014339601
0.0013792785
0.0013254407
0.0012724497
0.0012203079
0.0011690181
0.0011185828
0.0010690053
0.0010202899
0.00097244222
0.00092547013
0.00087938403
0.00083419984
0.00078994027
0.00074663152
0.0036800817
0.003607571
0.0035351153
0.0034627545
0.0033905282
0.003318472
0.0032466198
0.0031750048
0.0031036597
0.003032617
0.002961909
0.0028915676
0.0028216245
0.0027521109
0.0026830574
0.0026144938
0.0025464493
0.0024789524
0.0024120304
0.0023457096
0.0022800153
0.0022149712
0.0021506001
0.0020869231
0.0020239599
0.0019617287
0.001900246
0.0018395269
0.0017795849
0.0017204317
0.0016620777
0.0016045319
0.0015478016
0.0014918933
0.0014368121
0.0013825621
0.001329147
0.0012765696
0.0012248326
0.0011739387
0.0011238909
0.0010746928
0.001026349
0.00097886562
0.00093225091
0.0008865167
0.00084167861
0.00079775942
0.0007547893
0.0036611364
0.0035894352
0.0035177726
0.0034461903
0.0033747279
0.003303422
0.0032323069
0.0031614163
0.0030907833
0.0030204411
0.0029504222
0.0028807593
0.0028114841
0.0027426284
0.002674223
0.002606298
0.0025388831
0.0024720068
0.0024056965
0.002339979
0.0022748793
0.0022104215
0.0021466284
0.0020835209
0.0020211189
0.0019594405
0.0018985021
0.0018383187
0.0017789035
0.0017202683
0.0016624234
0.0016053773
0.0015491376
0.0014937104
0.0014391007
0.0013853127
0.00133235
0.0012802153
0.0012289117
0.0011784418
0.001128809
0.001080017
0.0010320711
0.0009849776
0.00093874572
0.0008933871
0.00084891863
0.00080536488
0.00076275227
0.0036401344
0.0035692915
0.0034984716
0.0034277162
0.0033570658
0.0032865575
0.0032162262
0.0031461061
0.0030762311
0.0030066345
0.0029373497
0.0028684093
0.002799846
0.0027316914
0.002663977
0.0025967332
0.0025299898
0.0024637755
0.0023981182
0.0023330445
0.0022685798
0.0022047481
0.0021415721
0.0020790731
0.0020172707
0.0019561829
0.0018958262
0.0018362152
0.0017773634
0.001719282
0.0016619814
0.0016054699
0.0015497549
0.0014948424
0.0014407373
0.0013874438
0.0013349654
0.0012833049
0.0012324653
0.0011824496
0.0011332613
0.0010849045
0.0010373846
0.00099070887
0.00094488643
0.00089993022
0.00085585747
0.00081269146
0.00077046409
0.0036169055
0.0035469735
0.0034770469
0.0034071688
0.0033373801
0.0032677186
0.0031982199
0.0031289186
0.0030598493
0.0029910457
0.0029225416
0.0028543703
0.0027865646
0.0027191567
0.0026521784
0.0025856603
0.0025196326
0.0024541243
0.0023891632
0.0023247763
0.0022609889
0.0021978253
0.0021353082
0.0020734588
0.0020122966
0.0019518397
0.0018921043
0.0018331051
0.0017748552
0.0017173659
0.0016606471
0.0016047073
0.0015495535
0.0014951917
0.0014416267
0.0013888625
0.0013369025
0.0012857498
0.0012354073
0.0011858782
0.0011371661
0.0010892756
0.0010422124
0.000995984
0.00095060051
0.00090607489
0.00086242474
0.00081967657
0.00077785692
0.0035912727
0.0035223041
0.0034533241
0.0033843754
0.0033155002
0.0032467368
0.0031781213
0.0031096892
0.0030414753
0.002973514
0.0029058396
0.0028384859
0.0027714859
0.0027048725
0.0026386775
0.0025729321
0.0025076665
0.0024429101
0.002378691
0.0023150361
0.002251971
0.0021895199
0.0021277056
0.0020665492
0.0020060704
0.0019462869
0.001887215
0.0018288691
0.0017712623
0.0017144056
0.0016583088
0.0016029801
0.0015484266
0.0014946538
0.0014416667
0.0013894689
0.0013380641
0.001287455
0.001237645
0.0011886371
0.0011404354
0.0010930445
0.0010464708
0.001000722
0.00095580869
0.00091174444
0.00086854826
0.00082624367
0.00078486424
0.0035630478
0.0034950988
0.0034271196
0.0033591547
0.0032912466
0.0032234345
0.0031557551
0.0030882445
0.0030209379
0.0029538706
0.002887077
0.0028205914
0.0027544476
0.0026886784
0.0026233163
0.0025583928
0.0024939382
0.0024299822
0.0023665529
0.0023036777
0.002241382
0.0021796903
0.0021186252
0.002058208
0.0019984579
0.0019393929
0.001881029
0.0018233807
0.0017664604
0.0017102794
0.0016548471
0.0016001717
0.0015462597
0.0014931169
0.0014407477
0.0013891562
0.0013383453
0.0012883186
0.0012390786
0.0011906293
0.0011429743
0.0010961192
0.0010500699
0.0010048353
0.00096042602
0.0009168566
0.00087414497
0.00083231969
0.00079140745
0.0035320366
0.0034651634
0.003398242
0.0033313169
0.0032644317
0.0031976261
0.0031309377
0.0030644029
0.0029980578
0.002931938
0.0028660786
0.0028005142
0.002735279
0.0026704064
0.0026059291
0.0025418788
0.0024782863
0.0024151814
0.0023525926
0.002290547
0.0022290705
0.0021681873
0.0021079204
0.0020482904
0.0019893173
0.0019310182
0.0018734096
0.0018165051
0.0017603177
0.0017048578
0.0016501353
0.0015961573
0.0015429311
0.0014904613
0.0014387532
0.0013878096
0.0013376348
0.0012882307
0.0012396016
0.0011917501
0.0011446812
0.0010983996
0.0010529129
0.0010082292
0.00096436054
0.00092132091
0.0008791312
0.00083781527
0.00079740777
0.0034980352
0.0034322974
0.003366492
0.0033006648
0.0032348601
0.0031691184
0.0031034778
0.0030379755
0.002972648
0.0029075316
0.0028426617
0.0027780737
0.002713802
0.0026498805
0.002586342
0.0025232189
0.002460542
0.0023983414
0.0023366456
0.0022754822
0.0022148768
0.002154854
0.0020954361
0.0020366448
0.0019784986
0.0019210158
0.0018642115
0.0018081004
0.0017526939
0.0016980037
0.0016440378
0.0015908049
0.0015383101
0.0014865599
0.0014355574
0.0013853074
0.0013358117
0.0012870747
0.0012390983
0.0011918876
0.0011454455
0.0010997791
0.0010548945
0.0010108018
0.00096751228
0.00092504183
0.0008834092
0.00084264407
0.00080277416
0.003460835
0.0033962926
0.0033316637
0.0032669944
0.0032023299
0.0031377113
0.0030731776
0.0030087663
0.0029445149
0.0028804597
0.0028166372
0.0027530827
0.0026898316
0.0026269177
0.0025643747
0.0025022346
0.0024405292
0.0023792881
0.0023185407
0.0022583138
0.0021986341
0.0021395252
0.0020810106
0.0020231103
0.0019658445
0.0019092296
0.0018532823
0.0017980151
0.0017434414
0.0016895703
0.0016364119
0.0015839724
0.001532259
0.0014812756
0.0014310274
0.0013815169
0.001332748
0.0012847229
0.0012374457
0.0011909194
0.0011451492
0.0011001407
0.0010559017
0.001012442
0.00096977364
0.00092791273
0.00088688022
0.00084670207
0.00080741229
0.0034202207
0.0033569368
0.0032935463
0.0032300968
0.003166634
0.0031031998
0.0030398336
0.0029765741
0.0029134588
0.0028505251
0.0027878093
0.0027253481
0.0026631763
0.0026013291
0.0025398396
0.0024787411
0.0024180645
0.0023578408
0.0022980984
0.0022388655
0.0021801673
0.0021220291
0.0020644726
0.0020075195
0.0019511881
0.0018954964
0.0018404591
0.0017860904
0.0017324016
0.0016794032
0.0016271036
0.00157551
0.0015246282
0.001474463
0.0014250185
0.0013762976
0.0013283039
0.0012810397
0.0012345091
0.0011887148
0.0011436631
0.0010993586
0.0010558111
0.0010130289
0.00097102707
0.00092981989
0.00088942975
0.00084988515
0.00081121643
0.0033759756
0.0033140134
0.0032519253
0.003189759
0.0031275611
0.0030653742
0.0030032384
0.0029411928
0.0028792759
0.0028175251
0.0027559779
0.0026946707
0.0026336395
0.0025729191
0.0025125438
0.0024525462
0.0023929586
0.0023338111
0.0022751332
0.0022169522
0.0021592945
0.0021021841
0.0020456439
0.0019896944
0.0019343548
0.0018796421
0.0018255713
0.0017721561
0.0017194075
0.0016673362
0.0016159496
0.0015652556
0.0015152585
0.0014659646
0.0014173756
0.0013694968
0.0013223289
0.0012758772
0.0012301424