/*--------------------------------*- C++ -*----------------------------------*\
| =========                 |                                                 |
| \\      /  F ield         | OpenFOAM: The Open Source CFD Toolbox           |
|  \\    /   O peration     | Version:  2312                                  |
|   \\  /    A nd           | Website:  www.openfoam.com                      |
|    \\/     M anipulation  |                                                 |
\*---------------------------------------------------------------------------*/
FoamFile
{
    version     2.0;
    format      ascii;
    arch        "LSB;label=32;scalar=64";
    class       volScalarField;
    location    "0.06";
    object      nut;
}
// * * * * * * * * * * * * * * * * * * * * * * * * * * * * * * * * * * * * * //

dimensions      [0 2 -1 0 0 0 0];

internalField   nonuniform List<scalar> 
3251
(
0.03365443
0.033761322
0.033872978
0.033989462
0.03411084
0.03423719
0.034368599
0.034505166
0.034646998
0.034794212
0.034946934
0.035105298
0.035269444
0.035439518
0.035615672
0.035798057
0.035986828
0.03618214
0.036384142
0.036592981
0.036808797
0.037031721
0.037261875
0.037499368
0.037744293
0.037996729
0.038256737
0.038524359
0.038799617
0.039082512
0.039373023
0.039671107
0.039976698
0.040289709
0.04061003
0.04093753
0.041272056
0.041613439
0.041961488
0.042315999
0.042676751
0.043043509
0.043416031
0.043794063
0.044177344
0.044565614
0.044958609
0.045356074
0.045757767
0.046163469
0.046572994
0.046986251
0.047403467
0.047824163
0.048247593
0.048673556
0.049101915
0.049532584
0.033655024
0.033761953
0.03387365
0.033990176
0.034111595
0.034237986
0.034369435
0.034506042
0.034647913
0.034795165
0.034947926
0.035106327
0.03527051
0.035440621
0.03561681
0.035799231
0.035988037
0.036183382
0.036385417
0.036594289
0.036810136
0.037033091
0.037263275
0.037500796
0.037745748
0.03799821
0.038258243
0.038525889
0.03880117
0.039084086
0.039374617
0.039672719
0.039978328
0.040291355
0.04061169
0.040939203
0.041273741
0.041615134
0.041963193
0.042317712
0.042678471
0.043045237
0.043417766
0.043795806
0.044179097
0.04456738
0.044960393
0.045357884
0.045759612
0.046165358
0.046574935
0.046988241
0.047405295
0.047825724
0.048248971
0.04867479
0.049103023
0.049533647
0.033656028
0.033763022
0.033874788
0.033991382
0.034112868
0.034239324
0.034370838
0.034507508
0.034649441
0.034796754
0.034949574
0.035108034
0.035272274
0.035442441
0.035618684
0.035801158
0.035990016
0.036185411
0.036387495
0.036596414
0.036812306
0.037035305
0.03726553
0.03750309
0.03774808
0.038000577
0.038260643
0.03852832
0.038803629
0.039086571
0.039377126
0.039675249
0.039980876
0.04029392
0.040614269
0.040941792
0.04127634
0.041617739
0.041965803
0.042320324
0.042681084
0.043047849
0.043420376
0.043798413
0.044181703
0.044569986
0.044963003
0.045360502
0.045762242
0.046168004
0.046577596
0.046990888
0.047407785
0.04782798
0.048251031
0.04867668
0.049104749
0.049535194
0.033657439
0.033764527
0.033876387
0.033993075
0.034114654
0.034241201
0.034372803
0.034509559
0.034651577
0.034798973
0.034951873
0.035110411
0.035274728
0.03544497
0.035621286
0.035803831
0.035992757
0.036188218
0.036390366
0.036599345
0.036815296
0.037038351
0.037268629
0.037506239
0.037751276
0.038003817
0.038263923
0.038531637
0.03880698
0.039089952
0.039380534
0.039678681
0.039984328
0.040297387
0.040617748
0.040945281
0.041279834
0.041621236
0.041969299
0.042323816
0.042684569
0.043051324
0.04342384
0.043801864
0.044185141
0.04457341
0.044966415
0.045363904
0.045765635
0.046171385
0.046580956
0.046994191
0.047410929
0.047830904
0.048253746
0.048679207
0.049107083
0.049537102
0.033659254
0.033766464
0.033878447
0.033995255
0.034116952
0.034243613
0.034375328
0.034512193
0.034654317
0.034801817
0.034954819
0.035113456
0.035277869
0.035448204
0.03562461
0.035807242
0.035996253
0.036191796
0.036394022
0.036603076
0.036819099
0.037042221
0.037272563
0.037510234
0.037755327
0.03800792
0.038268074
0.038535831
0.038811213
0.03909422
0.039384831
0.039683003
0.03998867
0.040301745
0.040622118
0.040949657
0.041284212
0.041625612
0.041973668
0.042328174
0.042688913
0.04305565
0.043428144
0.043806145
0.044189396
0.044577638
0.044970615
0.045368075
0.045769776
0.046175489
0.046585007
0.04699815
0.04741472
0.047834476
0.048257099
0.04868236
0.049110065
0.033661348
0.0337687
0.033880824
0.03399777
0.0341196
0.034246393
0.034378235
0.034515225
0.03465747
0.034805088
0.034958205
0.035116954
0.035281475
0.035451915
0.035628424
0.035811154
0.03600026
0.036195894
0.036398207
0.036607345
0.036823447
0.037046644
0.037277057
0.037514794
0.037759948
0.038012598
0.038272804
0.038540607
0.03881603
0.039099073
0.039389714
0.039687912
0.039993599
0.040306688
0.04062707
0.040954613
0.041289167
0.041630559
0.041978603
0.042333094
0.042693811
0.043060523
0.043432988
0.043810955
0.04419417
0.044582374
0.04497531
0.045372726
0.045774377
0.046180032
0.046589475
0.047002505
0.047418906
0.04783845
0.048260854
0.048685918
0.049113619
0.033663666
0.033771177
0.033883455
0.034000553
0.034122531
0.034249468
0.03438145
0.034518577
0.034660955
0.034808702
0.034961944
0.035120815
0.035285455
0.035456009
0.035632629
0.035815466
0.036004675
0.036200408
0.036402815
0.036612043
0.036828231
0.037051509
0.037281998
0.037519805
0.037765025
0.038017735
0.038277995
0.038545848
0.038821314
0.039104394
0.039395067
0.039693289
0.039998996
0.040312098
0.040632487
0.040960032
0.041294581
0.041635963
0.041983992
0.042338461
0.042699152
0.043065833
0.043438262
0.043816189
0.044199359
0.044587515
0.0449804
0.04537776
0.04577935
0.046184931
0.046594281
0.047007186
0.047423413
0.047842748
0.04826493
0.048689788
0.049117406
0.033666393
0.03377409
0.03388655
0.034003825
0.034125976
0.034253081
0.034385227
0.034522513
0.034665046
0.034812943
0.034966331
0.035125344
0.035290121
0.035460808
0.035637556
0.035820517
0.036009845
0.036205692
0.036408209
0.03661754
0.036833827
0.037057197
0.037287773
0.037525661
0.037770956
0.038023734
0.038284056
0.038551963
0.038827478
0.039110599
0.039401306
0.039699555
0.040005282
0.040318398
0.040638793
0.040966336
0.041300877
0.041642246
0.041990253
0.042344694
0.042705352
0.043071993
0.043444377
0.043822254
0.044205368
0.044593464
0.044986282
0.045383571
0.04578508
0.046190569
0.046599804
0.047012561
0.047428598
0.047847707
0.048269646
0.048694257
0.049121602
0.033669563
0.033777477
0.033890147
0.034007626
0.034129977
0.034257276
0.03438961
0.034527079
0.03466979
0.034817861
0.034971416
0.035130592
0.035295526
0.035466366
0.035643261
0.035826364
0.036015827
0.036211805
0.036414446
0.036623896
0.036840294
0.03706377
0.037294444
0.037532424
0.037777803
0.038030658
0.038291049
0.038559018
0.038834586
0.039117753
0.039408497
0.039706776
0.040012523
0.040325651
0.040646051
0.040973591
0.041308121
0.04164947
0.04199745
0.042351857
0.042712473
0.043079066
0.043451394
0.043829209
0.044212255
0.044600276
0.044993013
0.045390213
0.045791623
0.046196999
0.046606099
0.047018686
0.047434513
0.047853378
0.048275053
0.048699386
0.033673213
0.033781375
0.033894285
0.034011999
0.034134577
0.034262097
0.034394647
0.034532325
0.034675239
0.034823506
0.034977253
0.035136614
0.035301727
0.03547274
0.035649802
0.035833066
0.036022684
0.036218809
0.036421591
0.036631174
0.036847699
0.037071294
0.037302079
0.037540162
0.037785635
0.038038576
0.038299045
0.038567082
0.038842708
0.039125925
0.03941671
0.03971502
0.040020789
0.040333929
0.040654331
0.040981865
0.041316379
0.041657704
0.04200565
0.042360016
0.042720581
0.043087115
0.043459378
0.043837118
0.044220082
0.044608013
0.045000653
0.045397746
0.045799038
0.046204281
0.046613223
0.047025619
0.047441214
0.047859815
0.048281212
0.048705307
0.033677385
0.033785827
0.033899011
0.03401699
0.034139826
0.034267596
0.03440039
0.034538304
0.034681447
0.034829937
0.0349839
0.035143469
0.035308785
0.035479993
0.035657244
0.035840688
0.03603048
0.036226771
0.036429711
0.036639445
0.036856111
0.037079839
0.037310748
0.037548946
0.037794524
0.038047561
0.038308115
0.038576228
0.038851919
0.03913519
0.039426019
0.039724362
0.040030153
0.040343305
0.040663708
0.040991232
0.041325726
0.04166702
0.042014926
0.042369242
0.042729747
0.043096212
0.043468396
0.043846049
0.044228917
0.044616741
0.045009266
0.045406233
0.045807388
0.046212475
0.046621239
0.047033421
0.047448763
0.047867082
0.04828819
0.03368212
0.033790879
0.03390437
0.034022648
0.034145774
0.034273826
0.034406893
0.034545073
0.034688474
0.034837214
0.034991418
0.035151222
0.035316764
0.035488191
0.035665652
0.035849299
0.036039285
0.036235762
0.036438878
0.03664878
0.036865604
0.03708948
0.037320527
0.037558853
0.037804548
0.038057691
0.038318339
0.038586534
0.038862297
0.039145627
0.039436503
0.039734881
0.040040695
0.040353857
0.040674259
0.04100177
0.041336238
0.041677496
0.042025354
0.04237961
0.042740046
0.04310643
0.043478523
0.043856074
0.044238829
0.044626531
0.04501892
0.045415742
0.045816738
0.046221651
0.046630215
0.047042162
0.047457226
0.047875248
0.048296122
0.033687467
0.03379658
0.033910416
0.034029027
0.034152478
0.034280845
0.034414217
0.034552693
0.034696382
0.0348454
0.034999875
0.03515994
0.035325735
0.035497406
0.035675101
0.035858974
0.036049175
0.036245858
0.036449171
0.036659258
0.036876258
0.037100298
0.037331498
0.037569964
0.037815788
0.038069047
0.0383298
0.038598086
0.038873926
0.03915732
0.039448246
0.03974666
0.040052498
0.04036567
0.040686068
0.041013561
0.041347999
0.041689213
0.042037015
0.042391202
0.042751557
0.043117848
0.043489835
0.043867269
0.044249895
0.044637455
0.04502969
0.045426344
0.04582716
0.046231877
0.046640222
0.047051913
0.047466675
0.047884385
0.033693478
0.033802986
0.033917204
0.034036187
0.034159998
0.034288715
0.034422427
0.034561232
0.03470524
0.034854568
0.035009342
0.035169697
0.035335772
0.035507712
0.035685668
0.035869789
0.03606023
0.036257141
0.036460671
0.036670963
0.036888156
0.037112377
0.037343746
0.037582367
0.037828333
0.038081719
0.038342585
0.03861097
0.038886894
0.039170357
0.039461337
0.03975979
0.040065651
0.040378831
0.040699222
0.041026693
0.041361095
0.041702258
0.042049995
0.042404103
0.042764365
0.043130549
0.043502416
0.043879717
0.044262195
0.044649593
0.045041652
0.045438116
0.045838729
0.046243229
0.046651337
0.047062755
0.047477192
0.047894641
0.033700209
0.033810153
0.033924795
0.034044189
0.034168399
0.034297503
0.03443159
0.03457076
0.03471512
0.03486479
0.035019895
0.03518057
0.035346954
0.035519192
0.035697434
0.035881831
0.036072535
0.036269697
0.036473465
0.036683984
0.036901389
0.037125809
0.037357362
0.037596153
0.037842273
0.038095799
0.038356788
0.038625281
0.038901296
0.039184833
0.039475871
0.039774364
0.040080248
0.040393435
0.040713816
0.041041261
0.041375619
0.041716723
0.042064385
0.042418402
0.042778558
0.043144622
0.043516353
0.043893502
0.044275814
0.044663029
0.045054889
0.045451138
0.045851524
0.046255787
0.046663645
0.047074777
0.047488855
0.03370772
0.033818147
0.033933256
0.034053103
0.034177753
0.034307283
0.034441783
0.034581353
0.034726102
0.034876147
0.035031616
0.035192643
0.035359366
0.035531932
0.035710488
0.035895187
0.03608618
0.036283618
0.036487648
0.036698414
0.036916051
0.037140689
0.037372443
0.03761142
0.037857709
0.038111386
0.03837251
0.038641118
0.038917231
0.039200848
0.039491946
0.039790482
0.04009639
0.040409582
0.040729948
0.041057361
0.041391669
0.041732705
0.042080281
0.042434196
0.042794233
0.043160161
0.043531739
0.043908718
0.044290842
0.044677851
0.045069487
0.045465495
0.045865628
0.046269634
0.046677232
0.047088085
0.047501824
0.033716079
0.033827035
0.033942657
0.034063002
0.034188134
0.034318131
0.034453085
0.034593094
0.034738268
0.034888726
0.035044594
0.035206005
0.0353731
0.035546024
0.035724925
0.035909954
0.036101263
0.036299002
0.036503318
0.036714353
0.036932245
0.037157119
0.037389093
0.037628271
0.037874744
0.038128586
0.038389854
0.038658588
0.038934806
0.039218508
0.039509671
0.03980825
0.040114181
0.040427375
0.040747724
0.041075098
0.041409349
0.041750306
0.042097786
0.042451586
0.042811488
0.043177263
0.043548671
0.04392546
0.044307375
0.044694155
0.045085539
0.045481277
0.045881127
0.046284854
0.046692193
0.047102794
0.033725358
0.033836892
0.033953076
0.034073965
0.034199624
0.034330133
0.034465581
0.03460607
0.034751709
0.034902617
0.03505892
0.035220752
0.035388253
0.035561567
0.035740844
0.035926233
0.036117886
0.036315953
0.03652058
0.036731909
0.036950076
0.037175208
0.03740742
0.037646817
0.037893488
0.038147507
0.038408932
0.038677801
0.038954132
0.039237924
0.039529155
0.039827779
0.040133733
0.040446927
0.040767253
0.041094583
0.041428767
0.041769637
0.042117007
0.042470677
0.04283043
0.043196035
0.043567253
0.043943832
0.044325515
0.044712039
0.045103144
0.045498578
0.045898112
0.046301535
0.046708622
0.047119149
0.033735634
0.033847801
0.033964597
0.034086079
0.034212312
0.034343377
0.034479365
0.034620377
0.034766522
0.034917919
0.035074696
0.035236985
0.035404927
0.035578667
0.035758352
0.035944132
0.036136159
0.036334581
0.036539546
0.036751194
0.03696966
0.03719507
0.03742754
0.037667173
0.037914058
0.038168269
0.038429862
0.038698875
0.038975327
0.039259215
0.039550517
0.039849188
0.040155163
0.040468354
0.040788653
0.041115931
0.041450039
0.041790809
0.042138058
0.042491583
0.042851169
0.043216587
0.043587595
0.043963942
0.044345369
0.044731611
0.045122405
0.045517498
0.045916673
0.046319759
0.04672658
0.047136955
0.033746994
0.033859847
0.033977309
0.034099435
0.034226292
0.034357962
0.034494536
0.034636114
0.034782809
0.034934738
0.035092028
0.035254814
0.035423234
0.035597434
0.035777561
0.035963765
0.036156197
0.036355005
0.036560334
0.036772327
0.036991116
0.037216827
0.037449575
0.037689463
0.037936579
0.038190995
0.038452769
0.038721936
0.038998516
0.039282505
0.039573882
0.039872601
0.040178596
0.04049178
0.040812046
0.041139264
0.041473286
0.041813946
0.042161058
0.042514423
0.042873825
0.043239035
0.043609812
0.043985904
0.044367051
0.044752984
0.045143434
0.045538144
0.045936906
0.04633961
0.04674614
0.047156171
0.033759528
0.033873127
0.033991311
0.034114135
0.034241668
0.034373992
0.034511199
0.034653392
0.03480068
0.034953184
0.03511103
0.035274352
0.03544329
0.035617988
0.035798593
0.035985255
0.036178124
0.036377347
0.036583071
0.036795435
0.037014572
0.037240607
0.037473655
0.037713816
0.037961179
0.038215816
0.038477782
0.038747115
0.03902383
0.039307927
0.039599381
0.039898148
0.040204162
0.040517336
0.040837562
0.041164712
0.041498637
0.041839173
0.042186134
0.042539321
0.04289852
0.043263501
0.043634025
0.044009839
0.044390681
0.044776279
0.045166353
0.045560633
0.045958913
0.046361176
0.046767438
0.033773338
0.033887743
0.034006707
0.034130285
0.034258547
0.034391578
0.034529469
0.034672324
0.034820254
0.034973378
0.035131824
0.035295724
0.03546522
0.035640454
0.035821575
0.03600873
0.036202069
0.03640174
0.036607888
0.036820651
0.037040162
0.037266546
0.037499914
0.037740369
0.037987997
0.03824287
0.038505041
0.038774548
0.039051408
0.039335617
0.039627152
0.039925967
0.040231998
0.040545157
0.040865337
0.041192409
0.041526226
0.041866623
0.042213417
0.042566408
0.042925384
0.043290115
0.043660363
0.044035875
0.044416387
0.044801623
0.045191292
0.045585098
0.0459828
0.046384538
0.046790781
0.033788532
0.033903807
0.034023611
0.034148001
0.034277048
0.034410839
0.034549467
0.034693035
0.034841655
0.034995447
0.035154537
0.035319061
0.035489156
0.035664967
0.035846641
0.036034326
0.036228171
0.036428323
0.036634925
0.036848117
0.037068029
0.037294785
0.037528497
0.037769266
0.038017177
0.0382723
0.03853469
0.038804383
0.039081394
0.039365721
0.039657339
0.039956204
0.040262249
0.040575388
0.040895513
0.041222497
0.041556193
0.041896437
0.042243046
0.042595823
0.042954553
0.043319012
0.043688959
0.044064144
0.044444302
0.044829154
0.045218398
0.045611699
0.046008686
0.033805227
0.03392144
0.034042147
0.034167407
0.034297298
0.034431905
0.034571323
0.034715657
0.034865017
0.035019525
0.035179308
0.035344499
0.035515237
0.035691667
0.035873935
0.036062188
0.036256574
0.036457241
0.03666433
0.03687798
0.037098321
0.037325476
0.037559555
0.037800657
0.038048869
0.038304259
0.038566881
0.03883677
0.039113941
0.039398391
0.039690095
0.039989008
0.040295064
0.040608177
0.04092824
0.041255125
0.041588687
0.041928761
0.042275167
0.042627707
0.042986171
0.043350332
0.043719953
0.044094785
0.044474565
0.044859014
0.04524783
0.045640649
0.033823556
0.033940774
0.034062444
0.034188636
0.034319429
0.03445491
0.034595175
0.034740328
0.034890482
0.035045756
0.035206279
0.035372185
0.035543612
0.035720703
0.035903605
0.036092466
0.036287431
0.036488648
0.036696257
0.036910396
0.037131195
0.037358773
0.037593243
0.037834701
0.038083233
0.038338906
0.038601773
0.038871868
0.039149207
0.039433785
0.039725576
0.040024537
0.040330602
0.040643682
0.040963673
0.041290447
0.04162386
0.041963747
0.04230993
0.042662213
0.043020385
0.043384223
0.043753491
0.044127943
0.04450732
0.044891349
0.04527975
0.045672269
0.03372977
0.033843677
0.033961948
0.034084642
0.034211828
0.034343585
0.034479999
0.034621168
0.034767197
0.034918197
0.03507429
0.035235604
0.035402273
0.035574434
0.035752232
0.035935811
0.036125319
0.036320902
0.036522704
0.036730868
0.036945528
0.037166813
0.037394843
0.037629727
0.037871563
0.038120433
0.038376405
0.038639531
0.038909844
0.039187358
0.039472068
0.03976395
0.040062957
0.040369025
0.040682066
0.041001975
0.041328625
0.041661873
0.042001555
0.042347494
0.042699495
0.04305735
0.043420837
0.043789724
0.044163767
0.044542712
0.044926299
0.045314271
0.045706435
0.033750671
0.033865715
0.033985105
0.034108889
0.034237134
0.034369916
0.034507325
0.034649457
0.034796418
0.034948321
0.035105286
0.035267442
0.035434923
0.035607867
0.035786416
0.035970716
0.036160913
0.036357152
0.036559578
0.03676833
0.036983543
0.037205345
0.037433853
0.037669178
0.037911413
0.038160641
0.038416929
0.038680327
0.038950868
0.039228564
0.039513412
0.039805385
0.040104438
0.040410504
0.040723498
0.041043314
0.041369826
0.041702892
0.04204235
0.042388023
0.042739717
0.043097228
0.043460335
0.043828809
0.04420241
0.044580891
0.044964002
0.045351506
0.045743232
0.033773543
0.033889814
0.034010396
0.03413534
0.034264709
0.034398582
0.034537048
0.034680204
0.034828155
0.034981017
0.035138909
0.03530196
0.035470304
0.035644079
0.035823426
0.036008491
0.03619942
0.036396356
0.036599442
0.036808819
0.037024618
0.037246967
0.037475982
0.037711771
0.037954428
0.038204034
0.038460655
0.038724338
0.038995117
0.039273004
0.039557994
0.039850059
0.040149154
0.040455214
0.040768153
0.041087864
0.041414224
0.04174709
0.042086302
0.042431685
0.042783047
0.043140184
0.043502879
0.043870907
0.044244031
0.044622011
0.045004604
0.045391587
0.045782794
0.033798552
0.033916133
0.034037983
0.034164157
0.034294719
0.034429749
0.034569335
0.034713576
0.034862579
0.035016456
0.035175331
0.035339331
0.035508589
0.035683244
0.035863438
0.036049314
0.036241017
0.03643869
0.036642477
0.036852513
0.037068933
0.037291859
0.03752141
0.03775769
0.038000791
0.038250795
0.038507764
0.038771748
0.039042776
0.03932086
0.039605995
0.039898153
0.040197289
0.040503337
0.04081621
0.041135804
0.041461996
0.041794644
0.042133588
0.042478656
0.042829657
0.04318639
0.043548641
0.043916187
0.044288796
0.044666231
0.045048259
0.045434662
0.045825272
0.03382587
0.033944841
0.034068036
0.034195511
0.034327336
0.034463589
0.034604361
0.03474975
0.034899863
0.035054816
0.03521473
0.035379733
0.035549959
0.035725544
0.035906632
0.036093365
0.036285886
0.036484339
0.036688864
0.036899598
0.037116671
0.037340208
0.037570323
0.037807119
0.038050688
0.038301109
0.038558445
0.038822741
0.039094029
0.039372318
0.039657602
0.039949854
0.040249028
0.040555056
0.040867855
0.041187319
0.041513326
0.041845735
0.042184389
0.042529116
0.042879727
0.043236024
0.043597796
0.043964821
0.044336873
0.044713719
0.045095131
0.045480892
0.045870833
0.033855676
0.033976114
0.034100729
0.03422958
0.034362737
0.034500281
0.034642304
0.034788904
0.03494019
0.035096277
0.035257287
0.035423348
0.035594594
0.035771162
0.035953193
0.036140829
0.036334213
0.036533488
0.036738791
0.03695026
0.037168022
0.0373922
0.037622908
0.037860247
0.038104308
0.038355166
0.038612885
0.038877509
0.039149066
0.039427568
0.039713005
0.040005351
0.040304558
0.040610561
0.040923275
0.041242595
0.041568401
0.041900551
0.042238891
0.042583249
0.042933441
0.043289268
0.043650523
0.044016988
0.044388439
0.044764648
0.045145389
0.045530447
0.045919649
0.033888152
0.034010136
0.034136246
0.034266545
0.034401104
0.034540007
0.034683346
0.034831221
0.034983741
0.035141022
0.035303186
0.035470361
0.035642681
0.035820282
0.036003305
0.036191892
0.036386184
0.036586322
0.036792445
0.037004686
0.037223172
0.037448025
0.037679355
0.037917263
0.038161839
0.038413156
0.038671275
0.03893624
0.039208078
0.039486799
0.039772393
0.040064833
0.040364072
0.040670043
0.040982661
0.041301824
0.04162741
0.041959281
0.042297282
0.042641244
0.042990984
0.043346308
0.043707008
0.044072872
0.044443677
0.044819198
0.045199212
0.045583506
0.045971902
0.033923483
0.034047089
0.03417477
0.034306588
0.03444262
0.034582949
0.03472767
0.034876883
0.035030699
0.035189233
0.035352609
0.035520953
0.0356944
0.035873087
0.036057153
0.036246738
0.036441983
0.036643029
0.036850011
0.037063062
0.037282308
0.037507868
0.037739851
0.037978356
0.038223471
0.038475267
0.038733804
0.038999125
0.039271255
0.039550203
0.039835959
0.040128493
0.04042776
0.040733692
0.041046205
0.041365197
0.041690546
0.042022116
0.042359754
0.042703292
0.04305255
0.043407334
0.043767442
0.044132661
0.044502773
0.044877556
0.045256787
0.045640256
0.04602778
0.033961857
0.03408716
0.034216483
0.034349893
0.034487466
0.034629288
0.034775456
0.034926071
0.035081243
0.035241091
0.035405735
0.035575306
0.035749934
0.035929757
0.036114915
0.036305547
0.036501791
0.036703788
0.03691167
0.037125571
0.037345612
0.037571913
0.037804579
0.038043709
0.038289387
0.038541685
0.038800659
0.039066351
0.039338785
0.039617968
0.03990389
0.040196521
0.040495813
0.0408017
0.041114099
0.041432906
0.041758002
0.042089251
0.042426502
0.042769588
0.043118332
0.043472541
0.043832017
0.044196549
0.044565922
0.044939915
0.045318308
0.045700891
0.046087481
0.034003455
0.034130528
0.034261565
0.034396635
0.034535817
0.034679199
0.034826878
0.034978956
0.035135547
0.035296765
0.035462736
0.035633588
0.035809451
0.035990464
0.036176764
0.03636849
0.03656578
0.036768771
0.036977596
0.037192385
0.037413259
0.037640335
0.037873717
0.0381135
0.038359768
0.038612589
0.03887202
0.039138099
0.03941085
0.039690279
0.039976372
0.040269102
0.040568419
0.040874257
0.041186532
0.041505143
0.04182997
0.042160879
0.042497719
0.042840327
0.043188526
0.043542127
0.043900932
0.044264735
0.044633323
0.045006476
0.045383977
0.045765614
0.046151207
0.03404845
0.034177363
0.034310183
0.034446982
0.034587839
0.034732844
0.034882097
0.035035701
0.035193768
0.035356417
0.035523771
0.035695957
0.035873111
0.036055366
0.036242858
0.036435727
0.036634109
0.036838139
0.037047949
0.037263667
0.037485412
0.037713298
0.037947428
0.038187895
0.038434779
0.03868815
0.038948058
0.039214543
0.039487626
0.039767311
0.040053585
0.040346418
0.040645761
0.040951547
0.041263693
0.041582097
0.041906642
0.042237193
0.042573602
0.042915707
0.043263332
0.043616292
0.043974391
0.044337424
0.044705181
0.045077446
0.045454001
0.045834638
0.046219174
0.034097001
0.034227822
0.034362492
0.034501083
0.034643679
0.03479037
0.034941258
0.035096447
0.03525605
0.035420187
0.035588981
0.035762558
0.035941054
0.036124602
0.036313338
0.036507398
0.03670692
0.036912035
0.037122874
0.037339562
0.037562217
0.037790951
0.038025864
0.038267047
0.038514578
0.038768523
0.039028934
0.039295845
0.039569277
0.039849233
0.040135699
0.040428643
0.040728016
0.041033751
0.041345765
0.041663956
0.041988207
0.042318386
0.042654346
0.042995926
0.043342952
0.043695241
0.0440526
0.044414826
0.044781711
0.045153041
0.045528601
0.045908183
0.046291605
0.034149244
0.034282037
0.034418619
0.034559065
0.03470346
0.034851898
0.03500448
0.035161312
0.03532251
0.03548819
0.035658478
0.035833503
0.036013395
0.036198289
0.036388319
0.036583622
0.036784331
0.036990579
0.037202492
0.037420195
0.037643802
0.037873423
0.038109157
0.038351091
0.038599301
0.038853852
0.039114792
0.039382154
0.039655957
0.039936203
0.040222875
0.040515942
0.040815354
0.041121043
0.041432925
0.041750901
0.042074854
0.042404651
0.042740148
0.043081185
0.043427591
0.043779184
0.044135772
0.044497157
0.044863132
0.045233485
0.045608004
0.045986481
0.046368737
0.034205285
0.034340109
0.034478662
0.034621021
0.034767274
0.034917516
0.03507185
0.035230383
0.03539323
0.035560512
0.035732349
0.035908875
0.036090218
0.036276511
0.03646789
0.036664487
0.036866435
0.037073864
0.0372869
0.037505663
0.037730268
0.03796082
0.038197416
0.03844014
0.038689068
0.038944258
0.039205759
0.039473602
0.039747803
0.040028362
0.040315263
0.04060847
0.040907935
0.041213589
0.041525348
0.041843112
0.042166766
0.042496178
0.042831205
0.043171687
0.043517457
0.043868334
0.044224128
0.044584644
0.044949675
0.045319015
0.045692451
0.046069779
0.046450819
0.034265186
0.034402095
0.034542675
0.034687003
0.034835169
0.034987271
0.035143412
0.035303701
0.035468255
0.035637193
0.035810637
0.035988719
0.036171569
0.036359317
0.036552098
0.036750044
0.036953285
0.037161949
0.03737616
0.037596036
0.037821688
0.038053219
0.038290724
0.038534284
0.038783972
0.039039844
0.039301946
0.039570306
0.039844939
0.040125842
0.040412998
0.040706372
0.041005912
0.04131155
0.041623201
0.041940766
0.042264129
0.04259316
0.042927716
0.043267641
0.043612766
0.043962914
0.044317898
0.044677522
0.045041585
0.04540988
0.045782199
0.046158339
0.04653812
0.034328957
0.034468003
0.03461066
0.034757009
0.034907141
0.035061156
0.035219159
0.03538126
0.035547576
0.035718224
0.035893335
0.036073033
0.036257447
0.03644671
0.036640952
0.036840305
0.037044898
0.037254855
0.037470299
0.037691345
0.037918101
0.038150668
0.038389136
0.038633586
0.038884084
0.039140688
0.039403438
0.039672361
0.039947469
0.040228758
0.040516209
0.040809784
0.041109431
0.041415081
0.04172665
0.042044037
0.042367128
0.042695792
0.043029888
0.04336926
0.043713742
0.044063158
0.044417322
0.044776042
0.045139119
0.045506348
0.045877522
0.046252442
0.046630928
0.034396544
0.034537772
0.034682554
0.034830974
0.034983124
0.035139105
0.035299025
0.035462994
0.035631132
0.035803551
0.035980386
0.03616176
0.036347802
0.036538642
0.036734411
0.036935236
0.037141246
0.037352563
0.037569307
0.037791588
0.038019514
0.038253181
0.038492677
0.038738079
0.038989452
0.039246847
0.039510305
0.039779848
0.040055487
0.040337215
0.040625009
0.040918833
0.041218632
0.041524337
0.041835861
0.042153105
0.042475954
0.042804277
0.043137935
0.043476772
0.043820623
0.044169314
0.044522661
0.044880474
0.045242555
0.045608703
0.045978715
0.046352391
0.046729555
0.034467815
0.034611268
0.034758222
0.03490876
0.035062979
0.035220981
0.035382873
0.035548769
0.035718783
0.035893043
0.036071668
0.036254787
0.036442526
0.036635015
0.036832383
0.037034756
0.037242258
0.037455011
0.03767313
0.037896725
0.038125898
0.038360743
0.038601344
0.038847775
0.039100098
0.03935836
0.039622599
0.039892834
0.040169073
0.040451307
0.040739512
0.041033647
0.041333658
0.041639473
0.041951005
0.042268155
0.042590806
0.042918829
0.043252084
0.043590416
0.043933663
0.044281649
0.044634193
0.044991107
0.045352195
0.045717258
0.046086097
0.046458515
0.046834336
0.034542553
0.034688274
0.034837445
0.034990152
0.035146493
0.035306572
0.035470499
0.035638387
0.035810349
0.035986514
0.036167003
0.036351942
0.036541458
0.036735678
0.036934729
0.037138735
0.037347818
0.037562096
0.037781682
0.038006683
0.038237196
0.038473312
0.038715112
0.038962665
0.039216029
0.03947525
0.03974036
0.040011377
0.040288304
0.04057113
0.040859827
0.041154354
0.041454653
0.041760652
0.042072263
0.042389384
0.042711899
0.043039678
0.043372582
0.043710455
0.044053136
0.044400451
0.04475222
0.045108255
0.045468363
0.045832348
0.046200013
0.046571166
0.046945635
0.034620454
0.034768485
0.034919921
0.03507485
0.035233372
0.035395592
0.03556162
0.035731568
0.035905559
0.036083712
0.036266151
0.036453
0.036644385
0.036840432
0.037041265
0.037247006
0.037457775
0.037673685
0.037894847
0.038121362
0.038353326
0.038590826
0.038833936
0.039082724
0.039337243
0.039597535
0.039863628
0.040135535
0.040413257
0.04069678
0.040986073
0.041281091
0.041581776
0.041888051
0.042199829
0.042517005
0.042839463
0.043167073
0.043499693
0.043837171
0.044179342
0.044526034
0.044877068
0.045232256
0.045591409
0.045954331
0.04632083
0.04669072
0.047063835
0.034701122
0.034851512
0.035005269
0.035162482
0.035323252
0.035487686
0.035655896
0.03582799
0.036004098
0.036184335
0.036368824
0.036557689
0.036751053
0.036949041
0.037151774
0.037359372
0.03757195
0.03778962
0.038012487
0.038240649
0.038474197
0.038713214
0.03895777
0.039207928
0.039463737
0.039725233
0.039992441
0.040265371
0.040544018
0.040828365
0.041118378
0.041414009
0.041715196
0.042021862
0.042333915
0.04265125
0.042973749
0.043301282
0.043633704
0.043970863
0.044312596
0.044658729
0.045009082
0.04536347
0.045721701
0.046083585
0.046448932
0.046817563
0.047189327
0.03478409
0.034936896
0.035093039
0.035252609
0.035415709
0.035582445
0.035752927
0.035927275
0.036105607
0.036288042
0.036474701
0.036665707
0.036861183
0.037061247
0.037266021
0.03747562
0.037690155
0.037909735
0.03813446
0.038364424
0.038599714
0.038840406
0.039086567
0.039338254
0.039595511
0.03985837
0.04012685
0.040400957
0.040680682
0.040966003
0.041256883
0.041553269
0.041855097
0.042162286
0.042474743
0.04279236
0.043115016
0.04344258
0.043774908
0.044111844
0.044453224
0.044798875
0.045148616
0.04550226
0.045859616
0.046220491
0.0465847
0.046952073
0.047322483
0.034868836
0.035024132
0.035182742
0.035344759
0.035510286
0.035679432
0.035852299
0.03602902
0.036209706
0.036394476
0.036583449
0.036776745
0.036974486
0.037176787
0.037383766
0.037595534
0.037812199