/*--------------------------------*- C++ -*----------------------------------*\
| =========                 |                                                 |
| \\      /  F ield         | OpenFOAM: The Open Source CFD Toolbox           |
|  \\    /   O peration     | Version:  2312                                  |
|   \\  /    A nd           | Website:  www.openfoam.com                      |
|    \\/     M anipulation  |                                                 |
\*---------------------------------------------------------------------------*/
FoamFile
{
    version     2.0;
    format      ascii;
    arch        "LSB;label=32;scalar=64";
    class       volScalarField;
    location    "0.06";
    object      O2;
}
// * * * * * * * * * * * * * * * * * * * * * * * * * * * * * * * * * * * * * //

dimensions      [0 0 0 0 0 0 0];

internalField   nonuniform List<scalar> 
3251
(
0.16010353
0.16076941
0.1614646
0.16218927
0.16294337
0.16372671
0.16453895
0.1653796
0.16624804
0.16714351
0.16806511
0.16901184
0.16998256
0.17097602
0.17199086
0.17302564
0.17407883
0.17514881
0.1762339
0.17733237
0.17844244
0.1795623
0.18069013
0.18182408
0.18296232
0.18410304
0.18524442
0.18638472
0.18752222
0.18865525
0.18978221
0.19090156
0.19201186
0.19311171
0.19419983
0.19527501
0.19633614
0.19738219
0.19841224
0.19942544
0.20042105
0.20139842
0.20235698
0.20329626
0.20421585
0.20511544
0.2059948
0.20685375
0.20769219
0.2085101
0.20930749
0.21008445
0.21084112
0.21157763
0.21229415
0.21299092
0.21366823
0.21432638
0.16011147
0.16077721
0.16147233
0.16219694
0.16295098
0.16373425
0.16454642
0.165387
0.16625536
0.16715074
0.16807226
0.1690189
0.16998952
0.17098288
0.17199762
0.1730323
0.17408537
0.17515523
0.1762402
0.17733855
0.17844849
0.17956822
0.18069591
0.18182973
0.18296783
0.18410841
0.18524965
0.1863898
0.18752715
0.18866003
0.18978685
0.19090605
0.1920162
0.19311591
0.19420388
0.19527892
0.1963399
0.19738581
0.19841571
0.19942878
0.20042425
0.20140149
0.20235992
0.20329907
0.20421854
0.20511801
0.20599725
0.20685609
0.20769443
0.20851223
0.20930952
0.21008638
0.21084294
0.21157934
0.21229576
0.21299245
0.21366968
0.21432775
0.16012602
0.16079157
0.16148655
0.16221104
0.16296496
0.16374812
0.16456015
0.16540059
0.16626881
0.16716405
0.16808541
0.16903189
0.17000234
0.17099552
0.17201007
0.17304456
0.17409743
0.17516708
0.17625184
0.17734996
0.17845968
0.17957918
0.18070663
0.1818402
0.18297806
0.18411838
0.18525937
0.18639926
0.18753635
0.18866897
0.18979552
0.19091447
0.19202435
0.19312379
0.19421151
0.19528628
0.19634701
0.19739266
0.19842231
0.19943513
0.20043036
0.20140735
0.20236555
0.20330447
0.20422371
0.20512297
0.206002
0.20686063
0.20769877
0.20851637
0.20931347
0.21009015
0.21084652
0.21158274
0.21229899
0.21299552
0.21367259
0.21433052
0.16014713
0.16081244
0.16150723
0.16223155
0.16298529
0.16376827
0.16458012
0.16542036
0.16628837
0.16718339
0.16810453
0.16905077
0.17002098
0.1710139
0.17202819
0.1730624
0.17411498
0.17518434
0.17626879
0.17736659
0.17847598
0.17959515
0.18072226
0.18185548
0.18299298
0.18413294
0.18527356
0.18641309
0.1875498
0.18868205
0.18980822
0.19092678
0.19203629
0.19313535
0.19422269
0.19529709
0.19635745
0.19740273
0.19843202
0.19944448
0.20043936
0.20141601
0.20237387
0.20331246
0.20423138
0.20513032
0.20600904
0.20686737
0.20770521
0.20852254
0.20931936
0.21009577
0.21085187
0.21158783
0.21230383
0.21300012
0.21367698
0.21433471
0.16017476
0.1608398
0.16153435
0.16225844
0.16301195
0.16379468
0.16460629
0.16544627
0.16631402
0.16720876
0.1681296
0.16907554
0.17004543
0.17103802
0.17205196
0.1730858
0.17413802
0.17520698
0.17629103
0.17738843
0.17849739
0.17961612
0.18074279
0.18187555
0.18301259
0.18415208
0.18529222
0.18643126
0.18756749
0.18869924
0.18982492
0.19094299
0.19205201
0.19315058
0.19423743
0.19531134
0.19637122
0.19741602
0.19844484
0.19945683
0.20045125
0.20142745
0.20238487
0.20332302
0.20424152
0.20514005
0.20601836
0.2068763
0.20771377
0.20853072
0.20932718
0.21010323
0.21085898
0.2115946
0.21231029
0.21300628
0.21368284
0.16020695
0.16087171
0.16156598
0.1622898
0.16304304
0.16382549
0.16463681
0.1654765
0.16634393
0.16723834
0.16815885
0.16910443
0.17007394
0.17106615
0.17207969
0.17311311
0.17416489
0.17523341
0.17631699
0.1774139
0.17852238
0.1796406
0.18076675
0.18189899
0.18303548
0.18417442
0.18531401
0.1864525
0.18758816
0.18871934
0.18984445
0.19096195
0.19207039
0.19316839
0.19425467
0.19532802
0.19638733
0.19743158
0.19845985
0.1994713
0.20046519
0.20144087
0.20239777
0.20333542
0.20425342
0.20515147
0.20602931
0.2068868
0.20772381
0.20854033
0.20933637
0.210112
0.21086736
0.21160259
0.2123179
0.21301353
0.21368976
0.16024278
0.16090724
0.16160121
0.16232473
0.16307767
0.16385982
0.16467081
0.16551016
0.16637725
0.1672713
0.16819143
0.16913661
0.17010571
0.17109749
0.17211058
0.17314354
0.17419483
0.17526285
0.17634592
0.1774423
0.17855022
0.17966788
0.18079345
0.18192511
0.18306101
0.18419934
0.18533831
0.18647617
0.18761121
0.18874176
0.18986623
0.19098309
0.19209089
0.19318826
0.19427391
0.19534663
0.19640532
0.19744895
0.19847661
0.19948746
0.20048076
0.20145585
0.20241218
0.20334927
0.20426673
0.20516424
0.20604156
0.20689853
0.20773505
0.20855109
0.20934665
0.21012183
0.21087674
0.21161154
0.21232643
0.21302167
0.21369751
0.1602851
0.16094921
0.16164283
0.162366
0.16311858
0.16390036
0.16471097
0.16554993
0.16641661
0.16731023
0.16822991
0.16917463
0.17014324
0.17113451
0.17214707
0.17317948
0.17423021
0.17529764
0.17638009
0.17747584
0.17858312
0.17970012
0.18082501
0.18195597
0.18309117
0.18422878
0.18536703
0.18650416
0.18763845
0.18876825
0.18989198
0.19100809
0.19211514
0.19321176
0.19429666
0.19536864
0.1964266
0.19746951
0.19849645
0.19950659
0.20049919
0.2014736
0.20242925
0.20336568
0.20428249
0.20517937
0.20605607
0.20691244
0.20774837
0.20856384
0.20935885
0.21013348
0.21088786
0.21162215
0.21233656
0.21303132
0.21370672
0.16033439
0.1609981
0.16169131
0.16241407
0.16316624
0.16394759
0.16475777
0.16559627
0.16646247
0.16735559
0.16827475
0.16921892
0.17018697
0.17117765
0.1721896
0.17322137
0.17427143
0.17533817
0.17641992
0.17751494
0.17862147
0.17973769
0.1808618
0.18199195
0.18312633
0.18426311
0.18540051
0.18653678
0.18767021
0.18879915
0.189922
0.19103724
0.19214342
0.19323917
0.1943232
0.19539432
0.19645142
0.19749349
0.19851959
0.19952891
0.20052069
0.2014943
0.20244918
0.20338484
0.20430089
0.20519703
0.20607302
0.20692869
0.20776394
0.20857873
0.2093731
0.2101471
0.21090087
0.21163457
0.2123484
0.21304262
0.16039118
0.16105443
0.16174719
0.16246948
0.16322117
0.16400203
0.1648117
0.16564967
0.16651532
0.16740787
0.16832643
0.16926998
0.17023738
0.17122737
0.17223861
0.17326965
0.17431895
0.1753849
0.17646583
0.17756001
0.17866567
0.17978101
0.1809042
0.18203343
0.18316686
0.18430268
0.18543911
0.1865744
0.18770684
0.18883478
0.18995662
0.19107086
0.19217603
0.19327078
0.19435382
0.19542395
0.19648006
0.19752115
0.1985463
0.19955466
0.20054551
0.2015182
0.20247217
0.20340695
0.20432214
0.20521743
0.20609259
0.20694745
0.20778191
0.20859594
0.20938956
0.21016284
0.2109159
0.21164892
0.2123621
0.21305569
0.16045605
0.16111879
0.16181102
0.16253278
0.16328393
0.16406423
0.16487332
0.16571069
0.16657571
0.1674676
0.16838548
0.16932831
0.17029496
0.17128418
0.17229461
0.17332481
0.17437323
0.17543828
0.17651828
0.1776115
0.17871617
0.1798305
0.18095266
0.18208082
0.18321317
0.1843479
0.18548322
0.18661738
0.18774869
0.18887549
0.18999619
0.19110928
0.19221331
0.19330692
0.19438881
0.19545781
0.19651281
0.19755278
0.19857683
0.19958411
0.2005739
0.20154554
0.20249847
0.20343224
0.20434644
0.20524076
0.20611498
0.20696891
0.20780248
0.20861563
0.2094084
0.21018085
0.21093311
0.21166535
0.21237778
0.1605296
0.16119176
0.16188341
0.16260457
0.1633551
0.16413477
0.16494319
0.16577988
0.16664419
0.16753534
0.16845244
0.16939446
0.17036027
0.17134861
0.17235812
0.17338736
0.1744348
0.17549883
0.17657777
0.1776699
0.17877345
0.17988663
0.18100761
0.18213458
0.18326571
0.18439919
0.18553325
0.18666615
0.18779617
0.18892168
0.19004109
0.19115288
0.19225561
0.19334791
0.19442852
0.19549624
0.19654996
0.19758868
0.19861148
0.19961754
0.20060611
0.20157656
0.20252833
0.20346095
0.20437403
0.20526726
0.2061404
0.20699329
0.20782584
0.208638
0.2094298
0.21020131
0.21095266
0.21168402
0.21239561
0.16061249
0.16127401
0.16196499
0.16268548
0.16343531
0.16421427
0.16502195
0.16585787
0.16672137
0.16761169
0.16852792
0.16946903
0.17043388
0.17142122
0.1724297
0.17345787
0.1745042
0.17556707
0.17664482
0.17773572
0.17883801
0.1799499
0.18106956
0.18219517
0.18332492
0.18445701
0.18558965
0.18672112
0.18784969
0.18897375
0.19009169
0.19120202
0.19230329
0.19339414
0.19447329
0.19553956
0.19659186
0.19762916
0.19865056
0.19965523
0.20064244
0.20161156
0.20256201
0.20349334
0.20440516
0.20529715
0.20616908
0.2070208
0.20785219
0.20866324
0.20945395
0.21022441
0.21097473
0.2117051
0.16070542
0.16136621
0.16205645
0.16277618
0.16352525
0.1643034
0.16511026
0.16594531
0.16680792
0.16769729
0.16861254
0.16955263
0.17051641
0.17150264
0.17250996
0.17353693
0.17458201
0.17564359
0.17672
0.17780953
0.1789104
0.18002084
0.18113901
0.18226311
0.18339132
0.18452184
0.1856529
0.18678275
0.18790971
0.18903214
0.19014845
0.19125714
0.19235676
0.19344598
0.1945235
0.19558816
0.19663885
0.19767456
0.19869439
0.19969752
0.2006832
0.20165082
0.2025998
0.20352968
0.20444008
0.20533069
0.20620127
0.20705166
0.20788177
0.20869157
0.20948107
0.21025034
0.21099951
0.21172877
0.16080912
0.1614691
0.16215853
0.16287742
0.16362563
0.16440289
0.16520882
0.16604291
0.16690451
0.16779284
0.16870699
0.16964594
0.17060853
0.17159352
0.17259955
0.17362517
0.17466885
0.17572899
0.17680391
0.17789191
0.1789912
0.18010002
0.18121654
0.18233895
0.18346543
0.18459421
0.18572349
0.18685155
0.18797671
0.18909731
0.1902118
0.19131866
0.19241646
0.19350385
0.19457956
0.19564241
0.19669131
0.19772525
0.19874333
0.19974473
0.20072872
0.20169466
0.20264199
0.20357027
0.20447909
0.20536815
0.20623722
0.20708614
0.20791482
0.20872322
0.20951136
0.21027932
0.2110272
0.1609244
0.16158349
0.16227201
0.16298998
0.16373722
0.16451349
0.1653184
0.16615142
0.1670119
0.16789907
0.168812
0.16974968
0.17071094
0.17169455
0.17269914
0.17372327
0.1747654
0.17582393
0.1768972
0.17798349
0.17908103
0.18018805
0.18130272
0.18242325
0.18354783
0.18467466
0.18580197
0.18692805
0.18805119
0.18916978
0.19028223
0.19138706
0.19248283
0.1935682
0.19464189
0.19570274
0.19674965
0.19778162
0.19879776
0.19979723
0.20077933
0.20174341
0.20268893
0.20361541
0.20452247
0.20540982
0.20627721
0.2071245
0.20795158
0.20875843
0.20954507
0.21031156
0.21105802
0.1610521
0.16171021
0.16239774
0.16311467
0.16386086
0.16463604
0.16543981
0.16627164
0.16713089
0.16801676
0.16892835
0.16986462
0.17082442
0.17180649
0.17280949
0.17383196
0.17487237
0.17592913
0.17700056
0.17808496
0.17918056
0.18028557
0.18139821
0.18251666
0.18363912
0.18476379
0.18588893
0.18701279
0.18813371
0.18925006
0.19036028
0.19146285
0.19255637
0.19363949
0.19471095
0.19576958
0.19681429
0.19784408
0.19885807
0.19985542
0.20083543
0.20179745
0.20274094
0.20366544
0.20457056
0.20545601
0.20632154
0.20716701
0.20799233
0.20879746
0.20958244
0.21034732
0.16119315
0.16185018
0.1625366
0.16325242
0.16399744
0.16477141
0.16557392
0.16640445
0.16726233
0.16814678
0.16905687
0.16999158
0.17094976
0.17193014
0.17293138
0.17395202
0.17499053
0.17604532
0.17711473
0.17819703
0.17929048
0.1803933
0.18150368
0.18261983
0.18373995
0.18486224
0.18598497
0.1871064
0.18822487
0.18933874
0.19044648
0.19154657
0.1926376
0.19371825
0.19478724
0.19584342
0.1968857
0.19791309
0.19892469
0.1999197
0.2008974
0.20185715
0.20279841
0.20372072
0.2046237
0.20550705
0.20637053
0.207214
0.20803736
0.2088406
0.20962374
0.21038686
0.16134851
0.16200436
0.16268958
0.16340416
0.1641479
0.16492054
0.16572167
0.16655075
0.16740713
0.16829
0.16919846
0.17013145
0.17108784
0.17206636
0.17306565
0.17408427
0.1751207
0.17617332
0.17724049
0.17832049
0.17941158
0.18051197
0.18161987
0.18273348
0.18385102
0.18497069
0.18609076
0.18720951
0.18832527
0.18943643
0.19054143
0.19163879
0.19272709
0.193805
0.19487128
0.19592476
0.19696436
0.19798911
0.19899809
0.19999052
0.20096567
0.20192292
0.20286173
0.20378163
0.20468225
0.20556329
0.20642451
0.20726577
0.20808699
0.20888814
0.20966927
0.21043044
0.16151923
0.1621738
0.16285771
0.16357092
0.16431326
0.16508444
0.16588405
0.16671155
0.16756627
0.16844742
0.16935407
0.17028518
0.17123959
0.17221606
0.17321322
0.17422962
0.17526375
0.17631399
0.1773787
0.17845617
0.17954465
0.18064237
0.18174754
0.18285837
0.18397307
0.18508987
0.18620702
0.18732282
0.18843561
0.18954378
0.19064577
0.19174012
0.19282542
0.19390034
0.19496363
0.19601415
0.19705081
0.19807265
0.19907876
0.20006835
0.20104071
0.20199522
0.20293133
0.20384858
0.20474661
0.20562511
0.20648385
0.20732269
0.20814154
0.2089404
0.20971931
0.21047833
0.16170643
0.1623596
0.16304209
0.16375382
0.16449462
0.1652642
0.16606214
0.1668879
0.16774081
0.16862006
0.16952472
0.17045376
0.17140602
0.17238023
0.17337505
0.17438901
0.17542061
0.17646825
0.17753026
0.17860495
0.17969057
0.18078536
0.18188754
0.18299531
0.1841069
0.18522054
0.18633449
0.18744706
0.18855659
0.18966148
0.19076019
0.19185124
0.19293324
0.19400487
0.1950649
0.19611216
0.19714561
0.19816425
0.19916722
0.2001537
0.201123
0.2020745
0.20300765
0.20392201
0.2048172
0.20569292
0.20654894
0.20738512
0.20820136
0.20899771
0.20977421
0.16191132
0.16256298
0.16324391
0.16395402
0.16469314
0.16546097
0.16625708
0.16708094
0.16793186
0.16880903
0.16971152
0.17063829
0.17158818
0.17255993
0.17355217
0.17456347
0.1755923
0.17663707
0.17769613
0.17876777
0.17985027
0.18094185
0.18204075
0.18314517
0.18425336
0.18536354
0.18647399
0.18758302
0.18868898
0.18979028
0.19088539
0.19197283
0.19305123
0.19411927
0.19517572
0.19621943
0.19724935
0.19826451
0.19926402
0.20024711
0.20121306
0.20216126
0.20309119
0.20400237
0.20489446
0.20576714
0.20662019
0.20745346
0.20826685
0.20906043
0.20983434
0.16213516
0.1627852
0.16346445
0.1641728
0.16491007
0.16567599
0.16647011
0.16729189
0.16814063
0.16901553
0.16991564
0.17083993
0.17178723
0.17275627
0.17374571
0.17475409
0.17577989
0.17682153
0.17787735
0.17894567
0.18002474
0.18111282
0.18220813
0.18330889
0.18441335
0.18551976
0.18662638
0.18773155
0.18883361
0.18993099
0.19102216
0.19210566
0.19318012
0.19424423
0.19529677
0.1963366
0.19736267
0.19837402
0.19936978
0.20034915
0.20131145
0.20225606
0.20318245
0.20409018
0.20497888
0.20584824
0.20669805
0.20752814
0.2083384
0.16237936
0.16302767
0.16370508
0.1644115
0.16514676
0.16591059
0.16670253
0.16752203
0.1683684
0.16924081
0.17013833
0.17105991
0.17200438
0.17297047
0.17395683
0.17496203
0.17598452
0.17702274
0.17807503
0.17913971
0.18021505
0.18129929
0.18239069
0.18348746
0.18458786
0.18569014
0.18679259
0.18789353
0.18899134
0.19008444
0.19117132
0.19225053
0.19332069
0.19438052
0.1954288
0.19646439
0.19748627
0.19849346
0.19948511
0.20046044
0.20141876
0.20235945
0.203282
0.20418596
0.20507096
0.20593672
0.206783
0.20760964
0.16264544
0.16329189
0.16396727
0.16467157
0.16540465
0.16616619
0.16695576
0.16777278
0.16861656
0.16948626
0.17038095
0.17129956
0.17224094
0.17320381
0.17418683
0.17518854
0.17620743
0.17724191
0.17829035
0.17935106
0.18042232
0.1815024
0.18258952
0.18368194
0.18477791
0.18587569
0.18697359
0.18806994
0.18916311
0.19025155
0.19133375
0.19240828
0.19347377
0.19452893
0.19557257
0.19660356
0.19762086
0.19862353
0.19961072
0.20058164
0.20153562
0.20247205
0.20339041
0.20429027
0.20517126
0.20603309
0.20687555
0.20769848
0.16231987
0.16293528
0.16357947
0.16425259
0.16495458
0.16568526
0.16644432
0.1672313
0.16804562
0.16888657
0.16975332
0.17064492
0.17156031
0.17249832
0.17345768
0.17443704
0.17543496
0.17644991
0.17748033
0.17852457
0.17958096
0.18064779
0.18172331
0.18280579
0.18389347
0.18498461
0.1860775
0.18717045
0.18826179
0.18934992
0.19043329
0.1915104
0.19257984
0.19364024
0.19469033
0.19572892
0.19675489
0.19776723
0.19876499
0.19974731
0.20071345
0.20166271
0.2025945
0.20350832
0.20440371
0.20528034
0.20613791
0.20697622
0.20779512
0.16263758
0.16325034
0.16389206
0.1645627
0.16526217
0.16599025
0.1667466
0.16753077
0.16834214
0.16918002
0.17004355
0.17093179
0.17184366
0.172778
0.17373354
0.17470893
0.17570271
0.17671339
0.17773937
0.17877905
0.17983073
0.18089273
0.1819633
0.18304072
0.18412325
0.18520915
0.18629672
0.18738427
0.18847017
0.18955282
0.19063068
0.19170227
0.19276617
0.19382104
0.19486562
0.19589873
0.19691926
0.1979262
0.19891862
0.19989568
0.20085661
0.20180075
0.20272751
0.20363639
0.20452694
0.20539883
0.20625178
0.20708557
0.20790008
0.16298224
0.16359236
0.16423142
0.16489939
0.16559612
0.16632137
0.16707478
0.16785588
0.16866406
0.16949859
0.17035862
0.1712432
0.17215124
0.17308159
0.17403297
0.17500403
0.17599332
0.17699934
0.17802051
0.17905521
0.18010179
0.18115853
0.18222373
0.18329565
0.18437257
0.18545277
0.18653456
0.18761627
0.18869626
0.18977296
0.19084484
0.19191042
0.19296832
0.19401719
0.19505579
0.19608295
0.19709758
0.19809866
0.19908529
0.20005662
0.20101192
0.20195051
0.20287181
0.20377533
0.20466064
0.20552739
0.20637532
0.20720421
0.20801396
0.16335588
0.16396323
0.16459947
0.16526456
0.16595832
0.1666805
0.16743072
0.16820849
0.16901319
0.16984408
0.1707003
0.1715809
0.17248479
0.1734108
0.17435765
0.175324
0.17630841
0.17730936
0.1783253
0.1793546
0.18039562
0.18144666
0.18250601
0.18357197
0.18464281
0.18571683
0.18679234
0.1878677
0.18894129
0.19001153
0.19107692
0.192136
0.19318738
0.19422975
0.19526187
0.19628258
0.1972908
0.19828555
0.1992659
0.20023103
0.20118022
0.20211279
0.20302818
0.2039259
0.20480552
0.20566671
0.2065092
0.20733279
0.20813735
0.16376062
0.16436503
0.16499825
0.16566023
0.16635078
0.16706964
0.1678164
0.16859055
0.16939148
0.17021841
0.1710705
0.17194677
0.17284614
0.17376743
0.17470937
0.17567061
0.1766497
0.17764515
0.17865541
0.17967885
0.18071383
0.18175868
0.1828117
0.18387118
0.18493542
0.18600273
0.18707145
0.18813993
0.18920656
0.19026981
0.19132817
0.1923802
0.19342453
0.19445985
0.19548496
0.19649868
0.19749998
0.19848785
0.19946141
0.20041984
0.2013624
0.20228847
0.20319746
0.20408889
0.20496236
0.20581753
0.20665413
0.20747198
0.20827094
0.1641987
0.16479997
0.16542995
0.16608858
0.16677567
0.16749093
0.16823393
0.16900417
0.16980099
0.17062364
0.17147123
0.1723428
0.17323726
0.17415343
0.17509003
0.17604571
0.17701904
0.17800852
0.17901261
0.18002969
0.18105813
0.18209626
0.18314241
0.18419487
0.18525196
0.186312
0.18737335
0.18843437
0.18949349
0.19054916
0.19159991
0.19264431
0.193681
0.19470871
0.19572622
0.19673239
0.19772619
0.19870663
0.19967284
0.20062401
0.20155943
0.20247845
0.20338053
0.20426517
0.20513199
0.20598064
0.20681088
0.20762251
0.20841541
0.16467252
0.16527042
0.16589691
0.16655194
0.16723529
0.16794665
0.16868559
0.16945157
0.17024394
0.17106193
0.17190465
0.17277112
0.17366024
0.17457084
0.17550165
0.1764513
0.17741838
0.17840138
0.17939877
0.18040896
0.1814303
0.18246116
0.18349986
0.18454471
0.18559406
0.18664624
0.18769961
0.18875256
0.18980354
0.19085102
0.19189353
0.19292968
0.19395812
0.19497759
0.19598689
0.1969849
0.19797059
0.19894301
0.19990128
0.20084461
0.2017723
0.20268372
0.20357832
0.20445564
0.20531526
0.20615689
0.20698025
0.20778516
0.20857151
0.16518461
0.16577889
0.16640163
0.16705277
0.16773207
0.16843922
0.16917375
0.16993513
0.17072267
0.1715356
0.17237303
0.17323396
0.1741173
0.17502186
0.17594638
0.17688949
0.17784978
0.17882576
0.1798159
0.18081861
0.18183227
0.18285524
0.18388587
0.1849225
0.18596347
0.18700713
0.18805187
0.1890961
0.19013828
0.1911769
0.19221052
0.19323775
0.19425727
0.19526784
0.19626827
0.19725747
0.19823441
0.19919816
0.20014786
0.20108274
0.20200209
0.2029053
0.20379184
0.20466123
0.20551311
0.20634714
0.20716308
0.20796075
0.20874003
0.16573766
0.16632804
0.16694675
0.16759369
0.16826863
0.16897121
0.16970098
0.17045735
0.17123966
0.17204711
0.1728788
0.17373372
0.17461078
0.17550879
0.17642648
0.1773625
0.17831544
0.17928381
0.18026609
0.1812607
0.18226603
0.18328048
0.18430238
0.1853301
0.186362
0.18739646
0.18843188
0.18946668
0.19049935
0.1915284
0.19255241
0.19357002
0.19457992
0.19558088
0.19657174
0.19755143
0.19851893
0.19947334
0.2004138
0.20133955
0.20224991
0.20314427
0.20402211
0.20488297
0.20572648
0.20655233
0.20736027
0.20815013
0.20892179
0.16633453
0.16692072
0.16753507
0.16817749
0.16884771
0.16954535
0.17026995
0.17102091
0.17179755
0.17259905
0.1734245
0.1742729
0.17514315
0.17603406
0.17694436
0.17787269
0.17881766
0.17977778
0.18075155
0.18173739
0.18273372
0.18373893
0.1847514
0.18576949
0.1867916
0.18781611
0.18884145
0.18986608
0.19088848
0.19190721
0.19292086
0.19392808
0.19492759
0.19591819
0.19689874
0.19786818
0.19882551
0.19976985
0.20070034
0.20161626
0.20251693
0.20340176
0.20427024
0.20512191
0.20595642
0.20677345
0.20757278
0.20835422
0.20911768
0.16697824
0.1675599
0.16816957
0.1688071
0.16947221
0.17016451
0.17088351
0.17162861
0.17239909
0.17319414
0.17401284
0.17485417
0.17571703
0.17660024
0.17750252
0.17842253
0.17935886
0.18031005
0.1812746
0.18225096
0.18323755
0.18423278
0.18523505
0.18624274
0.18725427
0.18826804
0.18928251
0.19029616
0.19130749
0.19231508
0.19331755
0.19431358
0.19530191
0.19628135
0.19725079
0.19820918
0.19915557
0.20008905
0.20100883
0.20191417
0.20280441
0.20367898
0.20453738
0.20537916
0.20620398
0.20701153
0.20780158
0.20857398
0.20932861
0.16767195
0.16824875
0.16885336
0.16948561
0.1701452
0.17083172
0.17154466
0.1722834
0.17304721
0.17383526
0.17464663
0.17548029
0.17633515
0.17721001
0.1781036
0.17901459
0.17994157
0.1808831
0.18183769
0.18280379
0.18377985
0.1847643
0.18575555
0.18675202
0.18775212
0.18875432
0.18975706
0.19075886
0.19175827
0.19275386
0.19374429
0.19472827
0.19570455
0.19667198
0.19762946
0.19857598
0.19951058
0.2004324
0.20134065
0.20223461
0.20311364
0.20397718
0.20482474
0.20565589
0.20647029
0.20726764
0.20804773
0.2088104
0.20955554
0.16841901
0.16899057
0.16958972
0.17021627
0.17086989
0.17155015
0.17225652
0.17298836
0.17374493
0.1745254
0.17532882
0.17615418
0.17700036
0.17786618
0.17875036
0.17965158
0.18056845
0.18149953
0.18244333
0.18339835
0.18436304
0.18533585
0.18631521
0.18729956
0.18828735
0.18927706
0.19026717
0.19125622
0.19224277
0.19322545
0.19420293
0.19517393
0.19613726
0.19709178
0.1980364
0.19897015
0.19989209
0.20080137
0.20169723
0.20257897
0.20344596
0.20429765
0.20513357
0.20595331
0.20675652
0.20754293
0.20831232
0.20906454
0.20979949
0.1692229
0.16978882
0.17038208
0.17100247
0.17164963
0.17232311
0.17302236
0.17374672
0.17449545
0.17526769
0.1760625
0.17687885
0.17771563
0.17857164
0.17944564
0.18033629
0.18124222
0.182162
0.18309416
0.1840372
0.18498962
0.18594986
0.1869164
0.18788769
0.18886222
0.18983848
0.19081498
0.19179031
0.19276304
0.19373183
0.19469538
0.19565245
0.19660186
0.1975425
0.19847332
0.19939335
0.2003017
0.20119753
0.20208009
0.20294871
0.20380278
0.20464176
0.20546519
0.20627268
0.20706389
0.20783856
0.20859648
0.2093375
0.21006152
0.17008726
0.1706471
0.171234
0.17184772
0.17248788
0.17315401
0.17384555
0.17456181
0.17530203
0.17606535
0.17685082
0.17765741
0.17848401
0.17932942
0.18019239
0.18107161
0.18196571
0.18287328
0.18379286
0.18472299
0.18566216
0.18660886
0.18756158
0.18851881
0.18947906
0.19044084
0.19140272
0.19236328
0.19332116
0.19427503
0.19522362
0.19616573
0.1971002
0.19802595
0.19894196
0.19984728
0.20074105
0.20162245
0.20249077
0.20334532
0.20418554
0.2050109
0.20582096
0.20661532
0.20739368
0.20815577
0.20890139
0.20963041
0.21034273
0.17101584
0.17156911
0.17214913
0.17275564
0.17338823
0.1740464
0.17472957
0.17543704
0.17616804
0.1769217
0.17769706
0.17849307
0.17930864
0.18014257
0.18099362
0.18186049
0.18274181
0.18363619
0.18454221
0.18545841
0.1863833
0.18731542
0.18825326
0.18919536
0.19014025
0.19108648
0.19203264
0.19297735
0.19391928
0.19485714
0.19578969
0.19671575
0.1976342
0.19854399
0.19944413
0.2003337
0.20121185
0.20207781
0.20293086
0.20377037
0.20459576
0.20540654
0.20620228
0.20698259
0.20774719
0.20849582
0.20922829
0.20994446
0.21064425
0.17201247
0.17255866
0.17313125
0.17372995
0.17435434
0.17500389
0.17567799
0.17637593
0.17709694
0.17784012
0.17860452
0.17938909
0.18019272
0.18101424
0.18185241
0.18270592
0.18357345
0.18445362
0.18534501
0.1862462
0.18715573
0.18807215
0.188994
0.18991983
0.19084822
0.19177775
0.19270704
0.19363475
0.19455958
0.19548028
0.19639563
0.19730451
0.19820581
0.19909852
0.19998167
0.20085439
0.20171584
0.20256528
0.20340201
0.20422542
0.20503497
0.20583017
0.20661059
0.2073759
0.20812579
0.20886003
0.20957844
0.21028088
0.21096729
0.17308108
0.17361961
0.17418417
0.17477443
0.17538992
0.17603012
0.1766944
0.17738202
0.1780922
0.17882404
0.17957657
0.18034875
0.18113948
0.18194759
0.18277184
0.18361095
0.18446361
0.18532845
0.1862041
0.18708913
0.18798213
0.18888168
0.18978635
0.19069473
0.19160541
0.19251703
0.19342825
0.19433775
0.19524427
0.1961466
0.19704356
0.19793405
0.19881702
0.19969147
0.20055648
0.20141119
0.2022548
0.20308659
0.2039059
0.20471213
0.20550476
0.20628332
0.20704741
0.20779669
0.20853088
0.20924976
0.20995316
0.21064094
0.21131306
0.17422559
0.17475587
0.17531174
0.17589285
0.17649872
0.17712879
0.17778242
0.17845886
0.17915731
0.17987687
0.18061657
0.18137536
0.18215216
0.18294578
0.18375502
0.18457861
0.18541525
0.1862636
0.1871223
0.18798997
0.18886523
0.18974667
0.19063291
0.19152257
0.19241429
0.19330674
0.19419861
0.19508863
0.19597558
0.19685827
0.19773559
0.19860645
0.19946984
0.2003248
0.20117045
0.20200595
0.20283054
0.20364351
0.20444424
0.20523216
0.20600675
0.20676757
0.20751425
0.20824645
0.20896391
0.20966641
0.2103538
0.21102597
0.21168284
0.17544994
0.17597129
0.17651777
0.17708898
0.17768443
0.17830354
0.17894564
0.17960999
0.18029575
0.18100203
0.18172786
0.1824722
0.18323395
0.18401196
0.18480502
0.1856119
0.18643131
0.18726193
0.18810244
0.18895148
0.1898077
0.19066974
0.19153625
0.19240588
0.19327732
0.19414927
0.19502047
0.19588969
0.19675574
0.19761749
0.19847385
0.19932378
0.20016631
0.20100051
0.20182553
0.20264058
0.2034449
0.20423785
0.2050188
0.20578722
0.20654261
0.20728456
0.20801269
0.20872671
0.20942636
0.21011143
0.21078178
0.2114373
0.21207795
0.17675799
0.17726971
0.17780603
0.17836655
0.17895073
0.17955798
0.18018762
0.18083888
0.18151093
0.18220288
0.18291374
0.18364248
0.18438803
0.18514923
0.1859249
0.18671382
0.18751472
0.18832632
0.18914732
0.18997641
0.19081225
0.19165353
0.19249894
0.19334718
0.19419696
0.19504703
0.19589619
0.19674323
0.19758702
0.19842646
0.19926051
0.20008817
0.2009085
0.20172062
0.2025237
0.20331699
0.20409978
0.20487143
0.20563136
0.20637906
0.20711405
0.20783593
0.20854437
0.20923906
0.20991976
0.2105863
0.21123852
0.21187635
0.21249974
0.17815353
0.17865486
0.17918022
0.17972918
0.18030119
0.18089563
0.1815118
0.18214894
0.18280621
0.1834827
0.18417744
0.1848894
0.18561752
0.18636065
0.18711765
0.18788729
0.18866836
0.18945959
0.19025972
0.19106746
0.19188153
0.19270065
0.19352355
0.19434896
0.19517566
0.19600244
0.19682813
0.19765157
0.19847168
0.19928741
0.20009775
0.20090174
0.20169849
0.20248716
0.20326696
0.20403716
0.20479709
0.20554615
0.20628377
0.20700947
0.20772281
0.20842341
0.20911093
0.20978511
0.2104457
0.21109255
0.21172552
0.21234454
0.21294957
0.17964024
0.18013038
0.18064393
0.18118043
0.18173931
0.18231994
0.1829216
0.18354353
0.18418488
0.18484474
0.18552214
0.18621608
0.18692549
0.18764926
0.18838624
0.18913526
0.18989511
0.19066457
0.1914424
0.19222737
0.19301822
0.19381372
0.19461265
0.19541378
0.19621593
0.19701794
0.19781869
0.19861708
0.19941205
0.20020261
0.20098779
0.20176669
0.20253844
0.20330225
0.20405737
0.2048031
0.20553881
0.20626392
0.20697791
0.20768031
0.2083707
0.20904873
0.20971409
0.21036652
0.21100579
0.21163176
0.21224429
0.21284332
0.18122171
0.18169983
0.18220068
0.18272378
0.18326854
0.18383432
0.18442039
0.18502597
0.18565022
0.18629223
0.18695105
0.18762567
0.18831504
0.18901809
0.18973367
0.19046065
0.19119786
0.1919441
0.19269818
0.19345889
0.19422504
0.19499542
0.19576887
0.1965442
0.1973203
0.19809603
0.19887033
0.19964215
0.20041049
0.20117438
0.20193292
0.20268525
0.20343054
0.20416804
0.20489703
0.20561686
0.20632694
0.20702672
0.20771569
0.20839343
0.20905954
0.20971369
0.21035558
0.21098498
0.21160168
0.21220551
0.21279637
0.18290157
0.18336681
0.18385405
0.18436277
0.18489239
0.18544223
0.18601158
0.18659964
0.18720557
0.18782847
0.1884674
0.18912137
0.18978935
0.19047027
0.19116304
0.19186653
0.19257962
0.19330115
0.19402996
0.19476489
0.1955048
0.19624852
0.19699493
0.19774292
0.19849139
0.19923929
0.19998559
0.20072928
0.20146943
0.20220513
0.20293549
0.20365972
0.20437703
0.20508671
0.20578809
0.20648056
0.20716354
0.20783653
0.20849907
0.20915073
0.20979116
0.21042005
0.21103713
0.21164216
0.21223497
0.2128154
0.18468362
0.18513511
0.18560779
0.18610114
0.18661456
0.18714736
0.18769882
0.18826815
0.1888545
0.189457
0.1900747
0.19070664
0.19135181
0.19200916
0.19267763
0.19335614
0.19404358
0.19473885
0.19544084
0.19614842
0.19686049
0.19757595
0.19829372
0.19901275
0.19973198
0.20045043
0.2011671
0.20188107
0.20259142
0.20329731
0.2039979
0.20469244
0.2053802
0.2060605
0.20673272
0.20739627
0.20805064
0.20869533
0.20932993
0.20995404
0.21056734
0.21116953
0.21176036
0.21233964
0.2129072
0.21346293
0.18657211
0.18700895
0.18746612
0.18794308
0.1884392
0.18895382
0.18948619
0.19003553
0.19060101
0.19118174
0.19177682
0.19238529
0.19300617
0.19363844
0.19428108
0.19493303
0.19559324
0.19626063
0.19693415
0.19761272
0.19829529
0.19898082
0.19966826
0.20035663
0.20104494
0.20173223
0.20241758
0.20310012
0.20377899
0.20445338
0.20512253
0.20578572
0.20644226
0.20709153
0.20773295
0.20836597
0.20899011
0.20960492
0.21021
0.21080501
0.21138963
0.2119636
0.21252669
0.21307874
0.21361959
0.21414915
0.1885721
0.18899336
0.18943401
0.1898935
0.19037119
0.19086641
0.19137842
0.19190644
0.19244965
0.19300719