/*--------------------------------*- C++ -*----------------------------------*\
| =========                 |                                                 |
| \\      /  F ield         | OpenFOAM: The Open Source CFD Toolbox           |
|  \\    /   O peration     | Version:  2312                                  |
|   \\  /    A nd           | Website:  www.openfoam.com                      |
|    \\/     M anipulation  |                                                 |
\*---------------------------------------------------------------------------*/
FoamFile
{
    version     2.0;
    format      ascii;
    arch        "LSB;label=32;scalar=64";
    class       surfaceScalarField;
    location    "0.06";
    object      phi;
}
// * * * * * * * * * * * * * * * * * * * * * * * * * * * * * * * * * * * * * //

dimensions      [1 0 -1 0 0 0 0];

oriented        oriented;

internalField   nonuniform List<scalar> 
6378
(
8.5767909e-08
1.5750755e-09
8.4025002e-08
1.563876e-09
8.2288384e-08
1.5525382e-09
8.0558536e-08
1.5409114e-09
7.8835878e-08
1.5289987e-09
7.7120796e-08
1.5168151e-09
7.541366e-08
1.5043794e-09
7.3714818e-08
1.4917091e-09
7.2024608e-08
1.4788148e-09
7.0343348e-08
1.4657119e-09
6.8671347e-08
1.4524055e-09
6.7008896e-08
1.4389102e-09
6.5356273e-08
1.4252282e-09
6.3713745e-08
1.4113733e-09
6.2081563e-08
1.3973457e-09
6.045997e-08
1.3831576e-09
5.8849194e-08
1.3688076e-09
5.7249454e-08
1.3543055e-09
5.5660958e-08
1.3396481e-09
5.4083907e-08
1.3248427e-09
5.2518489e-08
1.3098841e-09
5.0964887e-08
1.2947765e-09
4.9423273e-08
1.2795126e-09
4.7893814e-08
1.264093e-09
4.6376667e-08
1.248508e-09
4.4871983e-08
1.2327546e-09
4.3379907e-08
1.2168203e-09
4.1900575e-08
1.2006982e-09
4.0434116e-08
1.1843732e-09
3.8980651e-08
1.1678346e-09
3.7540296e-08
1.1510647e-09
3.6113154e-08
1.1340496e-09
3.4699323e-08
1.1167698e-09
3.3298892e-08
1.0992088e-09
3.1911939e-08
1.0813463e-09
3.0538533e-08
1.0631649e-09
2.9178731e-08
1.0446458e-09
2.7832581e-08
1.0257724e-09
2.650012e-08
1.0065304e-09
2.5181371e-08
9.8690798e-10
2.3876344e-08
9.6690049e-10
2.2585037e-08
9.46507e-10
2.1307432e-08
9.2574069e-10
2.0043496e-08
9.0461939e-10
1.8793189e-08
8.8318257e-10
1.7556463e-08
8.6147745e-10
1.6333267e-08
8.3958826e-10
1.5123565e-08
8.1755704e-10
1.392736e-08
7.9525038e-10
1.2744616e-08
7.7289532e-10
1.1575304e-08
7.5020306e-10
1.0419312e-08
7.2700174e-10
9.276384e-09
7.0326598e-10
8.1465403e-09
6.7982872e-10
7.029926e-09
6.5697637e-10
5.9266661e-09
6.3480034e-10
4.8368632e-09
6.133758e-10
5.9273479e-10
8.5761915e-08
2.9506227e-09
8.4019305e-08
2.9251523e-09
8.2282976e-08
2.8993694e-09
8.0553404e-08
2.8731027e-09
7.8831012e-08
2.8463614e-09
7.7116187e-08
2.8191714e-09
7.5409297e-08
2.7915641e-09
7.3710693e-08
2.7635704e-09
7.2020711e-08
2.7352146e-09
7.0339671e-08
2.7065243e-09
6.866788e-08
2.6775172e-09
6.700563e-08
2.6482191e-09
6.5353199e-08
2.6186448e-09
6.3710853e-08
2.5888186e-09
6.2078845e-08
2.5587532e-09
6.0457416e-08
2.5284713e-09
5.8846796e-08
2.4979836e-09
5.7247204e-08
2.4673105e-09
5.5658847e-08
2.4364608e-09
5.4081926e-08
2.4054519e-09
5.2516631e-08
2.3742906e-09
5.0963143e-08
2.3429911e-09
4.9421636e-08
2.3115572e-09
4.7892275e-08
2.2799992e-09
4.6375218e-08
2.2483178e-09
4.4870618e-08
2.2165188e-09
4.3378616e-08
2.1845988e-09
4.1899351e-08
2.1525587e-09
4.0432951e-08
2.1203908e-09
3.8979538e-08
2.0880907e-09
3.7539226e-08
2.0556462e-09
3.611212e-08
2.0230476e-09
3.4698319e-08
1.9902784e-09
3.329791e-08
1.9573246e-09
3.1910972e-08
1.9241665e-09
3.0537574e-08
1.8907868e-09
2.9177776e-08
1.8571647e-09
2.7831625e-08
1.8232821e-09
2.6499159e-08
1.7891205e-09
2.5180402e-08
1.7546652e-09
2.3875368e-08
1.7199056e-09
2.2584055e-08
1.6848374e-09
2.1306449e-08
1.6494665e-09
2.0042519e-08
1.6138068e-09
1.8792228e-08
1.5778906e-09
1.7555531e-08
1.5417618e-09
1.6332382e-08
1.5055047e-09
1.5122738e-08
1.4691565e-09
1.3926582e-08
1.432584e-09
1.2743894e-08
1.3960641e-09
1.157463e-08
1.3593358e-09
1.0418699e-08
1.3223232e-09
9.2759062e-09
1.2850396e-09
8.1462563e-09
1.24818e-09
7.0298767e-09
1.2121005e-09
5.9268775e-09
1.1769508e-09
4.8373588e-09
1.1428344e-09
1.1097989e-09
8.5748925e-08
4.3247028e-09
8.4006923e-08
4.2849701e-09
8.2271177e-08
4.2447272e-09
8.0542173e-08
4.2038113e-09
7.8820332e-08
4.1622375e-09
7.7106042e-08
4.1200392e-09
7.5399669e-08
4.0772601e-09
7.3701564e-08
4.0339415e-09
7.2012062e-08
3.9901234e-09
7.0331483e-08
3.9458429e-09
6.8660134e-08
3.9011329e-09
6.6998307e-08
3.8560277e-09
6.534628e-08
3.8105573e-09
6.3704321e-08
3.7647541e-09
6.207268e-08
3.7186458e-09
6.04516e-08
3.6722631e-09
5.8841311e-08
3.6256315e-09
5.7242033e-08
3.5787794e-09
5.5653973e-08
3.5317301e-09
5.4077332e-08
3.4845093e-09
5.2512301e-08
3.4371376e-09
5.0959061e-08
3.3896374e-09
4.9417786e-08
3.3420257e-09
4.7888642e-08
3.2943209e-09
4.6371789e-08
3.2465356e-09
4.4867377e-08
3.1986831e-09
4.3375551e-08
3.1507708e-09
4.1896447e-08
3.1028059e-09
4.0430196e-08
3.0547898e-09
3.8976919e-08
3.0067231e-09
3.7536732e-08
2.9586002e-09
3.610974e-08
2.9104152e-09
3.4696041e-08
2.8621557e-09
3.3295725e-08
2.8138092e-09
3.1908871e-08
2.7653576e-09
3.0535549e-08
2.7167833e-09
2.917582e-08
2.6680645e-09
2.7829734e-08
2.6191812e-09
2.6497329e-08
2.5701112e-09
2.5178632e-08
2.5208373e-09
2.387366e-08
2.4713426e-09
2.2582415e-08
2.4216201e-09
2.1304885e-08
2.3716678e-09
2.0041047e-08
2.3214974e-09
1.8790865e-08
2.2711318e-09
1.7554294e-08
2.2206172e-09
1.6331296e-08
2.1700276e-09
1.5121837e-08
2.1193934e-09
1.3925872e-08
2.0686211e-09
1.2743393e-08
2.0179822e-09
1.157436e-08
1.9672665e-09
1.0418695e-08
1.91648e-09
9.2762549e-09
1.8656798e-09
8.1470403e-09
1.8154699e-09
7.0311571e-09
1.7662376e-09
5.9287017e-09
1.7181935e-09
4.8397788e-09
1.6714704e-09
1.6260983e-09
8.5729518e-08
5.6969513e-09
8.3988432e-08
5.6429683e-09
8.2253574e-08
5.5882614e-09
8.0525434e-08
5.5326965e-09
7.8804435e-08
5.4762934e-09
7.7090964e-08
5.4190924e-09
7.5385385e-08
5.3611489e-09
7.3688048e-08
5.3025137e-09
7.1999286e-08
5.2432426e-09
7.031942e-08
5.1833806e-09
6.8648754e-08
5.1229775e-09
6.6987582e-08
5.0620742e-09
6.5336179e-08
5.0007176e-09
6.3694814e-08
4.9389462e-09
6.2063737e-08
4.8768048e-09
6.0443193e-08
4.8143298e-09
5.8833408e-08
4.7515636e-09
5.7234605e-08
4.6885406e-09
5.5646991e-08
4.6253004e-09
5.4070769e-08
4.5618752e-09
5.2506127e-08
4.4983009e-09
5.0953251e-08
4.4346067e-09
4.9412313e-08
4.3708242e-09
4.7883482e-08
4.3069782e-09
4.6366916e-08
4.2430948e-09
4.4862769e-08
4.1791933e-09
4.3371185e-08
4.1152932e-09
4.1892303e-08
4.0514068e-09
4.0426253e-08
3.9875456e-09
3.8973159e-08
3.9237142e-09
3.7533138e-08
3.859915e-09
3.6106296e-08
3.7961441e-09
3.4692734e-08
3.732395e-09
3.3292542e-08
3.6686554e-09
3.1905803e-08
3.6049102e-09
3.0532588e-08
3.5411405e-09
2.9172961e-08
3.4773246e-09
2.7826975e-08
3.4134399e-09
2.6494671e-08
3.3494618e-09
2.5176082e-08
3.2853693e-09
2.3871226e-08
3.2211413e-09
2.2580111e-08
3.1567666e-09
2.1302732e-08
3.0922368e-09
2.003907e-08
3.0275602e-09
1.8789095e-08
2.9627531e-09
1.755277e-08
2.8978606e-09
1.633006e-08
2.8329462e-09
1.5120935e-08
2.7680407e-09
1.3925336e-08
2.7030996e-09
1.2743274e-08
2.6383564e-09
1.1574702e-08
2.5736829e-09
1.041956e-08
2.5091398e-09
9.2777477e-09
2.4448312e-09
8.1492701e-09
2.3813057e-09
7.0342123e-09
2.3189668e-09
5.9326539e-09
2.2580817e-09
4.8446915e-09
2.1988162e-09
8.5704471e-08
7.0670494e-09
8.3964563e-08
6.9988242e-09
8.2230857e-08
6.929652e-09
8.0503849e-08
6.8594359e-09
7.8783963e-08
6.7882041e-09
7.7071583e-08
6.7160065e-09
7.5367069e-08
6.6429082e-09
7.3670769e-08
6.5689697e-09
7.1983011e-08
6.4942602e-09
7.0304115e-08
6.4188346e-09
6.8634383e-08
6.3427569e-09
6.6974105e-08
6.2660771e-09
6.5323557e-08
6.1888561e-09
6.3683005e-08
6.1111412e-09
6.2052698e-08
6.0329909e-09
6.0432879e-08
5.9544504e-09
5.8823777e-08
5.8755756e-09
5.7225611e-08
5.7964097e-09
5.563859e-08
5.7170054e-09
5.4062915e-08
5.6374036e-09
5.2498778e-08
5.5576532e-09
5.0946363e-08
5.4777919e-09
4.9405845e-08
5.3978633e-09
4.7877393e-08
5.3179007e-09
4.6361168e-08
5.2379413e-09
4.4857325e-08
5.158012e-09
4.3366011e-08
5.0781421e-09
4.1887366e-08
4.9983506e-09
4.0421525e-08
4.9186573e-09
3.8968613e-08
4.8390719e-09
3.752875e-08
4.7596031e-09
3.6102048e-08
4.6802507e-09
3.468861e-08
4.601012e-09
3.3288531e-08
4.5218766e-09
3.1901897e-08
4.442831e-09
3.0528786e-08
4.363856e-09
2.9169266e-08
4.2849295e-09
2.7823395e-08
4.2060268e-09
2.649122e-08
4.127121e-09
2.517278e-08
4.0481878e-09
2.3868102e-08
3.9692021e-09
2.2577198e-08
3.8901485e-09
2.1300074e-08
3.8110136e-09
2.0036717e-08
3.7318017e-09
1.8787106e-08
3.6525245e-09
1.755121e-08
3.5732255e-09
1.6329001e-08
3.4939583e-09
1.5120453e-08
3.4147588e-09
1.3925504e-08
3.3356364e-09
1.2744164e-08
3.2567801e-09
1.1576395e-08
3.178142e-09
1.0422155e-08
3.0998319e-09
9.281372e-09
3.0220017e-09
8.1540506e-09
2.9451718e-09
7.0402548e-09
2.8697555e-09
5.9400506e-09
2.796063e-09
2.7242865e-09
7.5862029e-08
8.2781758e-09
7.4322604e-08
8.1973335e-09
7.2788656e-08
8.1153478e-09
7.1260625e-08
8.0321573e-09
6.9738885e-08
7.9477967e-09
6.8223774e-08
7.8623239e-09
6.671561e-08
7.7758124e-09
6.5214696e-08
7.6883333e-09
6.3721322e-08
7.5999659e-09
6.2235764e-08
7.5107755e-09
6.075829e-08
7.4208363e-09
5.9289152e-08
7.3302084e-09
5.7828594e-08
7.2389628e-09
5.6376846e-08
7.1471566e-09
5.493413e-08
7.0548579e-09
5.3500658e-08
6.9621216e-09
5.2076632e-08
6.8690131e-09
5.0662244e-08
6.7755851e-09
4.9257681e-08
6.6818996e-09
4.7863119e-08
6.588007e-09
4.6478729e-08
6.493965e-09
4.5104673e-08
6.3998204e-09
4.3741109e-08
6.3056254e-09
4.2388187e-08
6.2114218e-09
4.1046051e-08
6.1172547e-09
3.9714841e-08
6.0231588e-09
3.8394689e-08
5.9291704e-09
3.7085723e-08
5.835315e-09
3.5788063e-08
5.7416185e-09
3.4501827e-08
5.6480953e-09
3.3227122e-08
5.5547593e-09
3.1964052e-08
5.461613e-09
3.0712712e-08
5.3686573e-09
2.9473193e-08
5.2758827e-09
2.8245575e-08
5.1832779e-09
2.7029932e-08
5.0908226e-09
2.5826329e-08
4.9984954e-09
2.4634825e-08
4.9062688e-09
2.3455468e-08
4.8141155e-09
2.2288298e-08
4.7220069e-09
2.1133346e-08
4.6299169e-09
1.9990631e-08
4.5378247e-09
1.8860163e-08
4.4457155e-09
1.7741942e-08
4.3535884e-09
1.6635953e-08
4.2614548e-09
1.5542179e-08
4.1693531e-09
1.4460597e-08
4.0773372e-09
1.3391181e-08
3.9854506e-09
1.2333888e-08
3.8937376e-09
1.128872e-08
3.8023659e-09
1.0255649e-08
3.7113512e-09
9.2346489e-09
3.6208389e-09
8.2256781e-09
3.5310246e-09
7.2287408e-09
3.4424193e-09
6.2438723e-09
3.3554502e-09
5.2711157e-09
3.2704538e-09
3.1876407e-09
7.7939312e-08
9.5206415e-09
7.6358547e-08
9.426848e-09
7.4783383e-08
9.3317057e-09
7.3214277e-08
9.2351885e-09
7.1651617e-08
9.1373422e-09
7.009575e-08
9.0382343e-09
6.8547001e-08
8.9379474e-09
6.7005681e-08
8.8365624e-09
6.5472086e-08
8.7341688e-09
6.3946502e-08
8.6308428e-09
6.2429201e-08
8.5266688e-09
6.0920444e-08
8.4217176e-09
5.9420478e-08
8.3160702e-09
5.7929543e-08
8.2097938e-09
5.6447865e-08
8.1029665e-09
5.4975662e-08
7.9956531e-09
5.3513141e-08
7.8879285e-09
5.2060502e-08
7.7798553e-09
5.0617935e-08
7.6715049e-09
4.9185623e-08
7.5629371e-09
4.776374e-08
7.454219e-09
4.6352456e-08
7.3454062e-09
4.4951932e-08
7.23656e-09
4.3562322e-08
7.1277303e-09
4.2183776e-08
7.0189707e-09
4.0816438e-08
6.9103231e-09
3.9460445e-08
6.8018314e-09
3.8115928e-08
6.6935274e-09
3.6783013e-08
6.5854431e-09
3.5461819e-08
6.4775979e-09
3.415246e-08
6.3700105e-09
3.2855042e-08
6.2626867e-09
3.1569664e-08
6.1556307e-09
3.029642e-08
6.0488343e-09
2.9035394e-08
5.9422881e-09
2.7786664e-08
5.8359714e-09
2.6550297e-08
5.7298631e-09
2.5326357e-08
5.623934e-09
2.4114893e-08
5.5181559e-09
2.2915951e-08
5.4124969e-09
2.1729563e-08
5.3069296e-09
2.0555754e-08
5.201429e-09
1.9394537e-08
5.0959786e-09
1.8245914e-08
4.9905738e-09
1.7109878e-08
4.8852252e-09
1.5986412e-08
4.7799687e-09
1.4875497e-08
4.6748585e-09
1.3777108e-08
4.5699486e-09
1.2691206e-08
4.4653162e-09
1.1617787e-08
4.3611177e-09
1.0556834e-08
4.2574228e-09
9.5083324e-09
4.1544125e-09
8.4722574e-09
4.052327e-09
7.448611e-09
3.9516831e-09
6.4374189e-09
3.8529164e-09
5.4387169e-09
3.7563849e-09
3.6622678e-09
8.0076224e-08
1.0795004e-08
7.8453131e-08
1.0687929e-08
7.6835754e-08
1.057929e-08
7.5224572e-08
1.0469094e-08
7.3619987e-08
1.0357402e-08
7.2022361e-08
1.0244292e-08
7.0432029e-08
1.0129857e-08
6.8849312e-08
1.0014187e-08
6.7274517e-08
9.8973836e-09
6.5707939e-08
9.779533e-09
6.4149858e-08
9.6607308e-09
6.2600544e-08
9.5410588e-09
6.1060254e-08
9.4206083e-09
5.9529235e-08
9.2994573e-09
5.8007721e-08
9.177694e-09
5.6495937e-08
9.0553937e-09
5.4994097e-08
8.9326413e-09
5.3502408e-08
8.8095096e-09
5.2021065e-08
8.6860799e-09
5.0550258e-08
8.5624219e-09
4.9090166e-08
8.4386121e-09
4.7640964e-08
8.3147158e-09
4.6202816e-08
8.1908033e-09
4.4775883e-08
8.0669334e-09
4.3360317e-08
7.9431681e-09
4.1956264e-08
7.8195573e-09
4.0563865e-08
7.6961524e-09
3.9183253e-08
7.572992e-09
3.7814556e-08
7.4501143e-09
3.6457895e-08
7.3275444e-09
3.5113385e-08
7.2053056e-09
3.3781132e-08
7.0834075e-09
3.2461236e-08
6.9618575e-09
3.1153791e-08
6.8406499e-09
2.9858882e-08
6.7197765e-09
2.8576584e-08
6.5992173e-09
2.7306967e-08
6.4789514e-09
2.6050091e-08
6.3589485e-09
2.4806008e-08
6.2391794e-09
2.357476e-08
6.1196103e-09
2.2356382e-08
6.0002118e-09
2.1150896e-08
5.8809562e-09
1.9958317e-08
5.761825e-09
1.8778648e-08
5.6428107e-09
1.7611881e-08
5.5239233e-09
1.6458003e-08
5.405197e-09
1.5316993e-08
5.2866884e-09
1.4188826e-08
5.1684642e-09
1.3073471e-08
5.0506271e-09
1.1970921e-08
4.9333363e-09
1.0881163e-08
4.8167098e-09
9.8041995e-09
4.7009576e-09
8.740027e-09
4.5863626e-09
7.6886489e-09
4.473461e-09
6.6500775e-09
4.3627006e-09
5.6243378e-09
4.2544505e-09
8.2273524e-08
1.2101808e-08
8.0607095e-08
1.1981114e-08
7.89465e-08
1.1858629e-08
7.7292237e-08
1.1734395e-08
7.5644729e-08
1.1608486e-08
7.4004351e-08
1.1480995e-08
7.2371453e-08
1.1352024e-08
7.0746366e-08
1.1221675e-08
6.912941e-08
1.109006e-08
6.7520888e-08
1.0957277e-08
6.5921095e-08
1.0823433e-08
6.4330307e-08
1.0688622e-08
6.2748793e-08
1.0552944e-08
6.1176806e-08
1.0416492e-08
5.9614592e-08
1.0279362e-08
5.806238e-08
1.0141642e-08
5.6520396e-08
1.0003426e-08
5.4988849e-08
9.8647994e-09
5.3467945e-08
9.7258516e-09
5.1957876e-08
9.5866654e-09
5.0458829e-08
9.4473248e-09
4.897098e-08
9.3079076e-09
4.7494502e-08
9.1684912e-09
4.6029556e-08
9.0291461e-09
4.4576298e-08
8.8899411e-09
4.3134877e-08
8.7509364e-09
4.1705435e-08
8.6121895e-09
4.0288107e-08
8.4737479e-09
3.8883021e-08
8.3356551e-09
3.7490298e-08
8.1979431e-09
3.6110053e-08
8.0606395e-09
3.4742391e-08
7.9237589e-09
3.3387411e-08
7.7873119e-09
3.2045206e-08
7.6512954e-09
3.0715856e-08
7.5157033e-09
2.9399437e-08
7.3805164e-09
2.8096014e-08
7.2457148e-09
2.6805646e-08
7.1112671e-09
2.552838e-08
6.9771445e-09
2.4264258e-08
6.8433103e-09
2.3013309e-08
6.7097355e-09
2.1775556e-08
6.5763883e-09
2.0551008e-08
6.4432507e-09
1.9339669e-08
6.3103108e-09
1.8141529e-08
6.1775807e-09
1.6956573e-08
6.0450913e-09
1.5784781e-08
5.9129054e-09
1.4626128e-08
5.781101e-09
1.3480583e-08
5.6498085e-09
1.2348138e-08
5.519194e-09
1.122879e-08
5.3894186e-09
1.0122559e-08
5.2607166e-09
9.0294556e-09
5.1334178e-09
7.9494793e-09
5.0080884e-09
6.8826317e-09
4.8851838e-09
4.7650436e-09
8.4531773e-08
1.3441528e-08
8.2821027e-08
1.330687e-08
8.1116235e-08
1.3170184e-08
7.9417918e-08
1.3031541e-08
7.7726518e-08
1.2891033e-08
7.6042426e-08
1.2748768e-08
7.4366008e-08
1.2604858e-08
7.2697608e-08
1.245942e-08
7.1037557e-08
1.2312575e-08
6.9386171e-08
1.2164436e-08
6.7743753e-08
1.2015118e-08
6.6110593e-08
1.1864732e-08
6.4486967e-08
1.1713386e-08
6.287314e-08
1.1561187e-08
6.1269365e-08
1.1408241e-08
5.9675881e-08
1.125465e-08
5.809292e-08
1.1100516e-08
5.6520699e-08
1.0945939e-08
5.4959429e-08
1.0791016e-08
5.3409309e-08
1.0635845e-08
5.1870532e-08
1.0480518e-08
5.0343278e-08
1.0325124e-08
4.8827722e-08
1.016975e-08
4.732403e-08
1.0014478e-08
4.5832361e-08
9.8593837e-09
4.4352865e-08
9.7045388e-09
4.2885685e-08
9.5500072e-09
4.1430957e-08
9.3958456e-09
3.998881e-08
9.2421033e-09
3.8559363e-08
9.0888199e-09
3.7142729e-08
8.9360272e-09
3.5739014e-08
8.783746e-09
3.4348313e-08
8.6319895e-09
3.2970715e-08
8.4807589e-09
3.1606298e-08
8.3300497e-09
3.0255135e-08
8.179845e-09
2.8917287e-08
8.0301251e-09
2.7592806e-08
7.8808596e-09
2.6281739e-08
7.732019e-09
2.498412e-08
7.5835666e-09
2.3699976e-08
7.4354717e-09
2.2429323e-08
7.2877017e-09
2.1172171e-08
7.1402373e-09
1.9928516e-08
6.9930651e-09
1.8698347e-08
6.8461975e-09
1.7481649e-08
6.6996654e-09
1.6278399e-08
6.5535372e-09
1.5088569e-08
6.4079065e-09
1.3912134e-08
6.2629244e-09
1.2749082e-08
6.118779e-09
1.1599418e-08
5.9756662e-09
1.0463176e-08
5.8338404e-09
9.3403882e-09
5.6936742e-09
8.2310443e-09
5.5557828e-09
7.1351315e-09
5.4206229e-09
8.6851177e-08
1.4814554e-08
8.5095177e-08
1.4665575e-08
8.3345254e-08
1.4514321e-08
8.1601951e-08
1.4360889e-08
7.9865731e-08
1.420539e-08
7.8137003e-08
1.4047947e-08
7.6416148e-08
1.3888686e-08
7.4703523e-08
1.3727736e-08
7.2999472e-08
1.356523e-08
7.1304324e-08
1.3401295e-08
6.9618393e-08
1.323606e-08
6.7941979e-08
1.3069647e-08
6.627537e-08
1.2902178e-08
6.461884e-08
1.2733772e-08
6.2972649e-08
1.2564547e-08
6.1337048e-08
1.2394617e-08
5.9712274e-08
1.2224097e-08
5.8098553e-08
1.2053099e-08
5.6496101e-08
1.1881733e-08
5.4905124e-08
1.1710106e-08
5.3325819e-08
1.1538322e-08
5.1758373e-08
1.1366483e-08
5.0202962e-08
1.1194685e-08
4.8659757e-08
1.1023021e-08
4.7128918e-08
1.0851577e-08
4.5610597e-08
1.0680433e-08
4.4104938e-08
1.0509664e-08
4.2612079e-08
1.0339332e-08
4.1132145e-08
1.0169496e-08
3.9665258e-08
1.0000202e-08
3.8211528e-08
9.8314872e-09
3.6771056e-08
9.6633784e-09
3.5343938e-08
9.4958924e-09
3.3930256e-08
9.3290354e-09
3.2530088e-08
9.162804e-09
3.1143499e-08
8.9971856e-09
2.9770547e-08
8.8321599e-09
2.841128e-08
8.6676998e-09
2.7065737e-08
8.5037738e-09
2.5733949e-08
8.3403478e-09
2.4415939e-08
8.1773883e-09
2.3111715e-08
8.0148648e-09
2.1821285e-08
7.8527545e-09
2.0544639e-08
7.6910469e-09
1.9281765e-08
7.5297511e-09
1.8032644e-08
7.3689035e-09
1.6797252e-08
7.2085749e-09
1.5575561e-08
7.0488805e-09
1.4367546e-08
6.8899896e-09
1.3173194e-08
6.7321225e-09
1.1992521e-08
6.5754993e-09
1.0825577e-08
6.4203961e-09
9.672408e-09
6.2672286e-09
8.5329869e-09
6.1166793e-09
5.9691621e-09
8.9231732e-08
1.6221178e-08
8.7429582e-08
1.605752e-08
8.5633629e-08
1.5891325e-08
8.3844445e-08
1.5722716e-08
8.2062511e-08
1.5551825e-08
8.0288256e-08
1.537879e-08
7.8522076e-08
1.5203753e-08
7.6764343e-08
1.5026857e-08
7.5015413e-08
1.4848248e-08
7.3275627e-08
1.4668069e-08
7.1545312e-08
1.448646e-08
6.9824779e-08
1.4303558e-08
6.8114327e-08
1.4119499e-08
6.6414238e-08
1.3934413e-08
6.4724785e-08
1.3748433e-08
6.3046224e-08
1.3561687e-08
6.1378802e-08
1.3374302e-08
5.9722752e-08
1.3186402e-08
5.8078297e-08
1.2998109e-08
5.644565e-08
1.2809544e-08
5.4825011e-08
1.2620823e-08
5.3216572e-08
1.2432059e-08
5.1620514e-08
1.224336e-08
5.003701e-08
1.205483e-08
4.8466223e-08
1.1866565e-08
4.6908307e-08
1.1678655e-08
4.5363407e-08
1.1491184e-08
4.3831659e-08
1.1304224e-08
4.231319e-08
1.1117841e-08
4.0808119e-08
1.0932089e-08
3.9316554e-08
1.0747011e-08
3.7838594e-08
1.0562641e-08
3.6374331e-08
1.0378998e-08
3.4923845e-08
1.0196096e-08
3.3487207e-08
1.0013932e-08
3.2064479e-08
9.8324982e-09
3.0655713e-08
9.6517758e-09
2.9260951e-08
9.4717393e-09
2.7880229e-08
9.2923586e-09
2.651357e-08
9.1136003e-09
2.5160991e-08
8.9354314e-09
2.3822498e-08
8.7578217e-09
2.2498089e-08
8.5807488e-09
2.1187754e-08
8.404202e-09
1.9891476e-08
8.2281921e-09
1.8609235e-08
8.0527574e-09
1.7341005e-08
7.8779781e-09
1.608676e-08
7.7039868e-09
1.4846478e-08
7.5309757e-09
1.3620143e-08
7.3592052e-09
1.2407776e-08
7.188918e-09
1.1209453e-08
7.0204026e-09
1.0025233e-08
6.8541237e-09
8.8550646e-09
6.6908482e-09
9.1673203e-08
1.7661609e-08
8.9824041e-08
1.7482902e-08
8.79812e-08
1.7301387e-08
8.6145272e-08
1.7117208e-08
8.4316763e-08
1.6930516e-08
8.2496119e-08
1.6741469e-08
8.0683753e-08
1.6550223e-08
7.8880052e-08
1.635694e-08
7.7085385e-08
1.6161778e-08
7.5300106e-08
1.5964896e-08
7.3524555e-08
1.5766447e-08
7.1759054e-08
1.5566584e-08
7.0003912e-08
1.5365456e-08
6.8259424e-08
1.516321e-08
6.652587e-08
1.495999e-08
6.4803517e-08
1.4755939e-08
6.3092619e-08
1.4551197e-08
6.1393418e-08
1.4345903e-08
5.9706143e-08
1.4140192e-08
5.8031013e-08
1.3934198e-08
5.6368234e-08
1.3728049e-08
5.4718003e-08
1.3521871e-08
5.3080504e-08
1.3315784e-08
5.1455914e-08
1.3109903e-08
4.9844398e-08
1.2904336e-08
4.8246111e-08
1.2699185e-08
4.66612e-08
1.249454e-08
4.50898e-08
1.2290486e-08
4.3532037e-08
1.2087096e-08
4.1988029e-08
1.1884431e-08
4.0457881e-08
1.1682542e-08
3.8941691e-08
1.1481469e-08
3.7439545e-08
1.1281238e-08
3.595152e-08
1.1081865e-08
3.4477682e-08
1.0883354e-08
3.3018087e-08
1.0685699e-08
3.1572782e-08
1.0488885e-08
3.0141805e-08
1.0292888e-08
2.8725184e-08
1.009768e-08
2.7322936e-08
9.9032296e-09
2.5935073e-08
9.7095051e-09
2.4561596e-08
9.5164771e-09
2.3202497e-08
9.3241245e-09
2.1857762e-08
9.1324376e-09
2.0527371e-08
8.9414291e-09
1.9211302e-08
8.7511404e-09
1.7909534e-08
8.5616615e-09
1.6622039e-08
8.3731461e-09
1.5348799e-08
8.1858123e-09
1.4089797e-08
7.9999674e-09
1.2845065e-08
7.8158719e-09
1.1614698e-08
7.633829e-09
1.0398773e-08
7.4543574e-09
7.2782902e-09
9.4175191e-08
1.9135957e-08
9.227819e-08
1.8941833e-08
9.0387629e-08
1.8744614e-08
8.8504125e-08
1.8544464e-08
8.6628206e-08
1.8341557e-08
8.476034e-08
1.813607e-08
8.2900953e-08
1.7928178e-08
8.1050448e-08
1.7718057e-08
7.9209209e-08
1.7505884e-08
7.7377604e-08
1.7291831e-08
7.5555983e-08
1.7076069e-08
7.3744683e-08
1.6858764e-08
7.1944024e-08
1.6640082e-08
7.0154311e-08
1.6420183e-08
6.8375834e-08
1.6199228e-08
6.660887e-08
1.5977374e-08
6.4853682e-08
1.5754776e-08
6.311052e-08
1.5531586e-08
6.1379619e-08
1.5307956e-08
5.9661206e-08
1.508403e-08
5.7955492e-08
1.4859954e-08
5.6262679e-08
1.4635863e-08
5.4582956e-08
1.4411893e-08
5.2916501e-08
1.4188169e-08
5.1263482e-08
1.3964812e-08
4.9624058e-08
1.3741933e-08
4.7998372e-08
1.3519636e-08
4.6386563e-08
1.3298013e-08
4.4788755e-08
1.3077148e-08
4.3205063e-08
1.2857109e-08
4.1635591e-08
1.2637955e-08
4.0080432e-08
1.2419733e-08
3.8539668e-08
1.2202476e-08
3.7013373e-08
1.1986204e-08
3.5501606e-08
1.1770927e-08
3.400442e-08
1.1556642e-08
3.2521854e-08
1.1343337e-08
3.1053941e-08
1.1130994e-08
2.9600702e-08
1.0919585e-08
2.8162148e-08
1.0709082e-08
2.6738286e-08
1.0499456e-08
2.5329109e-08
1.0290679e-08
2.3934606e-08
1.0082731e-08
2.2554758e-08
9.8756063e-09
2.1189543e-08
9.6693176e-09
1.983894e-08
9.4639129e-09
1.8502929e-08
9.2594918e-09
1.7181492e-08
9.0562284e-09
1.5874611e-08
8.8543759e-09
1.4582269e-08
8.6542922e-09
1.3304506e-08
8.4562616e-09
1.2041442e-08
8.2605952e-09
1.0793175e-08
8.0678837e-09
9.673717e-08
2.0644246e-08
9.4791535e-08
2.0434332e-08
9.2852454e-08
2.022102e-08
9.0920571e-08
2.0004495e-08
8.8996438e-08
1.9784954e-08
8.708054e-08
1.9562593e-08
8.5173322e-08
1.933761e-08
8.3275203e-08
1.9110196e-08
8.1386581e-08
1.8880545e-08
7.9507838e-08
1.8648847e-08
7.7639338e-08
1.8415288e-08
7.578143e-08
1.8180053e-08
7.3934447e-08
1.7943321e-08
7.2098703e-08
1.770527e-08
7.0274502e-08
1.7466076e-08
6.8462128e-08
1.7225911e-08
6.6661855e-08
1.6984948e-08
6.487394e-08
1.6743352e-08
6.3098628e-08
1.6501291e-08
6.1336149e-08
1.6258924e-08
5.9586723e-08
1.601641e-08
5.7850555e-08
1.5773899e-08
5.6127839e-08
1.5531541e-08
5.4418757e-08
1.5289473e-08
5.272348e-08
1.5047828e-08
5.1042165e-08
1.480673e-08
4.937496e-08
1.4566294e-08
4.7722e-08
1.4326622e-08
4.6083409e-08
1.4087806e-08
4.4459301e-08
1.3849926e-08
4.2849775e-08
1.3613048e-08
4.1254923e-08
1.3377226e-08
3.9674821e-08
1.31425e-08
3.8109537e-08
1.2908897e-08
3.6559126e-08
1.2676431e-08
3.5023635e-08
1.2445104e-08
3.3503096e-08
1.221491e-08
3.1997537e-08
1.1985832e-08
3.050697e-08
1.1757849e-08
2.9031403e-08
1.1530934e-08
2.7570833e-08
1.1305061e-08
2.612525e-08
1.1080206e-08
2.4694636e-08
1.0856352e-08
2.3278969e-08
1.0633494e-08
2.1878226e-08
1.0411651e-08
2.0492389e-08
1.0190873e-08
1.9121443e-08
9.9712716e-09
1.7765379e-08
9.7530453e-09
1.6424184e-08
9.5364847e-09
1.5097842e-08
9.322009e-09
1.3786396e-08
9.1099279e-09
1.2489992e-08
8.9005692e-09
8.6945834e-09
9.9358531e-08
2.2186398e-08
9.7363497e-08
2.196032e-08
9.5375127e-08
2.1730524e-08
9.3394092e-08
2.1497215e-08
9.1420967e-08
2.1260614e-08
8.9456258e-08
2.1020943e-08
8.7500428e-08
2.0778415e-08
8.5553912e-08
2.0533247e-08
8.3617123e-08
2.0285645e-08
8.1690457e-08
2.0035821e-08
7.9774295e-08
1.9783975e-08
7.7868995e-08
1.9530312e-08
7.5974905e-08
1.9275026e-08
7.4092351e-08
1.9018314e-08
7.2221647e-08
1.8760368e-08
7.0363088e-08
1.8501378e-08
6.8516958e-08
1.8241529e-08
6.6683522e-08
1.7981009e-08
6.4863033e-08
1.7719996e-08
6.3055729e-08
1.7458669e-08
6.1261835e-08
1.7197198e-08
5.9481562e-08
1.6935753e-08
5.7715108e-08
1.6674492e-08
5.5962659e-08
1.6413571e-08
5.4224387e-08
1.6153133e-08
5.2500451e-08
1.5893317e-08
5.0791001e-08
1.5634246e-08
4.9096169e-08
1.5376037e-08
4.741608e-08
1.5118791e-08
4.5750842e-08
1.4862596e-08
4.4100555e-08
1.460753e-08
4.2465303e-08
1.4353653e-08
4.084516e-08
1.4101012e-08
3.9240187e-08
1.3849641e-08
3.7650435e-08
1.3599562e-08
3.6075942e-08
1.335078e-08
3.4516735e-08
1.3103297e-08
3.2972834e-08
1.2857098e-08
3.1444246e-08
1.2612167e-08
2.9930972e-08
1.2368482e-08
2.8433001e-08
1.2126021e-08
2.6950318e-08
1.1884763e-08
2.54829e-08
1.1644696e-08
2.4030721e-08
1.1405817e-08
2.2593758e-08
1.1168151e-08
2.1171995e-08
1.0931751e-08
1.976543e-08
1.0696742e-08
1.8374073e-08
1.046334e-08
1.6997907e-08
1.0231897e-08
1.5636925e-08
1.0002879e-08
1.4291169e-08
9.7766419e-09
1.2960803e-08
9.5535459e-09
1.020386e-07
2.3762235e-08
9.9993435e-08
2.3519619e-08
9.7955039e-08
2.3272942e-08
9.592411e-08
2.3022435e-08
9.3901248e-08
2.2768346e-08
9.1886981e-08
2.251092e-08
8.9881788e-08
2.2250393e-08
8.7886122e-08
2.1987e-08
8.5900411e-08
2.172097e-08
8.3925068e-08
2.145253e-08
8.1960486e-08
2.1181901e-08
8.0007039e-08
2.0909303e-08
7.8065087e-08
2.0634952e-08
7.6134971e-08
2.0359062e-08
7.4217013e-08
2.0081842e-08
7.2311522e-08
1.98035e-08
7.0418789e-08
1.9524241e-08
6.853909e-08
1.9244266e-08
6.6672686e-08
1.8963773e-08
6.4819823e-08
1.8682957e-08
6.2980731e-08
1.8402003e-08
6.1155628e-08
1.8121097e-08
5.9344716e-08
1.7840414e-08
5.7548184e-08
1.7560121e-08
5.5766206e-08
1.7280379e-08
5.3998944e-08
1.7001336e-08
5.2246546e-08
1.6723131e-08
5.0509145e-08
1.6445891e-08
4.8786863e-08
1.6169728e-08
4.7079807e-08
1.5894742e-08
4.5388071e-08
1.5621017e-08
4.3711736e-08
1.5348626e-08
4.205087e-08
1.5077621e-08
4.040553e-08
1.4808046e-08
3.8775758e-08
1.4539927e-08
3.7161586e-08
1.4273278e-08
3.5563036e-08
1.4008104e-08
3.3980118e-08
1.3744399e-08
3.2412833e-08
1.348215e-08
3.0861175e-08
1.322134e-08
2.9325127e-08
1.2961953e-08
2.7804667e-08
1.2703972e-08
2.6299767e-08
1.2447391e-08
2.4810398e-08
1.2192212e-08
2.3336536e-08
1.1938464e-08
2.1878176e-08
1.1686204e-08
2.043533e-08
1.1435569e-08
1.9008019e-08
1.1186801e-08
1.7596258e-08
1.0940295e-08
1.6200019e-08
1.0696601e-08
1.4819342e-08
1.0456112e-08
1.0219198e-08
1.0477663e-07
2.5371466e-08
1.0268064e-07
2.5111937e-08
1.0059152e-07
2.484798e-08
9.8509988e-08
2.4579858e-08
9.643668e-08
2.4307846e-08
9.4372141e-08
2.4032216e-08
9.2316869e-08
2.3753228e-08
9.0271333e-08
2.3471138e-08
8.8235979e-08
2.3186193e-08
8.6211236e-08
2.2898641e-08
8.4197511e-08
2.2608724e-08
8.2195194e-08
2.231668e-08
8.0204657e-08
2.2022745e-08
7.8226255e-08
2.1727151e-08
7.6260323e-08
2.1430127e-08
7.4307181e-08
2.11319e-08
7.236713e-08
2.0832694e-08
7.0440456e-08
2.0532728e-08
6.8527428e-08
2.0232217e-08
6.66283e-08
1.9931374e-08
6.474331e-08
1.9630403e-08
6.2872679e-08
1.9329504e-08
6.1016616e-08
1.9028869e-08
5.9175312e-08
1.8728681e-08
5.7348945e-08
1.8429114e-08
5.5537676e-08
1.8130332e-08
5.3741655e-08
1.7832485e-08
5.1961013e-08
1.7535715e-08
5.019587e-08
1.7240144e-08
4.844633e-08
1.6945884e-08
4.6712483e-08
1.6653029e-08
4.4994405e-08
1.6361661e-08
4.329216e-08
1.6071843e-08
4.1605795e-08
1.5783624e-08
3.9935348e-08
1.5497039e-08
3.8280843e-08
1.5212111e-08
3.6642293e-08
1.4928848e-08
3.5019703e-08
1.4647253e-08
3.3413066e-08
1.4367319e-08
3.1822367e-08
1.4089034e-08
3.0247584e-08
1.3812389e-08
2.8688688e-08
1.3537373e-08
2.7145647e-08
1.3263985e-08
2.5618427e-08
1.2992235e-08
2.410701e-08
1.2722156e-08
2.2611392e-08
1.2453817e-08
2.1131611e-08
1.2187354e-08
1.9667724e-08
1.192303e-08
1.8219749e-08
1.1661311e-08
1.6787653e-08
1.1402823e-08
1.5371495e-08
1.1147953e-08
1.0897027e-08
1.0757177e-07
2.7013681e-08
1.0542431e-07
2.6736864e-08
1.032838e-07
2.6455224e-08
1.0115101e-07
2.6169063e-08
9.9026583e-08
2.587869e-08
9.6911097e-08
2.5584405e-08
9.4805067e-08
2.5286489e-08
9.2708979e-08
2.4985222e-08
9.0623298e-08
2.4680872e-08
8.8548468e-08
2.4373707e-08
8.6484912e-08
2.4063989e-08
8.4433037e-08
2.375198e-08
8.2393228e-08
2.3437933e-08
8.0365852e-08
2.3122102e-08
7.835126e-08
2.2804737e-08
7.6349781e-08
2.2486084e-08
7.4361729e-08
2.2166387e-08
7.2387399e-08
2.1845884e-08
7.0427071e-08
2.1524811e-08
6.8481004e-08
2.1203397e-08
6.6549445e-08
2.0881865e-08
6.4632621e-08
2.0560434e-08
6.2730744e-08
2.023931e-08
6.084401e-08
1.9918695e-08
5.8972598e-08
1.9598778e-08
5.7116672e-08
1.9279737e-08
5.527638e-08
1.8961738e-08
5.3451853e-08
1.8644933e-08
5.1643208e-08
1.832946e-08
4.9850546e-08
1.8015441e-08
4.8073952e-08
1.7702982e-08
4.6313497e-08
1.7392174e-08
4.4569238e-08
1.7083091e-08
4.2841217e-08
1.677579e-08
4.1129462e-08
1.6470315e-08
3.9433992e-08
1.6166696e-08
3.7754811e-08
1.586495e-08
3.6091915e-08
1.5565086e-08
3.4445291e-08
1.5267104e-08
3.2814916e-08
1.4971001e-08
3.1200761e-08
1.4676772e-08
2.9602791e-08
1.4384416e-08
2.8020968e-08
1.4093939e-08
2.6455258e-08
1.3805359e-08
2.4905639e-08
1.3518719e-08
2.3372132e-08
1.3234086e-08
2.1854788e-08
1.2951617e-08
2.0353701e-08
1.2671586e-08
1.8868938e-08
1.2394504e-08
1.7400418e-08
1.2121131e-08
1.5948176e-08
1.1851811e-08
1.1586709e-08
1.1042305e-07
2.8688341e-08
1.082235e-07
2.8393861e-08
1.0603099e-07
2.8094126e-08
1.0384632e-07
2.77895e-08
1.0167015e-07
2.7480325e-08
9.9503089e-08
2.7166926e-08