/*--------------------------------*- C++ -*----------------------------------*\
| =========                 |                                                 |
| \\      /  F ield         | OpenFOAM: The Open Source CFD Toolbox           |
|  \\    /   O peration     | Version:  2312                                  |
|   \\  /    A nd           | Website:  www.openfoam.com                      |
|    \\/     M anipulation  |                                                 |
\*---------------------------------------------------------------------------*/
FoamFile
{
    version     2.0;
    format      ascii;
    arch        "LSB;label=32;scalar=64";
    class       volScalarField;
    location    "0.06";
    object      Qdot;
}
// * * * * * * * * * * * * * * * * * * * * * * * * * * * * * * * * * * * * * //

dimensions      [1 -1 -3 0 0 0 0];

internalField   nonuniform List<scalar> 
3251
(
446272.51
420964.19
395810.58
370886.2
346276.87
322074.19
298373.2
275269.97
252859.16
231231.77
210472.83
190659.36
171858.5
154125.89
137504.5
122023.72
107699.01
94531.868
82510.271
71609.504
61793.31
53015.325
45220.728
38348.008
32330.781
27099.595
22583.627
18712.242
15416.365
12629.629
10289.291
8336.9172
6718.845
5386.4336
4296.1384
3409.4328
2692.6077
2116.4815
1656.0462
1290.0767
1000.7238
773.1089
594.93313
456.11116
348.43567
265.27598
201.31208
152.30349
114.89124
86.430428
64.85005
48.535612
36.235796
26.992634
20.067618
14.891968
11.032363
8.1601133
445832.69
420549.44
395417.36
370513.96
345925.74
321744.21
298064.3
274981.96
252591.76
230984.59
210245.4
190451.11
171668.76
153953.92
137349.46
121884.72
107575.1
94422.045
82413.513
71524.772
61719.563
52951.539
45165.905
38301.186
32291.047
27066.092
22555.557
18688.876
15397.038
12613.743
10276.316
8326.3852
6710.3486
5379.6208
4290.7081
3405.1296
2689.2173
2113.8252
1653.9763
1288.4723
999.48654
772.15941
594.20782
455.55946
348.01763
264.96028
201.07431
152.1248
114.75719
86.330029
64.77496
48.479956
36.196542
26.965664
20.048847
14.878795
11.023028
8.1533717
445028.74
419789.76
394698.49
369834.93
345286.33
321144.21
297503.37
274459.61
252107.37
230537.36
209834.37
190075.16
171326.59
153644.11
137070.44
121634.81
107352.52
94224.96
82240.03
71372.982
61587.565
52837.462
45067.932
38217.574
32220.144
27006.347
22505.534
18647.258
15362.633
12585.479
10253.24
8307.6619
6695.249
5367.5163
4281.0616
3397.4864
2683.1954
2109.1068
1650.2991
1285.6214
997.28745
770.47128
592.91792
454.57817
347.27417
264.39914
200.65224
151.80834
114.52062
86.153719
64.644014
48.383545
36.127079
26.916228
20.013614
14.853621
11.004997
8.140473
443865.55
418688.74
393657.03
368851.92
344361.3
320276.7
296692.8
273705.2
251408.12
229892.06
209241.58
189533.19
170833.55
153197.88
136668.73
121275.16
107032.33
93941.549
81990.651
71154.865
61397.954
52673.65
44927.29
38097.584
32118.421
26920.656
22433.807
18587.598
15313.322
12544.978
10220.18
8280.8421
6673.6227
5350.1816
4267.2481
3386.5419
2674.5727
2102.3505
1645.0334
1281.5387
994.1378
768.05321
591.07011
453.17238
346.20917
263.5955
200.04809
151.35576
114.18277
85.902414
64.457852
48.246654
36.027669
26.844614
19.962106
14.816568
10.97834
8.1216074
442346.87
417249.83
392296.08
367567.81
343153.37
319144.28
295635.03
272721.01
250496.17
229050.72
208468.9
188826.95
170191.24
152616.71
136145.67
120806.98
106615.63
93572.801
81666.258
70871.202
61151.416
52460.7
44744.499
37941.665
31986.263
26809.347
22340.651
18510.127
15249.3
12492.4
10177.269
8246.0333
6645.557
5327.6871
4249.3241
3372.3412
2663.3848
2093.5843
1638.2012
1276.2412
990.05084
764.91538
588.67219
451.34807
344.82717
262.55282
199.26446
150.76902
113.74507
85.577145
64.217172
48.06969
35.898661
26.75114
19.894552
14.767769
10.943056
440582.89
415577.63
390714.48
366075.83
341750.23
317829.14
294406.87
271578.53
249437.77
228074.46
207572.5
188007.8
169446.38
151942.88
135539.33
120264.36
106132.76
93145.574
81290.485
70542.665
60865.926
52214.145
44532.894
37761.195
31833.318
26680.548
22232.871
18420.506
15175.246
12431.59
10127.642
8205.7814
6613.1053
5301.679
4228.6014
3355.924
2650.451
2083.4502
1630.3029
1270.1171
985.32612
761.28784
585.90002
449.23906
343.22956
261.34758
198.35882
150.09112
113.23957
85.20168
63.939498
47.865473
35.749446
26.642675
19.815936
14.710821
10.901519
438625.66
413721.82
388959.22
364420.25
340193.47
316370.24
293044.66
270311.54
248264.2
226992.13
206578.86
187099.92
168620.96
151196.28
134867.61
119663.3
105597.96
92672.467
80874.413
70178.944
60549.901
51941.252
44298.713
37561.494
31664.093
26538.054
22113.644
18321.375
15093.34
12364.339
10072.764
8161.2727
6577.2237
5272.9236
4205.6907
3337.774
2636.1525
2072.2471
1621.5714
1263.347
980.10296
757.2776
582.83536
446.90752
341.46343
260.01531
197.35783
149.34196
112.68104
84.786931
63.632826
47.639857
35.584379
26.522466
19.728645
14.647507
10.855469
436323.91
411539.08
386894.79
362473.23
338362.89
314654.96
291443.28
268822.3
246884.94
225720.28
205411.39
186033.34
167651.38
150319.4
134078.78
118957.56
104970.1
92117.1
80386.06
69752.087
60179.063
51621.065
44023.978
37327.236
31465.605
26370.937
21973.827
18205.135
14997.308
12285.494
10008.43
8109.0981
6535.1647
5239.2192
4178.8382
3316.502
2619.3949
2059.1174
1611.3386
1255.4128
973.98162
752.5777
579.24364
444.17503
339.39361
258.45399
196.18483
148.46414
112.02668
84.301058
63.273575
47.375466
35.390757
26.38126
19.625982
14.573009
10.801603
433655.21
409008.28
384501.23
360215.98
336240.85
312666.82
289587.37
267096.57
245286.86
224246.83
204059.03
184798.02
166528.55
149304.06
133165.5
118140.57
104243.36
91474.359
79820.944
69258.193
59750.038
51250.681
43706.206
37056.311
31236.074
26177.701
21812.174
18070.753
14886.296
12194.357
9934.071
8048.7974
6486.5577
5200.2694
4147.8077
3291.921
2600.031
2043.9458
1599.5144
1246.2447
966.90833
747.14685
575.09327
441.01748
337.00182
256.64982
194.82942
147.44988
111.27063
83.739695
62.858467
47.069857
35.166776
26.217734
19.506947
14.486579
430596.59
406107.72
381758.05
357629.22
333809.27
310388.9
287461.21
265119.78
243456.52
222559.44
202510.51
183383.69
165243.19
148141.89
132120.29
117205.69
103411.85
90739.044
79174.515
68693.303
59259.398
50827.153
43342.881
36746.58
30973.693
25956.832
21627.42
17917.181
14759.441
12090.223
9849.113
7979.9056
6431.0285
5155.7747
4112.3611
3263.8425
2577.9123
2026.6162
1586.0083
1235.7725
958.82875
740.94326
570.35226
437.41053
334.26958
254.58884
193.28108
146.29123
110.40695
83.098379
62.384159
46.720532
34.910576
26.030508
19.370504
14.387283
427124.62
402815.25
378644.37
354693.3
331049.74
307804.03
285048.81
262877.12
241380.26
220645.57
200754.37
181779.96
163785.87
146824.42
130935.56
116146.15
102469.6
89905.908
78442.183
68053.425
58703.696
50347.519
42931.472
36395.898
30676.652
25706.811
21418.302
17743.373
14615.882
11972.385
9752.9811
7901.9575
6368.2029
5105.4358
4072.26
3232.078
2552.8903
2007.012
1570.7296
1223.9256
949.68845
733.92507
564.98856
433.32972
331.1783
252.25697
191.5292
144.98024
109.42966
82.372612
61.847269
46.324964
34.620277
25.818183
19.215588
423215.53
399108.44
375139.04
351388.32
327943.61
304894.8
282334.01
260353.64
239044.31
218492.61
198779.11
179976.35
162147.15
145343.15
129603.73
114955.22
101410.64
88969.706
77619.364
67334.579
58079.493
49808.827
42469.461
36002.129
30343.151
25426.132
21183.564
17548.287
14454.763
11840.142
9645.106
7814.4929
6297.7106
5048.9563
4027.2688
3196.4406
2524.8181
1985.018
1553.5882
1210.6343
939.43351
726.05079
558.97035
428.75076
327.70951
249.64023
189.5632
143.50894
108.33275
81.557881
61.244401
45.880589
34.293977
25.579315
19.040943
418845.42
394964.67
371220.75
347694.29
324472.15
301643.76
279300.59
257534.36
236434.87
216087.92
196573.19
177962.42
160317.6
143689.64
128117.24
113626.19
100229.05
87925.238
76701.522
66532.827
57383.394
49208.168
41954.369
35563.172
29971.422
25113.313
20921.973
17330.906
14275.246
11692.811
9524.9305
7717.0612
6219.1894
4986.0465
3977.1568
3156.7481
2493.5518
1960.5216
1534.4964
1195.8304
928.01111
717.27972
552.26643
423.64979
323.84507
246.72482
187.37268
141.86948
107.11032
80.64973
60.572183
45.384861
33.929754
25.312487
413990.41
390361.4
366868.26
343591.25
320616.73
298033.54
275932.46
254404.39
233538.28
213418.98
194125.24
175727.85
158287.92
141855.53
126468.65
112152.46
98919.017
86767.415
75684.22
65644.327
56612.089
48542.706
41383.782
35076.985
29559.747
24766.918
20632.337
17090.243
14076.521
11529.729
9391.9171
7609.2279
6132.2902
4916.4274
3921.7021
3112.8246
2458.9531
1933.4143
1513.3693
1179.4478
915.37024
707.57255
544.8466
418.00371
319.56733
243.49739
184.94749
140.0542
105.7566
79.643788
59.827282
44.835237
33.525703
25.016003
408626.89
385276.34
362060.58
339059.52
316358.95
294047.03
272213.76
250949.14
230341.13
210473.55
191424.11
173262.57
156049.05
139832.73
124650.77
110527.65
97474.932
85491.32
74563.183
64665.379
55762.398
47809.725
40755.392
34541.619
29106.489
24385.582
20313.52
16825.362
13857.819
11350.268
9245.5563
7490.5819
6036.6824
4839.8347
3860.6946
3064.5038
2420.8908
1903.5931
1490.1267
1161.4243
901.46252
696.89192
536.68211
411.7905
314.85949
239.9451
182.27794
138.05577
104.26604
78.53586
59.006478
44.229216
33.079994
402731.8
379687.7
356777.25
334079.93
311680.91
289667.61
268129.12
247154.44
226830.44
207239.8
188459.09
170556.91
153592.32
137613.48
122656.69
108745.69
95891.452
84092.293
73334.363
63592.494
54831.327
47006.671
40067.035
33955.25
28610.118
23968.029
19964.468
16535.393
13618.426
11153.848
9085.3767
7360.7425
5932.0607
4756.0245
3793.9402
3011.6321
2379.244
1870.9632
1464.6942
1141.7018
886.24308
685.20314
527.74624
404.98961
309.70582
236.05598
179.3549
135.86729
102.63345
77.321998
58.106697
43.564317
32.590422
396282.92
373574.54
350998.57
328634.06
306565.48
284879.38
263663.87
243006.83
222993.91
203706.55
185220.04
167601.74
150909.54
135190.51
120479.98
106800.9
94163.616
82566.017
71994.028
62422.459
53816.128
46131.207
39316.734
33316.215
28069.248
23513.106
19584.225
16219.551
13357.702
10939.946
8910.9555
7219.3692
5818.1518
4664.7785
3721.2653
2954.0722
2333.9042
1835.4394
1437.0054
1120.2287
869.67158
672.47495
518.01483
397.58244
304.092
231.81905
176.17003
133.48246
100.85408
75.998578
57.125099
42.838173
389259.29
366917.1
344705.99
322704.59
300996.55
279667.46
258804.32
238493.75
218820.1
199863.41
181697.61
164388.69
147993.25
132557.18
118114.79
104688.15
92286.955
80908.619
70538.84
61152.416
52714.369
45181.274
38502.757
32623.065
27482.669
23019.811
19171.968
15877.16
13075.096
10708.115
8721.9309
7066.1708
5694.7224
4565.9106
3642.5223
2891.707
2284.7792
1796.9491
1407.0033
1096.9602
851.71334
658.6804
507.46698
389.55278
298.00553
227.22469
172.71595
130.89568
98.92373
74.562469
56.059184
42.047653
381641.61
359697.19
337882.47
316275.65
294959.43
274018.32
253538.05
233603.9
214298.74
195701.13
177883.48
160910.32
144836.85
129707.7
115556.04
102403.02
90257.625
79116.788
68965.965
59779.954
51524.008
44155.155
37623.666
31874.604
26849.392
22487.332
18727.029
15507.677
12770.164
10457.997
8518.0157
6900.917
5561.5885
4459.2742
3557.5944
2824.444
2231.796
1755.4348
1374.6428
1071.8611
832.34059
643.79776
496.08571
380.88742
291.4361
222.26486
168.98645
128.10223
96.838915
73.011113
54.907259
41.193934
373412.73
351898.66
330512.91
309333.23
288441.21
267920.11
247854.28
228327.48
209421
191211.8
173770.62
157160.41
141434.87
126637.26
112799.55
99941.907
88072.544
77187.9
67273.182
58303.203
50243.484
43051.552
36678.389
31069.95
26168.696
21915.08
18248.933
15110.717
12442.599
10189.345
8299.0116
6723.4495
5418.624
4344.7691
3466.4023
2752.2205
2174.9047
1710.857
1339.8924
1044.9065
811.53382
627.81162
483.85883
371.57667
284.37601
216.93347
164.97672
125.09841
94.596964
71.342624
53.668004
40.276886
364558.22
343507.9
322584.63
301865.66
281431.22
261363.14
241744.23
222656.62
204179.89
186389.2
169353.55
153134.19
137783.17
123342.31
109842.29
97302.239
85729.556
75120.158
65459.005
56720.945
48871.803
41869.662
35666.282
30208.59
25440.175
21302.735
17737.428
14686.084
12092.248
9902.0399
8064.8254
6533.6957
5265.772
4222.3504
3368.9103
2675.008
2114.0827
1663.1975
1302.7377
1016.0846
789.28325
610.71395
470.77974
361.61508
276.82075
211.22671
160.68356
121.88166
92.196105
69.555796
52.339859
355066.93
334514.35
314087.89
293864.11
273921.52
254340.31
235201.61
216585.79
198570.55
181229.15
164628.71
148828.62
133879.23
119820.77
106682.58
94482.67
83227.6
72912.743
63522.818
55032.729
47408.648
40609.27
34587.209
29290.447
24663.793
20650.291
17192.527
14233.802
11719.138
9596.1111
7815.4863
6331.6818
5103.0551
4092.0371
3265.1338
2592.8184
2049.3388
1612.4628
1263.1828
985.39804
765.59039
592.50538
456.8484
351.00215
268.76945
205.14344
156.10562
118.45059
89.635586
67.650423
50.92004
344931.61
324911.03
305016.52
285323.2
265907.44
246847.62
228223.07
210112.2
192590.74
175729.91
159594.78
144242.78
129722.44
116072.32
103320.32
91483.279
80566.899
70565.985
61465.021
53238.998
45854.48
39270.839
33441.618
28315.943
23839.941
19958.101
16614.544
13754.144
11323.508
9271.7601
7551.1627
6117.5473
4930.5874
3953.9212
3155.1461
2505.7095
1980.718
1558.6872
1221.2539
952.86641
740.4697
573.19639
442.07228
339.74303
260.22549
198.68566
151.24367
114.80497
86.915727
334149.17
314695
295368.5
276241.61
257388.21
238884.79
220808.71
203236.34
186241.27
169892.53
154253.04
139378.14
125314.4
112098.63
99757.222
88305.801
77749.156
68081.528
59287.178
51341.218
44210.655
37855.607
32230.625
27286.073
22969.494
19226.929
16004.135
13247.672
10905.829
8929.3823
7272.1818
5891.56
4748.5861
3808.1771
3039.086
2413.7908
1908.3058
1501.9371
1177.002
918.52836
713.95026
552.80865
426.46735
327.84937
251.1972
191.85903
146.10096
110.94528
322719.77
303867.81
285146.82
266622.84
248367.64
230455.8
212962.68
195962.47
179526.47
163721.39
148607.84
134238.97
120659.26
107903.71
95997.128
84953.858
74777.764
65462.519
56992.182
49342.02
42479.543
36365.688
30956.101
26202.476
22053.875
18457.998
15362.346
12715.268
10466.84
8569.5898
6979.0473
5654.1309
4557.3836
3655.0716
2917.1657
2317.2296
1832.2332
1442.3141
1130.5052
882.44371
686.07743
531.37631
410.05913
315.34006
241.69846
184.67356
140.6841
106.87187
328909.19
310640.89
292437.82
274360.55
256476.01
238854.76
221569.6
204693.79
188299.2
172454.71
157224.58
142666.97
128832.69
115764.09
103494.21
92046.24
81433.203
71658.018
62713.792
54584.406
47245.334
40664.648
34804.178
29620.757
25067.507
21095.115
17653.042
14690.644
12158.165
10007.57
8193.2346
6672.4578
5405.8285
4357.4391
3494.9723
2789.6776
2216.2567
1752.6809
1379.9588
1081.872
844.69565
656.91457
508.94728
392.88362
302.24204
231.74936
177.14438
135.00538
102.60126
315510.48
297939.81
280422.83
263025.91
245816.67
228864.63
212240.75
196016.06
180260.02
165038.92
150414.4
136442.08
123170.3
110639.17
98879.709
87913.411
77751.964
68397.325
59842.048
52069.874
45056.528
38770.717
33175.245
28228.225
23884.307
20095.906
16814.353
13990.967
11577.987
9529.3691
7801.4287
6353.3241
5147.3929
4149.3492
3328.3573
2657.0015
2111.1718
1669.8839
1315.0539
1031.2439
805.3927
626.54447
485.58438
374.98823
288.59094
221.37668
169.29185
129.08095
98.145902
301492.99
284645.71
267848.42
251166.7
234667.54
218419.01
202490.1
186949.46
171863.93
157297.11
143307.88
129949.16
117266.74
105298.38
94073.02
83610.41
73920.872
65005.408
56856.04
49456.403
42782.538
36803.857
31484.23
26783.138
22656.866
19059.659
15944.826
13265.75
10976.77
9033.9259
7395.5642
6022.784
4879.7476
3933.8583
3155.8218
2519.6106
2002.3483
1584.1348
1247.8274
978.79713
764.67047
595.07078
461.36639
356.43253
274.43163
210.61416
161.1414
122.93008
93.519684
286888.15
270793.84
254748.38
238815.03
223059.19
207547.09
192345.46
177520.39
163135.97
149252.89
135927.18
123208.92
111141.27
99759.515
89090.497
79152.173
69953.49
61494.498
53766.722
46753.741
40431.978
34771.63
29737.718
25291.196
21390.078
17990.547
15047.994
12517.963
10356.99
8523.292
6977.328
5682.215
4604.0095
3711.8656
2978.0851
2378.076
1890.2371
1495.787
1178.5547
924.74487
722.69302
562.61907
436.38884
337.28887
259.81866
199.50277
152.72372
116.57553
88.739059
271739.92
256428.54
241165.63
226011.98
211030.82
196286.17
181842.25
167762.38
154107.72
140935.94
128300.04
116247.18
104817.76
94044.572
83952.274
74557.022
65866.383
57879.485
50587.389
43973.682
38015.238
32683.126
27943.611
23759.214
20089.784
16893.541
14128.053
11751.127
9721.5814
7999.8932
6548.7122
5333.2421
4321.495
3484.4305
2795.9941
2233.0705
1775.3686
1405.2567
1107.5599
869.33834
679.65383
529.33749
410.76462
317.64279
244.81653
188.09095
144.07495
110.04403
83.823477
256104.72
241604.88
227153.32
212808.36
198630.83
184682.22
171023.99
157716.5
144817.8
132382.4
120460.13
109095.16
98325.02
88179.975
78682.46
69846.823
61679.268
54178.031
47333.767
41130.135
35544.542
30549.015
26111.157
22195.156
18762.793
15774.421
13189.88
10969.325
9073.9393
7466.5346
6112.0184
4977.7409
4033.7224
3252.774
2610.5243
2085.3684
1658.3542
1313.023
1035.2167
812.86708
635.77602
495.39703
384.62407
297.59315
229.49986
176.43471
135.23689
103.36648
78.79557
240051.76
226389.58
212775.49
199265.37
185917.44
172790.41
159942.79
147431.79
135312.17
123635.15
112447.31
101789.69
91696.94
82196.724
73309.256
65047.084
57415.079
50410.633
44024.057
38239.16
33033.966
28381.553
24250.958
20608.132
17416.879
14639.778
12239.024
10177.196
8417.9177
6926.396
5669.8526
4617.8332
3742.4082
3018.2757
2422.7776
1935.8444
1539.8839
1219.6273
961.94713
755.65825
591.31184
460.99117
358.11478
277.25196
213.95323
164.59757
126.25698
96.578043
73.681229
223663.43
210861.66
198107.72
185455.02
172959
160675.42
148659.62
136965.47
125644.34
114744.01
104307.72
94373.327
84972.547
76130.43
67864.974
60186.956
53099.958
46600.591
40678.9
35318.926
30499.402
26194.549
22374.936
19008.364
16060.752
13496.981
11281.678
9379.9145
7757.8079
6383.0138
5225.1105
4255.8746
3449.4566
2782.4655
2233.9755
1785.468
1420.7224
1125.6693
888.21893
698.07471
546.54123
426.3347
331.40075
256.74381
198.27078
152.65032
117.18813
89.718053
68.509502
207035.42
195112.6
183237.3
171460.32
159834.18
148411.5
137244.29
126382.95
115875.31
105765.63
96093.736
86894.24
78195.915
70021.204
62385.917
55299.105
48763.128
42773.892
37321.261
32389.602
27958.451
24003.269
20496.241
17407.109
14703.982
12354.117
10324.631
8583.1394
7098.2992
5840.2484
4780.9498
3894.4322
3156.9414
2547.0084
2045.447
1635.2937
1301.7016
1031.8017
814.54135
640.51159
501.76916
391.66185
304.66093
236.20473
182.55544
140.67044
108.08836
82.829728
63.312427
190276.58
179246.29
168263.09
157375.08
146631.68
136082.23
125775.26
115757.57
106073.35
96763.254
87863.652
79405.911
71415.858
63913.361
56912.092
50419.445
44436.64
38958.969
33976.211
29473.157
25430.244
21824.263
18629.106
15816.527
13356.893
11219.892
9375.178
7792.947
6444.4195
5302.2346
4340.7497
3536.2507
2867.0786
2313.683
1858.6112
1486.4474
1183.71
938.72147
741.45833
583.39118
457.32184
357.22331
278.08706
215.78067
166.91775
128.74125
99.020185
75.959742
58.124704
173508.25
163378.3
153294.93
143303.32
133449.69
123779.93
114338.98
105169.95
96313.302
87806.06
79681.108
71966.583
64685.401
57854.917
51486.738
45586.694
40154.959
35186.322
30670.578
26593.046
22935.162
19675.132
16788.63
14249.492
12030.394
10103.492
8441.0075
7015.7301
5801.4523
4773.3122
3908.0537
3184.2061
2582.1891
2084.3513
1674.9536
1340.1075
1067.6772
847.15844
669.53967
527.15615
413.54145
323.28231
251.88068
195.62522
151.47423
116.95074
90.049754
69.157593
52.983223
156863.03
147634.78
138452.43
129358.12
120394.71
111604.54
103028.85
94706.984
86675.66
78968.252
71614.181
64638.397
58060.972
51896.833
46155.627
40841.728
35954.384
31487.99
27432.475
23773.789
20494.457
17574.186
14990.495
12719.349
10735.77
9014.4046
7530.044
6258.0695
5174.8298
4257.9385
3486.4977
2841.2476
2304.651
1860.9204
1495.9954
1197.4809
954.55585
757.86042
599.36965
472.26077
370.77947
290.10958
226.24934
175.89678
136.34525
105.38998
81.245679
62.474776
47.926462
140482.85
132150.51
123863.19
115659.85
107579.87
99661.96
91943.589
84460.314
77245.096
70327.689
63734.112
57486.202
51601.293
46091.998
40966.129
36226.736
31872.27
27896.859
24290.682
21040.421
18129.779
15540.031
13250.593
11239.594
9484.4137
7962.1873
6650.26
5526.5757
4570.0009
3760.5798
3079.7218
2510.325
2036.8422
1645.297
1323.257
1059.774
845.29831
671.57575
531.53337
419.16036
329.38868
257.97717
201.40197
156.75512
121.65245
94.151229
72.677643
55.96371
42.993729
124516.26
117066.32
109660.26
102333.76
95122.618
88061.859
81185.175
74524.33
68108.573
61964.108
56113.64
50576.018
45365.965
40493.927
35966.028
31784.144
27946.072
24445.803
21273.883
18417.824
15862.584
13591.06
11584.601
9823.508
8287.5098
6956.2052
5809.4521
4827.7026
3992.2786
3285.5854
2691.2672
2194.3065
1781.0735
1439.3332
1158.2159
928.15947
740.83093
589.03275
466.60091
368.29919
289.71377
227.15143
177.5435
138.3573
107.51575
83.325669
64.414721
49.676545
38.224234
109114.82
102525.59
95978.808
89506.758
83141.65
76914.788
70856.104
64993.625
59352.972
53956.908
48824.964
43973.148
39413.74
35155.189
31202.102
27555.342
24212.202
21166.674
18409.779
15929.95
13713.463
11744.874
10007.474
8483.7255
7155.674
6005.3275
5014.9891
4167.5396
3446.6678
2837.0475
2324.4628
1895.8863
1539.5148
1244.7683
1002.2595
803.73923
642.02493
510.91726
405.1099
320.09695
252.08107
197.88507
154.86891
120.85317
94.049879
73.000853
56.523493
43.663728
33.656093
94428.659
88670.015
82952.048
77303.608
71753.294
66328.733
61056.159
55959.963
51062.265
46382.545
41937.332
37739.982
33800.525
30125.605
26718.501
23579.235
20704.752
18089.174
15724.1
13598.963
11701.397
10017.637
8532.9025
7231.7785
6098.5662
5117.6033
4273.5428
3551.5882
2937.6827
2418.6519
1982.3036
1617.487
1314.1168
1063.1662
856.63631
687.50566
549.66599
437.84885
347.54704
274.93455
216.78757
170.40886
133.55686
104.38057
81.360841
63.258014
49.066007
37.972514
29.325171
80601.203
75634.59
70706.506
65842.381
61067.248
56405.133
51878.69
47508.824
43314.33
39311.598
35514.368
31933.562
28577.18
25450.272
22554.987
19890.684
17454.113
15239.645
13239.555
11444.326
9842.9799
8423.4175
7172.7499
6077.619
5124.4924
4299.9301
3590.8134
2984.5373
2469.1625
2033.5283
1667.3302
1361.1626
1106.5333
895.85332
722.40628
580.30277
464.42381
370.35709
294.32969
233.13982
184.08999
144.92315
113.76322
89.060419
69.542145
54.169243
42.097688
32.645382
25.263933
67763.291
63542.005
59356.722
55229.506
51181.926
47234.541
43406.594
39715.697
36177.54
32805.657
29611.245
26603.035
23787.236
21167.527
18745.129
16518.915
14485.582
12639.866
10974.785
9481.9103
8151.65
6973.5364
5936.505
5029.1612
4240.0229
3557.738
2971.2697
2470.0496
2044.0976
1684.1097
1381.515
1128.5066
918.04804
743.8608
600.39524
482.79016
386.82377
308.85938
245.78858
194.97415
154.19432
121.5899
95.615
74.992036
58.671255
45.794809
35.665288
27.718491
21.500276
56026.951
52496.78
48999.722
45554.592
42179.647
38892.169
35708.204
32642.311
29707.335
26914.222
24271.894
21787.155
19464.67
17306.98
15314.576
13486.012
11818.065
10305.924
8943.4035
7723.1733
6637.0002
5675.9854
4830.795
4091.877
3449.6577
2894.7146
2417.9236
2010.5781
1664.4812
1372.0116
1126.1654
920.57539
749.51338
607.87546
491.156
395.41226
317.22278
253.64195
202.15297
160.62087
127.24696
100.52576
79.20495
62.249006
48.806407
38.18068
29.805012
23.220287
18.056468
45479.242
42579.489
39709.64
36885.433
34122.024
31433.651
28833.425
26333.134
23943.062
21671.866
19526.475
17512.044
15631.945
13887.803
12279.57
10805.637
9462.9714
8247.2824
7153.2059
6174.4962
5304.2234
4534.9678
3859.0063
3268.4845
2755.572
2312.5977
1932.1625
1607.2311
1331.1999
1097.9457
901.85422
737.83234
601.30567
488.20446
394.94032
318.37618
255.79171
204.84607
163.53974
130.1767
103.32786
81.796698
64.587387
50.875913
39.984083
31.356602
24.541006
19.170299
14.948241
36176.747
33841.632
31532.973
29263.652
27045.982
24891.435
22810.487
20812.459
18905.393
17095.959
15389.391
13789.466
12298.511
10917.448
9645.8666
8482.1208
7423.4562
6466.1474
5605.6501
4836.7591
4153.7672
3550.6198
3021.0614
2558.7697
2157.4751
1811.0634
1513.6611
1259.7024
1043.9794
861.67575
708.38575
580.1206
473.30387
384.75818
311.68517
251.64065
202.50648
162.46075
129.94753
103.64696
82.446681
65.414906
51.775658
40.88629
32.21732
25.334711
19.884278
15.578297
12.184115
28141.308
26301.742
24485.045
22701.515
20960.913
19272.263
17643.726
16082.486
14594.666
13185.259
11858.096
10615.841
9460.0074
8391.0063
7408.2124
6510.0529
5694.1107
4957.24
4295.6884
3705.2232
3181.2557
2718.9611
2313.3909
1959.5743
1652.6078
1387.731
1160.3891
966.28105
801.39423
662.0277
544.80376
446.67028
364.89521
297.05459
241.01596
194.91821
157.14941
126.32353
101.25694
80.945456
64.542451
51.338309
40.741605
32.262043
25.495187
20.109026
15.832203
12.443863
9.7650453
21357.702
19943.339
18548.241
17180.428
15847.433
14556.163
13312.801
12122.73
10990.473
9919.6497
8912.9679
7972.2216
7098.3194
6291.3274
5550.5297
4874.5026
4261.199
3708.0408
3212.0151
2769.7717
2377.7176
2032.1074
1729.1273
1464.969
1235.8956
1038.2953
868.72598
723.94811
600.94878
496.95614
409.44612
336.14227
275.01004
224.24668
182.26775
147.69146
119.32155
96.129599
77.23732
61.899383
49.487054
39.472965
31.41717
24.954519
19.783396
15.655804
12.368673
9.7563792
15773.802
14715.259
13672.494
12651.568
11658.127
10697.298
9773.625
8891.0139
8052.6956
7261.2044
6518.374
5825.349
5182.6111
4590.0185
4046.8572
3551.901
3103.4781
2699.543
2337.7494
2015.5228
1730.1309
1478.7493
1258.5219
1066.6136
900.2567
756.78793
633.67891
528.55824
439.22678
363.66648
300.04364
246.7075
202.1849
165.17206
134.52411
109.2432
88.465741
71.449359
57.559942
46.259121
37.092428
29.678347
23.698219
18.88721
15.026234
11.934827
9.4649346
11303.588
10534.667
9778.273
9038.8404
8320.4623
7626.8185
6961.1338
6326.1434
5724.0705
5156.6173
4624.9678
4129.8024
3671.3219
3249.2817
2863.0323
2511.5667
2193.5709
1907.4777
1651.5197
1423.7823
1222.2534
1044.8703
889.56106
754.28106
637.0441
535.94747
449.19161
375.09426
312.09984
258.78439
213.85673
176.15647
144.64955
118.42173
96.670861
78.698115
63.898811
51.75308
41.816718
33.712355
27.121166
21.775179
17.450303
13.959978
11.14962
8.8916469
7832.99
7292.7037
6762.0345
6244.1085
5741.7834
5257.6026
4793.7674
4352.1168
3934.1166
3540.8569
3173.0592
2831.0899
2514.9822
2224.4624
1958.9817
1717.7514
1499.7798
1303.9105
1128.8605
973.25619
835.6681
714.64211
608.72738
516.50045
436.58526
367.66932
308.51588
257.97257
214.97678
178.5581
147.83835
122.0296
100.43058
82.421876
67.460354
55.072974
44.850448
36.440792
29.543084
23.901478
19.299572
15.555249
12.51596
10.054475
8.0651279
6.4604568
5228.1313
4862.3435
4503.6717
4154.2293
3815.9294
3490.455
3179.2433
2883.4746
2604.0682
2341.6843
2096.7311
1869.3775
1659.5701
1467.0533
1291.3927
1131.9998
988.15818
859.04961
743.77954
641.40144
550.93929
471.40795
401.83088
341.25536
288.7649
243.48902
204.61048
171.3702
143.07011
119.07417
98.80785
81.75644
67.462349
55.521723
45.580588
37.330701
30.505304
24.874881
20.243064
16.442706
13.332261
10.7924
8.7229844
7.0403207
5.6747216
4.5683988
3345.0529
3107.5674
2875.137
2649.124
2430.7477
2221.0675
2020.974
1831.1851
1652.2443
1484.5248
1328.2357
1183.4326
1050.0297
927.81452
816.46399
715.56129
624.61311
543.06669
470.32621
405.76821
348.75557
298.65011
254.82327
216.66523
183.59215
155.05182
130.52764
109.54126
91.653879
76.466549
63.619532
52.790945
43.694907
36.079253
29.722997
24.433697
20.044724
16.41261
13.414474
10.945576
8.9170712
7.2539144
5.8929936
4.7814252
3.8750623
3.1371804
2039.6951
1892.7103
1749.1548
1609.8584
1475.5549
1346.8731
1224.3327
1108.3429
999.203
897.1063
802.1452
714.31871
633.54112
559.65178
492.42551
431.58341
376.8037
327.73213
283.992
245.19332
210.9411
180.84256
154.51335
131.58254
111.69673
94.522967
79.750843
67.093767
56.289474
47.099967
39.310955
32.730902
27.189807
22.537748
18.643338
15.392101
12.684833
10.436031
8.5723431
7.0311449
5.7592013
4.7114394
3.8498506
3.1424938
2.5626191
2.0879011
1176.8296
1090.7637
1006.9004
925.71271
847.61348
772.95095
702.00729
634.99842
572.07546
513.32753
458.78571
408.42798
362.18475
319.94499
281.56255
246.86262
215.64802
187.70525
162.81018
140.73313
121.24346
104.11347
89.121685
76.05552
64.713304
54.905774
46.45704
39.205131
33.002117
27.713974
23.220165
19.413013
16.196967
13.487742
11.211438
9.3036021
7.7082976
6.3772423
5.268925
4.3478294
3.5836729
2.9507478
2.4273052
1.994997
1.6384059
1.3446071
636.86956
589.65777
543.76819
499.45031
456.91865
416.35104
377.88812
341.63386
307.65676
275.99186
246.64326
219.58712
194.77494
172.13701
151.58598
133.02041
116.32817
101.38969
88.080891
76.27583
65.84907
56.677586
48.642414
41.629902
35.532664
30.250277
25.689639
21.765209
18.398973
15.520322
13.065775
10.978627
9.2085279
7.7110325
6.447115
5.3826694
4.4880551
3.737602
3.1091949
2.5838446
2.1453005
1.7797264
1.4753577
1.2222293
1.0119302
0.83737745
320.00191
296.03818
272.80265
250.41547
228.97836
208.57401
189.26608
171.09963
154.10205
138.28424
123.64206
110.15795
97.802633
86.536948
76.31364
67.079122
58.775167
51.340464
44.712057
38.826583
33.621356
29.035254
25.009467
21.488029
18.418232
15.750899
13.440537
11.445375
9.7273556
8.2520206
6.9883807
5.9087177
4.9883823
4.205573
3.5410979
2.9781353
2.5020227
2.1000074
1.7610651
1.4756917
1.2357108
1.0341253
0.86495751
0.72311998
0.60428406
0.50479562
147.69495
136.6039
125.87144
115.54994
105.68309
96.305719
87.443882
79.115192
71.329334
64.08869
57.38906
51.22042
45.567718
40.411719
35.729798
31.496741
27.685484
24.267824
21.214996
18.498242
16.089246
13.960524
12.085705
10.439764
8.9991753
7.7420027
6.6479662
5.6984355
4.8764262
4.166523
3.5548467
3.0289321
2.577669
2.1911948
1.8607809
1.5787558
1.3383854
1.1337945
0.95987004
0.81217681
0.68687776
0.58066854
0.49070471
0.41454461
0.35010356
62.068946
57.458908
53.001624
48.717772
44.624441